 Entering Gaussian System, Link 0=g09
 Initial command:
 /prod/apps/gaussian/g09d1/l1.exe "/tmp/ubafar01/1448587/Gau-8179.inp" -scrdir="/tmp/ubafar01/1448587/"
 Entering Link 1 = /prod/apps/gaussian/g09d1/l1.exe PID=      8180.
  
 Copyright (c) 1988,1990,1992,1993,1995,1998,2003,2009,2013,
            Gaussian, Inc.  All Rights Reserved.
  
 This is part of the Gaussian(R) 09 program.  It is based on
 the Gaussian(R) 03 system (copyright 2003, Gaussian, Inc.),
 the Gaussian(R) 98 system (copyright 1998, Gaussian, Inc.),
 the Gaussian(R) 94 system (copyright 1995, Gaussian, Inc.),
 the Gaussian 92(TM) system (copyright 1992, Gaussian, Inc.),
 the Gaussian 90(TM) system (copyright 1990, Gaussian, Inc.),
 the Gaussian 88(TM) system (copyright 1988, Gaussian, Inc.),
 the Gaussian 86(TM) system (copyright 1986, Carnegie Mellon
 University), and the Gaussian 82(TM) system (copyright 1983,
 Carnegie Mellon University). Gaussian is a federally registered
 trademark of Gaussian, Inc.
  
 This software contains proprietary and confidential information,
 including trade secrets, belonging to Gaussian, Inc.
  
 This software is provided under written license and may be
 used, copied, transmitted, or stored only in accord with that
 written license.
  
 The following legend is applicable only to US Government
 contracts under FAR:
  
                    RESTRICTED RIGHTS LEGEND
  
 Use, reproduction and disclosure by the US Government is
 subject to restrictions as set forth in subparagraphs (a)
 and (c) of the Commercial Computer Software - Restricted
 Rights clause in FAR 52.227-19.
  
 Gaussian, Inc.
 340 Quinnipiac St., Bldg. 40, Wallingford CT 06492
  
  
 ---------------------------------------------------------------
 Warning -- This program may not be used in any manner that
 competes with the business of Gaussian, Inc. or will provide
 assistance to any competitor of Gaussian, Inc.  The licensee
 of this program is prohibited from giving any competitor of
 Gaussian, Inc. access to this program.  By using this program,
 the user acknowledges that Gaussian, Inc. is engaged in the
 business of creating and licensing software in the field of
 computational chemistry and represents and warrants to the
 licensee that it is not a competitor of Gaussian, Inc. and that
 it will not use this program in any manner prohibited above.
 ---------------------------------------------------------------
  

 Cite this work as:
 Gaussian 09, Revision D.01,
 M. J. Frisch, G. W. Trucks, H. B. Schlegel, G. E. Scuseria, 
 M. A. Robb, J. R. Cheeseman, G. Scalmani, V. Barone, B. Mennucci, 
 G. A. Petersson, H. Nakatsuji, M. Caricato, X. Li, H. P. Hratchian, 
 A. F. Izmaylov, J. Bloino, G. Zheng, J. L. Sonnenberg, M. Hada, 
 M. Ehara, K. Toyota, R. Fukuda, J. Hasegawa, M. Ishida, T. Nakajima, 
 Y. Honda, O. Kitao, H. Nakai, T. Vreven, J. A. Montgomery, Jr., 
 J. E. Peralta, F. Ogliaro, M. Bearpark, J. J. Heyd, E. Brothers, 
 K. N. Kudin, V. N. Staroverov, T. Keith, R. Kobayashi, J. Normand, 
 K. Raghavachari, A. Rendell, J. C. Burant, S. S. Iyengar, J. Tomasi, 
 M. Cossi, N. Rega, J. M. Millam, M. Klene, J. E. Knox, J. B. Cross, 
 V. Bakken, C. Adamo, J. Jaramillo, R. Gomperts, R. E. Stratmann, 
 O. Yazyev, A. J. Austin, R. Cammi, C. Pomelli, J. W. Ochterski, 
 R. L. Martin, K. Morokuma, V. G. Zakrzewski, G. A. Voth, 
 P. Salvador, J. J. Dannenberg, S. Dapprich, A. D. Daniels, 
 O. Farkas, J. B. Foresman, J. V. Ortiz, J. Cioslowski, 
 and D. J. Fox, Gaussian, Inc., Wallingford CT, 2013.
 
 ******************************************
 Gaussian 09:  AM64L-G09RevD.01 24-Apr-2013
                 6-Aug-2020 
 ******************************************
 %nproc=1
 Will use up to    1 processors via shared memory.
 %Chk=SM41.n.5.pdb.xyz.mst.n.w.chk
 -----------------
 #p b3lyp/6-31G(d)
 -----------------
 1/38=1/1;
 2/12=2,17=6,18=5,40=1/2;
 3/5=1,6=6,7=1,11=2,16=1,25=1,30=1,74=-5/1,2,3;
 4//1;
 5/5=2,38=5/2;
 6/7=2,8=2,9=2,10=2,28=1/1;
 99/5=1,9=1/99;
 Leave Link    1 at Thu Aug  6 21:56:17 2020, MaxMem=           0 cpu:         0.0
 (Enter /prod/apps/gaussian/g09d1/l101.exe)
 ----------------
 SM41.n.5.pdb.xyz
 ----------------
 Symbolic Z-matrix:
 Charge =  0 Multiplicity = 1
 O                     2.064     0.236     3.917 
 S                     2.962     0.        2.779 
 N                     2.524     0.953     1.448 
 C                     2.093     2.271     1.556 
 N                     2.475     3.044     2.556 
 O                     1.882     4.288     2.289 
 C                     1.176     4.217     1.135 
 C                     0.488     5.425     0.693 
 C                    -0.276     5.404    -0.485 
 C                    -0.935     6.554    -0.911 
 C                    -0.839     7.734    -0.169 
 C                    -0.081     7.76      1.004 
 C                     0.581     6.613     1.435 
 C                     1.271     2.955     0.621 
 C                     4.579     0.637     3.189 
 O                     3.066    -1.354     2.223 
 H                     2.087     0.395     0.715 
 H                    -0.353     4.49     -1.062 
 H                    -1.523     6.529    -1.822 
 H                    -1.354     8.629    -0.503 
 H                    -0.004     8.674     1.583 
 H                     1.17      6.629     2.344 
 H                     0.83      2.56     -0.279 
 H                     4.475     1.702     3.394 
 H                     5.245     0.459     2.346 
 H                     4.919     0.101     4.076 
 
 NAtoms=     26 NQM=       26 NQMF=       0 NMMI=      0 NMMIF=      0
                NMic=       0 NMicF=      0.
                    Isotopes and Nuclear Properties:
 (Nuclear quadrupole moments (NQMom) in fm**2, nuclear magnetic moments (NMagM)
  in nuclear magnetons)

  Atom         1           2           3           4           5           6           7           8           9          10
 IAtWgt=          16          32          14          12          14          16          12          12          12          12
 AtmWgt=  15.9949146  31.9720718  14.0030740  12.0000000  14.0030740  15.9949146  12.0000000  12.0000000  12.0000000  12.0000000
 NucSpn=           0           0           2           0           2           0           0           0           0           0
 AtZEff=   0.0000000   0.0000000   0.0000000   0.0000000   0.0000000   0.0000000   0.0000000   0.0000000   0.0000000   0.0000000
 NQMom=    0.0000000   0.0000000   2.0440000   0.0000000   2.0440000   0.0000000   0.0000000   0.0000000   0.0000000   0.0000000
 NMagM=    0.0000000   0.0000000   0.4037610   0.0000000   0.4037610   0.0000000   0.0000000   0.0000000   0.0000000   0.0000000
 AtZNuc=   8.0000000  16.0000000   7.0000000   6.0000000   7.0000000   8.0000000   6.0000000   6.0000000   6.0000000   6.0000000

  Atom        11          12          13          14          15          16          17          18          19          20
 IAtWgt=          12          12          12          12          12          16           1           1           1           1
 AtmWgt=  12.0000000  12.0000000  12.0000000  12.0000000  12.0000000  15.9949146   1.0078250   1.0078250   1.0078250   1.0078250
 NucSpn=           0           0           0           0           0           0           1           1           1           1
 AtZEff=   0.0000000   0.0000000   0.0000000   0.0000000   0.0000000   0.0000000   0.0000000   0.0000000   0.0000000   0.0000000
 NQMom=    0.0000000   0.0000000   0.0000000   0.0000000   0.0000000   0.0000000   0.0000000   0.0000000   0.0000000   0.0000000
 NMagM=    0.0000000   0.0000000   0.0000000   0.0000000   0.0000000   0.0000000   2.7928460   2.7928460   2.7928460   2.7928460
 AtZNuc=   6.0000000   6.0000000   6.0000000   6.0000000   6.0000000   8.0000000   1.0000000   1.0000000   1.0000000   1.0000000

  Atom        21          22          23          24          25          26
 IAtWgt=           1           1           1           1           1           1
 AtmWgt=   1.0078250   1.0078250   1.0078250   1.0078250   1.0078250   1.0078250
 NucSpn=           1           1           1           1           1           1
 AtZEff=   0.0000000   0.0000000   0.0000000   0.0000000   0.0000000   0.0000000
 NQMom=    0.0000000   0.0000000   0.0000000   0.0000000   0.0000000   0.0000000
 NMagM=    2.7928460   2.7928460   2.7928460   2.7928460   2.7928460   2.7928460
 AtZNuc=   1.0000000   1.0000000   1.0000000   1.0000000   1.0000000   1.0000000
 Leave Link  101 at Thu Aug  6 21:56:17 2020, MaxMem=    33554432 cpu:         0.1
 (Enter /prod/apps/gaussian/g09d1/l202.exe)
                          Input orientation:                          
 ---------------------------------------------------------------------
 Center     Atomic      Atomic             Coordinates (Angstroms)
 Number     Number       Type             X           Y           Z
 ---------------------------------------------------------------------
      1          8           0        2.064000    0.236000    3.917000
      2         16           0        2.962000    0.000000    2.779000
      3          7           0        2.524000    0.953000    1.448000
      4          6           0        2.093000    2.271000    1.556000
      5          7           0        2.475000    3.044000    2.556000
      6          8           0        1.882000    4.288000    2.289000
      7          6           0        1.176000    4.217000    1.135000
      8          6           0        0.488000    5.425000    0.693000
      9          6           0       -0.276000    5.404000   -0.485000
     10          6           0       -0.935000    6.554000   -0.911000
     11          6           0       -0.839000    7.734000   -0.169000
     12          6           0       -0.081000    7.760000    1.004000
     13          6           0        0.581000    6.613000    1.435000
     14          6           0        1.271000    2.955000    0.621000
     15          6           0        4.579000    0.637000    3.189000
     16          8           0        3.066000   -1.354000    2.223000
     17          1           0        2.087000    0.395000    0.715000
     18          1           0       -0.353000    4.490000   -1.062000
     19          1           0       -1.523000    6.529000   -1.822000
     20          1           0       -1.354000    8.629000   -0.503000
     21          1           0       -0.004000    8.674000    1.583000
     22          1           0        1.170000    6.629000    2.344000
     23          1           0        0.830000    2.560000   -0.279000
     24          1           0        4.475000    1.702000    3.394000
     25          1           0        5.245000    0.459000    2.346000
     26          1           0        4.919000    0.101000    4.076000
 ---------------------------------------------------------------------
                    Distance matrix (angstroms):
                    1          2          3          4          5
     1  O    0.000000
     2  S    1.468722   0.000000
     3  N    2.611829   1.694584   0.000000
     4  C    3.117112   2.721825   1.390881   0.000000
     5  N    3.147397   3.090766   2.366928   1.320399   0.000000
     6  O    4.370608   4.448982   3.498810   2.156409   1.403736
     7  C    4.937249   4.865760   3.545246   2.192042   2.254456
     8  C    6.309015   6.316858   4.971328   3.642597   3.617748
     9  C    7.180629   7.095178   5.602490   4.426458   4.731309
    10  C    8.498277   8.470987   6.992908   5.796461   5.997357
    11  C    9.019025   9.107857   7.739924   6.435574   6.356439
    12  C    8.348483   8.522211   7.301946   5.929595   5.584129
    13  C    7.001838   7.155925   5.984231   4.599320   4.193046
    14  C    4.345737   4.030939   2.502387   1.420481   2.280737
    15  C    2.648775   1.785653   2.711819   3.393647   3.259011
    16  O    2.530166   1.467402   2.493319   3.812118   4.450008
    17  H    3.206028   2.276345   1.019619   2.055892   3.249158
    18  H    6.980605   6.775146   5.204575   4.214357   4.814398
    19  H    9.241458   9.160364   7.626460   6.528162   6.877217
    20  H   10.082736  10.191125   8.818518   7.519671   7.430407
    21  H    8.995778   9.244774   8.125445   6.737696   6.228087
    22  H    6.644096   6.880707   5.903652   4.523830   3.821020
    23  H    4.952792   4.522211   2.904241   2.246311   3.313232
    24  H    2.869775   2.358855   2.855577   3.062014   2.550139
    25  H    3.554790   2.368599   2.907625   3.720557   3.794631
    26  H    2.862609   2.349949   3.656270   4.364124   4.116404
                    6          7          8          9         10
     6  O    0.000000
     7  C    1.354693   0.000000
     8  C    2.404833   1.458757   0.000000
     9  C    3.687478   2.478240   1.404215   0.000000
    10  C    4.828068   3.755530   2.423301   1.392213   0.000000
    11  C    5.031950   4.257926   2.799188   2.417793   1.397204
    12  C    4.190391   3.761656   2.423367   2.793901   2.418879
    13  C    2.797774   2.486934   1.403765   2.425393   2.793824
    14  C    2.220908   1.365967   2.592137   3.100653   4.490686
    15  C    4.627484   5.349367   6.774307   7.732632   9.067805
    16  O    5.765273   5.982632   7.412275   8.010792   9.400342
    17  H    4.204159   3.951456   5.278085   5.666908   7.050506
    18  H    4.033017   2.690572   2.159058   1.083630   2.149796
    19  H    5.789337   4.623180   3.404139   2.146673   1.084569
    20  H    6.091900   5.343191   3.884456   3.400446   2.155841
    21  H    4.826223   4.632273   3.404433   3.878596   3.403116
    22  H    2.447499   2.698048   2.154191   3.405111   3.877070
    23  H    3.269145   2.205620   3.044663   3.058432   4.412107
    24  H    3.825189   4.723527   6.087060   7.164038   8.446480
    25  H    5.096495   5.669731   7.072667   7.934042   9.270894
    26  H    5.472450   6.292931   7.708659   8.712781  10.038959
                   11         12         13         14         15
    11  C    0.000000
    12  C    1.396843   0.000000
    13  C    2.417821   1.392700   0.000000
    14  C    5.283469   5.006258   3.810467   0.000000
    15  C    9.539303   8.787887   7.400885   4.786503   0.000000
    16  O   10.176563   9.718774   8.382676   4.935171   2.680747
    17  H    7.950085   7.682901   6.438164   2.688548   3.519844
    18  H    3.399585   3.877530   3.408004   2.797515   7.565794
    19  H    2.156917   3.403087   3.878392   5.152491   9.851913
    20  H    1.085268   2.155630   3.400636   6.352029  10.616187
    21  H    2.156462   1.084696   2.147522   5.937847   9.390234
    22  H    3.401805   2.154011   1.083263   4.059212   6.945457
    23  H    5.437641   5.432864   4.407562   1.077268   5.457101
    24  H    8.793099   7.947868   6.566494   4.418728   1.089526
    25  H    9.811519   9.136293   7.775251   4.999832   1.088985
    26  H   10.461227   9.648703   8.258285   5.778429   1.090718
                   16         17         18         19         20
    16  O    0.000000
    17  H    2.508287   0.000000
    18  H    7.525498   5.087274   0.000000
    19  H    9.978108   7.556085   2.470632   0.000000
    20  H   11.252900   9.006817   4.294858   2.485623   0.000000
    21  H   10.506916   8.582980   4.962226   4.301443   2.485140
    22  H    8.205958   6.508248   4.300661   4.961633   4.298370
    23  H    5.155492   2.693568   2.395303   4.865225   6.453898
    24  H    3.563097   3.819402   7.137119   9.299602   9.856327
    25  H    2.837277   3.554887   7.694220  10.001147  10.881751
    26  H    2.997373   4.404881   8.570668  10.844582  11.534494
                   21         22         23         24         25
    21  H    0.000000
    22  H    2.477786   0.000000
    23  H    6.445432   4.853091   0.000000
    24  H    8.482331   6.025019   5.245295   0.000000
    25  H    9.778568   7.394223   5.549509   1.798959   0.000000
    26  H   10.195455   7.724611   6.460079   1.795957   1.796480
                   26
    26  H    0.000000
 Stoichiometry    C10H10N2O3S
 Framework group  C1[X(C10H10N2O3S)]
 Deg. of freedom    72
 Full point group                 C1      NOp   1
 Largest Abelian subgroup         C1      NOp   1
 Largest concise Abelian subgroup C1      NOp   1
                         Standard orientation:                         
 ---------------------------------------------------------------------
 Center     Atomic      Atomic             Coordinates (Angstroms)
 Number     Number       Type             X           Y           Z
 ---------------------------------------------------------------------
      1          8           0       -3.393490   -0.500509    1.506304
      2         16           0       -3.609831    0.126976    0.196112
      3          7           0       -2.189048    0.852693   -0.375136
      4          6           0       -0.925980    0.289478   -0.226817
      5          7           0       -0.757585   -1.016865   -0.134273
      6          8           0        0.632783   -1.189851   -0.048093
      7          6           0        1.245518    0.017126   -0.102452
      8          6           0        2.702331    0.034827   -0.029292
      9          6           0        3.389800    1.258866   -0.059906
     10          6           0        4.780069    1.281358    0.010110
     11          6           0        5.497536    0.086660    0.110702
     12          6           0        4.818463   -1.133595    0.142412
     13          6           0        3.427840   -1.162631    0.072148
     14          6           0        0.303850    1.000212   -0.215016
     15          6           0       -3.893470   -1.158672   -1.010212
     16          8           0       -4.619574    1.184366    0.071154
     17          1           0       -2.238212    1.869504   -0.317699
     18          1           0        2.835923    2.187058   -0.136941
     19          1           0        5.303106    2.231166   -0.014130
     20          1           0        6.581228    0.106915    0.165549
     21          1           0        5.371697   -2.063322    0.220555
     22          1           0        2.897414   -2.106837    0.096246
     23          1           0        0.447910    2.065883   -0.279034
     24          1           0       -3.014991   -1.803020   -1.022690
     25          1           0       -4.056751   -0.692587   -1.980776
     26          1           0       -4.777083   -1.710999   -0.687988
 ---------------------------------------------------------------------
 Rotational constants (GHZ):      1.8968578      0.1838695      0.1745063
 Leave Link  202 at Thu Aug  6 21:56:17 2020, MaxMem=    33554432 cpu:         0.0
 (Enter /prod/apps/gaussian/g09d1/l301.exe)
 Standard basis: 6-31G(d) (6D, 7F)
 Ernie: Thresh=  0.10000D-02 Tol=  0.10000D-05 Strict=F.
 There are   264 symmetry adapted cartesian basis functions of A   symmetry.
 There are   264 symmetry adapted basis functions of A   symmetry.
   264 basis functions,   512 primitive gaussians,   264 cartesian basis functions
    62 alpha electrons       62 beta electrons
       nuclear repulsion energy      1171.3010648749 Hartrees.
 IExCor=  402 DFT=T Ex+Corr=B3LYP ExCW=0 ScaHFX=  0.200000
 ScaDFX=  0.800000  0.720000  1.000000  0.810000 ScalE2=  1.000000  1.000000
 IRadAn=      0 IRanWt=     -1 IRanGd=            0 ICorTp=0 IEmpDi=  4
 NAtoms=   26 NActive=   26 NUniq=   26 SFac= 1.00D+00 NAtFMM=   60 NAOKFM=F Big=F
 Integral buffers will be    131072 words long.
 Raffenetti 2 integral format.
 Two-electron integral symmetry is turned on.
 Leave Link  301 at Thu Aug  6 21:56:17 2020, MaxMem=    33554432 cpu:         0.0
 (Enter /prod/apps/gaussian/g09d1/l302.exe)
 NPDir=0 NMtPBC=     1 NCelOv=     1 NCel=       1 NClECP=     1 NCelD=      1
         NCelK=      1 NCelE2=     1 NClLst=     1 CellRange=     0.0.
 One-electron integrals computed using PRISM.
 NBasis=   264 RedAO= T EigKep=  4.58D-04  NBF=   264
 NBsUse=   264 1.00D-06 EigRej= -1.00D+00 NBFU=   264
 Precomputing XC quadrature grid using
 IXCGrd= 4 IRadAn=           0 IRanWt=          -1 IRanGd=           0 AccXCQ= 0.00D+00.
 Generated NRdTot=       0 NPtTot=           0 NUsed=           0 NTot=          32
 NSgBfM=   261   261   261   261   261 MxSgAt=    26 MxSgA2=    26.
 Leave Link  302 at Thu Aug  6 21:56:18 2020, MaxMem=    33554432 cpu:         0.7
 (Enter /prod/apps/gaussian/g09d1/l303.exe)
 DipDrv:  MaxL=1.
 Leave Link  303 at Thu Aug  6 21:56:18 2020, MaxMem=    33554432 cpu:         0.0
 (Enter /prod/apps/gaussian/g09d1/l401.exe)
 ExpMin= 1.17D-01 ExpMax= 2.19D+04 ExpMxC= 3.30D+03 IAcc=1 IRadAn=         1 AccDes= 0.00D+00
 Harris functional with IExCor=  402 and IRadAn=       1 diagonalized for initial guess.
 HarFok:  IExCor=  402 AccDes= 0.00D+00 IRadAn=         1 IDoV= 1 UseB2=F ITyADJ=14
 ICtDFT=  3500011 ScaDFX=  1.000000  1.000000  1.000000  1.000000
 FoFCou: FMM=F IPFlag=           0 FMFlag=      100000 FMFlg1=           0
         NFxFlg=           0 DoJE=T BraDBF=F KetDBF=T FulRan=T
         wScrn=  0.000000 ICntrl=     500 IOpCl=  0 I1Cent=   200000004 NGrid=           0
         NMat0=    1 NMatS0=      1 NMatT0=    0 NMatD0=    1 NMtDS0=    0 NMtDT0=    0
 Petite list used in FoFCou.
 Harris En= -1120.38182526162    
 JPrj=0 DoOrth=F DoCkMO=F.
 Leave Link  401 at Thu Aug  6 21:56:20 2020, MaxMem=    33554432 cpu:         2.0
 (Enter /prod/apps/gaussian/g09d1/l502.exe)
 Closed shell SCF:
 Using DIIS extrapolation, IDIIS=  1040.
 Integral symmetry usage will be decided dynamically.
 IVT=      231207 IEndB=      231207 NGot=    33554432 MDV=    33409826
 LenX=    33409826 LenY=    33339689
 Requested convergence on RMS density matrix=1.00D-08 within 128 cycles.
 Requested convergence on MAX density matrix=1.00D-06.
 Requested convergence on             energy=1.00D-06.
 No special actions if energy rises.
 Fock matrices will be formed incrementally for  20 cycles.
 Integral accuracy reduced to 1.0D-05 until final iterations.

 Cycle   1  Pass 0  IDiag  1:
 FoFJK:  IHMeth= 1 ICntrl=       0 DoSepK=F KAlg= 0 I1Cent=   0 FoldK=F
 IRaf= 740000000 NMat=   1 IRICut=       1 DoRegI=T DoRafI=F ISym2E= 0.
 FoFCou: FMM=F IPFlag=           0 FMFlag=      100000 FMFlg1=           0
         NFxFlg=           0 DoJE=F BraDBF=F KetDBF=F FulRan=T
         wScrn=  0.000000 ICntrl=       0 IOpCl=  0 I1Cent=           0 NGrid=           0
         NMat0=    1 NMatS0=      1 NMatT0=    0 NMatD0=    1 NMtDS0=    0 NMtDT0=    0
 Symmetry not used in FoFCou.
 E= -1119.83481131373    
 DIIS: error= 3.77D-02 at cycle   1 NSaved=   1.
 NSaved= 1 IEnMin= 1 EnMin= -1119.83481131373     IErMin= 1 ErrMin= 3.77D-02
 ErrMax= 3.77D-02  0.00D+00 EMaxC= 1.00D-01 BMatC= 5.79D-01 BMatP= 5.79D-01
 IDIUse=3 WtCom= 6.23D-01 WtEn= 3.77D-01
 Coeff-Com:  0.100D+01
 Coeff-En:   0.100D+01
 Coeff:      0.100D+01
 Gap=     0.278 Goal=   None    Shift=    0.000
 GapD=    0.278 DampG=1.000 DampE=0.500 DampFc=0.5000 IDamp=-1.
 Damping current iteration by 5.00D-01
 RMSDP=7.43D-03 MaxDP=5.85D-01              OVMax= 2.48D-01

 Cycle   2  Pass 0  IDiag  1:
 RMSU=  3.71D-03    CP:  9.92D-01
 E= -1119.94897631952     Delta-E=       -0.114165005786 Rises=F Damp=T
 DIIS: error= 1.80D-02 at cycle   2 NSaved=   2.
 NSaved= 2 IEnMin= 2 EnMin= -1119.94897631952     IErMin= 2 ErrMin= 1.80D-02
 ErrMax= 1.80D-02  0.00D+00 EMaxC= 1.00D-01 BMatC= 9.83D-02 BMatP= 5.79D-01
 IDIUse=3 WtCom= 8.20D-01 WtEn= 1.80D-01
 Coeff-Com:  0.238D+00 0.762D+00
 Coeff-En:   0.380D+00 0.620D+00
 Coeff:      0.264D+00 0.736D+00
 Gap=     0.209 Goal=   None    Shift=    0.000
 RMSDP=2.26D-03 MaxDP=1.27D-01 DE=-1.14D-01 OVMax= 2.10D-01

 Cycle   3  Pass 0  IDiag  1:
 RMSU=  1.85D-03    CP:  9.80D-01  6.57D-01
 E= -1120.28611729966     Delta-E=       -0.337140980144 Rises=F Damp=F
 DIIS: error= 1.10D-02 at cycle   3 NSaved=   3.
 NSaved= 3 IEnMin= 3 EnMin= -1120.28611729966     IErMin= 3 ErrMin= 1.10D-02
 ErrMax= 1.10D-02  0.00D+00 EMaxC= 1.00D-01 BMatC= 5.58D-02 BMatP= 9.83D-02
 IDIUse=3 WtCom= 8.90D-01 WtEn= 1.10D-01
 Coeff-Com:  0.832D-01 0.428D+00 0.489D+00
 Coeff-En:   0.000D+00 0.000D+00 0.100D+01
 Coeff:      0.741D-01 0.381D+00 0.545D+00
 Gap=     0.185 Goal=   None    Shift=    0.000
 RMSDP=1.22D-03 MaxDP=4.31D-02 DE=-3.37D-01 OVMax= 5.28D-02

 Cycle   4  Pass 0  IDiag  1:
 RMSU=  7.76D-04    CP:  9.86D-01  7.43D-01  5.24D-01
 E= -1120.32852265256     Delta-E=       -0.042405352900 Rises=F Damp=F
 DIIS: error= 3.58D-03 at cycle   4 NSaved=   4.
 NSaved= 4 IEnMin= 4 EnMin= -1120.32852265256     IErMin= 4 ErrMin= 3.58D-03
 ErrMax= 3.58D-03  0.00D+00 EMaxC= 1.00D-01 BMatC= 8.56D-03 BMatP= 5.58D-02
 IDIUse=3 WtCom= 9.64D-01 WtEn= 3.58D-02
 Coeff-Com:  0.101D-01 0.927D-01 0.298D+00 0.599D+00
 Coeff-En:   0.000D+00 0.000D+00 0.121D+00 0.879D+00
 Coeff:      0.971D-02 0.894D-01 0.292D+00 0.609D+00
 Gap=     0.182 Goal=   None    Shift=    0.000
 RMSDP=4.13D-04 MaxDP=1.76D-02 DE=-4.24D-02 OVMax= 2.28D-02

 Cycle   5  Pass 0  IDiag  1:
 RMSU=  2.55D-04    CP:  9.85D-01  7.26D-01  6.25D-01  6.67D-01
 E= -1120.33457402154     Delta-E=       -0.006051368976 Rises=F Damp=F
 DIIS: error= 1.49D-03 at cycle   5 NSaved=   5.
 NSaved= 5 IEnMin= 5 EnMin= -1120.33457402154     IErMin= 5 ErrMin= 1.49D-03
 ErrMax= 1.49D-03  0.00D+00 EMaxC= 1.00D-01 BMatC= 1.30D-03 BMatP= 8.56D-03
 IDIUse=3 WtCom= 9.85D-01 WtEn= 1.49D-02
 Coeff-Com: -0.634D-03 0.238D-01 0.143D+00 0.388D+00 0.445D+00
 Coeff-En:   0.000D+00 0.000D+00 0.000D+00 0.945D-01 0.905D+00
 Coeff:     -0.624D-03 0.235D-01 0.141D+00 0.384D+00 0.452D+00
 Gap=     0.182 Goal=   None    Shift=    0.000
 RMSDP=1.73D-04 MaxDP=7.03D-03 DE=-6.05D-03 OVMax= 1.19D-02

 Cycle   6  Pass 0  IDiag  1:
 RMSU=  8.54D-05    CP:  9.85D-01  7.30D-01  6.28D-01  7.11D-01  4.28D-01
 E= -1120.33560047768     Delta-E=       -0.001026456143 Rises=F Damp=F
 DIIS: error= 5.80D-04 at cycle   6 NSaved=   6.
 NSaved= 6 IEnMin= 6 EnMin= -1120.33560047768     IErMin= 6 ErrMin= 5.80D-04
 ErrMax= 5.80D-04  0.00D+00 EMaxC= 1.00D-01 BMatC= 1.43D-04 BMatP= 1.30D-03
 IDIUse=3 WtCom= 9.94D-01 WtEn= 5.80D-03
 Coeff-Com: -0.152D-02 0.414D-02 0.484D-01 0.154D+00 0.287D+00 0.508D+00
 Coeff-En:   0.000D+00 0.000D+00 0.000D+00 0.000D+00 0.933D-01 0.907D+00
 Coeff:     -0.152D-02 0.412D-02 0.481D-01 0.153D+00 0.286D+00 0.510D+00
 Gap=     0.182 Goal=   None    Shift=    0.000
 RMSDP=4.99D-05 MaxDP=1.96D-03 DE=-1.03D-03 OVMax= 3.35D-03

 Cycle   7  Pass 0  IDiag  1:
 RMSU=  2.74D-05    CP:  9.85D-01  7.30D-01  6.29D-01  7.14D-01  5.14D-01
                    CP:  5.87D-01
 E= -1120.33572091735     Delta-E=       -0.000120439668 Rises=F Damp=F
 DIIS: error= 1.46D-04 at cycle   7 NSaved=   7.
 NSaved= 7 IEnMin= 7 EnMin= -1120.33572091735     IErMin= 7 ErrMin= 1.46D-04
 ErrMax= 1.46D-04  0.00D+00 EMaxC= 1.00D-01 BMatC= 8.11D-06 BMatP= 1.43D-04
 IDIUse=3 WtCom= 9.99D-01 WtEn= 1.46D-03
 Coeff-Com: -0.824D-03 0.206D-03 0.149D-01 0.519D-01 0.120D+00 0.283D+00
 Coeff-Com:  0.530D+00
 Coeff-En:   0.000D+00 0.000D+00 0.000D+00 0.000D+00 0.000D+00 0.000D+00
 Coeff-En:   0.100D+01
 Coeff:     -0.823D-03 0.206D-03 0.148D-01 0.518D-01 0.120D+00 0.283D+00
 Coeff:      0.531D+00
 Gap=     0.182 Goal=   None    Shift=    0.000
 RMSDP=1.29D-05 MaxDP=3.59D-04 DE=-1.20D-04 OVMax= 8.58D-04

 Cycle   8  Pass 0  IDiag  1:
 RMSU=  7.86D-06    CP:  9.85D-01  7.30D-01  6.30D-01  7.15D-01  5.18D-01
                    CP:  6.09D-01  6.43D-01
 E= -1120.33572776385     Delta-E=       -0.000006846506 Rises=F Damp=F
 DIIS: error= 4.02D-05 at cycle   8 NSaved=   8.
 NSaved= 8 IEnMin= 8 EnMin= -1120.33572776385     IErMin= 8 ErrMin= 4.02D-05
 ErrMax= 4.02D-05  0.00D+00 EMaxC= 1.00D-01 BMatC= 7.64D-07 BMatP= 8.11D-06
 IDIUse=1 WtCom= 1.00D+00 WtEn= 0.00D+00
 Coeff-Com: -0.318D-03-0.325D-03 0.369D-02 0.144D-01 0.408D-01 0.115D+00
 Coeff-Com:  0.294D+00 0.532D+00
 Coeff:     -0.318D-03-0.325D-03 0.369D-02 0.144D-01 0.408D-01 0.115D+00
 Coeff:      0.294D+00 0.532D+00
 Gap=     0.182 Goal=   None    Shift=    0.000
 RMSDP=4.68D-06 MaxDP=1.77D-04 DE=-6.85D-06 OVMax= 3.49D-04

 Initial convergence to 1.0D-05 achieved.  Increase integral accuracy.
 Cycle   9  Pass 1  IDiag  1:
 E= -1120.33569491002     Delta-E=        0.000032853839 Rises=F Damp=F
 DIIS: error= 5.81D-05 at cycle   1 NSaved=   1.
 NSaved= 1 IEnMin= 1 EnMin= -1120.33569491002     IErMin= 1 ErrMin= 5.81D-05
 ErrMax= 5.81D-05  0.00D+00 EMaxC= 1.00D-01 BMatC= 5.71D-07 BMatP= 5.71D-07
 IDIUse=1 WtCom= 1.00D+00 WtEn= 0.00D+00
 Coeff-Com:  0.100D+01
 Coeff:      0.100D+01
 Gap=     0.182 Goal=   None    Shift=    0.000
 RMSDP=4.68D-06 MaxDP=1.77D-04 DE= 3.29D-05 OVMax= 3.60D-04

 Cycle  10  Pass 1  IDiag  1:
 RMSU=  3.87D-05    CP:  1.00D+00
 E= -1120.33569497798     Delta-E=       -0.000000067967 Rises=F Damp=F
 DIIS: error= 3.76D-05 at cycle   2 NSaved=   2.
 NSaved= 2 IEnMin= 2 EnMin= -1120.33569497798     IErMin= 2 ErrMin= 3.76D-05
 ErrMax= 3.76D-05  0.00D+00 EMaxC= 1.00D-01 BMatC= 5.17D-07 BMatP= 5.71D-07
 IDIUse=1 WtCom= 1.00D+00 WtEn= 0.00D+00
 Coeff-Com:  0.483D+00 0.517D+00
 Coeff:      0.483D+00 0.517D+00
 Gap=     0.182 Goal=   None    Shift=    0.000
 RMSDP=4.65D-06 MaxDP=2.59D-04 DE=-6.80D-08 OVMax= 4.15D-04

 Cycle  11  Pass 1  IDiag  1:
 RMSU=  4.65D-06    CP:  1.00D+00  9.97D-01
 E= -1120.33569524874     Delta-E=       -0.000000270763 Rises=F Damp=F
 DIIS: error= 2.49D-05 at cycle   3 NSaved=   3.
 NSaved= 3 IEnMin= 3 EnMin= -1120.33569524874     IErMin= 3 ErrMin= 2.49D-05
 ErrMax= 2.49D-05  0.00D+00 EMaxC= 1.00D-01 BMatC= 2.46D-07 BMatP= 5.17D-07
 IDIUse=1 WtCom= 1.00D+00 WtEn= 0.00D+00
 Coeff-Com:  0.638D-02 0.407D+00 0.587D+00
 Coeff:      0.638D-02 0.407D+00 0.587D+00
 Gap=     0.182 Goal=   None    Shift=    0.000
 RMSDP=1.94D-06 MaxDP=1.19D-04 DE=-2.71D-07 OVMax= 1.76D-04

 Cycle  12  Pass 1  IDiag  1:
 RMSU=  5.75D-07    CP:  1.00D+00  1.01D+00  6.10D-01
 E= -1120.33569548333     Delta-E=       -0.000000234584 Rises=F Damp=F
 DIIS: error= 4.66D-06 at cycle   4 NSaved=   4.
 NSaved= 4 IEnMin= 4 EnMin= -1120.33569548333     IErMin= 4 ErrMin= 4.66D-06
 ErrMax= 4.66D-06  0.00D+00 EMaxC= 1.00D-01 BMatC= 5.97D-09 BMatP= 2.46D-07
 IDIUse=1 WtCom= 1.00D+00 WtEn= 0.00D+00
 Coeff-Com: -0.567D-02 0.227D+00 0.343D+00 0.436D+00
 Coeff:     -0.567D-02 0.227D+00 0.343D+00 0.436D+00
 Gap=     0.182 Goal=   None    Shift=    0.000
 RMSDP=3.49D-07 MaxDP=1.37D-05 DE=-2.35D-07 OVMax= 2.56D-05

 Cycle  13  Pass 1  IDiag  1:
 RMSU=  2.09D-07    CP:  1.00D+00  1.01D+00  6.10D-01  5.16D-01
 E= -1120.33569548862     Delta-E=       -0.000000005294 Rises=F Damp=F
 DIIS: error= 9.65D-07 at cycle   5 NSaved=   5.
 NSaved= 5 IEnMin= 5 EnMin= -1120.33569548862     IErMin= 5 ErrMin= 9.65D-07
 ErrMax= 9.65D-07  0.00D+00 EMaxC= 1.00D-01 BMatC= 5.08D-10 BMatP= 5.97D-09
 IDIUse=1 WtCom= 1.00D+00 WtEn= 0.00D+00
 Coeff-Com: -0.399D-02 0.107D+00 0.164D+00 0.275D+00 0.458D+00
 Coeff:     -0.399D-02 0.107D+00 0.164D+00 0.275D+00 0.458D+00
 Gap=     0.182 Goal=   None    Shift=    0.000
 RMSDP=1.04D-07 MaxDP=3.15D-06 DE=-5.29D-09 OVMax= 6.47D-06

 Cycle  14  Pass 1  IDiag  1:
 RMSU=  6.94D-08    CP:  1.00D+00  1.01D+00  6.11D-01  5.49D-01  6.42D-01
 E= -1120.33569548907     Delta-E=       -0.000000000445 Rises=F Damp=F
 DIIS: error= 2.10D-07 at cycle   6 NSaved=   6.
 NSaved= 6 IEnMin= 6 EnMin= -1120.33569548907     IErMin= 6 ErrMin= 2.10D-07
 ErrMax= 2.10D-07  0.00D+00 EMaxC= 1.00D-01 BMatC= 2.46D-11 BMatP= 5.08D-10
 IDIUse=1 WtCom= 1.00D+00 WtEn= 0.00D+00
 Coeff-Com: -0.149D-02 0.344D-01 0.528D-01 0.104D+00 0.236D+00 0.575D+00
 Coeff:     -0.149D-02 0.344D-01 0.528D-01 0.104D+00 0.236D+00 0.575D+00
 Gap=     0.182 Goal=   None    Shift=    0.000
 RMSDP=2.65D-08 MaxDP=8.51D-07 DE=-4.45D-10 OVMax= 1.34D-06

 Cycle  15  Pass 1  IDiag  1:
 RMSU=  2.11D-08    CP:  1.00D+00  1.01D+00  6.12D-01  5.55D-01  6.72D-01
                    CP:  7.91D-01
 E= -1120.33569548908     Delta-E=       -0.000000000015 Rises=F Damp=F
 DIIS: error= 1.67D-07 at cycle   7 NSaved=   7.
 NSaved= 7 IEnMin= 7 EnMin= -1120.33569548908     IErMin= 7 ErrMin= 1.67D-07
 ErrMax= 1.67D-07  0.00D+00 EMaxC= 1.00D-01 BMatC= 6.47D-12 BMatP= 2.46D-11
 IDIUse=1 WtCom= 1.00D+00 WtEn= 0.00D+00
 Coeff-Com: -0.367D-03 0.544D-02 0.840D-02 0.248D-01 0.790D-01 0.370D+00
 Coeff-Com:  0.513D+00
 Coeff:     -0.367D-03 0.544D-02 0.840D-02 0.248D-01 0.790D-01 0.370D+00
 Coeff:      0.513D+00
 Gap=     0.182 Goal=   None    Shift=    0.000
 RMSDP=1.16D-08 MaxDP=3.58D-07 DE=-1.46D-11 OVMax= 9.08D-07

 Cycle  16  Pass 1  IDiag  1:
 RMSU=  7.35D-09    CP:  1.00D+00  1.01D+00  6.11D-01  5.56D-01  6.82D-01
                    CP:  8.28D-01  6.09D-01
 E= -1120.33569548911     Delta-E=       -0.000000000030 Rises=F Damp=F
 DIIS: error= 5.34D-08 at cycle   8 NSaved=   8.
 NSaved= 8 IEnMin= 8 EnMin= -1120.33569548911     IErMin= 8 ErrMin= 5.34D-08
 ErrMax= 5.34D-08  0.00D+00 EMaxC= 1.00D-01 BMatC= 5.69D-13 BMatP= 6.47D-12
 IDIUse=1 WtCom= 1.00D+00 WtEn= 0.00D+00
 Coeff-Com:  0.645D-05-0.170D-02-0.262D-02-0.398D-03 0.106D-01 0.130D+00
 Coeff-Com:  0.287D+00 0.578D+00
 Coeff:      0.645D-05-0.170D-02-0.262D-02-0.398D-03 0.106D-01 0.130D+00
 Coeff:      0.287D+00 0.578D+00
 Gap=     0.182 Goal=   None    Shift=    0.000
 RMSDP=3.68D-09 MaxDP=1.06D-07 DE=-3.00D-11 OVMax= 2.62D-07

 SCF Done:  E(RB3LYP) =  -1120.33569549     A.U. after   16 cycles
            NFock= 16  Conv=0.37D-08     -V/T= 2.0073
 KE= 1.112200837030D+03 PE=-4.969668955081D+03 EE= 1.565831357687D+03
 Leave Link  502 at Thu Aug  6 21:58:55 2020, MaxMem=    33554432 cpu:       155.4
 (Enter /prod/apps/gaussian/g09d1/l601.exe)
 Copying SCF densities to generalized density rwf, IOpCl= 0 IROHF=0.

 **********************************************************************

            Population analysis using the SCF density.

 **********************************************************************

 Orbital symmetries:
       Occupied  (A) (A) (A) (A) (A) (A) (A) (A) (A) (A) (A) (A)
                 (A) (A) (A) (A) (A) (A) (A) (A) (A) (A) (A) (A)
                 (A) (A) (A) (A) (A) (A) (A) (A) (A) (A) (A) (A)
                 (A) (A) (A) (A) (A) (A) (A) (A) (A) (A) (A) (A)
                 (A) (A) (A) (A) (A) (A) (A) (A) (A) (A) (A) (A)
                 (A) (A)
       Virtual   (A) (A) (A) (A) (A) (A) (A) (A) (A) (A) (A) (A)
                 (A) (A) (A) (A) (A) (A) (A) (A) (A) (A) (A) (A)
                 (A) (A) (A) (A) (A) (A) (A) (A) (A) (A) (A) (A)
                 (A) (A) (A) (A) (A) (A) (A) (A) (A) (A) (A) (A)
                 (A) (A) (A) (A) (A) (A) (A) (A) (A) (A) (A) (A)
                 (A) (A) (A) (A) (A) (A) (A) (A) (A) (A) (A) (A)
                 (A) (A) (A) (A) (A) (A) (A) (A) (A) (A) (A) (A)
                 (A) (A) (A) (A) (A) (A) (A) (A) (A) (A) (A) (A)
                 (A) (A) (A) (A) (A) (A) (A) (A) (A) (A) (A) (A)
                 (A) (A) (A) (A) (A) (A) (A) (A) (A) (A) (A) (A)
                 (A) (A) (A) (A) (A) (A) (A) (A) (A) (A) (A) (A)
                 (A) (A) (A) (A) (A) (A) (A) (A) (A) (A) (A) (A)
                 (A) (A) (A) (A) (A) (A) (A) (A) (A) (A) (A) (A)
                 (A) (A) (A) (A) (A) (A) (A) (A) (A) (A) (A) (A)
                 (A) (A) (A) (A) (A) (A) (A) (A) (A) (A) (A) (A)
                 (A) (A) (A) (A) (A) (A) (A) (A) (A) (A) (A) (A)
                 (A) (A) (A) (A) (A) (A) (A) (A) (A) (A)
 The electronic state is 1-A.
 Alpha  occ. eigenvalues --  -89.12114 -19.24166 -19.14564 -19.14239 -14.39528
 Alpha  occ. eigenvalues --  -14.38233 -10.28023 -10.27463 -10.22767 -10.22327
 Alpha  occ. eigenvalues --  -10.21200 -10.21076 -10.20816 -10.20764 -10.20756
 Alpha  occ. eigenvalues --  -10.20618  -8.14653  -6.11219  -6.11028  -6.10920
 Alpha  occ. eigenvalues --   -1.14661  -1.11386  -0.99916  -0.96719  -0.88092
 Alpha  occ. eigenvalues --   -0.85600  -0.81717  -0.78241  -0.76302  -0.75932
 Alpha  occ. eigenvalues --   -0.66736  -0.65560  -0.62832  -0.61065  -0.58187
 Alpha  occ. eigenvalues --   -0.55997  -0.53252  -0.51290  -0.49416  -0.48823
 Alpha  occ. eigenvalues --   -0.47807  -0.47617  -0.46916  -0.45638  -0.44493
 Alpha  occ. eigenvalues --   -0.44046  -0.43489  -0.42822  -0.39972  -0.39196
 Alpha  occ. eigenvalues --   -0.37761  -0.36985  -0.36017  -0.34408  -0.31810
 Alpha  occ. eigenvalues --   -0.31570  -0.31079  -0.30438  -0.29619  -0.26879
 Alpha  occ. eigenvalues --   -0.26219  -0.23946
 Alpha virt. eigenvalues --   -0.05703  -0.01715   0.01823   0.04123   0.06339
 Alpha virt. eigenvalues --    0.07144   0.07556   0.08012   0.09588   0.10373
 Alpha virt. eigenvalues --    0.11154   0.12312   0.12410   0.13861   0.15385
 Alpha virt. eigenvalues --    0.15618   0.16193   0.16670   0.17672   0.18026
 Alpha virt. eigenvalues --    0.22103   0.24729   0.25145   0.28895   0.29076
 Alpha virt. eigenvalues --    0.31373   0.32279   0.35313   0.36574   0.38014
 Alpha virt. eigenvalues --    0.41068   0.43213   0.44000   0.44311   0.47346
 Alpha virt. eigenvalues --    0.49368   0.49822   0.51148   0.51338   0.52593
 Alpha virt. eigenvalues --    0.52996   0.53784   0.55024   0.56283   0.57219
 Alpha virt. eigenvalues --    0.57524   0.58040   0.59094   0.59874   0.60621
 Alpha virt. eigenvalues --    0.61422   0.62145   0.63799   0.64294   0.66328
 Alpha virt. eigenvalues --    0.68615   0.69507   0.71437   0.72043   0.75605
 Alpha virt. eigenvalues --    0.76340   0.77522   0.79289   0.80181   0.81351
 Alpha virt. eigenvalues --    0.82357   0.82434   0.83170   0.83867   0.84431
 Alpha virt. eigenvalues --    0.85680   0.86325   0.87359   0.87882   0.88488
 Alpha virt. eigenvalues --    0.89803   0.90941   0.92367   0.93921   0.95653
 Alpha virt. eigenvalues --    0.96181   0.98163   0.98937   1.00120   1.02112
 Alpha virt. eigenvalues --    1.03009   1.04433   1.05774   1.06936   1.08858
 Alpha virt. eigenvalues --    1.10301   1.13854   1.14703   1.16670   1.16833
 Alpha virt. eigenvalues --    1.17423   1.20652   1.22462   1.23526   1.25893
 Alpha virt. eigenvalues --    1.29453   1.30927   1.33657   1.34071   1.36337
 Alpha virt. eigenvalues --    1.37622   1.41409   1.41630   1.42506   1.44706
 Alpha virt. eigenvalues --    1.46266   1.46761   1.47481   1.49317   1.49621
 Alpha virt. eigenvalues --    1.51349   1.53905   1.57723   1.58712   1.66449
 Alpha virt. eigenvalues --    1.69320   1.72141   1.75851   1.76696   1.78126
 Alpha virt. eigenvalues --    1.78890   1.80927   1.81335   1.82652   1.84019
 Alpha virt. eigenvalues --    1.86201   1.87121   1.88178   1.91513   1.93037
 Alpha virt. eigenvalues --    1.94448   1.95912   1.97910   1.99579   2.00016
 Alpha virt. eigenvalues --    2.04009   2.06891   2.08106   2.09712   2.10155
 Alpha virt. eigenvalues --    2.11272   2.12604   2.13735   2.15929   2.17005
 Alpha virt. eigenvalues --    2.18942   2.20646   2.22063   2.23281   2.24752
 Alpha virt. eigenvalues --    2.25171   2.26176   2.28008   2.29211   2.29478
 Alpha virt. eigenvalues --    2.32467   2.34956   2.42903   2.50462   2.52322
 Alpha virt. eigenvalues --    2.53065   2.56703   2.57438   2.59842   2.61858
 Alpha virt. eigenvalues --    2.65458   2.65821   2.70691   2.73010   2.73501
 Alpha virt. eigenvalues --    2.74524   2.76438   2.82366   2.87061   2.88828
 Alpha virt. eigenvalues --    2.91086   3.02236   3.05305   3.12852   3.26540
 Alpha virt. eigenvalues --    3.42061   3.77362   3.80499   3.93772   3.98581
 Alpha virt. eigenvalues --    4.06461   4.07837   4.10073   4.10618   4.15034
 Alpha virt. eigenvalues --    4.22425   4.22787   4.30797   4.36538   4.39867
 Alpha virt. eigenvalues --    4.56288   4.73511
          Condensed to atoms (all electrons):
               1          2          3          4          5          6
     1  O    8.206904   0.448836  -0.054807   0.005568  -0.002154   0.000007
     2  S    0.448836  13.663479   0.068372   0.000322   0.001336  -0.000281
     3  N   -0.054807   0.068372   7.510916   0.212775  -0.073902   0.005572
     4  C    0.005568   0.000322   0.212775   4.509907   0.388222  -0.027209
     5  N   -0.002154   0.001336  -0.073902   0.388222   6.904058   0.115402
     6  O    0.000007  -0.000281   0.005572  -0.027209   0.115402   8.185970
     7  C   -0.000001   0.000277  -0.000401  -0.023259  -0.076864   0.249466
     8  C    0.000000  -0.000009  -0.000203   0.003191   0.004168  -0.038089
     9  C    0.000000   0.000000   0.000003   0.000620  -0.000098   0.003199
    10  C    0.000000   0.000000   0.000000  -0.000006   0.000001  -0.000059
    11  C    0.000000   0.000000   0.000000   0.000000   0.000000   0.000001
    12  C    0.000000   0.000000   0.000000   0.000005   0.000000   0.000300
    13  C    0.000000   0.000000  -0.000001  -0.000334   0.000117  -0.006323
    14  C    0.000129   0.001575  -0.057477   0.435885  -0.039242  -0.095931
    15  C   -0.055819   0.204081  -0.049626  -0.007918  -0.007115   0.000123
    16  O   -0.046512   0.457552  -0.050699   0.001514  -0.000022   0.000000
    17  H   -0.000076  -0.013144   0.304847  -0.019273   0.003038  -0.000068
    18  H    0.000000   0.000000  -0.000001   0.000082  -0.000004   0.000022
    19  H    0.000000   0.000000   0.000000   0.000000   0.000000   0.000000
    20  H    0.000000   0.000000   0.000000   0.000000   0.000000   0.000000
    21  H    0.000000   0.000000   0.000000   0.000000   0.000000  -0.000002
    22  H    0.000000   0.000000   0.000000   0.000067  -0.000258   0.009594
    23  H    0.000002  -0.000123  -0.001829  -0.031168   0.004818   0.003553
    24  H   -0.001353  -0.001349  -0.002759  -0.000312   0.016890  -0.000355
    25  H    0.001916  -0.006655   0.001260   0.000320   0.000052  -0.000001
    26  H   -0.000072  -0.018244   0.002388   0.000113   0.000155  -0.000001
               7          8          9         10         11         12
     1  O   -0.000001   0.000000   0.000000   0.000000   0.000000   0.000000
     2  S    0.000277  -0.000009   0.000000   0.000000   0.000000   0.000000
     3  N   -0.000401  -0.000203   0.000003   0.000000   0.000000   0.000000
     4  C   -0.023259   0.003191   0.000620  -0.000006   0.000000   0.000005
     5  N   -0.076864   0.004168  -0.000098   0.000001   0.000000   0.000000
     6  O    0.249466  -0.038089   0.003199  -0.000059   0.000001   0.000300
     7  C    4.720327   0.346237  -0.041588   0.006392   0.000945   0.004747
     8  C    0.346237   4.768982   0.536876  -0.008199  -0.033760  -0.008033
     9  C   -0.041588   0.536876   5.004401   0.522299  -0.038427  -0.041129
    10  C    0.006392  -0.008199   0.522299   4.860615   0.545548  -0.023879
    11  C    0.000945  -0.033760  -0.038427   0.545548   4.851630   0.543356
    12  C    0.004747  -0.008033  -0.041129  -0.023879   0.543356   4.874438
    13  C   -0.039613   0.477069  -0.084776  -0.042351  -0.035901   0.504515
    14  C    0.506588  -0.060322  -0.021857   0.000208   0.000014  -0.000241
    15  C   -0.000025   0.000000   0.000000   0.000000   0.000000   0.000000
    16  O    0.000000   0.000000   0.000000   0.000000   0.000000   0.000000
    17  H    0.000000  -0.000002   0.000000   0.000000   0.000000   0.000000
    18  H   -0.013772  -0.037966   0.351608  -0.044358   0.004698   0.000206
    19  H   -0.000214   0.003313  -0.038745   0.359204  -0.041610   0.004477
    20  H    0.000003   0.000550   0.004895  -0.042631   0.360997  -0.042383
    21  H   -0.000183   0.003127   0.000879   0.004464  -0.041922   0.360103
    22  H   -0.013014  -0.038474   0.005378   0.000279   0.004428  -0.042669
    23  H   -0.024200  -0.003765   0.001368   0.000092  -0.000001   0.000002
    24  H    0.000049   0.000000   0.000000   0.000000   0.000000   0.000000
    25  H    0.000001   0.000000   0.000000   0.000000   0.000000   0.000000
    26  H    0.000000   0.000000   0.000000   0.000000   0.000000   0.000000
              13         14         15         16         17         18
     1  O    0.000000   0.000129  -0.055819  -0.046512  -0.000076   0.000000
     2  S    0.000000   0.001575   0.204081   0.457552  -0.013144   0.000000
     3  N   -0.000001  -0.057477  -0.049626  -0.050699   0.304847  -0.000001
     4  C   -0.000334   0.435885  -0.007918   0.001514  -0.019273   0.000082
     5  N    0.000117  -0.039242  -0.007115  -0.000022   0.003038  -0.000004
     6  O   -0.006323  -0.095931   0.000123   0.000000  -0.000068   0.000022
     7  C   -0.039613   0.506588  -0.000025   0.000000   0.000000  -0.013772
     8  C    0.477069  -0.060322   0.000000   0.000000  -0.000002  -0.037966
     9  C   -0.084776  -0.021857   0.000000   0.000000   0.000000   0.351608
    10  C   -0.042351   0.000208   0.000000   0.000000   0.000000  -0.044358
    11  C   -0.035901   0.000014   0.000000   0.000000   0.000000   0.004698
    12  C    0.504515  -0.000241   0.000000   0.000000   0.000000   0.000206
    13  C    5.043840   0.012538   0.000000   0.000000   0.000000   0.006067
    14  C    0.012538   5.272123  -0.000335  -0.000057  -0.005404   0.006316
    15  C    0.000000  -0.000335   5.594514  -0.058382   0.003097   0.000000
    16  O    0.000000  -0.000057  -0.058382   8.219438   0.005408   0.000000
    17  H    0.000000  -0.005404   0.003097   0.005408   0.346050   0.000000
    18  H    0.006067   0.006316   0.000000   0.000000   0.000000   0.594195
    19  H    0.000858   0.000000   0.000000   0.000000   0.000000  -0.005259
    20  H    0.004707   0.000000   0.000000   0.000000   0.000000  -0.000171
    21  H   -0.037706   0.000001   0.000000   0.000000   0.000000   0.000016
    22  H    0.360516   0.000260   0.000000   0.000000   0.000000  -0.000149
    23  H   -0.000124   0.346829   0.000001  -0.000001   0.002007   0.002263
    24  H    0.000000   0.000230   0.326099   0.001528  -0.000107   0.000000
    25  H    0.000000  -0.000004   0.337142   0.000002  -0.000042   0.000000
    26  H    0.000000   0.000002   0.358908  -0.000526  -0.000056   0.000000
              19         20         21         22         23         24
     1  O    0.000000   0.000000   0.000000   0.000000   0.000002  -0.001353
     2  S    0.000000   0.000000   0.000000   0.000000  -0.000123  -0.001349
     3  N    0.000000   0.000000   0.000000   0.000000  -0.001829  -0.002759
     4  C    0.000000   0.000000   0.000000   0.000067  -0.031168  -0.000312
     5  N    0.000000   0.000000   0.000000  -0.000258   0.004818   0.016890
     6  O    0.000000   0.000000  -0.000002   0.009594   0.003553  -0.000355
     7  C   -0.000214   0.000003  -0.000183  -0.013014  -0.024200   0.000049
     8  C    0.003313   0.000550   0.003127  -0.038474  -0.003765   0.000000
     9  C   -0.038745   0.004895   0.000879   0.005378   0.001368   0.000000
    10  C    0.359204  -0.042631   0.004464   0.000279   0.000092   0.000000
    11  C   -0.041610   0.360997  -0.041922   0.004428  -0.000001   0.000000
    12  C    0.004477  -0.042383   0.360103  -0.042669   0.000002   0.000000
    13  C    0.000858   0.004707  -0.037706   0.360516  -0.000124   0.000000
    14  C    0.000000   0.000000   0.000001   0.000260   0.346829   0.000230
    15  C    0.000000   0.000000   0.000000   0.000000   0.000001   0.326099
    16  O    0.000000   0.000000   0.000000   0.000000  -0.000001   0.001528
    17  H    0.000000   0.000000   0.000000   0.000000   0.002007  -0.000107
    18  H   -0.005259  -0.000171   0.000016  -0.000149   0.002263   0.000000
    19  H    0.583637  -0.005403  -0.000175   0.000015  -0.000003   0.000000
    20  H   -0.005403   0.585033  -0.005347  -0.000158   0.000000   0.000000
    21  H   -0.000175  -0.005347   0.578901  -0.004845   0.000000   0.000000
    22  H    0.000015  -0.000158  -0.004845   0.553381  -0.000009   0.000000
    23  H   -0.000003   0.000000   0.000000  -0.000009   0.543354  -0.000003
    24  H    0.000000   0.000000   0.000000   0.000000  -0.000003   0.455373
    25  H    0.000000   0.000000   0.000000   0.000000   0.000000  -0.021816
    26  H    0.000000   0.000000   0.000000   0.000000   0.000000  -0.015500
              25         26
     1  O    0.001916  -0.000072
     2  S   -0.006655  -0.018244
     3  N    0.001260   0.002388
     4  C    0.000320   0.000113
     5  N    0.000052   0.000155
     6  O   -0.000001  -0.000001
     7  C    0.000001   0.000000
     8  C    0.000000   0.000000
     9  C    0.000000   0.000000
    10  C    0.000000   0.000000
    11  C    0.000000   0.000000
    12  C    0.000000   0.000000
    13  C    0.000000   0.000000
    14  C   -0.000004   0.000002
    15  C    0.337142   0.358908
    16  O    0.000002  -0.000526
    17  H   -0.000042  -0.000056
    18  H    0.000000   0.000000
    19  H    0.000000   0.000000
    20  H    0.000000   0.000000
    21  H    0.000000   0.000000
    22  H    0.000000   0.000000
    23  H    0.000000   0.000000
    24  H   -0.021816  -0.015500
    25  H    0.498585  -0.019387
    26  H   -0.019387   0.471801
 Mulliken charges:
               1
     1  O   -0.502569
     2  S    1.193975
     3  N   -0.814428
     4  C    0.550887
     5  N   -0.238596
     6  O   -0.404889
     7  C    0.398102
     8  C    0.085307
     9  C   -0.164905
    10  C   -0.137617
    11  C   -0.119998
    12  C   -0.133815
    13  C   -0.163098
    14  C   -0.301827
    15  C   -0.644744
    16  O   -0.529244
    17  H    0.373726
    18  H    0.136208
    19  H    0.139904
    20  H    0.139907
    21  H    0.142688
    22  H    0.165659
    23  H    0.156937
    24  H    0.243385
    25  H    0.208628
    26  H    0.220418
 Sum of Mulliken charges =   0.00000
 Mulliken charges with hydrogens summed into heavy atoms:
               1
     1  O   -0.502569
     2  S    1.193975
     3  N   -0.440702
     4  C    0.550887
     5  N   -0.238596
     6  O   -0.404889
     7  C    0.398102
     8  C    0.085307
     9  C   -0.028698
    10  C    0.002287
    11  C    0.019909
    12  C    0.008873
    13  C    0.002561
    14  C   -0.144890
    15  C    0.027687
    16  O   -0.529244
 Electronic spatial extent (au):  <R**2>=           5864.2457
 Charge=              0.0000 electrons
 Dipole moment (field-independent basis, Debye):
    X=              4.4140    Y=              1.3825    Z=             -3.0593  Tot=              5.5457
 Quadrupole moment (field-independent basis, Debye-Ang):
   XX=            -95.0322   YY=            -90.5208   ZZ=           -103.9431
   XY=              7.4693   XZ=             11.9561   YZ=              1.6982
 Traceless Quadrupole moment (field-independent basis, Debye-Ang):
   XX=              1.4665   YY=              5.9779   ZZ=             -7.4444
   XY=              7.4693   XZ=             11.9561   YZ=              1.6982
 Octapole moment (field-independent basis, Debye-Ang**2):
  XXX=            109.3423  YYY=              9.8263  ZZZ=             -3.5330  XYY=              1.2149
  XXY=            -52.5346  XXZ=            -36.2791  XZZ=            -20.4855  YZZ=             -1.0268
  YYZ=             -1.8993  XYZ=            -10.4782
 Hexadecapole moment (field-independent basis, Debye-Ang**3):
 XXXX=          -6526.2353 YYYY=           -583.8698 ZZZZ=           -244.5049 XXXY=            251.8299
 XXXZ=            166.4230 YYYX=            -11.0981 YYYZ=             -5.9574 ZZZX=             13.0612
 ZZZY=              3.4973 XXYY=          -1160.7743 XXZZ=          -1259.8990 YYZZ=           -152.9348
 XXYZ=             22.6635 YYXZ=              5.8484 ZZXY=            -10.6981
 N-N= 1.171301064875D+03 E-N=-4.969668952862D+03  KE= 1.112200837030D+03
 No NMR shielding tensors so no spin-rotation constants.
 Leave Link  601 at Thu Aug  6 21:58:56 2020, MaxMem=    33554432 cpu:         0.2
 (Enter /prod/apps/gaussian/g09d1/l9999.exe)
 1\1\GINC-PIRINEUS11\SP\RB3LYP\6-31G(d)\C10H10N2O3S1\UBAFAR01\06-Aug-20
 20\0\\#p b3lyp/6-31G(d)\\SM41.n.5.pdb.xyz\\0,1\O,0,2.064,0.236,3.917\S
 ,0,2.962,0.,2.779\N,0,2.524,0.953,1.448\C,0,2.093,2.271,1.556\N,0,2.47
 5,3.044,2.556\O,0,1.882,4.288,2.289\C,0,1.176,4.217,1.135\C,0,0.488,5.
 425,0.693\C,0,-0.276,5.404,-0.485\C,0,-0.935,6.554,-0.911\C,0,-0.839,7
 .734,-0.169\C,0,-0.081,7.76,1.004\C,0,0.581,6.613,1.435\C,0,1.271,2.95
 5,0.621\C,0,4.579,0.637,3.189\O,0,3.066,-1.354,2.223\H,0,2.087,0.395,0
 .715\H,0,-0.353,4.49,-1.062\H,0,-1.523,6.529,-1.822\H,0,-1.354,8.629,-
 0.503\H,0,-0.004,8.674,1.583\H,0,1.17,6.629,2.344\H,0,0.83,2.56,-0.279
 \H,0,4.475,1.702,3.394\H,0,5.245,0.459,2.346\H,0,4.919,0.101,4.076\\Ve
 rsion=AM64L-G09RevD.01\State=1-A\HF=-1120.3356955\RMSD=3.679e-09\Dipol
 e=0.0122498,1.4350251,-1.6434609\Quadrupole=6.1866781,-5.7204715,-0.46
 62066,-5.8246235,7.2670546,3.858988\PG=C01 [X(C10H10N2O3S1)]\\@


 Some scientists claim that hydrogen, because it is so
 plentiful, is the basic building block of the universe. 
 I dispute that. I say that stupidity is far more
 abundant than hydrogen, and THAT is the basic building 
 block of the universe.
                   --Frank Zappa
 Job cpu time:       0 days  0 hours  2 minutes 38.5 seconds.
 File lengths (MBytes):  RWF=     40 Int=      0 D2E=      0 Chk=      4 Scr=      1
 Normal termination of Gaussian 09 at Thu Aug  6 21:58:56 2020.
 Initial command:
 /prod/apps/gaussian/g09d1/l1.exe "/tmp/ubafar01/1448587/Gau-8179.inp" -scrdir="/tmp/ubafar01/1448587/"
 Entering Link 1 = /prod/apps/gaussian/g09d1/l1.exe PID=      8463.
  
 Copyright (c) 1988,1990,1992,1993,1995,1998,2003,2009,2013,
            Gaussian, Inc.  All Rights Reserved.
  
 This is part of the Gaussian(R) 09 program.  It is based on
 the Gaussian(R) 03 system (copyright 2003, Gaussian, Inc.),
 the Gaussian(R) 98 system (copyright 1998, Gaussian, Inc.),
 the Gaussian(R) 94 system (copyright 1995, Gaussian, Inc.),
 the Gaussian 92(TM) system (copyright 1992, Gaussian, Inc.),
 the Gaussian 90(TM) system (copyright 1990, Gaussian, Inc.),
 the Gaussian 88(TM) system (copyright 1988, Gaussian, Inc.),
 the Gaussian 86(TM) system (copyright 1986, Carnegie Mellon
 University), and the Gaussian 82(TM) system (copyright 1983,
 Carnegie Mellon University). Gaussian is a federally registered
 trademark of Gaussian, Inc.
  
 This software contains proprietary and confidential information,
 including trade secrets, belonging to Gaussian, Inc.
  
 This software is provided under written license and may be
 used, copied, transmitted, or stored only in accord with that
 written license.
  
 The following legend is applicable only to US Government
 contracts under FAR:
  
                    RESTRICTED RIGHTS LEGEND
  
 Use, reproduction and disclosure by the US Government is
 subject to restrictions as set forth in subparagraphs (a)
 and (c) of the Commercial Computer Software - Restricted
 Rights clause in FAR 52.227-19.
  
 Gaussian, Inc.
 340 Quinnipiac St., Bldg. 40, Wallingford CT 06492
  
  
 ---------------------------------------------------------------
 Warning -- This program may not be used in any manner that
 competes with the business of Gaussian, Inc. or will provide
 assistance to any competitor of Gaussian, Inc.  The licensee
 of this program is prohibited from giving any competitor of
 Gaussian, Inc. access to this program.  By using this program,
 the user acknowledges that Gaussian, Inc. is engaged in the
 business of creating and licensing software in the field of
 computational chemistry and represents and warrants to the
 licensee that it is not a competitor of Gaussian, Inc. and that
 it will not use this program in any manner prohibited above.
 ---------------------------------------------------------------
  

 Cite this work as:
 Gaussian 09, Revision D.01,
 M. J. Frisch, G. W. Trucks, H. B. Schlegel, G. E. Scuseria, 
 M. A. Robb, J. R. Cheeseman, G. Scalmani, V. Barone, B. Mennucci, 
 G. A. Petersson, H. Nakatsuji, M. Caricato, X. Li, H. P. Hratchian, 
 A. F. Izmaylov, J. Bloino, G. Zheng, J. L. Sonnenberg, M. Hada, 
 M. Ehara, K. Toyota, R. Fukuda, J. Hasegawa, M. Ishida, T. Nakajima, 
 Y. Honda, O. Kitao, H. Nakai, T. Vreven, J. A. Montgomery, Jr., 
 J. E. Peralta, F. Ogliaro, M. Bearpark, J. J. Heyd, E. Brothers, 
 K. N. Kudin, V. N. Staroverov, T. Keith, R. Kobayashi, J. Normand, 
 K. Raghavachari, A. Rendell, J. C. Burant, S. S. Iyengar, J. Tomasi, 
 M. Cossi, N. Rega, J. M. Millam, M. Klene, J. E. Knox, J. B. Cross, 
 V. Bakken, C. Adamo, J. Jaramillo, R. Gomperts, R. E. Stratmann, 
 O. Yazyev, A. J. Austin, R. Cammi, C. Pomelli, J. W. Ochterski, 
 R. L. Martin, K. Morokuma, V. G. Zakrzewski, G. A. Voth, 
 P. Salvador, J. J. Dannenberg, S. Dapprich, A. D. Daniels, 
 O. Farkas, J. B. Foresman, J. V. Ortiz, J. Cioslowski, 
 and D. J. Fox, Gaussian, Inc., Wallingford CT, 2013.
 
 ******************************************
 Gaussian 09:  AM64L-G09RevD.01 24-Apr-2013
                 6-Aug-2020 
 ******************************************
 %nproc=1
 Will use up to    1 processors via shared memory.
 %Chk=SM41.n.5.pdb.xyz.mst.n.w.chk
 %subst l502 /dades/curu/work_g09D01_MST_AddSphPartition_ReadGammas/exe-dir/
 ----------------------------------------------------------------------
 #p b3lyp/6-31G(d) scrf=(iefpcm,read,solvent=Water) geom=allcheck guess
 =read
 ----------------------------------------------------------------------
 1/29=7,38=1,40=2/1;
 2/12=2,40=1/2;
 3/5=1,6=6,7=1,11=2,14=-4,16=1,25=1,30=1,70=2203,72=1,74=-5,116=-2/1,2,3;
 4/5=1/1;
 5/5=2,38=6,53=1/2;
 6/7=2,8=2,9=2,10=2,28=1/1;
 99/5=1,9=1/99;
 Leave Link    1 at Thu Aug  6 21:58:56 2020, MaxMem=           0 cpu:         0.0
 (Enter /prod/apps/gaussian/g09d1/l101.exe)
 Structure from the checkpoint file:  "SM41.n.5.pdb.xyz.mst.n.w.chk"
 ----------------
 SM41.n.5.pdb.xyz
 ----------------
 Charge =  0 Multiplicity = 1
 Z-Matrix found in file.
 O,0,2.064,0.236,3.917
 S,0,2.962,0.,2.779
 N,0,2.524,0.953,1.448
 C,0,2.093,2.271,1.556
 N,0,2.475,3.044,2.556
 O,0,1.882,4.288,2.289
 C,0,1.176,4.217,1.135
 C,0,0.488,5.425,0.693
 C,0,-0.276,5.404,-0.485
 C,0,-0.935,6.554,-0.911
 C,0,-0.839,7.734,-0.169
 C,0,-0.081,7.76,1.004
 C,0,0.581,6.613,1.435
 C,0,1.271,2.955,0.621
 C,0,4.579,0.637,3.189
 O,0,3.066,-1.354,2.223
 H,0,2.087,0.395,0.715
 H,0,-0.353,4.49,-1.062
 H,0,-1.523,6.529,-1.822
 H,0,-1.354,8.629,-0.503
 H,0,-0.004,8.674,1.583
 H,0,1.17,6.629,2.344
 H,0,0.83,2.56,-0.279
 H,0,4.475,1.702,3.394
 H,0,5.245,0.459,2.346
 H,0,4.919,0.101,4.076
 Recover connectivity data from disk.
 NAtoms=     26 NQM=       26 NQMF=       0 NMMI=      0 NMMIF=      0
                NMic=       0 NMicF=      0.
                    Isotopes and Nuclear Properties:
 (Nuclear quadrupole moments (NQMom) in fm**2, nuclear magnetic moments (NMagM)
  in nuclear magnetons)

  Atom         1           2           3           4           5           6           7           8           9          10
 IAtWgt=          16          32          14          12          14          16          12          12          12          12
 AtmWgt=  15.9949146  31.9720718  14.0030740  12.0000000  14.0030740  15.9949146  12.0000000  12.0000000  12.0000000  12.0000000
 NucSpn=           0           0           2           0           2           0           0           0           0           0
 AtZEff=  -5.6000000 -13.6000000  -4.5500000  -3.6000000  -4.5500000  -5.6000000  -3.6000000  -3.6000000  -3.6000000  -3.6000000
 NQMom=    0.0000000   0.0000000   2.0440000   0.0000000   2.0440000   0.0000000   0.0000000   0.0000000   0.0000000   0.0000000
 NMagM=    0.0000000   0.0000000   0.4037610   0.0000000   0.4037610   0.0000000   0.0000000   0.0000000   0.0000000   0.0000000
 AtZNuc=   8.0000000  16.0000000   7.0000000   6.0000000   7.0000000   8.0000000   6.0000000   6.0000000   6.0000000   6.0000000

  Atom        11          12          13          14          15          16          17          18          19          20
 IAtWgt=          12          12          12          12          12          16           1           1           1           1
 AtmWgt=  12.0000000  12.0000000  12.0000000  12.0000000  12.0000000  15.9949146   1.0078250   1.0078250   1.0078250   1.0078250
 NucSpn=           0           0           0           0           0           0           1           1           1           1
 AtZEff=  -3.6000000  -3.6000000  -3.6000000  -3.6000000  -3.6000000  -5.6000000  -1.0000000  -1.0000000  -1.0000000  -1.0000000
 NQMom=    0.0000000   0.0000000   0.0000000   0.0000000   0.0000000   0.0000000   0.0000000   0.0000000   0.0000000   0.0000000
 NMagM=    0.0000000   0.0000000   0.0000000   0.0000000   0.0000000   0.0000000   2.7928460   2.7928460   2.7928460   2.7928460
 AtZNuc=   6.0000000   6.0000000   6.0000000   6.0000000   6.0000000   8.0000000   1.0000000   1.0000000   1.0000000   1.0000000

  Atom        21          22          23          24          25          26
 IAtWgt=           1           1           1           1           1           1
 AtmWgt=   1.0078250   1.0078250   1.0078250   1.0078250   1.0078250   1.0078250
 NucSpn=           1           1           1           1           1           1
 AtZEff=  -1.0000000  -1.0000000  -1.0000000  -1.0000000  -1.0000000  -1.0000000
 NQMom=    0.0000000   0.0000000   0.0000000   0.0000000   0.0000000   0.0000000
 NMagM=    2.7928460   2.7928460   2.7928460   2.7928460   2.7928460   2.7928460
 AtZNuc=   1.0000000   1.0000000   1.0000000   1.0000000   1.0000000   1.0000000
 Leave Link  101 at Thu Aug  6 21:58:56 2020, MaxMem=    33554432 cpu:         0.1
 (Enter /prod/apps/gaussian/g09d1/l202.exe)
                          Input orientation:                          
 ---------------------------------------------------------------------
 Center     Atomic      Atomic             Coordinates (Angstroms)
 Number     Number       Type             X           Y           Z
 ---------------------------------------------------------------------
      1          8           0        2.064000    0.236000    3.917000
      2         16           0        2.962000    0.000000    2.779000
      3          7           0        2.524000    0.953000    1.448000
      4          6           0        2.093000    2.271000    1.556000
      5          7           0        2.475000    3.044000    2.556000
      6          8           0        1.882000    4.288000    2.289000
      7          6           0        1.176000    4.217000    1.135000
      8          6           0        0.488000    5.425000    0.693000
      9          6           0       -0.276000    5.404000   -0.485000
     10          6           0       -0.935000    6.554000   -0.911000
     11          6           0       -0.839000    7.734000   -0.169000
     12          6           0       -0.081000    7.760000    1.004000
     13          6           0        0.581000    6.613000    1.435000
     14          6           0        1.271000    2.955000    0.621000
     15          6           0        4.579000    0.637000    3.189000
     16          8           0        3.066000   -1.354000    2.223000
     17          1           0        2.087000    0.395000    0.715000
     18          1           0       -0.353000    4.490000   -1.062000
     19          1           0       -1.523000    6.529000   -1.822000
     20          1           0       -1.354000    8.629000   -0.503000
     21          1           0       -0.004000    8.674000    1.583000
     22          1           0        1.170000    6.629000    2.344000
     23          1           0        0.830000    2.560000   -0.279000
     24          1           0        4.475000    1.702000    3.394000
     25          1           0        5.245000    0.459000    2.346000
     26          1           0        4.919000    0.101000    4.076000
 ---------------------------------------------------------------------
                    Distance matrix (angstroms):
                    1          2          3          4          5
     1  O    0.000000
     2  S    1.468722   0.000000
     3  N    2.611829   1.694584   0.000000
     4  C    3.117112   2.721825   1.390881   0.000000
     5  N    3.147397   3.090766   2.366928   1.320399   0.000000
     6  O    4.370608   4.448982   3.498810   2.156409   1.403736
     7  C    4.937249   4.865760   3.545246   2.192042   2.254456
     8  C    6.309015   6.316858   4.971328   3.642597   3.617748
     9  C    7.180629   7.095178   5.602490   4.426458   4.731309
    10  C    8.498277   8.470987   6.992908   5.796461   5.997357
    11  C    9.019025   9.107857   7.739924   6.435574   6.356439
    12  C    8.348483   8.522211   7.301946   5.929595   5.584129
    13  C    7.001838   7.155925   5.984231   4.599320   4.193046
    14  C    4.345737   4.030939   2.502387   1.420481   2.280737
    15  C    2.648775   1.785653   2.711819   3.393647   3.259011
    16  O    2.530166   1.467402   2.493319   3.812118   4.450008
    17  H    3.206028   2.276345   1.019619   2.055892   3.249158
    18  H    6.980605   6.775146   5.204575   4.214357   4.814398
    19  H    9.241458   9.160364   7.626460   6.528162   6.877217
    20  H   10.082736  10.191125   8.818518   7.519671   7.430407
    21  H    8.995778   9.244774   8.125445   6.737696   6.228087
    22  H    6.644096   6.880707   5.903652   4.523830   3.821020
    23  H    4.952792   4.522211   2.904241   2.246311   3.313232
    24  H    2.869775   2.358855   2.855577   3.062014   2.550139
    25  H    3.554790   2.368599   2.907625   3.720557   3.794631
    26  H    2.862609   2.349949   3.656270   4.364124   4.116404
                    6          7          8          9         10
     6  O    0.000000
     7  C    1.354693   0.000000
     8  C    2.404833   1.458757   0.000000
     9  C    3.687478   2.478240   1.404215   0.000000
    10  C    4.828068   3.755530   2.423301   1.392213   0.000000
    11  C    5.031950   4.257926   2.799188   2.417793   1.397204
    12  C    4.190391   3.761656   2.423367   2.793901   2.418879
    13  C    2.797774   2.486934   1.403765   2.425393   2.793824
    14  C    2.220908   1.365967   2.592137   3.100653   4.490686
    15  C    4.627484   5.349367   6.774307   7.732632   9.067805
    16  O    5.765273   5.982632   7.412275   8.010792   9.400342
    17  H    4.204159   3.951456   5.278085   5.666908   7.050506
    18  H    4.033017   2.690572   2.159058   1.083630   2.149796
    19  H    5.789337   4.623180   3.404139   2.146673   1.084569
    20  H    6.091900   5.343191   3.884456   3.400446   2.155841
    21  H    4.826223   4.632273   3.404433   3.878596   3.403116
    22  H    2.447499   2.698048   2.154191   3.405111   3.877070
    23  H    3.269145   2.205620   3.044663   3.058432   4.412107
    24  H    3.825189   4.723527   6.087060   7.164038   8.446480
    25  H    5.096495   5.669731   7.072667   7.934042   9.270894
    26  H    5.472450   6.292931   7.708659   8.712781  10.038959
                   11         12         13         14         15
    11  C    0.000000
    12  C    1.396843   0.000000
    13  C    2.417821   1.392700   0.000000
    14  C    5.283469   5.006258   3.810467   0.000000
    15  C    9.539303   8.787887   7.400885   4.786503   0.000000
    16  O   10.176563   9.718774   8.382676   4.935171   2.680747
    17  H    7.950085   7.682901   6.438164   2.688548   3.519844
    18  H    3.399585   3.877530   3.408004   2.797515   7.565794
    19  H    2.156917   3.403087   3.878392   5.152491   9.851913
    20  H    1.085268   2.155630   3.400636   6.352029  10.616187
    21  H    2.156462   1.084696   2.147522   5.937847   9.390234
    22  H    3.401805   2.154011   1.083263   4.059212   6.945457
    23  H    5.437641   5.432864   4.407562   1.077268   5.457101
    24  H    8.793099   7.947868   6.566494   4.418728   1.089526
    25  H    9.811519   9.136293   7.775251   4.999832   1.088985
    26  H   10.461227   9.648703   8.258285   5.778429   1.090718
                   16         17         18         19         20
    16  O    0.000000
    17  H    2.508287   0.000000
    18  H    7.525498   5.087274   0.000000
    19  H    9.978108   7.556085   2.470632   0.000000
    20  H   11.252900   9.006817   4.294858   2.485623   0.000000
    21  H   10.506916   8.582980   4.962226   4.301443   2.485140
    22  H    8.205958   6.508248   4.300661   4.961633   4.298370
    23  H    5.155492   2.693568   2.395303   4.865225   6.453898
    24  H    3.563097   3.819402   7.137119   9.299602   9.856327
    25  H    2.837277   3.554887   7.694220  10.001147  10.881751
    26  H    2.997373   4.404881   8.570668  10.844582  11.534494
                   21         22         23         24         25
    21  H    0.000000
    22  H    2.477786   0.000000
    23  H    6.445432   4.853091   0.000000
    24  H    8.482331   6.025019   5.245295   0.000000
    25  H    9.778568   7.394223   5.549509   1.798959   0.000000
    26  H   10.195455   7.724611   6.460079   1.795957   1.796480
                   26
    26  H    0.000000
 Stoichiometry    C10H10N2O3S
 Framework group  C1[X(C10H10N2O3S)]
 Deg. of freedom    72
 Full point group                 C1      NOp   1
 RotChk:  IX=0 Diff= 4.96D-15
 Largest Abelian subgroup         C1      NOp   1
 Largest concise Abelian subgroup C1      NOp   1
                         Standard orientation:                         
 ---------------------------------------------------------------------
 Center     Atomic      Atomic             Coordinates (Angstroms)
 Number     Number       Type             X           Y           Z
 ---------------------------------------------------------------------
      1          8           0       -3.393490   -0.500509    1.506304
      2         16           0       -3.609831    0.126976    0.196112
      3          7           0       -2.189048    0.852693   -0.375136
      4          6           0       -0.925980    0.289478   -0.226817
      5          7           0       -0.757585   -1.016865   -0.134273
      6          8           0        0.632783   -1.189851   -0.048093
      7          6           0        1.245518    0.017126   -0.102452
      8          6           0        2.702331    0.034827   -0.029292
      9          6           0        3.389800    1.258866   -0.059906
     10          6           0        4.780069    1.281358    0.010110
     11          6           0        5.497536    0.086660    0.110702
     12          6           0        4.818463   -1.133595    0.142412
     13          6           0        3.427840   -1.162631    0.072148
     14          6           0        0.303850    1.000212   -0.215016
     15          6           0       -3.893470   -1.158672   -1.010212
     16          8           0       -4.619574    1.184366    0.071154
     17          1           0       -2.238212    1.869504   -0.317699
     18          1           0        2.835923    2.187058   -0.136941
     19          1           0        5.303106    2.231166   -0.014130
     20          1           0        6.581228    0.106915    0.165549
     21          1           0        5.371697   -2.063322    0.220555
     22          1           0        2.897414   -2.106837    0.096246
     23          1           0        0.447910    2.065883   -0.279034
     24          1           0       -3.014991   -1.803020   -1.022690
     25          1           0       -4.056751   -0.692587   -1.980776
     26          1           0       -4.777083   -1.710999   -0.687988
 ---------------------------------------------------------------------
 Rotational constants (GHZ):      1.8968578      0.1838695      0.1745063
 Leave Link  202 at Thu Aug  6 21:58:56 2020, MaxMem=    33554432 cpu:         0.0
 (Enter /prod/apps/gaussian/g09d1/l301.exe)
 Standard basis: 6-31G(d) (6D, 7F)
 Ernie: Thresh=  0.10000D-02 Tol=  0.10000D-05 Strict=F.
 There are   264 symmetry adapted cartesian basis functions of A   symmetry.
 There are   264 symmetry adapted basis functions of A   symmetry.
   264 basis functions,   512 primitive gaussians,   264 cartesian basis functions
    62 alpha electrons       62 beta electrons
       nuclear repulsion energy      1171.3010648749 Hartrees.
 IExCor=  402 DFT=T Ex+Corr=B3LYP ExCW=0 ScaHFX=  0.200000
 ScaDFX=  0.800000  0.720000  1.000000  0.810000 ScalE2=  1.000000  1.000000
 IRadAn=      0 IRanWt=     -1 IRanGd=            0 ICorTp=0 IEmpDi=  4
 NAtoms=   26 NActive=   26 NUniq=   26 SFac= 1.00D+00 NAtFMM=   60 NAOKFM=F Big=F
 Integral buffers will be    131072 words long.
 Raffenetti 2 integral format.
 Two-electron integral symmetry is turned on.
 Using the following non-standard input for PCM:
 MSTModel=DFT cav g03defaults OFac=0.8 Rmin=0.3
 Warning! Using old PCM defaults because the g03defaults keyword was found.
 These settings can be overridden by following keywords.
 --- end of non-standard input.
 MST model for solvation energy: B3LYP parametrization.
 MST cavity parameters:
 ISph   IAn     Re0     Alpha   Atom Type   QCorr
 ------------------------------------------------
   1      8     1.40     1.25      O          F
   2     16     1.75     1.25      S          F
   3      7     1.50     1.25      NH         F
   4      6     1.50     1.25      C          F
   5      7     1.40     1.25      N          F
   6      8     1.40     1.25      O          F
   7      6     1.50     1.25      C          F
   8      6     1.50     1.25      C          F
   9      6     1.50     1.25      CH         F
  10      6     1.50     1.25      CH         F
  11      6     1.50     1.25      CH         F
  12      6     1.50     1.25      CH         F
  13      6     1.50     1.25      CH         F
  14      6     1.50     1.25      CH         F
  15      6     1.50     1.25      CH3        F
  16      8     1.40     1.25      O          F
  17      1     0.90     1.25      NH         F
  18      1     1.20     1.25      CH         F
  19      1     1.20     1.25      CH         F
  20      1     1.20     1.25      CH         F
  21      1     1.20     1.25      CH         F
  22      1     1.20     1.25      CH         F
  23      1     1.20     1.25      CH         F
  24      1     1.20     1.25      CH3        F
  25      1     1.20     1.25      CH3        F
  26      1     1.20     1.25      CH3        F
 ------------------------------------------------------------------------------
 Polarizable Continuum Model (PCM)
 =================================
 Model                : PCM (using non-symmetric T matrix).
 Atomic radii         : MST.
 Polarization charges : Total charges.
 Charge compensation  : None.
 Solution method      : On-the-fly selection.
 Cavity type          : Scaled SES (Solvent Excluding Surface) (Alpha=1.250).
 Cavity algorithm     : GePol (RMin=0.300 OFac=0.800).
                        Default sphere list used, NSphG=   26.
                        Tesserae with average area of 0.200 Ang**2.
                        Smoothing algorithm: None.
                        Polarization charges: point-like.
                        Self-potential: constant (ISelfS= 1).
                        Self-field    : global E.n sum rule (ISelfD= 3).
 Solvent              : Water, Eps=  78.355300 Eps(inf)=   1.777849
                        RSolv=   1.385000 Ang.
 ------------------------------------------------------------------------------
 GePol: Number of generator spheres                  =      26
 GePol: Total number of spheres                      =      57
 GePol: Number of exposed spheres                    =      53 ( 92.98%)
 GePol: Number of tesserae                           =    2201
 GePol: Average area of tesserae                     =       0.12 Ang**2
 GePol: Minimum area of tessera                      =   0.10D-02 Ang**2
 GePol: Maximum area of tessera                      =    0.30575 Ang**2
 GePol: Number of small tesserae                     =       8
 GePol: Fraction of small tesserae (<1% of avg)      =       0.36%
 GePol: Total count of vertices                      =    7669
 GePol: Maximum number of vertices in a tessera      =       7
 GePol: Cavity surface area                          =    266.524 Ang**2
 GePol: Cavity volume                                =    258.789 Ang**3
 PCM non-electrostatic energy =         0.0028234681 Hartrees.
 Nuclear repulsion after PCM non-electrostatic terms =     1171.3038883431 Hartrees.
 Leave Link  301 at Thu Aug  6 21:58:56 2020, MaxMem=    33554432 cpu:         0.1
 (Enter /prod/apps/gaussian/g09d1/l302.exe)
 NPDir=0 NMtPBC=     1 NCelOv=     1 NCel=       1 NClECP=     1 NCelD=      1
         NCelK=      1 NCelE2=     1 NClLst=     1 CellRange=     0.0.
 One-electron integrals computed using PRISM.
 NBasis=   264 RedAO= T EigKep=  4.58D-04  NBF=   264
 NBsUse=   264 1.00D-06 EigRej= -1.00D+00 NBFU=   264
 Precomputing XC quadrature grid using
 IXCGrd= 4 IRadAn=           0 IRanWt=          -1 IRanGd=           0 AccXCQ= 0.00D+00.
 Generated NRdTot=       0 NPtTot=           0 NUsed=           0 NTot=          32
 NSgBfM=   261   261   261   261   261 MxSgAt=    26 MxSgA2=    26.
 Leave Link  302 at Thu Aug  6 21:58:57 2020, MaxMem=    33554432 cpu:         0.7
 (Enter /prod/apps/gaussian/g09d1/l303.exe)
 DipDrv:  MaxL=1.
 Leave Link  303 at Thu Aug  6 21:58:57 2020, MaxMem=    33554432 cpu:         0.0
 (Enter /prod/apps/gaussian/g09d1/l401.exe)
 Initial guess from the checkpoint file:  "SM41.n.5.pdb.xyz.mst.n.w.chk"
 B after Tr=     0.000000    0.000000    0.000000
         Rot=    1.000000    0.000000    0.000000    0.000000 Ang=   0.00 deg.
 Guess basis will be translated and rotated to current coordinates.
 JPrj=2 DoOrth=T DoCkMO=T.
 Leave Link  401 at Thu Aug  6 21:58:57 2020, MaxMem=    33554432 cpu:         0.2
 (Enter /dades/curu/work_g09D01_MST_AddSphPartition_ReadGammas/exe-dir/l502.exe)
 Closed shell SCF:
 Using DIIS extrapolation, IDIIS=  1040.
 Integral symmetry usage will be decided dynamically.
 IVT=      231207 IEndB=      231207 NGot=    33554432 MDV=    33409826
 LenX=    33409826 LenY=    33339689
 Requested convergence on RMS density matrix=1.00D-08 within 128 cycles.
 Requested convergence on MAX density matrix=1.00D-06.
 Requested convergence on             energy=1.00D-06.
 No special actions if energy rises.
 Fock matrices will be formed incrementally for  20 cycles.

 Cycle   1  Pass 1  IDiag  1:
 FoFJK:  IHMeth= 1 ICntrl=       0 DoSepK=F KAlg= 0 I1Cent=   0 FoldK=F
 IRaf= 740000000 NMat=   1 IRICut=       1 DoRegI=T DoRafI=F ISym2E= 0.
 FoFCou: FMM=F IPFlag=           0 FMFlag=      100000 FMFlg1=           0
         NFxFlg=           0 DoJE=F BraDBF=F KetDBF=F FulRan=T
         wScrn=  0.000000 ICntrl=       0 IOpCl=  0 I1Cent=           0 NGrid=           0
         NMat0=    1 NMatS0=      1 NMatT0=    0 NMatD0=    1 NMtDS0=    0 NMtDT0=    0
 Symmetry not used in FoFCou.
 Inv3:  Mode=1 IEnd=    14533203.
 Iteration    1 A*A^-1 deviation from unit magnitude is 5.11D-15 for   2164.
 Iteration    1 A*A^-1 deviation from orthogonality  is 3.73D-15 for   2189    141.
 Iteration    1 A^-1*A deviation from unit magnitude is 4.66D-15 for   2164.
 Iteration    1 A^-1*A deviation from orthogonality  is 1.83D-15 for   2193   2189.
 E= -1120.35368483375    
 DIIS: error= 1.96D-03 at cycle   1 NSaved=   1.
 NSaved= 1 IEnMin= 1 EnMin= -1120.35368483375     IErMin= 1 ErrMin= 1.96D-03
 ErrMax= 1.96D-03  0.00D+00 EMaxC= 1.00D-01 BMatC= 1.50D-03 BMatP= 1.50D-03
 IDIUse=3 WtCom= 9.80D-01 WtEn= 1.96D-02
 Coeff-Com:  0.100D+01
 Coeff-En:   0.100D+01
 Coeff:      0.100D+01
 Gap=     0.185 Goal=   None    Shift=    0.000
 GapD=    0.185 DampG=1.000 DampE=1.000 DampFc=1.0000 IDamp=-1.
 RMSDP=6.90D-04 MaxDP=1.75D-02              OVMax= 2.35D-02

 Cycle   2  Pass 1  IDiag  1:
 RMSU=  6.85D-04    CP:  9.97D-01
 E= -1120.35559942735     Delta-E=       -0.001914593598 Rises=F Damp=F
 DIIS: error= 2.22D-03 at cycle   2 NSaved=   2.
 NSaved= 2 IEnMin= 2 EnMin= -1120.35559942735     IErMin= 1 ErrMin= 1.96D-03
 ErrMax= 2.22D-03  0.00D+00 EMaxC= 1.00D-01 BMatC= 2.20D-03 BMatP= 1.50D-03
 IDIUse=3 WtCom= 1.75D-01 WtEn= 8.25D-01
 Coeff-Com:  0.569D+00 0.431D+00
 Coeff-En:   0.176D+00 0.824D+00
 Coeff:      0.245D+00 0.755D+00
 Gap=     0.184 Goal=   None    Shift=    0.000
 RMSDP=3.90D-04 MaxDP=1.92D-02 DE=-1.91D-03 OVMax= 2.48D-02

 Cycle   3  Pass 1  IDiag  1:
[...]
 (Enter /prod/apps/gaussian/g09d1/l601.exe)
 Copying SCF densities to generalized density rwf, IOpCl= 0 IROHF=0.

 **********************************************************************

            Population analysis using the SCF density.

 **********************************************************************

 Orbital symmetries:
       Occupied  (A) (A) (A) (A) (A) (A) (A) (A) (A) (A) (A) (A)
                 (A) (A) (A) (A) (A) (A) (A) (A) (A) (A) (A) (A)
                 (A) (A) (A) (A) (A) (A) (A) (A) (A) (A) (A) (A)
                 (A) (A) (A) (A) (A) (A) (A) (A) (A) (A) (A) (A)
                 (A) (A) (A) (A) (A) (A) (A) (A) (A) (A) (A) (A)
                 (A) (A)
       Virtual   (A) (A) (A) (A) (A) (A) (A) (A) (A) (A) (A) (A)
                 (A) (A) (A) (A) (A) (A) (A) (A) (A) (A) (A) (A)
                 (A) (A) (A) (A) (A) (A) (A) (A) (A) (A) (A) (A)
                 (A) (A) (A) (A) (A) (A) (A) (A) (A) (A) (A) (A)
                 (A) (A) (A) (A) (A) (A) (A) (A) (A) (A) (A) (A)
                 (A) (A) (A) (A) (A) (A) (A) (A) (A) (A) (A) (A)
                 (A) (A) (A) (A) (A) (A) (A) (A) (A) (A) (A) (A)
                 (A) (A) (A) (A) (A) (A) (A) (A) (A) (A) (A) (A)
                 (A) (A) (A) (A) (A) (A) (A) (A) (A) (A) (A) (A)
                 (A) (A) (A) (A) (A) (A) (A) (A) (A) (A) (A) (A)
                 (A) (A) (A) (A) (A) (A) (A) (A) (A) (A) (A) (A)
                 (A) (A) (A) (A) (A) (A) (A) (A) (A) (A) (A) (A)
                 (A) (A) (A) (A) (A) (A) (A) (A) (A) (A) (A) (A)
                 (A) (A) (A) (A) (A) (A) (A) (A) (A) (A) (A) (A)
                 (A) (A) (A) (A) (A) (A) (A) (A) (A) (A) (A) (A)
                 (A) (A) (A) (A) (A) (A) (A) (A) (A) (A) (A) (A)
                 (A) (A) (A) (A) (A) (A) (A) (A) (A) (A)
 The electronic state is 1-A.
 Alpha  occ. eigenvalues --  -89.13277 -19.24293 -19.16040 -19.15943 -14.39186
 Alpha  occ. eigenvalues --  -14.38490 -10.28124 -10.27261 -10.22495 -10.21781
 Alpha  occ. eigenvalues --  -10.20466 -10.20371 -10.20206 -10.19994 -10.19892
 Alpha  occ. eigenvalues --  -10.19861  -8.15811  -6.12357  -6.12225  -6.12057
 Alpha  occ. eigenvalues --   -1.14870  -1.12778  -1.01616  -0.96652  -0.87704
 Alpha  occ. eigenvalues --   -0.85519  -0.81408  -0.78256  -0.75607  -0.75388
 Alpha  occ. eigenvalues --   -0.66785  -0.65152  -0.62318  -0.60427  -0.57925
 Alpha  occ. eigenvalues --   -0.55442  -0.53414  -0.50882  -0.49750  -0.48712
 Alpha  occ. eigenvalues --   -0.48234  -0.47685  -0.46788  -0.44996  -0.44083
 Alpha  occ. eigenvalues --   -0.43546  -0.43430  -0.42770  -0.39921  -0.39062
 Alpha  occ. eigenvalues --   -0.37672  -0.36370  -0.35781  -0.35182  -0.33267
 Alpha  occ. eigenvalues --   -0.32780  -0.32121  -0.31492  -0.30122  -0.26479
 Alpha  occ. eigenvalues --   -0.26056  -0.23758
 Alpha virt. eigenvalues --   -0.05401  -0.01107   0.01768   0.04964   0.06631
 Alpha virt. eigenvalues --    0.06812   0.07755   0.08593   0.09925   0.11486
 Alpha virt. eigenvalues --    0.11728   0.12689   0.13455   0.15208   0.15825
 Alpha virt. eigenvalues --    0.16768   0.16859   0.16966   0.18502   0.19268
 Alpha virt. eigenvalues --    0.23208   0.25448   0.25663   0.29463   0.29890
 Alpha virt. eigenvalues --    0.31835   0.32945   0.33974   0.36293   0.38173
 Alpha virt. eigenvalues --    0.40907   0.43171   0.43854   0.44458   0.47841
 Alpha virt. eigenvalues --    0.49231   0.50007   0.51224   0.51838   0.53209
 Alpha virt. eigenvalues --    0.53439   0.54229   0.55541   0.56671   0.57789
 Alpha virt. eigenvalues --    0.58072   0.58757   0.59583   0.60587   0.61284
 Alpha virt. eigenvalues --    0.61795   0.62428   0.64098   0.64706   0.66534
 Alpha virt. eigenvalues --    0.67924   0.69423   0.70970   0.71814   0.75706
 Alpha virt. eigenvalues --    0.76163   0.78207   0.78843   0.79108   0.80418
 Alpha virt. eigenvalues --    0.81597   0.83511   0.83982   0.84451   0.84933
 Alpha virt. eigenvalues --    0.86453   0.86818   0.87856   0.88476   0.89099
 Alpha virt. eigenvalues --    0.90731   0.91391   0.92555   0.94495   0.95054
 Alpha virt. eigenvalues --    0.96707   0.97633   0.98622   1.00215   1.01149
 Alpha virt. eigenvalues --    1.02210   1.04077   1.04563   1.06464   1.09348
 Alpha virt. eigenvalues --    1.10521   1.13541   1.14533   1.15834   1.16912
 Alpha virt. eigenvalues --    1.17545   1.19389   1.22005   1.24118   1.26184
 Alpha virt. eigenvalues --    1.29542   1.31066   1.33260   1.33730   1.36310
 Alpha virt. eigenvalues --    1.37789   1.41897   1.42045   1.42534   1.44854
 Alpha virt. eigenvalues --    1.46295   1.47040   1.48173   1.49973   1.50019
 Alpha virt. eigenvalues --    1.51140   1.53706   1.57580   1.58782   1.66337
 Alpha virt. eigenvalues --    1.68980   1.72058   1.74814   1.76466   1.78457
 Alpha virt. eigenvalues --    1.78709   1.79425   1.80306   1.81217   1.83445
 Alpha virt. eigenvalues --    1.84747   1.87027   1.88716   1.91894   1.93153
 Alpha virt. eigenvalues --    1.94420   1.96529   1.98120   1.99369   1.99904
 Alpha virt. eigenvalues --    2.04542   2.05740   2.06819   2.09958   2.10363
 Alpha virt. eigenvalues --    2.11659   2.13198   2.14235   2.15971   2.17172
 Alpha virt. eigenvalues --    2.18734   2.20665   2.22312   2.23501   2.24751
 Alpha virt. eigenvalues --    2.25576   2.26345   2.28238   2.28811   2.29884
 Alpha virt. eigenvalues --    2.32737   2.35063   2.43062   2.50396   2.52752
 Alpha virt. eigenvalues --    2.53321   2.56798   2.58109   2.59969   2.62164
 Alpha virt. eigenvalues --    2.65990   2.66334   2.71053   2.72094   2.73920
 Alpha virt. eigenvalues --    2.74604   2.76655   2.80381   2.87082   2.89025
 Alpha virt. eigenvalues --    2.91293   3.02358   3.05091   3.13240   3.26770
 Alpha virt. eigenvalues --    3.42742   3.76085   3.79723   3.92494   3.97684
 Alpha virt. eigenvalues --    4.06764   4.08329   4.10755   4.10902   4.14726
 Alpha virt. eigenvalues --    4.22564   4.23015   4.31458   4.36812   4.40175
 Alpha virt. eigenvalues --    4.56517   4.74043
          Condensed to atoms (all electrons):
               1          2          3          4          5          6
     1  O    8.265528   0.441620  -0.054916   0.005639  -0.002091   0.000007
     2  S    0.441620  13.609848   0.099343  -0.001478   0.002283  -0.000328
     3  N   -0.054916   0.099343   7.472809   0.227367  -0.074854   0.005522
     4  C    0.005639  -0.001478   0.227367   4.463760   0.402492  -0.035925
     5  N   -0.002091   0.002283  -0.074854   0.402492   6.953316   0.111371
     6  O    0.000007  -0.000328   0.005522  -0.035925   0.111371   8.212480
     7  C    0.000001   0.000247  -0.000672  -0.017754  -0.081873   0.245439
     8  C    0.000000  -0.000009  -0.000207   0.002706   0.004240  -0.037676
     9  C    0.000000   0.000000   0.000003   0.000639  -0.000100   0.003134
    10  C    0.000000   0.000000   0.000000  -0.000007   0.000001  -0.000061
    11  C    0.000000   0.000000   0.000000   0.000000   0.000000   0.000002
    12  C    0.000000   0.000000   0.000000   0.000005   0.000000   0.000281
    13  C    0.000000   0.000000  -0.000001  -0.000348   0.000129  -0.006658
    14  C    0.000110   0.001457  -0.052928   0.454379  -0.044146  -0.090998
    15  C   -0.056589   0.232294  -0.051681  -0.007665  -0.007433   0.000131
    16  O   -0.045434   0.460052  -0.050810   0.001310  -0.000024   0.000000
    17  H   -0.000192  -0.011729   0.300182  -0.014285   0.002647  -0.000055
    18  H    0.000000   0.000000  -0.000001   0.000088  -0.000006   0.000025
    19  H    0.000000   0.000000   0.000000   0.000000   0.000000   0.000000
    20  H    0.000000   0.000000   0.000000   0.000000   0.000000   0.000000
    21  H    0.000000   0.000000   0.000000   0.000000   0.000000  -0.000003
    22  H    0.000000   0.000000   0.000000   0.000054  -0.000256   0.009706
    23  H    0.000002  -0.000125  -0.001885  -0.027781   0.004787   0.003309
    24  H   -0.001263  -0.002583  -0.002800  -0.000323   0.016982  -0.000347
    25  H    0.001837  -0.007251   0.000902   0.000260   0.000043  -0.000001
    26  H    0.000095  -0.017234   0.002411   0.000109   0.000139  -0.000001
               7          8          9         10         11         12
     1  O    0.000001   0.000000   0.000000   0.000000   0.000000   0.000000
     2  S    0.000247  -0.000009   0.000000   0.000000   0.000000   0.000000
     3  N   -0.000672  -0.000207   0.000003   0.000000   0.000000   0.000000
     4  C   -0.017754   0.002706   0.000639  -0.000007   0.000000   0.000005
     5  N   -0.081873   0.004240  -0.000100   0.000001   0.000000   0.000000
     6  O    0.245439  -0.037676   0.003134  -0.000061   0.000002   0.000281
     7  C    4.721294   0.348975  -0.042482   0.006354   0.000871   0.004743
     8  C    0.348975   4.782267   0.536294  -0.011267  -0.033838  -0.009726
     9  C   -0.042482   0.536294   5.014326   0.518566  -0.040172  -0.041307
    10  C    0.006354  -0.011267   0.518566   4.882497   0.540161  -0.026105
    11  C    0.000871  -0.033838  -0.040172   0.540161   4.873987   0.538900
    12  C    0.004743  -0.009726  -0.041307  -0.026105   0.538900   4.891125
    13  C   -0.041533   0.472631  -0.082095  -0.042057  -0.038166   0.505963
    14  C    0.508852  -0.057627  -0.019985   0.000229   0.000014  -0.000229
    15  C   -0.000026   0.000000   0.000000   0.000000   0.000000   0.000000
    16  O    0.000000   0.000000   0.000000   0.000000   0.000000   0.000000
    17  H    0.000018  -0.000001   0.000000   0.000000   0.000000   0.000000
    18  H   -0.012570  -0.037096   0.357200  -0.041040   0.004479   0.000169
    19  H   -0.000205   0.003221  -0.037266   0.363046  -0.040558   0.004365
    20  H    0.000003   0.000485   0.004809  -0.041451   0.364533  -0.041329
    21  H   -0.000172   0.003208   0.000766   0.004384  -0.040645   0.363569
    22  H   -0.012810  -0.042948   0.005284   0.000201   0.004542  -0.040694
    23  H   -0.026271  -0.003410   0.001187   0.000090  -0.000001   0.000002
    24  H    0.000052   0.000000   0.000000   0.000000   0.000000   0.000000
    25  H    0.000000   0.000000   0.000000   0.000000   0.000000   0.000000
    26  H    0.000000   0.000000   0.000000   0.000000   0.000000   0.000000
              13         14         15         16         17         18
     1  O    0.000000   0.000110  -0.056589  -0.045434  -0.000192   0.000000
     2  S    0.000000   0.001457   0.232294   0.460052  -0.011729   0.000000
     3  N   -0.000001  -0.052928  -0.051681  -0.050810   0.300182  -0.000001
     4  C   -0.000348   0.454379  -0.007665   0.001310  -0.014285   0.000088
     5  N    0.000129  -0.044146  -0.007433  -0.000024   0.002647  -0.000006
     6  O   -0.006658  -0.090998   0.000131   0.000000  -0.000055   0.000025
     7  C   -0.041533   0.508852  -0.000026   0.000000   0.000018  -0.012570
     8  C    0.472631  -0.057627   0.000000   0.000000  -0.000001  -0.037096
     9  C   -0.082095  -0.019985   0.000000   0.000000   0.000000   0.357200
    10  C   -0.042057   0.000229   0.000000   0.000000   0.000000  -0.041040
    11  C   -0.038166   0.000014   0.000000   0.000000   0.000000   0.004479
    12  C    0.505963  -0.000229   0.000000   0.000000   0.000000   0.000169
    13  C    5.059485   0.011877   0.000000   0.000000   0.000000   0.005604
    14  C    0.011877   5.229886  -0.000320  -0.000055  -0.004757   0.006045
    15  C    0.000000  -0.000320   5.558103  -0.057706   0.002364   0.000000
    16  O    0.000000  -0.000055  -0.057706   8.251863   0.004074   0.000000
    17  H    0.000000  -0.004757   0.002364   0.004074   0.289027   0.000000
    18  H    0.005604   0.006045   0.000000   0.000000   0.000000   0.554607
    19  H    0.000791  -0.000001   0.000000   0.000000   0.000000  -0.004808
    20  H    0.004677   0.000000   0.000000   0.000000   0.000000  -0.000154
    21  H   -0.037300   0.000001   0.000000   0.000000   0.000000   0.000015
    22  H    0.362920   0.000261   0.000000   0.000000   0.000000  -0.000138
    23  H   -0.000104   0.354204   0.000001  -0.000001   0.001553   0.001911
    24  H    0.000000   0.000189   0.326489   0.001587  -0.000076   0.000000
    25  H    0.000000  -0.000002   0.342377  -0.000119  -0.000041   0.000000
    26  H    0.000000   0.000002   0.356226  -0.000445  -0.000041   0.000000
              19         20         21         22         23         24
     1  O    0.000000   0.000000   0.000000   0.000000   0.000002  -0.001263
     2  S    0.000000   0.000000   0.000000   0.000000  -0.000125  -0.002583
     3  N    0.000000   0.000000   0.000000   0.000000  -0.001885  -0.002800
     4  C    0.000000   0.000000   0.000000   0.000054  -0.027781  -0.000323
     5  N    0.000000   0.000000   0.000000  -0.000256   0.004787   0.016982
     6  O    0.000000   0.000000  -0.000003   0.009706   0.003309  -0.000347
     7  C   -0.000205   0.000003  -0.000172  -0.012810  -0.026271   0.000052
     8  C    0.003221   0.000485   0.003208  -0.042948  -0.003410   0.000000
     9  C   -0.037266   0.004809   0.000766   0.005284   0.001187   0.000000
    10  C    0.363046  -0.041451   0.004384   0.000201   0.000090   0.000000
    11  C   -0.040558   0.364533  -0.040645   0.004542  -0.000001   0.000000
    12  C    0.004365  -0.041329   0.363569  -0.040694   0.000002   0.000000
    13  C    0.000791   0.004677  -0.037300   0.362920  -0.000104   0.000000
    14  C   -0.000001   0.000000   0.000001   0.000261   0.354204   0.000189
    15  C    0.000000   0.000000   0.000000   0.000000   0.000001   0.326489
    16  O    0.000000   0.000000   0.000000   0.000000  -0.000001   0.001587
    17  H    0.000000   0.000000   0.000000   0.000000   0.001553  -0.000076
    18  H   -0.004808  -0.000154   0.000015  -0.000138   0.001911   0.000000
    19  H    0.555920  -0.005093  -0.000161   0.000015  -0.000002   0.000000
    20  H   -0.005093   0.559262  -0.005069  -0.000150   0.000000   0.000000
    21  H   -0.000161  -0.005069   0.555827  -0.004850   0.000000   0.000000
    22  H    0.000015  -0.000150  -0.004850   0.552730  -0.000008   0.000000
    23  H   -0.000002   0.000000   0.000000  -0.000008   0.495539  -0.000003
    24  H    0.000000   0.000000   0.000000   0.000000  -0.000003   0.458132
    25  H    0.000000   0.000000   0.000000   0.000000   0.000000  -0.019686
    26  H    0.000000   0.000000   0.000000   0.000000   0.000000  -0.014981
              25         26
     1  O    0.001837   0.000095
     2  S   -0.007251  -0.017234
     3  N    0.000902   0.002411
     4  C    0.000260   0.000109
     5  N    0.000043   0.000139
     6  O   -0.000001  -0.000001
     7  C    0.000000   0.000000
     8  C    0.000000   0.000000
     9  C    0.000000   0.000000
    10  C    0.000000   0.000000
    11  C    0.000000   0.000000
    12  C    0.000000   0.000000
    13  C    0.000000   0.000000
    14  C   -0.000002   0.000002
    15  C    0.342377   0.356226
    16  O   -0.000119  -0.000445
    17  H   -0.000041  -0.000041
    18  H    0.000000   0.000000
    19  H    0.000000   0.000000
    20  H    0.000000   0.000000
    21  H    0.000000   0.000000
    22  H    0.000000   0.000000
    23  H    0.000000   0.000000
    24  H   -0.019686  -0.014981
    25  H    0.466522  -0.016733
    26  H   -0.016733   0.452920
 Mulliken charges:
               1
     1  O   -0.554356
     2  S    1.193593
     3  N   -0.817783
     4  C    0.546755
     5  N   -0.287649
     6  O   -0.419355
     7  C    0.399517
     8  C    0.079779
     9  C   -0.178802
    10  C   -0.153541
    11  C   -0.134112
    12  C   -0.149734
    13  C   -0.175815
    14  C   -0.296460
    15  C   -0.636566
    16  O   -0.564293
    17  H    0.431312
    18  H    0.165669
    19  H    0.160734
    20  H    0.159478
    21  H    0.160429
    22  H    0.166140
    23  H    0.197007
    24  H    0.238631
    25  H    0.231890
    26  H    0.237531
 Sum of Mulliken charges =   0.00000
 Mulliken charges with hydrogens summed into heavy atoms:
               1
     1  O   -0.554356
     2  S    1.193593
     3  N   -0.386471
     4  C    0.546755
     5  N   -0.287649
     6  O   -0.419355
     7  C    0.399517
     8  C    0.079779
     9  C   -0.013133
    10  C    0.007193
    11  C    0.025366
    12  C    0.010695
    13  C   -0.009674
    14  C   -0.099452
    15  C    0.071486
    16  O   -0.564293
 Electronic spatial extent (au):  <R**2>=           5862.3526
 Charge=              0.0000 electrons
 Dipole moment (field-independent basis, Debye):
    X=              5.1973    Y=              2.5325    Z=             -3.9553  Tot=              7.0050
 Quadrupole moment (field-independent basis, Debye-Ang):
   XX=            -93.9090   YY=            -88.8848   ZZ=           -104.1560
   XY=              8.6200   XZ=             14.7764   YZ=              1.8928
 Traceless Quadrupole moment (field-independent basis, Debye-Ang):
   XX=              1.7409   YY=              6.7651   ZZ=             -8.5060
   XY=              8.6200   XZ=             14.7764   YZ=              1.8928
 Octapole moment (field-independent basis, Debye-Ang**2):
  XXX=            139.3364  YYY=             15.0970  ZZZ=             -6.8153  XYY=              3.8356
  XXY=            -54.2832  XXZ=            -47.0632  XZZ=            -20.0243  YZZ=             -0.5229
  YYZ=             -3.3399  XYZ=            -12.1657
 Hexadecapole moment (field-independent basis, Debye-Ang**3):
 XXXX=          -6434.1690 YYYY=           -570.0051 ZZZZ=           -245.0728 XXXY=            295.1148
 XXXZ=            212.7666 YYYX=             -4.8314 YYYZ=             -6.2194 ZZZX=             24.4196
 ZZZY=              5.1930 XXYY=          -1140.3735 XXZZ=          -1260.3363 YYZZ=           -151.8758
 XXYZ=             27.9574 YYXZ=             10.0028 ZZXY=             -9.4908
 N-N= 1.171303888343D+03 E-N=-4.970117848380D+03  KE= 1.112210615793D+03
 No NMR shielding tensors so no spin-rotation constants.
 Leave Link  601 at Thu Aug  6 22:00:52 2020, MaxMem=    33554432 cpu:         0.2
 (Enter /prod/apps/gaussian/g09d1/l9999.exe)
 1\1\GINC-PIRINEUS11\SP\RB3LYP\6-31G(d)\C10H10N2O3S1\UBAFAR01\06-Aug-20
 20\0\\#p b3lyp/6-31G(d) scrf=(iefpcm,read,solvent=Water) geom=allcheck
  guess=read\\SM41.n.5.pdb.xyz\\0,1\O,0,2.064,0.236,3.917\S,0,2.962,0.,
 2.779\N,0,2.524,0.953,1.448\C,0,2.093,2.271,1.556\N,0,2.475,3.044,2.55
 6\O,0,1.882,4.288,2.289\C,0,1.176,4.217,1.135\C,0,0.488,5.425,0.693\C,
 0,-0.276,5.404,-0.485\C,0,-0.935,6.554,-0.911\C,0,-0.839,7.734,-0.169\
 C,0,-0.081,7.76,1.004\C,0,0.581,6.613,1.435\C,0,1.271,2.955,0.621\C,0,
 4.579,0.637,3.189\O,0,3.066,-1.354,2.223\H,0,2.087,0.395,0.715\H,0,-0.
 353,4.49,-1.062\H,0,-1.523,6.529,-1.822\H,0,-1.354,8.629,-0.503\H,0,-0
 .004,8.674,1.583\H,0,1.17,6.629,2.344\H,0,0.83,2.56,-0.279\H,0,4.475,1
 .702,3.394\H,0,5.245,0.459,2.346\H,0,4.919,0.101,4.076\\Version=AM64L-
 G09RevD.01\State=1-A\HF=-1120.3575299\RMSD=9.958e-09\Dipole=-0.0172549
 ,1.5402775,-2.2853087\Quadrupole=7.6409483,-6.8504851,-0.7904632,-7.20
 47356,8.3298827,4.7917857\PG=C01 [X(C10H10N2O3S1)]\\@


 I MET A TRAVELLER FROM AN ANTIQUE LAND
 WHO SAID... TWO VAST AND TRUNKLESS LEGS OF STONE
 STAND IN THE DESERT..... NEAR THEM,  ON THE SAND,
 HALF SUNK,  A SHATTERED VISAGE LIES,  WHOSE FROWN,
 AND WRINKLED LIP,  AND SNEER OF COLD COMMAND
 TELL THAT ITS SCULPTOR WELL THOSE PASSIONS READ
 WHICH YET SURVIVE,  STAMPED ON THESE LIFELESS THINGS
 THE HAND THAT MOCKED THEM,  AND THE HEART THAT FED-
 AND ON THE PEDESTAL THESE WORDS APPEAR 
 MY NAME IS OZYMANDIAS, KING OF KINGS--   
 LOOK ON MY WORKS YE MIGHTY AND DESPAIR. 
 NOTHING BESIDE REMAINS,  ROUND THE DECAY 
 OF THAT COLOSSAL WRECK,  BOUNDLESS AND BARE
 THE LONE AND LEVEL SANDS STRETCH FAR AWAY.
                                    SHELLEY
 Job cpu time:       0 days  0 hours  1 minutes 56.3 seconds.
 File lengths (MBytes):  RWF=    121 Int=      0 D2E=      0 Chk=      5 Scr=      1
 Normal termination of Gaussian 09 at Thu Aug  6 22:00:52 2020.
