 Entering Gaussian System, Link 0=g09
 Initial command:
 /prod/apps/gaussian/g09d1/l1.exe "/tmp/ubafar01/1448634/Gau-164057.inp" -scrdir="/tmp/ubafar01/1448634/"
 Entering Link 1 = /prod/apps/gaussian/g09d1/l1.exe PID=    164060.
  
 Copyright (c) 1988,1990,1992,1993,1995,1998,2003,2009,2013,
            Gaussian, Inc.  All Rights Reserved.
  
 This is part of the Gaussian(R) 09 program.  It is based on
 the Gaussian(R) 03 system (copyright 2003, Gaussian, Inc.),
 the Gaussian(R) 98 system (copyright 1998, Gaussian, Inc.),
 the Gaussian(R) 94 system (copyright 1995, Gaussian, Inc.),
 the Gaussian 92(TM) system (copyright 1992, Gaussian, Inc.),
 the Gaussian 90(TM) system (copyright 1990, Gaussian, Inc.),
 the Gaussian 88(TM) system (copyright 1988, Gaussian, Inc.),
 the Gaussian 86(TM) system (copyright 1986, Carnegie Mellon
 University), and the Gaussian 82(TM) system (copyright 1983,
 Carnegie Mellon University). Gaussian is a federally registered
 trademark of Gaussian, Inc.
  
 This software contains proprietary and confidential information,
 including trade secrets, belonging to Gaussian, Inc.
  
 This software is provided under written license and may be
 used, copied, transmitted, or stored only in accord with that
 written license.
  
 The following legend is applicable only to US Government
 contracts under FAR:
  
                    RESTRICTED RIGHTS LEGEND
  
 Use, reproduction and disclosure by the US Government is
 subject to restrictions as set forth in subparagraphs (a)
 and (c) of the Commercial Computer Software - Restricted
 Rights clause in FAR 52.227-19.
  
 Gaussian, Inc.
 340 Quinnipiac St., Bldg. 40, Wallingford CT 06492
  
  
 ---------------------------------------------------------------
 Warning -- This program may not be used in any manner that
 competes with the business of Gaussian, Inc. or will provide
 assistance to any competitor of Gaussian, Inc.  The licensee
 of this program is prohibited from giving any competitor of
 Gaussian, Inc. access to this program.  By using this program,
 the user acknowledges that Gaussian, Inc. is engaged in the
 business of creating and licensing software in the field of
 computational chemistry and represents and warrants to the
 licensee that it is not a competitor of Gaussian, Inc. and that
 it will not use this program in any manner prohibited above.
 ---------------------------------------------------------------
  

 Cite this work as:
 Gaussian 09, Revision D.01,
 M. J. Frisch, G. W. Trucks, H. B. Schlegel, G. E. Scuseria, 
 M. A. Robb, J. R. Cheeseman, G. Scalmani, V. Barone, B. Mennucci, 
 G. A. Petersson, H. Nakatsuji, M. Caricato, X. Li, H. P. Hratchian, 
 A. F. Izmaylov, J. Bloino, G. Zheng, J. L. Sonnenberg, M. Hada, 
 M. Ehara, K. Toyota, R. Fukuda, J. Hasegawa, M. Ishida, T. Nakajima, 
 Y. Honda, O. Kitao, H. Nakai, T. Vreven, J. A. Montgomery, Jr., 
 J. E. Peralta, F. Ogliaro, M. Bearpark, J. J. Heyd, E. Brothers, 
 K. N. Kudin, V. N. Staroverov, T. Keith, R. Kobayashi, J. Normand, 
 K. Raghavachari, A. Rendell, J. C. Burant, S. S. Iyengar, J. Tomasi, 
 M. Cossi, N. Rega, J. M. Millam, M. Klene, J. E. Knox, J. B. Cross, 
 V. Bakken, C. Adamo, J. Jaramillo, R. Gomperts, R. E. Stratmann, 
 O. Yazyev, A. J. Austin, R. Cammi, C. Pomelli, J. W. Ochterski, 
 R. L. Martin, K. Morokuma, V. G. Zakrzewski, G. A. Voth, 
 P. Salvador, J. J. Dannenberg, S. Dapprich, A. D. Daniels, 
 O. Farkas, J. B. Foresman, J. V. Ortiz, J. Cioslowski, 
 and D. J. Fox, Gaussian, Inc., Wallingford CT, 2013.
 
 ******************************************
 Gaussian 09:  AM64L-G09RevD.01 24-Apr-2013
                 6-Aug-2020 
 ******************************************
 %nproc=1
 Will use up to    1 processors via shared memory.
 %Chk=SM41.n.1.pdb.xyz.mst.n.o.chk
 -----------------
 #p b3lyp/6-31G(d)
 -----------------
 1/38=1/1;
 2/12=2,17=6,18=5,40=1/2;
 3/5=1,6=6,7=1,11=2,16=1,25=1,30=1,74=-5/1,2,3;
 4//1;
 5/5=2,38=5/2;
 6/7=2,8=2,9=2,10=2,28=1/1;
 99/5=1,9=1/99;
 Leave Link    1 at Thu Aug  6 22:02:15 2020, MaxMem=           0 cpu:         0.0
 (Enter /prod/apps/gaussian/g09d1/l101.exe)
 ----------------
 SM41.n.1.pdb.xyz
 ----------------
 Symbolic Z-matrix:
 Charge =  0 Multiplicity = 1
 O                     3.211     0.784    -1.525 
 S                     3.938     0.308    -0.347 
 N                     4.376     1.68      0.546 
 C                     3.456     2.683     0.869 
 N                     3.545     3.277     2.044 
 O                     2.551     4.263     2.016 
 C                     1.888     4.21      0.836 
 C                     0.804     5.162     0.63 
 C                     0.088     5.161    -0.578 
 C                    -0.947     6.069    -0.777 
 C                    -1.281     6.985     0.223 
 C                    -0.572     6.99      1.426 
 C                     0.465     6.085     1.632 
 C                     2.424     3.222     0.056 
 C                     2.79     -0.607     0.688 
 O                     5.174    -0.46     -0.478 
 H                     5.06      1.476     1.272 
 H                     0.346     4.452    -1.355 
 H                    -1.494     6.061    -1.713 
 H                    -2.088     7.691     0.066 
 H                    -0.827     7.699     2.206 
 H                     1.019     6.085     2.563 
 H                     2.156     2.913    -0.939 
 H                     1.935     0.029     0.915 
 H                     3.303    -0.914     1.599 
 H                     2.469    -1.48      0.118 
 
 NAtoms=     26 NQM=       26 NQMF=       0 NMMI=      0 NMMIF=      0
                NMic=       0 NMicF=      0.
                    Isotopes and Nuclear Properties:
 (Nuclear quadrupole moments (NQMom) in fm**2, nuclear magnetic moments (NMagM)
  in nuclear magnetons)

  Atom         1           2           3           4           5           6           7           8           9          10
 IAtWgt=          16          32          14          12          14          16          12          12          12          12
 AtmWgt=  15.9949146  31.9720718  14.0030740  12.0000000  14.0030740  15.9949146  12.0000000  12.0000000  12.0000000  12.0000000
 NucSpn=           0           0           2           0           2           0           0           0           0           0
 AtZEff=   0.0000000   0.0000000   0.0000000   0.0000000   0.0000000   0.0000000   0.0000000   0.0000000   0.0000000   0.0000000
 NQMom=    0.0000000   0.0000000   2.0440000   0.0000000   2.0440000   0.0000000   0.0000000   0.0000000   0.0000000   0.0000000
 NMagM=    0.0000000   0.0000000   0.4037610   0.0000000   0.4037610   0.0000000   0.0000000   0.0000000   0.0000000   0.0000000
 AtZNuc=   8.0000000  16.0000000   7.0000000   6.0000000   7.0000000   8.0000000   6.0000000   6.0000000   6.0000000   6.0000000

  Atom        11          12          13          14          15          16          17          18          19          20
 IAtWgt=          12          12          12          12          12          16           1           1           1           1
 AtmWgt=  12.0000000  12.0000000  12.0000000  12.0000000  12.0000000  15.9949146   1.0078250   1.0078250   1.0078250   1.0078250
 NucSpn=           0           0           0           0           0           0           1           1           1           1
 AtZEff=   0.0000000   0.0000000   0.0000000   0.0000000   0.0000000   0.0000000   0.0000000   0.0000000   0.0000000   0.0000000
 NQMom=    0.0000000   0.0000000   0.0000000   0.0000000   0.0000000   0.0000000   0.0000000   0.0000000   0.0000000   0.0000000
 NMagM=    0.0000000   0.0000000   0.0000000   0.0000000   0.0000000   0.0000000   2.7928460   2.7928460   2.7928460   2.7928460
 AtZNuc=   6.0000000   6.0000000   6.0000000   6.0000000   6.0000000   8.0000000   1.0000000   1.0000000   1.0000000   1.0000000

  Atom        21          22          23          24          25          26
 IAtWgt=           1           1           1           1           1           1
 AtmWgt=   1.0078250   1.0078250   1.0078250   1.0078250   1.0078250   1.0078250
 NucSpn=           1           1           1           1           1           1
 AtZEff=   0.0000000   0.0000000   0.0000000   0.0000000   0.0000000   0.0000000
 NQMom=    0.0000000   0.0000000   0.0000000   0.0000000   0.0000000   0.0000000
 NMagM=    2.7928460   2.7928460   2.7928460   2.7928460   2.7928460   2.7928460
 AtZNuc=   1.0000000   1.0000000   1.0000000   1.0000000   1.0000000   1.0000000
 Leave Link  101 at Thu Aug  6 22:02:15 2020, MaxMem=    33554432 cpu:         0.1
 (Enter /prod/apps/gaussian/g09d1/l202.exe)
                          Input orientation:                          
 ---------------------------------------------------------------------
 Center     Atomic      Atomic             Coordinates (Angstroms)
 Number     Number       Type             X           Y           Z
 ---------------------------------------------------------------------
      1          8           0        3.211000    0.784000   -1.525000
      2         16           0        3.938000    0.308000   -0.347000
      3          7           0        4.376000    1.680000    0.546000
      4          6           0        3.456000    2.683000    0.869000
      5          7           0        3.545000    3.277000    2.044000
      6          8           0        2.551000    4.263000    2.016000
      7          6           0        1.888000    4.210000    0.836000
      8          6           0        0.804000    5.162000    0.630000
      9          6           0        0.088000    5.161000   -0.578000
     10          6           0       -0.947000    6.069000   -0.777000
     11          6           0       -1.281000    6.985000    0.223000
     12          6           0       -0.572000    6.990000    1.426000
     13          6           0        0.465000    6.085000    1.632000
     14          6           0        2.424000    3.222000    0.056000
     15          6           0        2.790000   -0.607000    0.688000
     16          8           0        5.174000   -0.460000   -0.478000
     17          1           0        5.060000    1.476000    1.272000
     18          1           0        0.346000    4.452000   -1.355000
     19          1           0       -1.494000    6.061000   -1.713000
     20          1           0       -2.088000    7.691000    0.066000
     21          1           0       -0.827000    7.699000    2.206000
     22          1           0        1.019000    6.085000    2.563000
     23          1           0        2.156000    2.913000   -0.939000
     24          1           0        1.935000    0.029000    0.915000
     25          1           0        3.303000   -0.914000    1.599000
     26          1           0        2.469000   -1.480000    0.118000
 ---------------------------------------------------------------------
                    Distance matrix (angstroms):
                    1          2          3          4          5
     1  O    0.000000
     2  S    1.463827   0.000000
     3  N    2.539504   1.694602   0.000000
     4  C    3.065528   2.711384   1.398835   0.000000
     5  N    4.366276   3.832270   2.342002   1.319614   0.000000
     6  O    5.007766   4.811399   3.487609   2.151984   1.400363
     7  C    4.366019   4.563726   3.560217   2.188936   2.252865
     8  C    5.441007   5.859846   4.989044   3.638085   3.614651
     9  C    5.459676   6.198989   5.636283   4.424671   4.730242
    10  C    6.766069   7.565530   7.024812   5.793162   5.994278
    11  C    7.854042   8.493832   7.762023   6.431461   6.352604
    12  C    7.844356   8.254257   7.311170   5.923283   5.578349
    13  C    6.753352   7.025091   5.989937   4.593675   4.188199
    14  C    3.010444   3.308474   2.535383   1.420040   2.282939
    15  C    2.647544   1.796205   2.786742   3.361609   4.182609
    16  O    2.548944   1.461055   2.502994   3.826798   4.793672
    17  H    3.423576   2.290037   1.018110   2.047455   2.476855
    18  H    4.657397   5.575954   5.247731   4.212794   4.813255
    19  H    7.072418   8.029296   7.665060   6.525344   6.874389
    20  H    8.849708   9.538969   8.840012   7.514041   7.424727
    21  H    8.834197   9.156960   8.127433   6.729927   6.220507
    22  H    7.043948   7.096646   5.894214   4.514666   3.812467
    23  H    2.447256   3.211232   2.941754   2.238697   3.310605
    24  H    2.855136   2.383798   2.969923   3.059293   3.796873
    25  H    3.556831   2.383993   2.998162   3.673516   4.221501
    26  H    2.894082   2.360324   3.715566   4.343816   5.243692
                    6          7          8          9         10
     6  O    0.000000
     7  C    1.354540   0.000000
     8  C    2.404414   1.457325   0.000000
     9  C    3.688036   2.478668   1.404251   0.000000
    10  C    4.826851   3.754314   2.422457   1.391147   0.000000
    11  C    5.030741   4.256637   2.799322   2.417176   1.396643
    12  C    4.187811   3.758736   2.422514   2.792285   2.417038
    13  C    2.796165   2.484788   1.403871   2.424872   2.792361
    14  C    2.222928   1.368152   2.591809   3.101382   4.490316
    15  C    5.053475   4.902958   6.101551   6.494104   7.789761
    16  O    5.950369   5.859462   7.206348   7.581097   8.954545
    17  H    3.823086   4.210277   5.666771   6.459296   7.834418
    18  H    4.032541   2.690132   2.157334   1.083039   2.149563
    19  H    5.787942   4.621853   3.402742   2.144982   1.084144
    20  H    6.088843   5.340303   3.882989   3.398619   2.154858
    21  H    4.822145   4.628309   3.402985   3.876767   3.401410
    22  H    2.442523   2.693198   2.152822   3.403883   3.875695
    23  H    3.272698   2.214646   3.057395   3.075784   4.428904
    24  H    4.417965   4.182010   5.263846   5.654899   6.902926
    25  H    5.247925   5.370267   6.640914   7.209797   8.512941
    26  H    6.049064   5.764476   6.866625   7.089179   8.334116
                   11         12         13         14         15
    11  C    0.000000
    12  C    1.396394   0.000000
    13  C    2.417395   1.391700   0.000000
    14  C    5.283473   5.005071   3.810279   0.000000
    15  C    8.627151   8.340389   7.147001   3.898028   0.000000
    16  O    9.878585   9.599179   8.334495   4.626530   2.657935
    17  H    8.465091   7.883358   6.518167   3.387576   3.135737
    18  H    3.399015   3.875323   3.406320   2.796767   5.978333
    19  H    2.155746   3.400948   3.876504   5.151699   8.281285
    20  H    1.083667   2.153893   3.398441   6.350607   9.645650
    21  H    2.155969   1.084484   2.145632   5.935910   9.185676
    22  H    3.402293   2.154780   1.083364   4.056580   7.171815
    23  H    5.453842   5.445837   4.419401   1.075793   3.929311
    24  H    7.694638   7.416312   6.272968   3.342492   1.089518
    25  H    9.235834   8.804474   7.552571   4.501109   1.089651
    26  H    9.259036   9.093924   7.971037   4.702624   1.090903
                   16         17         18         19         20
    16  O    0.000000
    17  H    2.612201   0.000000
    18  H    6.943087   6.162751   0.000000
    19  H    9.408023   8.537410   2.470353   0.000000
    20  H   10.930296   9.548537   4.293567   2.484870   0.000000
    21  H   10.477840   8.617126   4.959804   4.299592   2.483905
    22  H    8.327589   6.264123   4.297714   4.959831   4.297405
    23  H    4.549503   3.922589   2.411986   4.881750   6.469223
    24  H    3.559591   3.462208   5.219267   7.419532   8.695492
    25  H    2.832082   2.984305   6.801759   9.090169  10.269323
    26  H    2.951718   4.096698   6.470354   8.713473  10.240908
                   21         22         23         24         25
    21  H    0.000000
    22  H    2.477935   0.000000
    23  H    6.457175   4.859872   0.000000
    24  H    8.253740   6.342720   3.435639   0.000000
    25  H    9.571265   7.425089   4.733179   1.796811   0.000000
    26  H    9.973836   8.081445   4.529202   1.788140   1.791444
                   26
    26  H    0.000000
 Stoichiometry    C10H10N2O3S
 Framework group  C1[X(C10H10N2O3S)]
 Deg. of freedom    72
 Full point group                 C1      NOp   1
 Largest Abelian subgroup         C1      NOp   1
 Largest concise Abelian subgroup C1      NOp   1
                         Standard orientation:                         
 ---------------------------------------------------------------------
 Center     Atomic      Atomic             Coordinates (Angstroms)
 Number     Number       Type             X           Y           Z
 ---------------------------------------------------------------------
      1          8           0        2.648555   -1.703944   -0.418211
      2         16           0        3.347116   -0.478457   -0.027080
      3          7           0        2.411058    0.818853   -0.586063
      4          6           0        1.035342    0.901800   -0.346766
      5          7           0        0.498441    2.083680   -0.109533
      6          8           0       -0.874094    1.830217    0.004130
      7          6           0       -1.107894    0.504524   -0.146384
      8          6           0       -2.488862    0.049485   -0.048088
      9          6           0       -2.792925   -1.312314   -0.206108
     10          6           0       -4.110474   -1.748977   -0.112947
     11          6           0       -5.137513   -0.836849    0.139690
     12          6           0       -4.840293    0.518381    0.297577
     13          6           0       -3.524652    0.962648    0.205145
     14          6           0        0.074512   -0.143326   -0.378865
     15          6           0        3.322023   -0.367012    1.765489
     16          8           0        4.699168   -0.192247   -0.501128
     17          1           0        2.906756    1.707372   -0.549102
     18          1           0       -1.998006   -2.021090   -0.402870
     19          1           0       -4.335707   -2.802227   -0.236656
     20          1           0       -6.163053   -1.179357    0.212428
     21          1           0       -5.633744    1.231115    0.493923
     22          1           0       -3.288419    2.013024    0.325901
     23          1           0        0.260310   -1.187965   -0.556457
     24          1           0        2.289500   -0.423987    2.108564
     25          1           0        3.784232    0.572326    2.067725
     26          1           0        3.893174   -1.213990    2.148222
 ---------------------------------------------------------------------
 Rotational constants (GHZ):      1.3740186      0.2092152      0.1911230
 Leave Link  202 at Thu Aug  6 22:02:15 2020, MaxMem=    33554432 cpu:         0.0
 (Enter /prod/apps/gaussian/g09d1/l301.exe)
 Standard basis: 6-31G(d) (6D, 7F)
 Ernie: Thresh=  0.10000D-02 Tol=  0.10000D-05 Strict=F.
 There are   264 symmetry adapted cartesian basis functions of A   symmetry.
 There are   264 symmetry adapted basis functions of A   symmetry.
   264 basis functions,   512 primitive gaussians,   264 cartesian basis functions
    62 alpha electrons       62 beta electrons
       nuclear repulsion energy      1181.0020084776 Hartrees.
 IExCor=  402 DFT=T Ex+Corr=B3LYP ExCW=0 ScaHFX=  0.200000
 ScaDFX=  0.800000  0.720000  1.000000  0.810000 ScalE2=  1.000000  1.000000
 IRadAn=      0 IRanWt=     -1 IRanGd=            0 ICorTp=0 IEmpDi=  4
 NAtoms=   26 NActive=   26 NUniq=   26 SFac= 1.00D+00 NAtFMM=   60 NAOKFM=F Big=F
 Integral buffers will be    131072 words long.
 Raffenetti 2 integral format.
 Two-electron integral symmetry is turned on.
 Leave Link  301 at Thu Aug  6 22:02:15 2020, MaxMem=    33554432 cpu:         0.0
 (Enter /prod/apps/gaussian/g09d1/l302.exe)
 NPDir=0 NMtPBC=     1 NCelOv=     1 NCel=       1 NClECP=     1 NCelD=      1
         NCelK=      1 NCelE2=     1 NClLst=     1 CellRange=     0.0.
 One-electron integrals computed using PRISM.
 NBasis=   264 RedAO= T EigKep=  4.56D-04  NBF=   264
 NBsUse=   264 1.00D-06 EigRej= -1.00D+00 NBFU=   264
 Precomputing XC quadrature grid using
 IXCGrd= 4 IRadAn=           0 IRanWt=          -1 IRanGd=           0 AccXCQ= 0.00D+00.
 Generated NRdTot=       0 NPtTot=           0 NUsed=           0 NTot=          32
 NSgBfM=   263   263   263   263   263 MxSgAt=    26 MxSgA2=    26.
 Leave Link  302 at Thu Aug  6 22:02:16 2020, MaxMem=    33554432 cpu:         0.7
 (Enter /prod/apps/gaussian/g09d1/l303.exe)
 DipDrv:  MaxL=1.
 Leave Link  303 at Thu Aug  6 22:02:16 2020, MaxMem=    33554432 cpu:         0.0
 (Enter /prod/apps/gaussian/g09d1/l401.exe)
 ExpMin= 1.17D-01 ExpMax= 2.19D+04 ExpMxC= 3.30D+03 IAcc=1 IRadAn=         1 AccDes= 0.00D+00
 Harris functional with IExCor=  402 and IRadAn=       1 diagonalized for initial guess.
 HarFok:  IExCor=  402 AccDes= 0.00D+00 IRadAn=         1 IDoV= 1 UseB2=F ITyADJ=14
 ICtDFT=  3500011 ScaDFX=  1.000000  1.000000  1.000000  1.000000
 FoFCou: FMM=F IPFlag=           0 FMFlag=      100000 FMFlg1=           0
         NFxFlg=           0 DoJE=T BraDBF=F KetDBF=T FulRan=T
         wScrn=  0.000000 ICntrl=     500 IOpCl=  0 I1Cent=   200000004 NGrid=           0
         NMat0=    1 NMatS0=      1 NMatT0=    0 NMatD0=    1 NMtDS0=    0 NMtDT0=    0
 Petite list used in FoFCou.
 Harris En= -1120.38068287930    
 JPrj=0 DoOrth=F DoCkMO=F.
 Leave Link  401 at Thu Aug  6 22:02:18 2020, MaxMem=    33554432 cpu:         2.1
 (Enter /prod/apps/gaussian/g09d1/l502.exe)
 Closed shell SCF:
 Using DIIS extrapolation, IDIIS=  1040.
 Integral symmetry usage will be decided dynamically.
 IVT=      231207 IEndB=      231207 NGot=    33554432 MDV=    33409826
 LenX=    33409826 LenY=    33339689
 Requested convergence on RMS density matrix=1.00D-08 within 128 cycles.
 Requested convergence on MAX density matrix=1.00D-06.
 Requested convergence on             energy=1.00D-06.
 No special actions if energy rises.
 Fock matrices will be formed incrementally for  20 cycles.
 Integral accuracy reduced to 1.0D-05 until final iterations.

 Cycle   1  Pass 0  IDiag  1:
 FoFJK:  IHMeth= 1 ICntrl=       0 DoSepK=F KAlg= 0 I1Cent=   0 FoldK=F
 IRaf= 760000000 NMat=   1 IRICut=       1 DoRegI=T DoRafI=F ISym2E= 0.
 FoFCou: FMM=F IPFlag=           0 FMFlag=      100000 FMFlg1=           0
         NFxFlg=           0 DoJE=F BraDBF=F KetDBF=F FulRan=T
         wScrn=  0.000000 ICntrl=       0 IOpCl=  0 I1Cent=           0 NGrid=           0
         NMat0=    1 NMatS0=      1 NMatT0=    0 NMatD0=    1 NMtDS0=    0 NMtDT0=    0
 Symmetry not used in FoFCou.
 E= -1119.84007150005    
 DIIS: error= 4.21D-02 at cycle   1 NSaved=   1.
 NSaved= 1 IEnMin= 1 EnMin= -1119.84007150005     IErMin= 1 ErrMin= 4.21D-02
 ErrMax= 4.21D-02  0.00D+00 EMaxC= 1.00D-01 BMatC= 5.77D-01 BMatP= 5.77D-01
 IDIUse=3 WtCom= 5.79D-01 WtEn= 4.21D-01
 Coeff-Com:  0.100D+01
 Coeff-En:   0.100D+01
 Coeff:      0.100D+01
 Gap=     0.282 Goal=   None    Shift=    0.000
 GapD=    0.282 DampG=1.000 DampE=0.500 DampFc=0.5000 IDamp=-1.
 Damping current iteration by 5.00D-01
 RMSDP=7.37D-03 MaxDP=5.78D-01              OVMax= 2.95D-01

 Cycle   2  Pass 0  IDiag  1:
 RMSU=  3.68D-03    CP:  9.92D-01
 E= -1119.95644761319     Delta-E=       -0.116376113139 Rises=F Damp=T
 DIIS: error= 1.91D-02 at cycle   2 NSaved=   2.
 NSaved= 2 IEnMin= 2 EnMin= -1119.95644761319     IErMin= 2 ErrMin= 1.91D-02
 ErrMax= 1.91D-02  0.00D+00 EMaxC= 1.00D-01 BMatC= 9.48D-02 BMatP= 5.77D-01
 IDIUse=3 WtCom= 8.09D-01 WtEn= 1.91D-01
 Coeff-Com:  0.235D+00 0.765D+00
 Coeff-En:   0.376D+00 0.624D+00
 Coeff:      0.262D+00 0.738D+00
 Gap=     0.228 Goal=   None    Shift=    0.000
 RMSDP=2.21D-03 MaxDP=1.29D-01 DE=-1.16D-01 OVMax= 2.30D-01

 Cycle   3  Pass 0  IDiag  1:
 RMSU=  1.81D-03    CP:  9.79D-01  6.66D-01
 E= -1120.29348835018     Delta-E=       -0.337040736985 Rises=F Damp=F
 DIIS: error= 1.18D-02 at cycle   3 NSaved=   3.
 NSaved= 3 IEnMin= 3 EnMin= -1120.29348835018     IErMin= 3 ErrMin= 1.18D-02
 ErrMax= 1.18D-02  0.00D+00 EMaxC= 1.00D-01 BMatC= 5.04D-02 BMatP= 9.48D-02
 IDIUse=3 WtCom= 8.82D-01 WtEn= 1.18D-01
 Coeff-Com:  0.803D-01 0.421D+00 0.499D+00
 Coeff-En:   0.000D+00 0.000D+00 0.100D+01
 Coeff:      0.708D-01 0.371D+00 0.558D+00
 Gap=     0.184 Goal=   None    Shift=    0.000
 RMSDP=1.16D-03 MaxDP=3.84D-02 DE=-3.37D-01 OVMax= 6.40D-02

 Cycle   4  Pass 0  IDiag  1:
 RMSU=  7.51D-04    CP:  9.85D-01  7.44D-01  5.42D-01
 E= -1120.33189142234     Delta-E=       -0.038403072158 Rises=F Damp=F
 DIIS: error= 4.07D-03 at cycle   4 NSaved=   4.
 NSaved= 4 IEnMin= 4 EnMin= -1120.33189142234     IErMin= 4 ErrMin= 4.07D-03
 ErrMax= 4.07D-03  0.00D+00 EMaxC= 1.00D-01 BMatC= 7.80D-03 BMatP= 5.04D-02
 IDIUse=3 WtCom= 9.59D-01 WtEn= 4.07D-02
 Coeff-Com:  0.845D-02 0.819D-01 0.299D+00 0.611D+00
 Coeff-En:   0.000D+00 0.000D+00 0.121D+00 0.879D+00
 Coeff:      0.810D-02 0.785D-01 0.291D+00 0.622D+00
 Gap=     0.182 Goal=   None    Shift=    0.000
 RMSDP=3.80D-04 MaxDP=1.58D-02 DE=-3.84D-02 OVMax= 1.71D-02

 Cycle   5  Pass 0  IDiag  1:
 RMSU=  2.19D-04    CP:  9.84D-01  7.29D-01  6.45D-01  6.77D-01
 E= -1120.33776717939     Delta-E=       -0.005875757054 Rises=F Damp=F
 DIIS: error= 1.43D-03 at cycle   5 NSaved=   5.
 NSaved= 5 IEnMin= 5 EnMin= -1120.33776717939     IErMin= 5 ErrMin= 1.43D-03
 ErrMax= 1.43D-03  0.00D+00 EMaxC= 1.00D-01 BMatC= 8.51D-04 BMatP= 7.80D-03
 IDIUse=3 WtCom= 9.86D-01 WtEn= 1.43D-02
 Coeff-Com: -0.712D-03 0.204D-01 0.136D+00 0.369D+00 0.475D+00
 Coeff-En:   0.000D+00 0.000D+00 0.000D+00 0.258D-01 0.974D+00
 Coeff:     -0.702D-03 0.201D-01 0.135D+00 0.364D+00 0.482D+00
 Gap=     0.182 Goal=   None    Shift=    0.000
 RMSDP=1.46D-04 MaxDP=6.20D-03 DE=-5.88D-03 OVMax= 1.05D-02

 Cycle   6  Pass 0  IDiag  1:
 RMSU=  8.02D-05    CP:  9.84D-01  7.33D-01  6.46D-01  7.11D-01  4.56D-01
 E= -1120.33841261106     Delta-E=       -0.000645431665 Rises=F Damp=F
 DIIS: error= 7.77D-04 at cycle   6 NSaved=   6.
 NSaved= 6 IEnMin= 6 EnMin= -1120.33841261106     IErMin= 6 ErrMin= 7.77D-04
 ErrMax= 7.77D-04  0.00D+00 EMaxC= 1.00D-01 BMatC= 1.33D-04 BMatP= 8.51D-04
 IDIUse=3 WtCom= 9.92D-01 WtEn= 7.77D-03
 Coeff-Com: -0.137D-02 0.389D-02 0.482D-01 0.151D+00 0.317D+00 0.481D+00
 Coeff-En:   0.000D+00 0.000D+00 0.000D+00 0.000D+00 0.144D+00 0.856D+00
 Coeff:     -0.136D-02 0.386D-02 0.478D-01 0.150D+00 0.316D+00 0.484D+00
 Gap=     0.182 Goal=   None    Shift=    0.000
 RMSDP=4.89D-05 MaxDP=2.27D-03 DE=-6.45D-04 OVMax= 3.68D-03

 Cycle   7  Pass 0  IDiag  1:
 RMSU=  2.53D-05    CP:  9.84D-01  7.33D-01  6.47D-01  7.14D-01  5.52D-01
                    CP:  5.53D-01
 E= -1120.33852811281     Delta-E=       -0.000115501754 Rises=F Damp=F
 DIIS: error= 1.16D-04 at cycle   7 NSaved=   7.
 NSaved= 7 IEnMin= 7 EnMin= -1120.33852811281     IErMin= 7 ErrMin= 1.16D-04
 ErrMax= 1.16D-04  0.00D+00 EMaxC= 1.00D-01 BMatC= 7.93D-06 BMatP= 1.33D-04
 IDIUse=3 WtCom= 9.99D-01 WtEn= 1.16D-03
 Coeff-Com: -0.784D-03 0.227D-03 0.155D-01 0.534D-01 0.139D+00 0.281D+00
 Coeff-Com:  0.512D+00
 Coeff-En:   0.000D+00 0.000D+00 0.000D+00 0.000D+00 0.000D+00 0.000D+00
 Coeff-En:   0.100D+01
 Coeff:     -0.783D-03 0.227D-03 0.155D-01 0.534D-01 0.138D+00 0.280D+00
 Coeff:      0.513D+00
 Gap=     0.182 Goal=   None    Shift=    0.000
 RMSDP=1.21D-05 MaxDP=4.09D-04 DE=-1.16D-04 OVMax= 8.08D-04

 Cycle   8  Pass 0  IDiag  1:
 RMSU=  7.78D-06    CP:  9.84D-01  7.32D-01  6.48D-01  7.16D-01  5.55D-01
                    CP:  5.79D-01  6.49D-01
 E= -1120.33853463520     Delta-E=       -0.000006522391 Rises=F Damp=F
 DIIS: error= 3.65D-05 at cycle   8 NSaved=   8.
 NSaved= 8 IEnMin= 8 EnMin= -1120.33853463520     IErMin= 8 ErrMin= 3.65D-05
 ErrMax= 3.65D-05  0.00D+00 EMaxC= 1.00D-01 BMatC= 6.87D-07 BMatP= 7.93D-06
 IDIUse=1 WtCom= 1.00D+00 WtEn= 0.00D+00
 Coeff-Com: -0.293D-03-0.295D-03 0.356D-02 0.140D-01 0.448D-01 0.112D+00
 Coeff-Com:  0.284D+00 0.543D+00
 Coeff:     -0.293D-03-0.295D-03 0.356D-02 0.140D-01 0.448D-01 0.112D+00
 Coeff:      0.284D+00 0.543D+00
 Gap=     0.182 Goal=   None    Shift=    0.000
 RMSDP=4.35D-06 MaxDP=1.22D-04 DE=-6.52D-06 OVMax= 2.90D-04

 Initial convergence to 1.0D-05 achieved.  Increase integral accuracy.
 Cycle   9  Pass 1  IDiag  1:
 E= -1120.33848375647     Delta-E=        0.000050878735 Rises=F Damp=F
 DIIS: error= 4.48D-05 at cycle   1 NSaved=   1.
 NSaved= 1 IEnMin= 1 EnMin= -1120.33848375647     IErMin= 1 ErrMin= 4.48D-05
 ErrMax= 4.48D-05  0.00D+00 EMaxC= 1.00D-01 BMatC= 3.91D-07 BMatP= 3.91D-07
 IDIUse=1 WtCom= 1.00D+00 WtEn= 0.00D+00
 Coeff-Com:  0.100D+01
 Coeff:      0.100D+01
 Gap=     0.182 Goal=   None    Shift=    0.000
 RMSDP=4.35D-06 MaxDP=1.22D-04 DE= 5.09D-05 OVMax= 2.32D-04

 Cycle  10  Pass 1  IDiag  1:
 RMSU=  2.68D-05    CP:  1.00D+00
 E= -1120.33848378764     Delta-E=       -0.000000031168 Rises=F Damp=F
 DIIS: error= 3.05D-05 at cycle   2 NSaved=   2.
 NSaved= 2 IEnMin= 2 EnMin= -1120.33848378764     IErMin= 2 ErrMin= 3.05D-05
 ErrMax= 3.05D-05  0.00D+00 EMaxC= 1.00D-01 BMatC= 3.81D-07 BMatP= 3.91D-07
 IDIUse=1 WtCom= 1.00D+00 WtEn= 0.00D+00
 Coeff-Com:  0.496D+00 0.504D+00
 Coeff:      0.496D+00 0.504D+00
 Gap=     0.182 Goal=   None    Shift=    0.000
 RMSDP=3.76D-06 MaxDP=1.18D-04 DE=-3.12D-08 OVMax= 2.45D-04

 Cycle  11  Pass 1  IDiag  1:
 RMSU=  3.75D-06    CP:  1.00D+00  9.92D-01
 E= -1120.33848400148     Delta-E=       -0.000000213840 Rises=F Damp=F
 DIIS: error= 2.04D-05 at cycle   3 NSaved=   3.
 NSaved= 3 IEnMin= 3 EnMin= -1120.33848400148     IErMin= 3 ErrMin= 2.04D-05
 ErrMax= 2.04D-05  0.00D+00 EMaxC= 1.00D-01 BMatC= 1.55D-07 BMatP= 3.81D-07
 IDIUse=1 WtCom= 1.00D+00 WtEn= 0.00D+00
 Coeff-Com:  0.145D-01 0.386D+00 0.599D+00
 Coeff:      0.145D-01 0.386D+00 0.599D+00
 Gap=     0.182 Goal=   None    Shift=    0.000
 RMSDP=1.55D-06 MaxDP=5.45D-05 DE=-2.14D-07 OVMax= 9.65D-05

 Cycle  12  Pass 1  IDiag  1:
 RMSU=  5.77D-07    CP:  1.00D+00  1.00D+00  6.26D-01
 E= -1120.33848413499     Delta-E=       -0.000000133513 Rises=F Damp=F
 DIIS: error= 3.06D-06 at cycle   4 NSaved=   4.
 NSaved= 4 IEnMin= 4 EnMin= -1120.33848413499     IErMin= 4 ErrMin= 3.06D-06
 ErrMax= 3.06D-06  0.00D+00 EMaxC= 1.00D-01 BMatC= 6.30D-09 BMatP= 1.55D-07
 IDIUse=1 WtCom= 1.00D+00 WtEn= 0.00D+00
 Coeff-Com: -0.551D-02 0.220D+00 0.365D+00 0.420D+00
 Coeff:     -0.551D-02 0.220D+00 0.365D+00 0.420D+00
 Gap=     0.182 Goal=   None    Shift=    0.000
 RMSDP=3.48D-07 MaxDP=1.37D-05 DE=-1.34D-07 OVMax= 2.75D-05

 Cycle  13  Pass 1  IDiag  1:
 RMSU=  1.84D-07    CP:  1.00D+00  1.00D+00  6.27D-01  4.88D-01
 E= -1120.33848414071     Delta-E=       -0.000000005726 Rises=F Damp=F
 DIIS: error= 8.23D-07 at cycle   5 NSaved=   5.
 NSaved= 5 IEnMin= 5 EnMin= -1120.33848414071     IErMin= 5 ErrMin= 8.23D-07
 ErrMax= 8.23D-07  0.00D+00 EMaxC= 1.00D-01 BMatC= 3.53D-10 BMatP= 6.30D-09
 IDIUse=1 WtCom= 1.00D+00 WtEn= 0.00D+00
 Coeff-Com: -0.418D-02 0.105D+00 0.177D+00 0.252D+00 0.471D+00
 Coeff:     -0.418D-02 0.105D+00 0.177D+00 0.252D+00 0.471D+00
 Gap=     0.182 Goal=   None    Shift=    0.000
 RMSDP=8.92D-08 MaxDP=3.65D-06 DE=-5.73D-09 OVMax= 6.85D-06

 Cycle  14  Pass 1  IDiag  1:
 RMSU=  6.18D-08    CP:  1.00D+00  1.00D+00  6.29D-01  5.14D-01  6.62D-01
 E= -1120.33848414107     Delta-E=       -0.000000000360 Rises=F Damp=F
 DIIS: error= 1.71D-07 at cycle   6 NSaved=   6.
 NSaved= 6 IEnMin= 6 EnMin= -1120.33848414107     IErMin= 6 ErrMin= 1.71D-07
 ErrMax= 1.71D-07  0.00D+00 EMaxC= 1.00D-01 BMatC= 1.53D-11 BMatP= 3.53D-10
 IDIUse=1 WtCom= 1.00D+00 WtEn= 0.00D+00
 Coeff-Com: -0.152D-02 0.313D-01 0.535D-01 0.852D-01 0.227D+00 0.605D+00
 Coeff:     -0.152D-02 0.313D-01 0.535D-01 0.852D-01 0.227D+00 0.605D+00
 Gap=     0.182 Goal=   None    Shift=    0.000
 RMSDP=2.21D-08 MaxDP=8.60D-07 DE=-3.60D-10 OVMax= 1.26D-06

 Cycle  15  Pass 1  IDiag  1:
 RMSU=  1.74D-08    CP:  1.00D+00  1.00D+00  6.29D-01  5.20D-01  7.05D-01
                    CP:  8.33D-01
 E= -1120.33848414111     Delta-E=       -0.000000000032 Rises=F Damp=F
 DIIS: error= 8.85D-08 at cycle   7 NSaved=   7.
 NSaved= 7 IEnMin= 7 EnMin= -1120.33848414111     IErMin= 7 ErrMin= 8.85D-08
 ErrMax= 8.85D-08  0.00D+00 EMaxC= 1.00D-01 BMatC= 4.22D-12 BMatP= 1.53D-11
 IDIUse=1 WtCom= 1.00D+00 WtEn= 0.00D+00
 Coeff-Com: -0.354D-03 0.458D-02 0.807D-02 0.172D-01 0.749D-01 0.382D+00
 Coeff-Com:  0.514D+00
 Coeff:     -0.354D-03 0.458D-02 0.807D-02 0.172D-01 0.749D-01 0.382D+00
 Coeff:      0.514D+00
 Gap=     0.182 Goal=   None    Shift=    0.000
 RMSDP=9.61D-09 MaxDP=3.55D-07 DE=-3.18D-11 OVMax= 5.10D-07

 SCF Done:  E(RB3LYP) =  -1120.33848414     A.U. after   15 cycles
            NFock= 15  Conv=0.96D-08     -V/T= 2.0073
 KE= 1.112230374432D+03 PE=-4.988806383360D+03 EE= 1.575235516310D+03
 Leave Link  502 at Thu Aug  6 22:04:45 2020, MaxMem=    33554432 cpu:       146.8
 (Enter /prod/apps/gaussian/g09d1/l601.exe)
 Copying SCF densities to generalized density rwf, IOpCl= 0 IROHF=0.

 **********************************************************************

            Population analysis using the SCF density.

 **********************************************************************

 Orbital symmetries:
       Occupied  (A) (A) (A) (A) (A) (A) (A) (A) (A) (A) (A) (A)
                 (A) (A) (A) (A) (A) (A) (A) (A) (A) (A) (A) (A)
                 (A) (A) (A) (A) (A) (A) (A) (A) (A) (A) (A) (A)
                 (A) (A) (A) (A) (A) (A) (A) (A) (A) (A) (A) (A)
                 (A) (A) (A) (A) (A) (A) (A) (A) (A) (A) (A) (A)
                 (A) (A)
       Virtual   (A) (A) (A) (A) (A) (A) (A) (A) (A) (A) (A) (A)
                 (A) (A) (A) (A) (A) (A) (A) (A) (A) (A) (A) (A)
                 (A) (A) (A) (A) (A) (A) (A) (A) (A) (A) (A) (A)
                 (A) (A) (A) (A) (A) (A) (A) (A) (A) (A) (A) (A)
                 (A) (A) (A) (A) (A) (A) (A) (A) (A) (A) (A) (A)
                 (A) (A) (A) (A) (A) (A) (A) (A) (A) (A) (A) (A)
                 (A) (A) (A) (A) (A) (A) (A) (A) (A) (A) (A) (A)
                 (A) (A) (A) (A) (A) (A) (A) (A) (A) (A) (A) (A)
                 (A) (A) (A) (A) (A) (A) (A) (A) (A) (A) (A) (A)
                 (A) (A) (A) (A) (A) (A) (A) (A) (A) (A) (A) (A)
                 (A) (A) (A) (A) (A) (A) (A) (A) (A) (A) (A) (A)
                 (A) (A) (A) (A) (A) (A) (A) (A) (A) (A) (A) (A)
                 (A) (A) (A) (A) (A) (A) (A) (A) (A) (A) (A) (A)
                 (A) (A) (A) (A) (A) (A) (A) (A) (A) (A) (A) (A)
                 (A) (A) (A) (A) (A) (A) (A) (A) (A) (A) (A) (A)
                 (A) (A) (A) (A) (A) (A) (A) (A) (A) (A) (A) (A)
                 (A) (A) (A) (A) (A) (A) (A) (A) (A) (A)
 The electronic state is 1-A.
 Alpha  occ. eigenvalues --  -89.13116 -19.24093 -19.15657 -19.15578 -14.39682
 Alpha  occ. eigenvalues --  -14.38343 -10.27758 -10.27086 -10.24198 -10.22023
 Alpha  occ. eigenvalues --  -10.20835 -10.20542 -10.20512 -10.20466 -10.20376
 Alpha  occ. eigenvalues --  -10.20340  -8.15634  -6.12172  -6.12024  -6.11922
 Alpha  occ. eigenvalues --   -1.14710  -1.12671  -1.01554  -0.96833  -0.87895
 Alpha  occ. eigenvalues --   -0.85570  -0.81336  -0.78846  -0.76054  -0.75701
 Alpha  occ. eigenvalues --   -0.66997  -0.64777  -0.62590  -0.60438  -0.59838
 Alpha  occ. eigenvalues --   -0.55415  -0.54356  -0.50745  -0.50274  -0.49097
 Alpha  occ. eigenvalues --   -0.48112  -0.47709  -0.47010  -0.45695  -0.45349
 Alpha  occ. eigenvalues --   -0.44007  -0.43789  -0.42996  -0.40022  -0.38836
 Alpha  occ. eigenvalues --   -0.37246  -0.36753  -0.35713  -0.34985  -0.32959
 Alpha  occ. eigenvalues --   -0.32107  -0.31744  -0.31435  -0.30176  -0.26871
 Alpha  occ. eigenvalues --   -0.26422  -0.23740
 Alpha virt. eigenvalues --   -0.05499  -0.01449   0.01248   0.04256   0.05855
 Alpha virt. eigenvalues --    0.06729   0.07812   0.08713   0.09186   0.09851
 Alpha virt. eigenvalues --    0.11200   0.11816   0.13027   0.13879   0.14253
 Alpha virt. eigenvalues --    0.14427   0.16094   0.16531   0.17274   0.18393
 Alpha virt. eigenvalues --    0.23172   0.24068   0.26735   0.27976   0.29214
 Alpha virt. eigenvalues --    0.31111   0.32602   0.34704   0.35643   0.37154
 Alpha virt. eigenvalues --    0.40281   0.41631   0.43714   0.44636   0.46899
 Alpha virt. eigenvalues --    0.49710   0.50581   0.51273   0.51768   0.52964
 Alpha virt. eigenvalues --    0.53254   0.54094   0.55380   0.57262   0.57876
 Alpha virt. eigenvalues --    0.58201   0.59032   0.59783   0.60370   0.60885
 Alpha virt. eigenvalues --    0.62048   0.63385   0.63906   0.64361   0.66430
 Alpha virt. eigenvalues --    0.68693   0.69063   0.70200   0.71182   0.74824
 Alpha virt. eigenvalues --    0.75428   0.76597   0.78262   0.79821   0.81006
 Alpha virt. eigenvalues --    0.81510   0.81656   0.82687   0.83517   0.83853
 Alpha virt. eigenvalues --    0.84801   0.85138   0.85909   0.88176   0.88601
 Alpha virt. eigenvalues --    0.89323   0.90356   0.91853   0.94217   0.94868
 Alpha virt. eigenvalues --    0.95812   0.96848   0.97832   0.99103   1.01481
 Alpha virt. eigenvalues --    1.03029   1.03443   1.05846   1.09267   1.10136
 Alpha virt. eigenvalues --    1.12783   1.14842   1.15397   1.17012   1.18023
 Alpha virt. eigenvalues --    1.20029   1.20548   1.23618   1.24110   1.24629
 Alpha virt. eigenvalues --    1.29223   1.30338   1.31228   1.34773   1.35494
 Alpha virt. eigenvalues --    1.37211   1.40051   1.41065   1.41808   1.42851
 Alpha virt. eigenvalues --    1.46400   1.46695   1.47706   1.48617   1.49596
 Alpha virt. eigenvalues --    1.51766   1.54345   1.57652   1.60576   1.63458
 Alpha virt. eigenvalues --    1.68468   1.73501   1.74268   1.76731   1.78333
 Alpha virt. eigenvalues --    1.78508   1.80214   1.80226   1.81589   1.84927
 Alpha virt. eigenvalues --    1.85710   1.87017   1.88514   1.90439   1.91941
 Alpha virt. eigenvalues --    1.94587   1.96389   1.97704   2.00336   2.02090
 Alpha virt. eigenvalues --    2.03963   2.05599   2.06390   2.09868   2.10406
 Alpha virt. eigenvalues --    2.12141   2.12852   2.13394   2.14258   2.15367
 Alpha virt. eigenvalues --    2.17704   2.18698   2.20196   2.22023   2.23897
 Alpha virt. eigenvalues --    2.25229   2.27955   2.29494   2.30117   2.30687
 Alpha virt. eigenvalues --    2.32459   2.33569   2.43730   2.50548   2.52474
 Alpha virt. eigenvalues --    2.53899   2.56499   2.57700   2.59259   2.61971
 Alpha virt. eigenvalues --    2.65735   2.66452   2.68906   2.73364   2.74139
 Alpha virt. eigenvalues --    2.74368   2.76220   2.80594   2.84598   2.89766
 Alpha virt. eigenvalues --    2.90452   3.01004   3.04868   3.13426   3.26965
 Alpha virt. eigenvalues --    3.42490   3.76026   3.79004   3.89788   3.97231
 Alpha virt. eigenvalues --    4.04156   4.06867   4.08310   4.10376   4.12477
 Alpha virt. eigenvalues --    4.20719   4.24202   4.31029   4.37589   4.39243
 Alpha virt. eigenvalues --    4.54897   4.73792
          Condensed to atoms (all electrons):
               1          2          3          4          5          6
     1  O    8.246501   0.422589  -0.049020  -0.006054   0.000082   0.000000
     2  S    0.422589  13.661996   0.110157  -0.010734  -0.002403   0.000120
     3  N   -0.049020   0.110157   7.439986   0.219176  -0.079002   0.005646
     4  C   -0.006054  -0.010734   0.219176   4.561298   0.423809  -0.040742
     5  N    0.000082  -0.002403  -0.079002   0.423809   6.877407   0.135192
     6  O    0.000000   0.000120   0.005646  -0.040742   0.135192   8.170050
     7  C    0.000562   0.000439  -0.000502  -0.020409  -0.082577   0.251298
     8  C   -0.000004  -0.000013  -0.000202   0.004023   0.004739  -0.037808
     9  C    0.000003  -0.000002   0.000003   0.000627  -0.000111   0.003176
    10  C    0.000000   0.000000   0.000000  -0.000007   0.000001  -0.000061
    11  C    0.000000   0.000000   0.000000   0.000000   0.000000   0.000001
    12  C    0.000000   0.000000   0.000000   0.000005   0.000001   0.000303
    13  C    0.000000   0.000000  -0.000001  -0.000391   0.000165  -0.006465
    14  C    0.000372  -0.000703  -0.055303   0.436131  -0.048410  -0.092356
    15  C   -0.057664   0.207653  -0.062593   0.001438   0.000008   0.000008
    16  O   -0.042211   0.459755  -0.052061   0.001536  -0.000013   0.000000
    17  H    0.001460  -0.004278   0.288698  -0.026070   0.004363  -0.000198
    18  H   -0.000014  -0.000004   0.000000   0.000072  -0.000004   0.000029
    19  H    0.000000   0.000000   0.000000   0.000000   0.000000   0.000000
    20  H    0.000000   0.000000   0.000000   0.000000   0.000000   0.000000
    21  H    0.000000   0.000000   0.000000   0.000000   0.000000  -0.000002
    22  H    0.000000   0.000000   0.000000   0.000060  -0.000238   0.009767
    23  H    0.009637   0.001116  -0.001489  -0.025233   0.004854   0.003099
    24  H   -0.000471  -0.007186  -0.002109   0.002141   0.000199  -0.000043
    25  H    0.001918  -0.006913   0.000165   0.000307   0.000044   0.000000
    26  H   -0.000132  -0.013896   0.002381   0.000006  -0.000003   0.000000
               7          8          9         10         11         12
     1  O    0.000562  -0.000004   0.000003   0.000000   0.000000   0.000000
     2  S    0.000439  -0.000013  -0.000002   0.000000   0.000000   0.000000
     3  N   -0.000502  -0.000202   0.000003   0.000000   0.000000   0.000000
     4  C   -0.020409   0.004023   0.000627  -0.000007   0.000000   0.000005
     5  N   -0.082577   0.004739  -0.000111   0.000001   0.000000   0.000001
     6  O    0.251298  -0.037808   0.003176  -0.000061   0.000001   0.000303
     7  C    4.776038   0.337778  -0.041034   0.006431   0.000933   0.004774
     8  C    0.337778   4.772590   0.536929  -0.008164  -0.033715  -0.007802
     9  C   -0.041034   0.536929   5.005908   0.520952  -0.038286  -0.041621
    10  C    0.006431  -0.008164   0.520952   4.861894   0.545356  -0.023675
    11  C    0.000933  -0.033715  -0.038286   0.545356   4.852061   0.543731
    12  C    0.004774  -0.007802  -0.041621  -0.023675   0.543731   4.874733
    13  C   -0.039899   0.478054  -0.084112  -0.042417  -0.036119   0.505246
    14  C    0.479426  -0.059161  -0.021940   0.000249   0.000014  -0.000243
    15  C   -0.000230   0.000001   0.000000   0.000000   0.000000   0.000000
    16  O   -0.000001   0.000000   0.000000   0.000000   0.000000   0.000000
    17  H    0.000268   0.000001   0.000000   0.000000   0.000000   0.000000
    18  H   -0.013583  -0.037160   0.352802  -0.043816   0.004611   0.000215
    19  H   -0.000213   0.003293  -0.038480   0.359344  -0.041965   0.004492
    20  H    0.000003   0.000536   0.004926  -0.042818   0.361180  -0.042740
    21  H   -0.000185   0.003166   0.000876   0.004502  -0.042158   0.359922
    22  H   -0.013362  -0.038594   0.005490   0.000267   0.004448  -0.042981
    23  H   -0.031567  -0.002676   0.000728   0.000078   0.000000   0.000000
    24  H    0.000159  -0.000002   0.000000   0.000000   0.000000   0.000000
    25  H    0.000002   0.000000   0.000000   0.000000   0.000000   0.000000
    26  H    0.000000   0.000000   0.000000   0.000000   0.000000   0.000000
              13         14         15         16         17         18
     1  O    0.000000   0.000372  -0.057664  -0.042211   0.001460  -0.000014
     2  S    0.000000  -0.000703   0.207653   0.459755  -0.004278  -0.000004
     3  N   -0.000001  -0.055303  -0.062593  -0.052061   0.288698   0.000000
     4  C   -0.000391   0.436131   0.001438   0.001536  -0.026070   0.000072
     5  N    0.000165  -0.048410   0.000008  -0.000013   0.004363  -0.000004
     6  O   -0.006465  -0.092356   0.000008   0.000000  -0.000198   0.000029
     7  C   -0.039899   0.479426  -0.000230  -0.000001   0.000268  -0.013583
     8  C    0.478054  -0.059161   0.000001   0.000000   0.000001  -0.037160
     9  C   -0.084112  -0.021940   0.000000   0.000000   0.000000   0.352802
    10  C   -0.042417   0.000249   0.000000   0.000000   0.000000  -0.043816
    11  C   -0.036119   0.000014   0.000000   0.000000   0.000000   0.004611
    12  C    0.505246  -0.000243   0.000000   0.000000   0.000000   0.000215
    13  C    5.044671   0.012093   0.000000   0.000000   0.000000   0.005972
    14  C    0.012093   5.270152  -0.001755  -0.000042   0.004941   0.007043
    15  C    0.000000  -0.001755   5.560756  -0.057729   0.000534   0.000000
    16  O    0.000000  -0.000042  -0.057729   8.198021   0.001055   0.000000
    17  H    0.000000   0.004941   0.000534   0.001055   0.358523   0.000000
    18  H    0.005972   0.007043   0.000000   0.000000   0.000000   0.582357
    19  H    0.000875  -0.000001   0.000000   0.000000   0.000000  -0.005159
    20  H    0.004766   0.000000   0.000000   0.000000   0.000000  -0.000168
    21  H   -0.038146   0.000001   0.000000   0.000000   0.000000   0.000016
    22  H    0.360059   0.000219   0.000000   0.000000   0.000000  -0.000150
    23  H   -0.000073   0.349508   0.000203   0.000016  -0.000164   0.002255
    24  H    0.000000   0.002491   0.338600   0.001784   0.000083   0.000000
    25  H    0.000000   0.000005   0.339788   0.000192  -0.000007   0.000000
    26  H    0.000000  -0.000030   0.357795  -0.000446  -0.000018   0.000000
              19         20         21         22         23         24
     1  O    0.000000   0.000000   0.000000   0.000000   0.009637  -0.000471
     2  S    0.000000   0.000000   0.000000   0.000000   0.001116  -0.007186
     3  N    0.000000   0.000000   0.000000   0.000000  -0.001489  -0.002109
     4  C    0.000000   0.000000   0.000000   0.000060  -0.025233   0.002141
     5  N    0.000000   0.000000   0.000000  -0.000238   0.004854   0.000199
     6  O    0.000000   0.000000  -0.000002   0.009767   0.003099  -0.000043
     7  C   -0.000213   0.000003  -0.000185  -0.013362  -0.031567   0.000159
     8  C    0.003293   0.000536   0.003166  -0.038594  -0.002676  -0.000002
     9  C   -0.038480   0.004926   0.000876   0.005490   0.000728   0.000000
    10  C    0.359344  -0.042818   0.004502   0.000267   0.000078   0.000000
    11  C   -0.041965   0.361180  -0.042158   0.004448   0.000000   0.000000
    12  C    0.004492  -0.042740   0.359922  -0.042981   0.000000   0.000000
    13  C    0.000875   0.004766  -0.038146   0.360059  -0.000073   0.000000
    14  C   -0.000001   0.000000   0.000001   0.000219   0.349508   0.002491
    15  C    0.000000   0.000000   0.000000   0.000000   0.000203   0.338600
    16  O    0.000000   0.000000   0.000000   0.000000   0.000016   0.001784
    17  H    0.000000   0.000000   0.000000   0.000000  -0.000164   0.000083
    18  H   -0.005159  -0.000168   0.000016  -0.000150   0.002255   0.000000
    19  H    0.583119  -0.005433  -0.000176   0.000016  -0.000002   0.000000
    20  H   -0.005433   0.586478  -0.005412  -0.000159   0.000000   0.000000
    21  H   -0.000176  -0.005412   0.581785  -0.004906   0.000000   0.000000
    22  H    0.000016  -0.000159  -0.004906   0.557107  -0.000007   0.000000
    23  H   -0.000002   0.000000   0.000000  -0.000007   0.494112  -0.000004
    24  H    0.000000   0.000000   0.000000   0.000000  -0.000004   0.495087
    25  H    0.000000   0.000000   0.000000   0.000000  -0.000006  -0.023572
    26  H    0.000000   0.000000   0.000000   0.000000   0.000001  -0.021142
              25         26
     1  O    0.001918  -0.000132
     2  S   -0.006913  -0.013896
     3  N    0.000165   0.002381
     4  C    0.000307   0.000006
     5  N    0.000044  -0.000003
     6  O    0.000000   0.000000
     7  C    0.000002   0.000000
     8  C    0.000000   0.000000
     9  C    0.000000   0.000000
    10  C    0.000000   0.000000
    11  C    0.000000   0.000000
    12  C    0.000000   0.000000
    13  C    0.000000   0.000000
    14  C    0.000005  -0.000030
    15  C    0.339788   0.357795
    16  O    0.000192  -0.000446
    17  H   -0.000007  -0.000018
    18  H    0.000000   0.000000
    19  H    0.000000   0.000000
    20  H    0.000000   0.000000
    21  H    0.000000   0.000000
    22  H    0.000000   0.000000
    23  H   -0.000006   0.000001
    24  H   -0.023572  -0.021142
    25  H    0.499182  -0.019503
    26  H   -0.019503   0.468612
 Mulliken charges:
               1
     1  O   -0.527551
     2  S    1.182308
     3  N   -0.763931
     4  C    0.479010
     5  N   -0.238101
     6  O   -0.401014
     7  C    0.385454
     8  C    0.084191
     9  C   -0.166834
    10  C   -0.138116
    11  C   -0.120093
    12  C   -0.134360
    13  C   -0.164278
    14  C   -0.282701
    15  C   -0.626812
    16  O   -0.509856
    17  H    0.370810
    18  H    0.144686
    19  H    0.140291
    20  H    0.138841
    21  H    0.140717
    22  H    0.162963
    23  H    0.195614
    24  H    0.213987
    25  H    0.208399
    26  H    0.226376
 Sum of Mulliken charges =   0.00000
 Mulliken charges with hydrogens summed into heavy atoms:
               1
     1  O   -0.527551
     2  S    1.182308
     3  N   -0.393121
     4  C    0.479010
     5  N   -0.238101
     6  O   -0.401014
     7  C    0.385454
     8  C    0.084191
     9  C   -0.022148
    10  C    0.002174
    11  C    0.018748
    12  C    0.006357
    13  C   -0.001315
    14  C   -0.087087
    15  C    0.021951
    16  O   -0.509856
 Electronic spatial extent (au):  <R**2>=           5394.6424
 Charge=              0.0000 electrons
 Dipole moment (field-independent basis, Debye):
    X=             -2.7805    Y=             -0.3706    Z=              3.2822  Tot=              4.3175
 Quadrupole moment (field-independent basis, Debye-Ang):
   XX=            -94.2772   YY=           -100.3385   ZZ=            -97.6195
   XY=              8.2023   XZ=             11.5247   YZ=             -1.5819
 Traceless Quadrupole moment (field-independent basis, Debye-Ang):
   XX=              3.1345   YY=             -2.9267   ZZ=             -0.2078
   XY=              8.2023   XZ=             11.5247   YZ=             -1.5819
 Octapole moment (field-independent basis, Debye-Ang**2):
  XXX=           -105.0899  YYY=            -12.1733  ZZZ=              6.6141  XYY=             -2.0483
  XXY=             18.1812  XXZ=             53.9663  XZZ=             35.6779  YZZ=              0.0248
  YYZ=              0.3776  XYZ=            -13.1325
 Hexadecapole moment (field-independent basis, Debye-Ang**3):
 XXXX=          -5875.1062 YYYY=           -847.4830 ZZZZ=           -286.1674 XXXY=             65.6380
 XXXZ=            134.0458 YYYX=             23.6880 YYYZ=              0.2815 ZZZX=             22.1341
 ZZZY=             -2.9499 XXYY=          -1032.1373 XXZZ=          -1049.5317 YYZZ=           -186.1395
 XXYZ=            -16.5131 YYXZ=              7.3887 ZZXY=            -21.5526
 N-N= 1.181002008478D+03 E-N=-4.988806395282D+03  KE= 1.112230374432D+03
 No NMR shielding tensors so no spin-rotation constants.
 Leave Link  601 at Thu Aug  6 22:04:45 2020, MaxMem=    33554432 cpu:         0.2
 (Enter /prod/apps/gaussian/g09d1/l9999.exe)
 1\1\GINC-PIRINEUS28\SP\RB3LYP\6-31G(d)\C10H10N2O3S1\UBAFAR01\06-Aug-20
 20\0\\#p b3lyp/6-31G(d)\\SM41.n.1.pdb.xyz\\0,1\O,0,3.211,0.784,-1.525\
 S,0,3.938,0.308,-0.347\N,0,4.376,1.68,0.546\C,0,3.456,2.683,0.869\N,0,
 3.545,3.277,2.044\O,0,2.551,4.263,2.016\C,0,1.888,4.21,0.836\C,0,0.804
 ,5.162,0.63\C,0,0.088,5.161,-0.578\C,0,-0.947,6.069,-0.777\C,0,-1.281,
 6.985,0.223\C,0,-0.572,6.99,1.426\C,0,0.465,6.085,1.632\C,0,2.424,3.22
 2,0.056\C,0,2.79,-0.607,0.688\O,0,5.174,-0.46,-0.478\H,0,5.06,1.476,1.
 272\H,0,0.346,4.452,-1.355\H,0,-1.494,6.061,-1.713\H,0,-2.088,7.691,0.
 066\H,0,-0.827,7.699,2.206\H,0,1.019,6.085,2.563\H,0,2.156,2.913,-0.93
 9\H,0,1.935,0.029,0.915\H,0,3.303,-0.914,1.599\H,0,2.469,-1.48,0.118\\
 Version=AM64L-G09RevD.01\State=1-A\HF=-1120.3384841\RMSD=9.610e-09\Dip
 ole=-1.5601216,0.1548885,0.6537662\Quadrupole=-2.2736623,6.6885272,-4.
 4148648,-0.4754935,5.3011231,-7.3522559\PG=C01 [X(C10H10N2O3S1)]\\@


 A true friend is someone who is there for
 you when he'd rather be anywhere else.
                               -- Len Wein
 Job cpu time:       0 days  0 hours  2 minutes 30.1 seconds.
 File lengths (MBytes):  RWF=     40 Int=      0 D2E=      0 Chk=      4 Scr=      1
 Normal termination of Gaussian 09 at Thu Aug  6 22:04:45 2020.
 Initial command:
 /prod/apps/gaussian/g09d1/l1.exe "/tmp/ubafar01/1448634/Gau-164057.inp" -scrdir="/tmp/ubafar01/1448634/"
 Entering Link 1 = /prod/apps/gaussian/g09d1/l1.exe PID=    164184.
  
 Copyright (c) 1988,1990,1992,1993,1995,1998,2003,2009,2013,
            Gaussian, Inc.  All Rights Reserved.
  
 This is part of the Gaussian(R) 09 program.  It is based on
 the Gaussian(R) 03 system (copyright 2003, Gaussian, Inc.),
 the Gaussian(R) 98 system (copyright 1998, Gaussian, Inc.),
 the Gaussian(R) 94 system (copyright 1995, Gaussian, Inc.),
 the Gaussian 92(TM) system (copyright 1992, Gaussian, Inc.),
 the Gaussian 90(TM) system (copyright 1990, Gaussian, Inc.),
 the Gaussian 88(TM) system (copyright 1988, Gaussian, Inc.),
 the Gaussian 86(TM) system (copyright 1986, Carnegie Mellon
 University), and the Gaussian 82(TM) system (copyright 1983,
 Carnegie Mellon University). Gaussian is a federally registered
 trademark of Gaussian, Inc.
  
 This software contains proprietary and confidential information,
 including trade secrets, belonging to Gaussian, Inc.
  
 This software is provided under written license and may be
 used, copied, transmitted, or stored only in accord with that
 written license.
  
 The following legend is applicable only to US Government
 contracts under FAR:
  
                    RESTRICTED RIGHTS LEGEND
  
 Use, reproduction and disclosure by the US Government is
 subject to restrictions as set forth in subparagraphs (a)
 and (c) of the Commercial Computer Software - Restricted
 Rights clause in FAR 52.227-19.
  
 Gaussian, Inc.
 340 Quinnipiac St., Bldg. 40, Wallingford CT 06492
  
  
 ---------------------------------------------------------------
 Warning -- This program may not be used in any manner that
 competes with the business of Gaussian, Inc. or will provide
 assistance to any competitor of Gaussian, Inc.  The licensee
 of this program is prohibited from giving any competitor of
 Gaussian, Inc. access to this program.  By using this program,
 the user acknowledges that Gaussian, Inc. is engaged in the
 business of creating and licensing software in the field of
 computational chemistry and represents and warrants to the
 licensee that it is not a competitor of Gaussian, Inc. and that
 it will not use this program in any manner prohibited above.
 ---------------------------------------------------------------
  

 Cite this work as:
 Gaussian 09, Revision D.01,
 M. J. Frisch, G. W. Trucks, H. B. Schlegel, G. E. Scuseria, 
 M. A. Robb, J. R. Cheeseman, G. Scalmani, V. Barone, B. Mennucci, 
 G. A. Petersson, H. Nakatsuji, M. Caricato, X. Li, H. P. Hratchian, 
 A. F. Izmaylov, J. Bloino, G. Zheng, J. L. Sonnenberg, M. Hada, 
 M. Ehara, K. Toyota, R. Fukuda, J. Hasegawa, M. Ishida, T. Nakajima, 
 Y. Honda, O. Kitao, H. Nakai, T. Vreven, J. A. Montgomery, Jr., 
 J. E. Peralta, F. Ogliaro, M. Bearpark, J. J. Heyd, E. Brothers, 
 K. N. Kudin, V. N. Staroverov, T. Keith, R. Kobayashi, J. Normand, 
 K. Raghavachari, A. Rendell, J. C. Burant, S. S. Iyengar, J. Tomasi, 
 M. Cossi, N. Rega, J. M. Millam, M. Klene, J. E. Knox, J. B. Cross, 
 V. Bakken, C. Adamo, J. Jaramillo, R. Gomperts, R. E. Stratmann, 
 O. Yazyev, A. J. Austin, R. Cammi, C. Pomelli, J. W. Ochterski, 
 R. L. Martin, K. Morokuma, V. G. Zakrzewski, G. A. Voth, 
 P. Salvador, J. J. Dannenberg, S. Dapprich, A. D. Daniels, 
 O. Farkas, J. B. Foresman, J. V. Ortiz, J. Cioslowski, 
 and D. J. Fox, Gaussian, Inc., Wallingford CT, 2013.
 
 ******************************************
 Gaussian 09:  AM64L-G09RevD.01 24-Apr-2013
                 6-Aug-2020 
 ******************************************
 %nproc=1
 Will use up to    1 processors via shared memory.
 %Chk=SM41.n.1.pdb.xyz.mst.n.o.chk
 %subst l301 /dades/curu/work_g09D01_MST_AddSphPartition_ReadGammas/exe-dir/
 %subst l502 /dades/curu/work_g09D01_MST_AddSphPartition_ReadGammas/exe-dir/
 ----------------------------------------------------------------------
 #p b3lyp/6-31G(d) scrf=(iefpcm,read,solvent=n-Octanol) geom=allcheck g
 uess=read
 ----------------------------------------------------------------------
 1/29=7,38=1,40=2/1;
 2/12=2,40=1/2;
 3/5=1,6=6,7=1,11=2,14=-4,16=1,25=1,30=1,70=2203,72=25,74=-5,116=-2/1,2,3;
 4/5=1/1;
 5/5=2,38=6,53=25/2;
 6/7=2,8=2,9=2,10=2,28=1/1;
 99/5=1,9=1/99;
 Leave Link    1 at Thu Aug  6 22:04:45 2020, MaxMem=           0 cpu:         0.0
 (Enter /prod/apps/gaussian/g09d1/l101.exe)
 Structure from the checkpoint file:  "SM41.n.1.pdb.xyz.mst.n.o.chk"
 ----------------
 SM41.n.1.pdb.xyz
 ----------------
 Charge =  0 Multiplicity = 1
 Z-Matrix found in file.
 O,0,3.211,0.784,-1.525
 S,0,3.938,0.308,-0.347
 N,0,4.376,1.68,0.546
 C,0,3.456,2.683,0.869
 N,0,3.545,3.277,2.044
 O,0,2.551,4.263,2.016
 C,0,1.888,4.21,0.836
 C,0,0.804,5.162,0.63
 C,0,0.088,5.161,-0.578
 C,0,-0.947,6.069,-0.777
 C,0,-1.281,6.985,0.223
 C,0,-0.572,6.99,1.426
 C,0,0.465,6.085,1.632
 C,0,2.424,3.222,0.056
 C,0,2.79,-0.607,0.688
 O,0,5.174,-0.46,-0.478
 H,0,5.06,1.476,1.272
 H,0,0.346,4.452,-1.355
 H,0,-1.494,6.061,-1.713
 H,0,-2.088,7.691,0.066
 H,0,-0.827,7.699,2.206
 H,0,1.019,6.085,2.563
 H,0,2.156,2.913,-0.939
 H,0,1.935,0.029,0.915
 H,0,3.303,-0.914,1.599
 H,0,2.469,-1.48,0.118
 Recover connectivity data from disk.
 NAtoms=     26 NQM=       26 NQMF=       0 NMMI=      0 NMMIF=      0
                NMic=       0 NMicF=      0.
                    Isotopes and Nuclear Properties:
 (Nuclear quadrupole moments (NQMom) in fm**2, nuclear magnetic moments (NMagM)
  in nuclear magnetons)

  Atom         1           2           3           4           5           6           7           8           9          10
 IAtWgt=          16          32          14          12          14          16          12          12          12          12
 AtmWgt=  15.9949146  31.9720718  14.0030740  12.0000000  14.0030740  15.9949146  12.0000000  12.0000000  12.0000000  12.0000000
 NucSpn=           0           0           2           0           2           0           0           0           0           0
 AtZEff=  -5.6000000 -13.6000000  -4.5500000  -3.6000000  -4.5500000  -5.6000000  -3.6000000  -3.6000000  -3.6000000  -3.6000000
 NQMom=    0.0000000   0.0000000   2.0440000   0.0000000   2.0440000   0.0000000   0.0000000   0.0000000   0.0000000   0.0000000
 NMagM=    0.0000000   0.0000000   0.4037610   0.0000000   0.4037610   0.0000000   0.0000000   0.0000000   0.0000000   0.0000000
 AtZNuc=   8.0000000  16.0000000   7.0000000   6.0000000   7.0000000   8.0000000   6.0000000   6.0000000   6.0000000   6.0000000

  Atom        11          12          13          14          15          16          17          18          19          20
 IAtWgt=          12          12          12          12          12          16           1           1           1           1
 AtmWgt=  12.0000000  12.0000000  12.0000000  12.0000000  12.0000000  15.9949146   1.0078250   1.0078250   1.0078250   1.0078250
 NucSpn=           0           0           0           0           0           0           1           1           1           1
 AtZEff=  -3.6000000  -3.6000000  -3.6000000  -3.6000000  -3.6000000  -5.6000000  -1.0000000  -1.0000000  -1.0000000  -1.0000000
 NQMom=    0.0000000   0.0000000   0.0000000   0.0000000   0.0000000   0.0000000   0.0000000   0.0000000   0.0000000   0.0000000
 NMagM=    0.0000000   0.0000000   0.0000000   0.0000000   0.0000000   0.0000000   2.7928460   2.7928460   2.7928460   2.7928460
 AtZNuc=   6.0000000   6.0000000   6.0000000   6.0000000   6.0000000   8.0000000   1.0000000   1.0000000   1.0000000   1.0000000

  Atom        21          22          23          24          25          26
 IAtWgt=           1           1           1           1           1           1
 AtmWgt=   1.0078250   1.0078250   1.0078250   1.0078250   1.0078250   1.0078250
 NucSpn=           1           1           1           1           1           1
 AtZEff=  -1.0000000  -1.0000000  -1.0000000  -1.0000000  -1.0000000  -1.0000000
 NQMom=    0.0000000   0.0000000   0.0000000   0.0000000   0.0000000   0.0000000
 NMagM=    2.7928460   2.7928460   2.7928460   2.7928460   2.7928460   2.7928460
 AtZNuc=   1.0000000   1.0000000   1.0000000   1.0000000   1.0000000   1.0000000
 Leave Link  101 at Thu Aug  6 22:04:45 2020, MaxMem=    33554432 cpu:         0.0
 (Enter /prod/apps/gaussian/g09d1/l202.exe)
                          Input orientation:                          
 ---------------------------------------------------------------------
 Center     Atomic      Atomic             Coordinates (Angstroms)
 Number     Number       Type             X           Y           Z
 ---------------------------------------------------------------------
      1          8           0        3.211000    0.784000   -1.525000
      2         16           0        3.938000    0.308000   -0.347000
      3          7           0        4.376000    1.680000    0.546000
      4          6           0        3.456000    2.683000    0.869000
      5          7           0        3.545000    3.277000    2.044000
      6          8           0        2.551000    4.263000    2.016000
      7          6           0        1.888000    4.210000    0.836000
      8          6           0        0.804000    5.162000    0.630000
      9          6           0        0.088000    5.161000   -0.578000
     10          6           0       -0.947000    6.069000   -0.777000
     11          6           0       -1.281000    6.985000    0.223000
     12          6           0       -0.572000    6.990000    1.426000
     13          6           0        0.465000    6.085000    1.632000
     14          6           0        2.424000    3.222000    0.056000
     15          6           0        2.790000   -0.607000    0.688000
     16          8           0        5.174000   -0.460000   -0.478000
     17          1           0        5.060000    1.476000    1.272000
     18          1           0        0.346000    4.452000   -1.355000
     19          1           0       -1.494000    6.061000   -1.713000
     20          1           0       -2.088000    7.691000    0.066000
     21          1           0       -0.827000    7.699000    2.206000
     22          1           0        1.019000    6.085000    2.563000
     23          1           0        2.156000    2.913000   -0.939000
     24          1           0        1.935000    0.029000    0.915000
     25          1           0        3.303000   -0.914000    1.599000
     26          1           0        2.469000   -1.480000    0.118000
 ---------------------------------------------------------------------
                    Distance matrix (angstroms):
                    1          2          3          4          5
     1  O    0.000000
     2  S    1.463827   0.000000
     3  N    2.539504   1.694602   0.000000
     4  C    3.065528   2.711384   1.398835   0.000000
     5  N    4.366276   3.832270   2.342002   1.319614   0.000000
     6  O    5.007766   4.811399   3.487609   2.151984   1.400363
     7  C    4.366019   4.563726   3.560217   2.188936   2.252865
     8  C    5.441007   5.859846   4.989044   3.638085   3.614651
     9  C    5.459676   6.198989   5.636283   4.424671   4.730242
    10  C    6.766069   7.565530   7.024812   5.793162   5.994278
    11  C    7.854042   8.493832   7.762023   6.431461   6.352604
    12  C    7.844356   8.254257   7.311170   5.923283   5.578349
    13  C    6.753352   7.025091   5.989937   4.593675   4.188199
    14  C    3.010444   3.308474   2.535383   1.420040   2.282939
    15  C    2.647544   1.796205   2.786742   3.361609   4.182609
    16  O    2.548944   1.461055   2.502994   3.826798   4.793672
    17  H    3.423576   2.290037   1.018110   2.047455   2.476855
    18  H    4.657397   5.575954   5.247731   4.212794   4.813255
    19  H    7.072418   8.029296   7.665060   6.525344   6.874389
    20  H    8.849708   9.538969   8.840012   7.514041   7.424727
    21  H    8.834197   9.156960   8.127433   6.729927   6.220507
    22  H    7.043948   7.096646   5.894214   4.514666   3.812467
    23  H    2.447256   3.211232   2.941754   2.238697   3.310605
    24  H    2.855136   2.383798   2.969923   3.059293   3.796873
    25  H    3.556831   2.383993   2.998162   3.673516   4.221501
    26  H    2.894082   2.360324   3.715566   4.343816   5.243692
                    6          7          8          9         10
     6  O    0.000000
     7  C    1.354540   0.000000
     8  C    2.404414   1.457325   0.000000
     9  C    3.688036   2.478668   1.404251   0.000000
    10  C    4.826851   3.754314   2.422457   1.391147   0.000000
    11  C    5.030741   4.256637   2.799322   2.417176   1.396643
    12  C    4.187811   3.758736   2.422514   2.792285   2.417038
    13  C    2.796165   2.484788   1.403871   2.424872   2.792361
    14  C    2.222928   1.368152   2.591809   3.101382   4.490316
    15  C    5.053475   4.902958   6.101551   6.494104   7.789761
    16  O    5.950369   5.859462   7.206348   7.581097   8.954545
    17  H    3.823086   4.210277   5.666771   6.459296   7.834418
    18  H    4.032541   2.690132   2.157334   1.083039   2.149563
    19  H    5.787942   4.621853   3.402742   2.144982   1.084144
    20  H    6.088843   5.340303   3.882989   3.398619   2.154858
    21  H    4.822145   4.628309   3.402985   3.876767   3.401410
    22  H    2.442523   2.693198   2.152822   3.403883   3.875695
    23  H    3.272698   2.214646   3.057395   3.075784   4.428904
    24  H    4.417965   4.182010   5.263846   5.654899   6.902926
    25  H    5.247925   5.370267   6.640914   7.209797   8.512941
    26  H    6.049064   5.764476   6.866625   7.089179   8.334116
                   11         12         13         14         15
    11  C    0.000000
    12  C    1.396394   0.000000
    13  C    2.417395   1.391700   0.000000
    14  C    5.283473   5.005071   3.810279   0.000000
    15  C    8.627151   8.340389   7.147001   3.898028   0.000000
    16  O    9.878585   9.599179   8.334495   4.626530   2.657935
    17  H    8.465091   7.883358   6.518167   3.387576   3.135737
    18  H    3.399015   3.875323   3.406320   2.796767   5.978333
    19  H    2.155746   3.400948   3.876504   5.151699   8.281285
    20  H    1.083667   2.153893   3.398441   6.350607   9.645650
    21  H    2.155969   1.084484   2.145632   5.935910   9.185676
    22  H    3.402293   2.154780   1.083364   4.056580   7.171815
    23  H    5.453842   5.445837   4.419401   1.075793   3.929311
    24  H    7.694638   7.416312   6.272968   3.342492   1.089518
    25  H    9.235834   8.804474   7.552571   4.501109   1.089651
    26  H    9.259036   9.093924   7.971037   4.702624   1.090903
                   16         17         18         19         20
    16  O    0.000000
    17  H    2.612201   0.000000
    18  H    6.943087   6.162751   0.000000
    19  H    9.408023   8.537410   2.470353   0.000000
    20  H   10.930296   9.548537   4.293567   2.484870   0.000000
    21  H   10.477840   8.617126   4.959804   4.299592   2.483905
    22  H    8.327589   6.264123   4.297714   4.959831   4.297405
    23  H    4.549503   3.922589   2.411986   4.881750   6.469223
    24  H    3.559591   3.462208   5.219267   7.419532   8.695492
    25  H    2.832082   2.984305   6.801759   9.090169  10.269323
    26  H    2.951718   4.096698   6.470354   8.713473  10.240908
                   21         22         23         24         25
    21  H    0.000000
    22  H    2.477935   0.000000
    23  H    6.457175   4.859872   0.000000
    24  H    8.253740   6.342720   3.435639   0.000000
    25  H    9.571265   7.425089   4.733179   1.796811   0.000000
    26  H    9.973836   8.081445   4.529202   1.788140   1.791444
                   26
    26  H    0.000000
 Stoichiometry    C10H10N2O3S
 Framework group  C1[X(C10H10N2O3S)]
 Deg. of freedom    72
 Full point group                 C1      NOp   1
 RotChk:  IX=0 Diff= 7.22D-16
 Largest Abelian subgroup         C1      NOp   1
 Largest concise Abelian subgroup C1      NOp   1
                         Standard orientation:                         
 ---------------------------------------------------------------------
 Center     Atomic      Atomic             Coordinates (Angstroms)
 Number     Number       Type             X           Y           Z
 ---------------------------------------------------------------------
      1          8           0        2.648555   -1.703944   -0.418211
      2         16           0        3.347116   -0.478457   -0.027080
      3          7           0        2.411058    0.818853   -0.586063
      4          6           0        1.035342    0.901800   -0.346766
      5          7           0        0.498441    2.083680   -0.109533
      6          8           0       -0.874094    1.830217    0.004130
      7          6           0       -1.107894    0.504524   -0.146384
      8          6           0       -2.488862    0.049485   -0.048088
      9          6           0       -2.792925   -1.312314   -0.206108
     10          6           0       -4.110474   -1.748977   -0.112947
     11          6           0       -5.137513   -0.836849    0.139690
     12          6           0       -4.840293    0.518381    0.297577
     13          6           0       -3.524652    0.962648    0.205145
     14          6           0        0.074512   -0.143326   -0.378865
     15          6           0        3.322023   -0.367012    1.765489
     16          8           0        4.699168   -0.192247   -0.501128
     17          1           0        2.906756    1.707372   -0.549102
     18          1           0       -1.998006   -2.021090   -0.402870
     19          1           0       -4.335707   -2.802227   -0.236656
     20          1           0       -6.163053   -1.179357    0.212428
     21          1           0       -5.633744    1.231115    0.493923
     22          1           0       -3.288419    2.013024    0.325901
     23          1           0        0.260310   -1.187965   -0.556457
     24          1           0        2.289500   -0.423987    2.108564
     25          1           0        3.784232    0.572326    2.067725
     26          1           0        3.893174   -1.213990    2.148222
 ---------------------------------------------------------------------
 Rotational constants (GHZ):      1.3740186      0.2092152      0.1911230
 Leave Link  202 at Thu Aug  6 22:04:45 2020, MaxMem=    33554432 cpu:         0.0
 (Enter /dades/curu/work_g09D01_MST_AddSphPartition_ReadGammas/exe-dir/l301.exe)
 Standard basis: 6-31G(d) (6D, 7F)
 Ernie: Thresh=  0.10000D-02 Tol=  0.10000D-05 Strict=F.
 There are   264 symmetry adapted cartesian basis functions of A   symmetry.
 There are   264 symmetry adapted basis functions of A   symmetry.
   264 basis functions,   512 primitive gaussians,   264 cartesian basis functions
    62 alpha electrons       62 beta electrons
       nuclear repulsion energy      1181.0020084776 Hartrees.
 IExCor=  402 DFT=T Ex+Corr=B3LYP ExCW=0 ScaHFX=  0.200000
 ScaDFX=  0.800000  0.720000  1.000000  0.810000 ScalE2=  1.000000  1.000000
 IRadAn=      0 IRanWt=     -1 IRanGd=            0 ICorTp=0 IEmpDi=  4
 NAtoms=   26 NActive=   26 NUniq=   26 SFac= 1.00D+00 NAtFMM=   60 NAOKFM=F Big=F
 Integral buffers will be    131072 words long.
 Raffenetti 2 integral format.
 Two-electron integral symmetry is turned on.
 Using the following non-standard input for PCM:
 MSTModel=DFT cav g03defaults OFac=0.8 Rmin=0.3
 Warning! Using old PCM defaults because the g03defaults keyword was found.
 These settings can be overridden by following keywords.
 --- end of non-standard input.
 MST model for solvation energy: B3LYP parametrization.
 MST cavity parameters:
 ISph   IAn     Re0     Alpha   Atom Type   QCorr
 ------------------------------------------------
   1      8     1.40     1.50      O          F
   2     16     1.75     1.50      S          F
   3      7     1.50     1.50      NH         F
   4      6     1.50     1.50      C          F
   5      7     1.50     1.50      N          F
   6      8     1.40     1.50      O          F
   7      6     1.50     1.50      C          F
   8      6     1.50     1.50      C          F
   9      6     1.50     1.50      CH         F
  10      6     1.50     1.50      CH         F
  11      6     1.50     1.50      CH         F
  12      6     1.50     1.50      CH         F
  13      6     1.50     1.50      CH         F
  14      6     1.50     1.50      CH         F
  15      6     1.50     1.50      CH3        F
  16      8     1.40     1.50      O          F
  17      1     0.90     1.50      NH         F
  18      1     1.20     1.50      CH         F
  19      1     1.20     1.50      CH         F
  20      1     1.20     1.50      CH         F
  21      1     1.20     1.50      CH         F
  22      1     1.20     1.50      CH         F
  23      1     1.20     1.50      CH         F
  24      1     1.20     1.50      CH3        F
  25      1     1.20     1.50      CH3        F
  26      1     1.20     1.50      CH3        F
 ------------------------------------------------------------------------------
 Polarizable Continuum Model (PCM)
 =================================
 Model                : PCM (using non-symmetric T matrix).
 Atomic radii         : MST.
 Polarization charges : Total charges.
 Charge compensation  : None.
 Solution method      : On-the-fly selection.
 Cavity type          : Scaled SES (Solvent Excluding Surface) (Alpha=1.500).
 Cavity algorithm     : GePol (RMin=0.300 OFac=0.800).
                        Default sphere list used, NSphG=   26.
                        Tesserae with average area of 0.200 Ang**2.
                        Smoothing algorithm: None.
                        Polarization charges: point-like.
                        Self-potential: constant (ISelfS= 1).
                        Self-field    : global E.n sum rule (ISelfD= 3).
 Solvent              : n-Octanol, Eps=   9.862900 Eps(inf)=   2.043470
                        RSolv=   3.420000 Ang.
 ------------------------------------------------------------------------------
 GePol: Number of generator spheres                  =      26
 GePol: Total number of spheres                      =      37
 GePol: Number of exposed spheres                    =      36 ( 97.30%)
 GePol: Number of tesserae                           =    2237
 GePol: Average area of tesserae                     =       0.14 Ang**2
 GePol: Minimum area of tessera                      =   0.10D-02 Ang**2
 GePol: Maximum area of tessera                      =    0.31976 Ang**2
 GePol: Number of small tesserae                     =      19
 GePol: Fraction of small tesserae (<1% of avg)      =       0.85%
 GePol: Total count of vertices                      =    7622
 GePol: Maximum number of vertices in a tessera      =       7
 GePol: Cavity surface area                          =    308.988 Ang**2
 GePol: Cavity volume                                =    362.036 Ang**3
 Surface areas from nonelectrostatic (unscaled) cavity:
 Sphere =    1 Type = O    Surf =       14.824
 Sphere =    2 Type = S    Surf =        9.661
 Sphere =    3 Type = NH   Surf =        9.635
 Sphere =    4 Type = C    Surf =        5.773
 Sphere =    5 Type = N    Surf =       14.202
 Sphere =    6 Type = O    Surf =       10.255
 Sphere =    7 Type = C    Surf =        6.857
 Sphere =    8 Type = C    Surf =        6.141
 Sphere =    9 Type = CH   Surf =        7.700
 Sphere =   10 Type = CH   Surf =        7.712
 Sphere =   11 Type = CH   Surf =        7.744
 Sphere =   12 Type = CH   Surf =        7.715
 Sphere =   13 Type = CH   Surf =        7.641
 Sphere =   14 Type = CH   Surf =        8.419
 Sphere =   15 Type = CH3  Surf =        4.473
 Sphere =   16 Type = O    Surf =       15.421
 Sphere =   17 Type = NH   Surf =        3.969
 Sphere =   18 Type = CH   Surf =       10.311
 Sphere =   19 Type = CH   Surf =       10.318
 Sphere =   20 Type = CH   Surf =       10.315
 Sphere =   21 Type = CH   Surf =       10.320
 Sphere =   22 Type = CH   Surf =        9.729
 Sphere =   23 Type = CH   Surf =        9.632
 Sphere =   24 Type = CH3  Surf =       10.200
 Sphere =   25 Type = CH3  Surf =       10.201
 Sphere =   26 Type = CH3  Surf =       10.145
 PCM non-electrostatic energy =        -0.0110539424 Hartrees.
 Nuclear repulsion after PCM non-electrostatic terms =     1180.9909545352 Hartrees.
 Leave Link  301 at Thu Aug  6 22:04:45 2020, MaxMem=    33554432 cpu:         0.1
 (Enter /prod/apps/gaussian/g09d1/l302.exe)
 NPDir=0 NMtPBC=     1 NCelOv=     1 NCel=       1 NClECP=     1 NCelD=      1
         NCelK=      1 NCelE2=     1 NClLst=     1 CellRange=     0.0.
 One-electron integrals computed using PRISM.
 NBasis=   264 RedAO= T EigKep=  4.56D-04  NBF=   264
 NBsUse=   264 1.00D-06 EigRej= -1.00D+00 NBFU=   264
 Precomputing XC quadrature grid using
 IXCGrd= 4 IRadAn=           0 IRanWt=          -1 IRanGd=           0 AccXCQ= 0.00D+00.
 Generated NRdTot=       0 NPtTot=           0 NUsed=           0 NTot=          32
 NSgBfM=   263   263   263   263   263 MxSgAt=    26 MxSgA2=    26.
 Leave Link  302 at Thu Aug  6 22:04:46 2020, MaxMem=    33554432 cpu:         0.7
 (Enter /prod/apps/gaussian/g09d1/l303.exe)
 DipDrv:  MaxL=1.
 Leave Link  303 at Thu Aug  6 22:04:46 2020, MaxMem=    33554432 cpu:         0.0
 (Enter /prod/apps/gaussian/g09d1/l401.exe)
 Initial guess from the checkpoint file:  "SM41.n.1.pdb.xyz.mst.n.o.chk"
 B after Tr=     0.000000    0.000000    0.000000
         Rot=    1.000000    0.000000    0.000000    0.000000 Ang=   0.00 deg.
 Guess basis will be translated and rotated to current coordinates.
 JPrj=2 DoOrth=T DoCkMO=T.
 Leave Link  401 at Thu Aug  6 22:04:46 2020, MaxMem=    33554432 cpu:         0.2
 (Enter /dades/curu/work_g09D01_MST_AddSphPartition_ReadGammas/exe-dir/l502.exe)
 Closed shell SCF:
 Using DIIS extrapolation, IDIIS=  1040.
 Integral symmetry usage will be decided dynamically.
 IVT=      231207 IEndB=      231207 NGot=    33554432 MDV=    33409826
 LenX=    33409826 LenY=    33339689
 Requested convergence on RMS density matrix=1.00D-08 within 128 cycles.
 Requested convergence on MAX density matrix=1.00D-06.
 Requested convergence on             energy=1.00D-06.
 No special actions if energy rises.
 Fock matrices will be formed incrementally for  20 cycles.

 Cycle   1  Pass 1  IDiag  1:
 FoFJK:  IHMeth= 1 ICntrl=       0 DoSepK=F KAlg= 0 I1Cent=   0 FoldK=F
 IRaf= 760000000 NMat=   1 IRICut=       1 DoRegI=T DoRafI=F ISym2E= 0.
 FoFCou: FMM=F IPFlag=           0 FMFlag=      100000 FMFlg1=           0
         NFxFlg=           0 DoJE=F BraDBF=F KetDBF=F FulRan=T
         wScrn=  0.000000 ICntrl=       0 IOpCl=  0 I1Cent=           0 NGrid=           0
         NMat0=    1 NMatS0=      1 NMatT0=    0 NMatD0=    1 NMtDS0=    0 NMtDT0=    0
 Symmetry not used in FoFCou.
 Inv3:  Mode=1 IEnd=    15012507.
 Iteration    1 A*A^-1 deviation from unit magnitude is 7.77D-15 for   2228.
 Iteration    1 A*A^-1 deviation from orthogonality  is 1.85D-15 for   2234   1162.
 Iteration    1 A^-1*A deviation from unit magnitude is 7.11D-15 for   2228.
 Iteration    1 A^-1*A deviation from orthogonality  is 2.05D-15 for   2228   1115.
 E= -1120.35903150188    
 DIIS: error= 1.70D-03 at cycle   1 NSaved=   1.
 NSaved= 1 IEnMin= 1 EnMin= -1120.35903150188     IErMin= 1 ErrMin= 1.70D-03
 ErrMax= 1.70D-03  0.00D+00 EMaxC= 1.00D-01 BMatC= 3.76D-04 BMatP= 3.76D-04
 IDIUse=3 WtCom= 9.83D-01 WtEn= 1.70D-02
 Coeff-Com:  0.100D+01
 Coeff-En:   0.100D+01
 Coeff:      0.100D+01
 Gap=     0.183 Goal=   None    Shift=    0.000
 GapD=    0.183 DampG=1.000 DampE=1.000 DampFc=1.0000 IDamp=-1.
 RMSDP=3.63D-04 MaxDP=9.74D-03              OVMax= 1.20D-02

 Cycle   2  Pass 1  IDiag  1:
 RMSU=  3.61D-04    CP:  9.98D-01
 E= -1120.35958381709     Delta-E=       -0.000552315207 Rises=F Damp=F
[...]
 --------------------------------------------------------------------
 Leave Link  502 at Thu Aug  6 22:06:40 2020, MaxMem=    33554432 cpu:       113.9
 (Enter /prod/apps/gaussian/g09d1/l601.exe)
 Copying SCF densities to generalized density rwf, IOpCl= 0 IROHF=0.

 **********************************************************************

            Population analysis using the SCF density.

 **********************************************************************

 Orbital symmetries:
       Occupied  (A) (A) (A) (A) (A) (A) (A) (A) (A) (A) (A) (A)
                 (A) (A) (A) (A) (A) (A) (A) (A) (A) (A) (A) (A)
                 (A) (A) (A) (A) (A) (A) (A) (A) (A) (A) (A) (A)
                 (A) (A) (A) (A) (A) (A) (A) (A) (A) (A) (A) (A)
                 (A) (A) (A) (A) (A) (A) (A) (A) (A) (A) (A) (A)
                 (A) (A)
       Virtual   (A) (A) (A) (A) (A) (A) (A) (A) (A) (A) (A) (A)
                 (A) (A) (A) (A) (A) (A) (A) (A) (A) (A) (A) (A)
                 (A) (A) (A) (A) (A) (A) (A) (A) (A) (A) (A) (A)
                 (A) (A) (A) (A) (A) (A) (A) (A) (A) (A) (A) (A)
                 (A) (A) (A) (A) (A) (A) (A) (A) (A) (A) (A) (A)
                 (A) (A) (A) (A) (A) (A) (A) (A) (A) (A) (A) (A)
                 (A) (A) (A) (A) (A) (A) (A) (A) (A) (A) (A) (A)
                 (A) (A) (A) (A) (A) (A) (A) (A) (A) (A) (A) (A)
                 (A) (A) (A) (A) (A) (A) (A) (A) (A) (A) (A) (A)
                 (A) (A) (A) (A) (A) (A) (A) (A) (A) (A) (A) (A)
                 (A) (A) (A) (A) (A) (A) (A) (A) (A) (A) (A) (A)
                 (A) (A) (A) (A) (A) (A) (A) (A) (A) (A) (A) (A)
                 (A) (A) (A) (A) (A) (A) (A) (A) (A) (A) (A) (A)
                 (A) (A) (A) (A) (A) (A) (A) (A) (A) (A) (A) (A)
                 (A) (A) (A) (A) (A) (A) (A) (A) (A) (A) (A) (A)
                 (A) (A) (A) (A) (A) (A) (A) (A) (A) (A) (A) (A)
                 (A) (A) (A) (A) (A) (A) (A) (A) (A) (A)
 The electronic state is 1-A.
 Alpha  occ. eigenvalues --  -89.13463 -19.24349 -19.16194 -19.16168 -14.39662
 Alpha  occ. eigenvalues --  -14.38579 -10.27989 -10.27251 -10.23525 -10.21890
 Alpha  occ. eigenvalues --  -10.20579 -10.20437 -10.20353 -10.20206 -10.20119
 Alpha  occ. eigenvalues --  -10.20070  -8.15989  -6.12524  -6.12396  -6.12259
 Alpha  occ. eigenvalues --   -1.14983  -1.13180  -1.02160  -0.96921  -0.87836
 Alpha  occ. eigenvalues --   -0.85648  -0.81392  -0.78445  -0.75807  -0.75584
 Alpha  occ. eigenvalues --   -0.67064  -0.64717  -0.62424  -0.60314  -0.59819
 Alpha  occ. eigenvalues --   -0.55292  -0.54333  -0.50662  -0.50425  -0.49218
 Alpha  occ. eigenvalues --   -0.48162  -0.47800  -0.46732  -0.45250  -0.45005
 Alpha  occ. eigenvalues --   -0.44118  -0.43574  -0.42826  -0.40192  -0.38827
 Alpha  occ. eigenvalues --   -0.37342  -0.36491  -0.35571  -0.35413  -0.33620
 Alpha  occ. eigenvalues --   -0.32534  -0.32135  -0.32053  -0.30197  -0.26952
 Alpha  occ. eigenvalues --   -0.26304  -0.23773
 Alpha virt. eigenvalues --   -0.05511  -0.01247   0.01169   0.04443   0.05977
 Alpha virt. eigenvalues --    0.06829   0.08063   0.09089   0.09704   0.10288
 Alpha virt. eigenvalues --    0.11330   0.12575   0.13072   0.14582   0.14869
 Alpha virt. eigenvalues --    0.15091   0.16533   0.16733   0.17422   0.18922
 Alpha virt. eigenvalues --    0.23421   0.24083   0.26638   0.28159   0.29611
 Alpha virt. eigenvalues --    0.30991   0.32778   0.34115   0.35179   0.37124
 Alpha virt. eigenvalues --    0.40520   0.41590   0.43744   0.44525   0.47004
 Alpha virt. eigenvalues --    0.49699   0.50636   0.51379   0.52069   0.53146
 Alpha virt. eigenvalues --    0.53877   0.54176   0.55531   0.57515   0.57949
 Alpha virt. eigenvalues --    0.58497   0.59006   0.59885   0.60612   0.61116
 Alpha virt. eigenvalues --    0.62047   0.63336   0.63919   0.64476   0.66453
 Alpha virt. eigenvalues --    0.68189   0.69003   0.70163   0.71008   0.74756
 Alpha virt. eigenvalues --    0.75256   0.76353   0.78257   0.79503   0.80810
 Alpha virt. eigenvalues --    0.81125   0.81795   0.83130   0.83665   0.84187
 Alpha virt. eigenvalues --    0.85028   0.85845   0.86241   0.88490   0.88958
 Alpha virt. eigenvalues --    0.89618   0.90706   0.92028   0.94390   0.95216
 Alpha virt. eigenvalues --    0.95617   0.96668   0.97844   0.98788   1.01260
 Alpha virt. eigenvalues --    1.02905   1.02992   1.05738   1.09252   1.10195
 Alpha virt. eigenvalues --    1.12371   1.14756   1.15043   1.17170   1.17626
 Alpha virt. eigenvalues --    1.19578   1.20342   1.23625   1.23859   1.24658
 Alpha virt. eigenvalues --    1.29266   1.30279   1.31189   1.34628   1.35337
 Alpha virt. eigenvalues --    1.36985   1.39831   1.41087   1.42043   1.42820
 Alpha virt. eigenvalues --    1.46461   1.46872   1.47966   1.48621   1.49830
 Alpha virt. eigenvalues --    1.51589   1.54087   1.57459   1.60434   1.63367
 Alpha virt. eigenvalues --    1.68409   1.73408   1.74147   1.76709   1.78203
 Alpha virt. eigenvalues --    1.78445   1.79538   1.79671   1.81365   1.84334
 Alpha virt. eigenvalues --    1.85580   1.86816   1.88710   1.90144   1.92122
 Alpha virt. eigenvalues --    1.94482   1.96610   1.97720   2.00170   2.01829
 Alpha virt. eigenvalues --    2.03976   2.05246   2.06117   2.09842   2.10410
 Alpha virt. eigenvalues --    2.12269   2.13045   2.13540   2.14412   2.15396
 Alpha virt. eigenvalues --    2.17857   2.18791   2.20543   2.22022   2.24170
 Alpha virt. eigenvalues --    2.25359   2.27812   2.29617   2.29974   2.30630
 Alpha virt. eigenvalues --    2.32450   2.33530   2.43628   2.50364   2.52508
 Alpha virt. eigenvalues --    2.53839   2.56358   2.57906   2.59217   2.61903
 Alpha virt. eigenvalues --    2.65877   2.66570   2.68930   2.73286   2.73932
 Alpha virt. eigenvalues --    2.74369   2.76135   2.80178   2.84134   2.89797
 Alpha virt. eigenvalues --    2.90346   3.00953   3.04634   3.13372   3.26899
 Alpha virt. eigenvalues --    3.42703   3.75538   3.78613   3.89142   3.96948
 Alpha virt. eigenvalues --    4.04004   4.06898   4.08514   4.10612   4.12553
 Alpha virt. eigenvalues --    4.21005   4.24293   4.31246   4.37430   4.39271
 Alpha virt. eigenvalues --    4.54870   4.73897
          Condensed to atoms (all electrons):
               1          2          3          4          5          6
     1  O    8.261796   0.422390  -0.049285  -0.005820   0.000081   0.000000
     2  S    0.422390  13.644733   0.117182  -0.010826  -0.002375   0.000114
     3  N   -0.049285   0.117182   7.439799   0.222441  -0.077322   0.005595
     4  C   -0.005820  -0.010826   0.222441   4.541065   0.431317  -0.043565
     5  N    0.000081  -0.002375  -0.077322   0.431317   6.890205   0.131829
     6  O    0.000000   0.000114   0.005595  -0.043565   0.131829   8.181228
     7  C    0.000544   0.000380  -0.000610  -0.018626  -0.084278   0.250906
     8  C   -0.000004  -0.000015  -0.000203   0.003720   0.004709  -0.037765
     9  C    0.000003  -0.000002   0.000003   0.000628  -0.000111   0.003157
    10  C    0.000000   0.000000   0.000000  -0.000007   0.000001  -0.000061
    11  C    0.000000   0.000000   0.000000   0.000000   0.000000   0.000002
    12  C    0.000000   0.000000   0.000000   0.000005   0.000001   0.000294
    13  C    0.000000   0.000000  -0.000001  -0.000380   0.000166  -0.006703
    14  C    0.000281  -0.000904  -0.055098   0.442251  -0.049423  -0.090973
    15  C   -0.058322   0.227128  -0.063469   0.001093   0.000038   0.000007
    16  O   -0.041482   0.458446  -0.051812   0.001487  -0.000014   0.000000
    17  H    0.001314  -0.004553   0.290083  -0.023446   0.003828  -0.000186
    18  H   -0.000014  -0.000004   0.000000   0.000084  -0.000005   0.000028
    19  H    0.000000   0.000000   0.000000   0.000000   0.000000   0.000000
    20  H    0.000000   0.000000   0.000000   0.000000   0.000000   0.000000
    21  H    0.000000   0.000000   0.000000   0.000000   0.000000  -0.000003
    22  H    0.000000   0.000000   0.000000   0.000057  -0.000238   0.009754
    23  H    0.009598   0.001193  -0.001476  -0.026382   0.004939   0.003128
    24  H   -0.000554  -0.007428  -0.002184   0.002146   0.000179  -0.000040
    25  H    0.001861  -0.007696   0.000123   0.000243   0.000045   0.000000
    26  H   -0.000101  -0.013836   0.002351   0.000015  -0.000003   0.000000
               7          8          9         10         11         12
     1  O    0.000544  -0.000004   0.000003   0.000000   0.000000   0.000000
     2  S    0.000380  -0.000015  -0.000002   0.000000   0.000000   0.000000
     3  N   -0.000610  -0.000203   0.000003   0.000000   0.000000   0.000000
     4  C   -0.018626   0.003720   0.000628  -0.000007   0.000000   0.000005
     5  N   -0.084278   0.004709  -0.000111   0.000001   0.000000   0.000001
     6  O    0.250906  -0.037765   0.003157  -0.000061   0.000002   0.000294
     7  C    4.767923   0.340231  -0.041498   0.006416   0.000888   0.004763
     8  C    0.340231   4.782583   0.535817  -0.009575  -0.033810  -0.008540
     9  C   -0.041498   0.535817   5.010547   0.520301  -0.039251  -0.041574
    10  C    0.006416  -0.009575   0.520301   4.870318   0.542843  -0.024812
    11  C    0.000888  -0.033810  -0.039251   0.542843   4.862123   0.541375
    12  C    0.004763  -0.008540  -0.041574  -0.024812   0.541375   4.881751
    13  C   -0.040725   0.475209  -0.082724  -0.042277  -0.037144   0.506080
    14  C    0.484797  -0.058446  -0.021414   0.000243   0.000015  -0.000241
    15  C   -0.000231   0.000001   0.000000   0.000000   0.000000   0.000000
    16  O   -0.000001   0.000000   0.000000   0.000000   0.000000   0.000000
    17  H    0.000258   0.000001   0.000000   0.000000   0.000000   0.000000
    18  H   -0.013095  -0.037897   0.355191  -0.041900   0.004538   0.000192
    19  H   -0.000208   0.003238  -0.037662   0.361545  -0.041033   0.004406
    20  H    0.000003   0.000516   0.004845  -0.041886   0.363324  -0.041839
    21  H   -0.000178   0.003184   0.000823   0.004424  -0.041122   0.362037
    22  H   -0.013176  -0.041379   0.005408   0.000228   0.004506  -0.041763
    23  H   -0.030340  -0.002896   0.000863   0.000079   0.000000   0.000001
    24  H    0.000138  -0.000002   0.000000   0.000000   0.000000   0.000000
    25  H    0.000002   0.000000   0.000000   0.000000   0.000000   0.000000
    26  H    0.000000   0.000000   0.000000   0.000000   0.000000   0.000000
              13         14         15         16         17         18
     1  O    0.000000   0.000281  -0.058322  -0.041482   0.001314  -0.000014
     2  S    0.000000  -0.000904   0.227128   0.458446  -0.004553  -0.000004
     3  N   -0.000001  -0.055098  -0.063469  -0.051812   0.290083   0.000000
     4  C   -0.000380   0.442251   0.001093   0.001487  -0.023446   0.000084
     5  N    0.000166  -0.049423   0.000038  -0.000014   0.003828  -0.000005
     6  O   -0.006703  -0.090973   0.000007   0.000000  -0.000186   0.000028
     7  C   -0.040725   0.484797  -0.000231  -0.000001   0.000258  -0.013095
     8  C    0.475209  -0.058446   0.000001   0.000000   0.000001  -0.037897
     9  C   -0.082724  -0.021414   0.000000   0.000000   0.000000   0.355191
    10  C   -0.042277   0.000243   0.000000   0.000000   0.000000  -0.041900
    11  C   -0.037144   0.000015   0.000000   0.000000   0.000000   0.004538
    12  C    0.506080  -0.000241   0.000000   0.000000   0.000000   0.000192
    13  C    5.051980   0.012002   0.000000   0.000000   0.000000   0.005763
    14  C    0.012002   5.256552  -0.001767  -0.000042   0.004518   0.006790
    15  C    0.000000  -0.001767   5.541956  -0.058396   0.000318   0.000000
    16  O    0.000000  -0.000042  -0.058396   8.219337   0.000831   0.000000
    17  H    0.000000   0.004518   0.000318   0.000831   0.331189   0.000000
    18  H    0.005763   0.006790   0.000000   0.000000   0.000000   0.568141
    19  H    0.000839  -0.000001   0.000000   0.000000   0.000000  -0.004966
    20  H    0.004699   0.000000   0.000000   0.000000   0.000000  -0.000161
    21  H   -0.037705   0.000001   0.000000   0.000000   0.000000   0.000015
    22  H    0.361490   0.000230   0.000000   0.000000   0.000000  -0.000145
    23  H   -0.000076   0.349677   0.000194   0.000016  -0.000149   0.002052
    24  H    0.000000   0.002279   0.340427   0.001758   0.000078   0.000000
    25  H    0.000000   0.000010   0.342624   0.000090  -0.000014   0.000000
    26  H    0.000000  -0.000027   0.356914  -0.000386  -0.000014   0.000000
              19         20         21         22         23         24
     1  O    0.000000   0.000000   0.000000   0.000000   0.009598  -0.000554
     2  S    0.000000   0.000000   0.000000   0.000000   0.001193  -0.007428
     3  N    0.000000   0.000000   0.000000   0.000000  -0.001476  -0.002184
     4  C    0.000000   0.000000   0.000000   0.000057  -0.026382   0.002146
     5  N    0.000000   0.000000   0.000000  -0.000238   0.004939   0.000179
     6  O    0.000000   0.000000  -0.000003   0.009754   0.003128  -0.000040
     7  C   -0.000208   0.000003  -0.000178  -0.013176  -0.030340   0.000138
     8  C    0.003238   0.000516   0.003184  -0.041379  -0.002896  -0.000002
     9  C   -0.037662   0.004845   0.000823   0.005408   0.000863   0.000000
    10  C    0.361545  -0.041886   0.004424   0.000228   0.000079   0.000000
    11  C   -0.041033   0.363324  -0.041122   0.004506   0.000000   0.000000
    12  C    0.004406  -0.041839   0.362037  -0.041763   0.000001   0.000000
    13  C    0.000839   0.004699  -0.037705   0.361490  -0.000076   0.000000
    14  C   -0.000001   0.000000   0.000001   0.000230   0.349677   0.002279
    15  C    0.000000   0.000000   0.000000   0.000000   0.000194   0.340427
    16  O    0.000000   0.000000   0.000000   0.000000   0.000016   0.001758
    17  H    0.000000   0.000000   0.000000   0.000000  -0.000149   0.000078
    18  H   -0.004966  -0.000161   0.000015  -0.000145   0.002052   0.000000
    19  H    0.566479  -0.005210  -0.000168   0.000015  -0.000002   0.000000
    20  H   -0.005210   0.569476  -0.005196  -0.000154   0.000000   0.000000
    21  H   -0.000168  -0.005196   0.566467  -0.004888   0.000000   0.000000
    22  H    0.000015  -0.000154  -0.004888   0.557133  -0.000008   0.000000
    23  H   -0.000002   0.000000   0.000000  -0.000008   0.492018  -0.000003
    24  H    0.000000   0.000000   0.000000   0.000000  -0.000003   0.481881
    25  H    0.000000   0.000000   0.000000   0.000000  -0.000006  -0.021715
    26  H    0.000000   0.000000   0.000000   0.000000   0.000000  -0.019782
              25         26
     1  O    0.001861  -0.000101
     2  S   -0.007696  -0.013836
     3  N    0.000123   0.002351
     4  C    0.000243   0.000015
     5  N    0.000045  -0.000003
     6  O    0.000000   0.000000
     7  C    0.000002   0.000000
     8  C    0.000000   0.000000
     9  C    0.000000   0.000000
    10  C    0.000000   0.000000
    11  C    0.000000   0.000000
    12  C    0.000000   0.000000
    13  C    0.000000   0.000000
    14  C    0.000010  -0.000027
    15  C    0.342624   0.356914
    16  O    0.000090  -0.000386
    17  H   -0.000014  -0.000014
    18  H    0.000000   0.000000
    19  H    0.000000   0.000000
    20  H    0.000000   0.000000
    21  H    0.000000   0.000000
    22  H    0.000000   0.000000
    23  H   -0.000006   0.000000
    24  H   -0.021715  -0.019782
    25  H    0.477746  -0.018058
    26  H   -0.018058   0.457085
 Mulliken charges:
               1
     1  O   -0.542284
     2  S    1.176073
     3  N   -0.776116
     4  C    0.482502
     5  N   -0.253569
     6  O   -0.406745
     7  C    0.385717
     8  C    0.081323
     9  C   -0.173351
    10  C   -0.145878
    11  C   -0.127254
    12  C   -0.142135
    13  C   -0.170494
    14  C   -0.281309
    15  C   -0.628513
    16  O   -0.529834
    17  H    0.395945
    18  H    0.155392
    19  H    0.152725
    20  H    0.151583
    21  H    0.152307
    22  H    0.162928
    23  H    0.197578
    24  H    0.222822
    25  H    0.224746
    26  H    0.235842
 Sum of Mulliken charges =   0.00000
 Mulliken charges with hydrogens summed into heavy atoms:
               1
     1  O   -0.542284
     2  S    1.176073
     3  N   -0.380171
     4  C    0.482502
     5  N   -0.253569
     6  O   -0.406745
     7  C    0.385717
     8  C    0.081323
     9  C   -0.017959
    10  C    0.006847
    11  C    0.024329
    12  C    0.010172
    13  C   -0.007567
    14  C   -0.083731
    15  C    0.054897
    16  O   -0.529834
 Electronic spatial extent (au):  <R**2>=           5393.2900
 Charge=              0.0000 electrons
 Dipole moment (field-independent basis, Debye):
    X=             -3.1070    Y=             -0.4459    Z=              3.7821  Tot=              4.9149
 Quadrupole moment (field-independent basis, Debye-Ang):
   XX=            -92.9251   YY=           -100.3891   ZZ=            -97.1020
   XY=              9.7581   XZ=             12.9880   YZ=             -1.7234
 Traceless Quadrupole moment (field-independent basis, Debye-Ang):
   XX=              3.8803   YY=             -3.5837   ZZ=             -0.2966
   XY=              9.7581   XZ=             12.9880   YZ=             -1.7234
 Octapole moment (field-independent basis, Debye-Ang**2):
  XXX=           -123.5357  YYY=            -13.7394  ZZZ=              9.0127  XYY=             -3.8952
  XXY=             19.0953  XXZ=             60.6659  XZZ=             37.3647  YZZ=             -0.0940
  YYZ=              0.8491  XYZ=            -14.0605
 Hexadecapole moment (field-independent basis, Debye-Ang**3):
 XXXX=          -5821.9677 YYYY=           -847.7983 ZZZZ=           -281.0282 XXXY=             89.2701
 XXXZ=            154.1291 YYYX=             32.2176 YYYZ=             -0.0502 ZZZX=             29.9033
 ZZZY=             -3.5571 XXYY=          -1021.9518 XXZZ=          -1042.4594 YYZZ=           -185.6854
 XXYZ=            -18.1949 YYXZ=              8.9999 ZZXY=            -21.0424
 N-N= 1.180990954535D+03 E-N=-4.989031180442D+03  KE= 1.112237893239D+03
 No NMR shielding tensors so no spin-rotation constants.
 Leave Link  601 at Thu Aug  6 22:06:40 2020, MaxMem=    33554432 cpu:         0.2
 (Enter /prod/apps/gaussian/g09d1/l9999.exe)
 1\1\GINC-PIRINEUS28\SP\RB3LYP\6-31G(d)\C10H10N2O3S1\UBAFAR01\06-Aug-20
 20\0\\#p b3lyp/6-31G(d) scrf=(iefpcm,read,solvent=n-Octanol) geom=allc
 heck guess=read\\SM41.n.1.pdb.xyz\\0,1\O,0,3.211,0.784,-1.525\S,0,3.93
 8,0.308,-0.347\N,0,4.376,1.68,0.546\C,0,3.456,2.683,0.869\N,0,3.545,3.
 277,2.044\O,0,2.551,4.263,2.016\C,0,1.888,4.21,0.836\C,0,0.804,5.162,0
 .63\C,0,0.088,5.161,-0.578\C,0,-0.947,6.069,-0.777\C,0,-1.281,6.985,0.
 223\C,0,-0.572,6.99,1.426\C,0,0.465,6.085,1.632\C,0,2.424,3.222,0.056\
 C,0,2.79,-0.607,0.688\O,0,5.174,-0.46,-0.478\H,0,5.06,1.476,1.272\H,0,
 0.346,4.452,-1.355\H,0,-1.494,6.061,-1.713\H,0,-2.088,7.691,0.066\H,0,
 -0.827,7.699,2.206\H,0,1.019,6.085,2.563\H,0,2.156,2.913,-0.939\H,0,1.
 935,0.029,0.915\H,0,3.303,-0.914,1.599\H,0,2.469,-1.48,0.118\\Version=
 AM64L-G09RevD.01\State=1-A\HF=-1120.3599151\RMSD=6.124e-09\Dipole=-1.7
 790448,0.1458414,0.743536\Quadrupole=-2.3597079,7.5186725,-5.1589646,-
 0.8084591,6.0494271,-8.5818324\PG=C01 [X(C10H10N2O3S1)]\\@


 THESE ARE THE TIMES THAT TRY MENS SOULS.
 THE SUMMER SOLDIER AND THE SUNSHINE PATRIOT WILL IN THIS CRISIS,
 SHRINK FROM THE SERVICE OF HIS COUNTRY.  BUT HE THAT STANDS NOW,
 DESERVES THE LOVE AND THANKS OF MAN AND WOMAN.
 TYRANNY, LIKE HELL, IS NOT EASILY CONQUERED,
 YET WE HAVE THIS CONSOLATION WITH US,
 THAT THE HARDER THE CONFLICT, THE MORE GLORIOUS THE TRIUMPH.
 WHAT WE OBTAIN TOO CHEAP, WE ESTEEM TOO LIGHTLY, 
 'TIS DEARNESS ONLY THAT GIVES EVERYTHING ITS VALUE.

                                              -- TOM PAINE
 Job cpu time:       0 days  0 hours  1 minutes 55.3 seconds.
 File lengths (MBytes):  RWF=    123 Int=      0 D2E=      0 Chk=      5 Scr=      1
 Normal termination of Gaussian 09 at Thu Aug  6 22:06:40 2020.
