 Entering Gaussian System, Link 0=g09
 Initial command:
 /prod/apps/gaussian/g09d1/l1.exe "/tmp/ubafar01/1448638/Gau-124424.inp" -scrdir="/tmp/ubafar01/1448638/"
 Entering Link 1 = /prod/apps/gaussian/g09d1/l1.exe PID=    124425.
  
 Copyright (c) 1988,1990,1992,1993,1995,1998,2003,2009,2013,
            Gaussian, Inc.  All Rights Reserved.
  
 This is part of the Gaussian(R) 09 program.  It is based on
 the Gaussian(R) 03 system (copyright 2003, Gaussian, Inc.),
 the Gaussian(R) 98 system (copyright 1998, Gaussian, Inc.),
 the Gaussian(R) 94 system (copyright 1995, Gaussian, Inc.),
 the Gaussian 92(TM) system (copyright 1992, Gaussian, Inc.),
 the Gaussian 90(TM) system (copyright 1990, Gaussian, Inc.),
 the Gaussian 88(TM) system (copyright 1988, Gaussian, Inc.),
 the Gaussian 86(TM) system (copyright 1986, Carnegie Mellon
 University), and the Gaussian 82(TM) system (copyright 1983,
 Carnegie Mellon University). Gaussian is a federally registered
 trademark of Gaussian, Inc.
  
 This software contains proprietary and confidential information,
 including trade secrets, belonging to Gaussian, Inc.
  
 This software is provided under written license and may be
 used, copied, transmitted, or stored only in accord with that
 written license.
  
 The following legend is applicable only to US Government
 contracts under FAR:
  
                    RESTRICTED RIGHTS LEGEND
  
 Use, reproduction and disclosure by the US Government is
 subject to restrictions as set forth in subparagraphs (a)
 and (c) of the Commercial Computer Software - Restricted
 Rights clause in FAR 52.227-19.
  
 Gaussian, Inc.
 340 Quinnipiac St., Bldg. 40, Wallingford CT 06492
  
  
 ---------------------------------------------------------------
 Warning -- This program may not be used in any manner that
 competes with the business of Gaussian, Inc. or will provide
 assistance to any competitor of Gaussian, Inc.  The licensee
 of this program is prohibited from giving any competitor of
 Gaussian, Inc. access to this program.  By using this program,
 the user acknowledges that Gaussian, Inc. is engaged in the
 business of creating and licensing software in the field of
 computational chemistry and represents and warrants to the
 licensee that it is not a competitor of Gaussian, Inc. and that
 it will not use this program in any manner prohibited above.
 ---------------------------------------------------------------
  

 Cite this work as:
 Gaussian 09, Revision D.01,
 M. J. Frisch, G. W. Trucks, H. B. Schlegel, G. E. Scuseria, 
 M. A. Robb, J. R. Cheeseman, G. Scalmani, V. Barone, B. Mennucci, 
 G. A. Petersson, H. Nakatsuji, M. Caricato, X. Li, H. P. Hratchian, 
 A. F. Izmaylov, J. Bloino, G. Zheng, J. L. Sonnenberg, M. Hada, 
 M. Ehara, K. Toyota, R. Fukuda, J. Hasegawa, M. Ishida, T. Nakajima, 
 Y. Honda, O. Kitao, H. Nakai, T. Vreven, J. A. Montgomery, Jr., 
 J. E. Peralta, F. Ogliaro, M. Bearpark, J. J. Heyd, E. Brothers, 
 K. N. Kudin, V. N. Staroverov, T. Keith, R. Kobayashi, J. Normand, 
 K. Raghavachari, A. Rendell, J. C. Burant, S. S. Iyengar, J. Tomasi, 
 M. Cossi, N. Rega, J. M. Millam, M. Klene, J. E. Knox, J. B. Cross, 
 V. Bakken, C. Adamo, J. Jaramillo, R. Gomperts, R. E. Stratmann, 
 O. Yazyev, A. J. Austin, R. Cammi, C. Pomelli, J. W. Ochterski, 
 R. L. Martin, K. Morokuma, V. G. Zakrzewski, G. A. Voth, 
 P. Salvador, J. J. Dannenberg, S. Dapprich, A. D. Daniels, 
 O. Farkas, J. B. Foresman, J. V. Ortiz, J. Cioslowski, 
 and D. J. Fox, Gaussian, Inc., Wallingford CT, 2013.
 
 ******************************************
 Gaussian 09:  AM64L-G09RevD.01 24-Apr-2013
                 6-Aug-2020 
 ******************************************
 %nproc=1
 Will use up to    1 processors via shared memory.
 %Chk=SM41.n.5.pdb.xyz.mst.n.o.chk
 -----------------
 #p b3lyp/6-31G(d)
 -----------------
 1/38=1/1;
 2/12=2,17=6,18=5,40=1/2;
 3/5=1,6=6,7=1,11=2,16=1,25=1,30=1,74=-5/1,2,3;
 4//1;
 5/5=2,38=5/2;
 6/7=2,8=2,9=2,10=2,28=1/1;
 99/5=1,9=1/99;
 Leave Link    1 at Thu Aug  6 22:03:14 2020, MaxMem=           0 cpu:         0.0
 (Enter /prod/apps/gaussian/g09d1/l101.exe)
 ----------------
 SM41.n.5.pdb.xyz
 ----------------
 Symbolic Z-matrix:
 Charge =  0 Multiplicity = 1
 O                     1.975     0.213     3.824 
 S                     2.945    -0.009     2.75 
 N                     2.593     0.959     1.391 
 C                     2.156     2.278     1.49 
 N                     2.587     3.063     2.46 
 O                     1.976     4.299     2.215 
 C                     1.214     4.218     1.1 
 C                     0.502     5.42      0.684 
 C                    -0.285     5.403    -0.478 
 C                    -0.967     6.548    -0.878 
 C                    -0.871     7.721    -0.125 
 C                    -0.089     7.743     1.032 
 C                     0.595     6.601     1.438 
 C                     1.286     2.951     0.592 
 C                     4.523     0.657     3.264 
 O                     3.108    -1.348     2.178 
 H                     2.185     0.4       0.646 
 H                    -0.36      4.494    -1.064 
 H                    -1.573     6.526    -1.777 
 H                    -1.403     8.613    -0.438 
 H                    -0.012     8.651     1.619 
 H                     1.203     6.611     2.334 
 H                     0.793     2.551    -0.278 
 H                     4.382     1.722     3.449 
 H                     5.248     0.484     2.47 
 H                     4.809     0.133     4.176 
 
 NAtoms=     26 NQM=       26 NQMF=       0 NMMI=      0 NMMIF=      0
                NMic=       0 NMicF=      0.
                    Isotopes and Nuclear Properties:
 (Nuclear quadrupole moments (NQMom) in fm**2, nuclear magnetic moments (NMagM)
  in nuclear magnetons)

  Atom         1           2           3           4           5           6           7           8           9          10
 IAtWgt=          16          32          14          12          14          16          12          12          12          12
 AtmWgt=  15.9949146  31.9720718  14.0030740  12.0000000  14.0030740  15.9949146  12.0000000  12.0000000  12.0000000  12.0000000
 NucSpn=           0           0           2           0           2           0           0           0           0           0
 AtZEff=   0.0000000   0.0000000   0.0000000   0.0000000   0.0000000   0.0000000   0.0000000   0.0000000   0.0000000   0.0000000
 NQMom=    0.0000000   0.0000000   2.0440000   0.0000000   2.0440000   0.0000000   0.0000000   0.0000000   0.0000000   0.0000000
 NMagM=    0.0000000   0.0000000   0.4037610   0.0000000   0.4037610   0.0000000   0.0000000   0.0000000   0.0000000   0.0000000
 AtZNuc=   8.0000000  16.0000000   7.0000000   6.0000000   7.0000000   8.0000000   6.0000000   6.0000000   6.0000000   6.0000000

  Atom        11          12          13          14          15          16          17          18          19          20
 IAtWgt=          12          12          12          12          12          16           1           1           1           1
 AtmWgt=  12.0000000  12.0000000  12.0000000  12.0000000  12.0000000  15.9949146   1.0078250   1.0078250   1.0078250   1.0078250
 NucSpn=           0           0           0           0           0           0           1           1           1           1
 AtZEff=   0.0000000   0.0000000   0.0000000   0.0000000   0.0000000   0.0000000   0.0000000   0.0000000   0.0000000   0.0000000
 NQMom=    0.0000000   0.0000000   0.0000000   0.0000000   0.0000000   0.0000000   0.0000000   0.0000000   0.0000000   0.0000000
 NMagM=    0.0000000   0.0000000   0.0000000   0.0000000   0.0000000   0.0000000   2.7928460   2.7928460   2.7928460   2.7928460
 AtZNuc=   6.0000000   6.0000000   6.0000000   6.0000000   6.0000000   8.0000000   1.0000000   1.0000000   1.0000000   1.0000000

  Atom        21          22          23          24          25          26
 IAtWgt=           1           1           1           1           1           1
 AtmWgt=   1.0078250   1.0078250   1.0078250   1.0078250   1.0078250   1.0078250
 NucSpn=           1           1           1           1           1           1
 AtZEff=   0.0000000   0.0000000   0.0000000   0.0000000   0.0000000   0.0000000
 NQMom=    0.0000000   0.0000000   0.0000000   0.0000000   0.0000000   0.0000000
 NMagM=    2.7928460   2.7928460   2.7928460   2.7928460   2.7928460   2.7928460
 AtZNuc=   1.0000000   1.0000000   1.0000000   1.0000000   1.0000000   1.0000000
 Leave Link  101 at Thu Aug  6 22:03:14 2020, MaxMem=    33554432 cpu:         0.1
 (Enter /prod/apps/gaussian/g09d1/l202.exe)
                          Input orientation:                          
 ---------------------------------------------------------------------
 Center     Atomic      Atomic             Coordinates (Angstroms)
 Number     Number       Type             X           Y           Z
 ---------------------------------------------------------------------
      1          8           0        1.975000    0.213000    3.824000
      2         16           0        2.945000   -0.009000    2.750000
      3          7           0        2.593000    0.959000    1.391000
      4          6           0        2.156000    2.278000    1.490000
      5          7           0        2.587000    3.063000    2.460000
      6          8           0        1.976000    4.299000    2.215000
      7          6           0        1.214000    4.218000    1.100000
      8          6           0        0.502000    5.420000    0.684000
      9          6           0       -0.285000    5.403000   -0.478000
     10          6           0       -0.967000    6.548000   -0.878000
     11          6           0       -0.871000    7.721000   -0.125000
     12          6           0       -0.089000    7.743000    1.032000
     13          6           0        0.595000    6.601000    1.438000
     14          6           0        1.286000    2.951000    0.592000
     15          6           0        4.523000    0.657000    3.264000
     16          8           0        3.108000   -1.348000    2.178000
     17          1           0        2.185000    0.400000    0.646000
     18          1           0       -0.360000    4.494000   -1.064000
     19          1           0       -1.573000    6.526000   -1.777000
     20          1           0       -1.403000    8.613000   -0.438000
     21          1           0       -0.012000    8.651000    1.619000
     22          1           0        1.203000    6.611000    2.334000
     23          1           0        0.793000    2.551000   -0.278000
     24          1           0        4.382000    1.722000    3.449000
     25          1           0        5.248000    0.484000    2.470000
     26          1           0        4.809000    0.133000    4.176000
 ---------------------------------------------------------------------
                    Distance matrix (angstroms):
                    1          2          3          4          5
     1  O    0.000000
     2  S    1.464124   0.000000
     3  N    2.618765   1.705230   0.000000
     4  C    3.121625   2.727726   1.393029   0.000000
     5  N    3.218313   3.106356   2.360003   1.320184   0.000000
     6  O    4.391387   4.447926   3.495034   2.154638   1.400372
     7  C    4.902991   4.856582   3.550690   2.191589   2.251389
     8  C    6.256371   6.301638   4.977213   3.641087   3.613426
     9  C    7.109916   7.081146   5.614729   4.426865   4.728195
    10  C    8.420000   8.453424   7.004205   5.795986   5.993195
    11  C    8.947870   9.087375   7.747399   6.434066   6.351138
    12  C    8.291939   8.500011   7.303743   5.925877   5.576967
    13  C    6.957294   7.136942   5.985514   4.596494   4.186883
    14  C    4.291525   4.021299   2.512909   1.419941   2.279160
    15  C    2.646326   1.788249   2.706332   3.373041   3.191136
    16  O    2.535690   1.465153   2.491354   3.811499   4.450605
    17  H    3.190416   2.274137   1.016843   2.059141   3.247117
    18  H    6.904472   6.763626   5.219527   4.214716   4.811564
    19  H    9.154970   9.143975   7.640895   6.528724   6.873874
    20  H   10.006774  10.168940   8.825926   7.517705   7.424352
    21  H    8.944833   9.220554   8.124338   6.732904   6.219954
    22  H    6.614415   6.857990   5.896308   4.516130   3.810464
    23  H    4.867214   4.511484   2.925752   2.249027   3.313189
    24  H    2.865546   2.355829   2.831617   3.016934   2.449169
    25  H    3.552363   2.371763   2.904977   3.706656   3.705707
    26  H    2.856897   2.351199   3.653650   4.342123   4.057935
                    6          7          8          9         10
     6  O    0.000000
     7  C    1.352934   0.000000
     8  C    2.402765   1.457671   0.000000
     9  C    3.685537   2.478167   1.403532   0.000000
    10  C    4.825546   3.754750   2.422847   1.391456   0.000000
    11  C    5.029025   4.256625   2.798966   2.416843   1.397195
    12  C    4.186269   3.758731   2.422130   2.791794   2.418059
    13  C    2.794655   2.485175   1.404253   2.425007   2.794013
    14  C    2.219760   1.366944   2.592119   3.102458   4.491694
    15  C    4.566374   5.321005   6.746185   7.722949   9.055393
    16  O    5.759462   5.977431   7.404667   8.008919   9.396360
    17  H    4.208045   3.965612   5.294746   5.691598   7.074997
    18  H    4.030727   2.690083   2.157782   1.084113   2.149875
    19  H    5.787140   4.622917   3.403731   2.146503   1.084399
    20  H    6.088238   5.341363   3.883704   3.399356   2.155904
    21  H    4.821542   4.628599   3.402614   3.875751   3.401418
    22  H    2.440704   2.692457   2.152297   3.403050   3.876830
    23  H    3.266503   2.203410   3.039948   3.055485   4.408357
    24  H    3.735307   4.667338   6.031155   7.124042   8.403869
    25  H    5.032418   5.665052   7.076610   7.968774   9.306311
    26  H    5.406197   6.250842   7.661376   8.682249  10.002865
                   11         12         13         14         15
    11  C    0.000000
    12  C    1.396659   0.000000
    13  C    2.417959   1.391710   0.000000
    14  C    5.283904   5.004747   3.809947   0.000000
    15  C    9.512132   8.744356   7.354903   4.783324   0.000000
    16  O   10.167744   9.704659   8.369550   4.931174   2.683588
    17  H    7.970610   7.696734   6.450408   2.705313   3.519406
    18  H    3.399466   3.875907   3.407562   2.798661   7.569534
    19  H    2.156370   3.402033   3.878411   5.154286   9.849775
    20  H    1.084738   2.155086   3.399930   6.352154  10.588683
    21  H    2.155068   1.083957   2.145626   5.935447   9.336824
    22  H    3.402978   2.155433   1.082857   4.054264   6.880219
    23  H    5.433342   5.426867   4.402994   1.077009   5.481414
    24  H    8.738163   7.879351   6.495393   4.388406   1.090106
    25  H    9.826004   9.123842   7.754555   5.030946   1.089032
    26  H   10.408590   9.580566   8.190816   5.761745   1.090007
                   16         17         18         19         20
    16  O    0.000000
    17  H    2.500891   0.000000
    18  H    7.527719   5.114876   0.000000
    19  H    9.977658   7.584284   2.471591   0.000000
    20  H   11.243402   9.027855   4.294867   2.485436   0.000000
    21  H   10.489370   8.593750   4.959863   4.299437   2.483460
    22  H    8.185294   6.510775   4.297797   4.961222   4.299212
    23  H    5.156875   2.723645   2.392165   4.862672   6.449485
    24  H    3.558570   3.798855   7.108988   9.265609   9.801065
    25  H    2.832153   3.565950   7.747188  10.053299  10.898298
    26  H    3.013099   4.406537   8.555377  10.818437  11.479910
                   21         22         23         24         25
    21  H    0.000000
    22  H    2.479728   0.000000
    23  H    6.438683   4.845023   0.000000
    24  H    8.406377   5.937305   5.240104   0.000000
    25  H    9.751497   7.343068   5.627701   1.800289   0.000000
    26  H   10.116156   7.639416   6.466305   1.798827   1.796207
                   26
    26  H    0.000000
 Stoichiometry    C10H10N2O3S
 Framework group  C1[X(C10H10N2O3S)]
 Deg. of freedom    72
 Full point group                 C1      NOp   1
 Largest Abelian subgroup         C1      NOp   1
 Largest concise Abelian subgroup C1      NOp   1
                         Standard orientation:                         
 ---------------------------------------------------------------------
 Center     Atomic      Atomic             Coordinates (Angstroms)
 Number     Number       Type             X           Y           Z
 ---------------------------------------------------------------------
      1          8           0       -3.338670   -0.375025    1.571615
      2         16           0       -3.601944    0.137537    0.225648
      3          7           0       -2.201698    0.834028   -0.454073
      4          6           0       -0.929452    0.288160   -0.299319
      5          7           0       -0.756552   -1.019222   -0.238140
      6          8           0        0.628824   -1.189666   -0.125332
      7          6           0        1.239446    0.017556   -0.138955
      8          6           0        2.693413    0.036268   -0.036798
      9          6           0        3.383789    1.257830   -0.069491
     10          6           0        4.771598    1.280070    0.028696
     11          6           0        5.485044    0.085904    0.159525
     12          6           0        4.802623   -1.132241    0.192402
     13          6           0        3.414598   -1.161364    0.095477
     14          6           0        0.296954    1.001825   -0.245996
     15          6           0       -3.876530   -1.251360   -0.866783
     16          8           0       -4.624086    1.167518    0.023070
     17          1           0       -2.264366    1.848920   -0.447962
     18          1           0        2.831957    2.185361   -0.171805
     19          1           0        5.296999    2.228334    0.002788
     20          1           0        6.566937    0.104573    0.235780
     21          1           0        5.352436   -2.060880    0.293881
     22          1           0        2.879133   -2.102235    0.120354
     23          1           0        0.444832    2.068275   -0.273694
     24          1           0       -2.973241   -1.861397   -0.850887
     25          1           0       -4.082057   -0.871352   -1.866454
     26          1           0       -4.731202   -1.802326   -0.474241
 ---------------------------------------------------------------------
 Rotational constants (GHZ):      1.8763471      0.1847637      0.1754216
 Leave Link  202 at Thu Aug  6 22:03:14 2020, MaxMem=    33554432 cpu:         0.0
 (Enter /prod/apps/gaussian/g09d1/l301.exe)
 Standard basis: 6-31G(d) (6D, 7F)
 Ernie: Thresh=  0.10000D-02 Tol=  0.10000D-05 Strict=F.
 There are   264 symmetry adapted cartesian basis functions of A   symmetry.
 There are   264 symmetry adapted basis functions of A   symmetry.
   264 basis functions,   512 primitive gaussians,   264 cartesian basis functions
    62 alpha electrons       62 beta electrons
       nuclear repulsion energy      1172.0972742043 Hartrees.
 IExCor=  402 DFT=T Ex+Corr=B3LYP ExCW=0 ScaHFX=  0.200000
 ScaDFX=  0.800000  0.720000  1.000000  0.810000 ScalE2=  1.000000  1.000000
 IRadAn=      0 IRanWt=     -1 IRanGd=            0 ICorTp=0 IEmpDi=  4
 NAtoms=   26 NActive=   26 NUniq=   26 SFac= 1.00D+00 NAtFMM=   60 NAOKFM=F Big=F
 Integral buffers will be    131072 words long.
 Raffenetti 2 integral format.
 Two-electron integral symmetry is turned on.
 Leave Link  301 at Thu Aug  6 22:03:14 2020, MaxMem=    33554432 cpu:         0.0
 (Enter /prod/apps/gaussian/g09d1/l302.exe)
 NPDir=0 NMtPBC=     1 NCelOv=     1 NCel=       1 NClECP=     1 NCelD=      1
         NCelK=      1 NCelE2=     1 NClLst=     1 CellRange=     0.0.
 One-electron integrals computed using PRISM.
 NBasis=   264 RedAO= T EigKep=  4.57D-04  NBF=   264
 NBsUse=   264 1.00D-06 EigRej= -1.00D+00 NBFU=   264
 Precomputing XC quadrature grid using
 IXCGrd= 4 IRadAn=           0 IRanWt=          -1 IRanGd=           0 AccXCQ= 0.00D+00.
 Generated NRdTot=       0 NPtTot=           0 NUsed=           0 NTot=          32
 NSgBfM=   261   261   261   261   261 MxSgAt=    26 MxSgA2=    26.
 Leave Link  302 at Thu Aug  6 22:03:15 2020, MaxMem=    33554432 cpu:         0.7
 (Enter /prod/apps/gaussian/g09d1/l303.exe)
 DipDrv:  MaxL=1.
 Leave Link  303 at Thu Aug  6 22:03:15 2020, MaxMem=    33554432 cpu:         0.0
 (Enter /prod/apps/gaussian/g09d1/l401.exe)
 ExpMin= 1.17D-01 ExpMax= 2.19D+04 ExpMxC= 3.30D+03 IAcc=1 IRadAn=         1 AccDes= 0.00D+00
 Harris functional with IExCor=  402 and IRadAn=       1 diagonalized for initial guess.
 HarFok:  IExCor=  402 AccDes= 0.00D+00 IRadAn=         1 IDoV= 1 UseB2=F ITyADJ=14
 ICtDFT=  3500011 ScaDFX=  1.000000  1.000000  1.000000  1.000000
 FoFCou: FMM=F IPFlag=           0 FMFlag=      100000 FMFlg1=           0
         NFxFlg=           0 DoJE=T BraDBF=F KetDBF=T FulRan=T
         wScrn=  0.000000 ICntrl=     500 IOpCl=  0 I1Cent=   200000004 NGrid=           0
         NMat0=    1 NMatS0=      1 NMatT0=    0 NMatD0=    1 NMtDS0=    0 NMtDT0=    0
 Petite list used in FoFCou.
 Harris En= -1120.38096194073    
 JPrj=0 DoOrth=F DoCkMO=F.
 Leave Link  401 at Thu Aug  6 22:03:17 2020, MaxMem=    33554432 cpu:         2.1
 (Enter /prod/apps/gaussian/g09d1/l502.exe)
 Closed shell SCF:
 Using DIIS extrapolation, IDIIS=  1040.
 Integral symmetry usage will be decided dynamically.
 IVT=      231207 IEndB=      231207 NGot=    33554432 MDV=    33409826
 LenX=    33409826 LenY=    33339689
 Requested convergence on RMS density matrix=1.00D-08 within 128 cycles.
 Requested convergence on MAX density matrix=1.00D-06.
 Requested convergence on             energy=1.00D-06.
 No special actions if energy rises.
 Fock matrices will be formed incrementally for  20 cycles.
 Integral accuracy reduced to 1.0D-05 until final iterations.

 Cycle   1  Pass 0  IDiag  1:
 FoFJK:  IHMeth= 1 ICntrl=       0 DoSepK=F KAlg= 0 I1Cent=   0 FoldK=F
 IRaf= 740000000 NMat=   1 IRICut=       1 DoRegI=T DoRafI=F ISym2E= 0.
 FoFCou: FMM=F IPFlag=           0 FMFlag=      100000 FMFlg1=           0
         NFxFlg=           0 DoJE=F BraDBF=F KetDBF=F FulRan=T
         wScrn=  0.000000 ICntrl=       0 IOpCl=  0 I1Cent=           0 NGrid=           0
         NMat0=    1 NMatS0=      1 NMatT0=    0 NMatD0=    1 NMtDS0=    0 NMtDT0=    0
 Symmetry not used in FoFCou.
 E= -1119.83751509320    
 DIIS: error= 3.95D-02 at cycle   1 NSaved=   1.
 NSaved= 1 IEnMin= 1 EnMin= -1119.83751509320     IErMin= 1 ErrMin= 3.95D-02
 ErrMax= 3.95D-02  0.00D+00 EMaxC= 1.00D-01 BMatC= 5.78D-01 BMatP= 5.78D-01
 IDIUse=3 WtCom= 6.05D-01 WtEn= 3.95D-01
 Coeff-Com:  0.100D+01
 Coeff-En:   0.100D+01
 Coeff:      0.100D+01
 Gap=     0.276 Goal=   None    Shift=    0.000
 GapD=    0.276 DampG=1.000 DampE=0.500 DampFc=0.5000 IDamp=-1.
 Damping current iteration by 5.00D-01
 RMSDP=7.32D-03 MaxDP=5.82D-01              OVMax= 2.40D-01

 Cycle   2  Pass 0  IDiag  1:
 RMSU=  3.66D-03    CP:  9.92D-01
 E= -1119.95670260667     Delta-E=       -0.119187513469 Rises=F Damp=T
 DIIS: error= 1.63D-02 at cycle   2 NSaved=   2.
 NSaved= 2 IEnMin= 2 EnMin= -1119.95670260667     IErMin= 2 ErrMin= 1.63D-02
 ErrMax= 1.63D-02  0.00D+00 EMaxC= 1.00D-01 BMatC= 9.42D-02 BMatP= 5.78D-01
 IDIUse=3 WtCom= 8.37D-01 WtEn= 1.63D-01
 Coeff-Com:  0.233D+00 0.767D+00
 Coeff-En:   0.373D+00 0.627D+00
 Coeff:      0.256D+00 0.744D+00
 Gap=     0.212 Goal=   None    Shift=    0.000
 RMSDP=2.21D-03 MaxDP=1.26D-01 DE=-1.19D-01 OVMax= 2.01D-01

 Cycle   3  Pass 0  IDiag  1:
 RMSU=  1.82D-03    CP:  9.80D-01  6.66D-01
 E= -1120.28817129195     Delta-E=       -0.331468685286 Rises=F Damp=F
 DIIS: error= 1.13D-02 at cycle   3 NSaved=   3.
 NSaved= 3 IEnMin= 3 EnMin= -1120.28817129195     IErMin= 3 ErrMin= 1.13D-02
 ErrMax= 1.13D-02  0.00D+00 EMaxC= 1.00D-01 BMatC= 5.46D-02 BMatP= 9.42D-02
 IDIUse=3 WtCom= 8.87D-01 WtEn= 1.13D-01
 Coeff-Com:  0.791D-01 0.432D+00 0.489D+00
 Coeff-En:   0.000D+00 0.000D+00 0.100D+01
 Coeff:      0.702D-01 0.383D+00 0.547D+00
 Gap=     0.185 Goal=   None    Shift=    0.000
 RMSDP=1.22D-03 MaxDP=4.23D-02 DE=-3.31D-01 OVMax= 5.40D-02

 Cycle   4  Pass 0  IDiag  1:
 RMSU=  7.70D-04    CP:  9.85D-01  7.53D-01  5.19D-01
 E= -1120.32933185270     Delta-E=       -0.041160560743 Rises=F Damp=F
 DIIS: error= 4.23D-03 at cycle   4 NSaved=   4.
 NSaved= 4 IEnMin= 4 EnMin= -1120.32933185270     IErMin= 4 ErrMin= 4.23D-03
 ErrMax= 4.23D-03  0.00D+00 EMaxC= 1.00D-01 BMatC= 8.59D-03 BMatP= 5.46D-02
 IDIUse=3 WtCom= 9.58D-01 WtEn= 4.23D-02
 Coeff-Com:  0.897D-02 0.906D-01 0.301D+00 0.600D+00
 Coeff-En:   0.000D+00 0.000D+00 0.127D+00 0.873D+00
 Coeff:      0.859D-02 0.868D-01 0.294D+00 0.611D+00
 Gap=     0.182 Goal=   None    Shift=    0.000
 RMSDP=4.07D-04 MaxDP=1.77D-02 DE=-4.12D-02 OVMax= 2.10D-02

 Cycle   5  Pass 0  IDiag  1:
 RMSU=  2.39D-04    CP:  9.85D-01  7.35D-01  6.25D-01  6.67D-01
 E= -1120.33557601988     Delta-E=       -0.006244167186 Rises=F Damp=F
 DIIS: error= 1.42D-03 at cycle   5 NSaved=   5.
 NSaved= 5 IEnMin= 5 EnMin= -1120.33557601988     IErMin= 5 ErrMin= 1.42D-03
 ErrMax= 1.42D-03  0.00D+00 EMaxC= 1.00D-01 BMatC= 1.10D-03 BMatP= 8.59D-03
 IDIUse=3 WtCom= 9.86D-01 WtEn= 1.42D-02
 Coeff-Com: -0.744D-03 0.226D-01 0.141D+00 0.378D+00 0.458D+00
 Coeff-En:   0.000D+00 0.000D+00 0.000D+00 0.635D-01 0.936D+00
 Coeff:     -0.734D-03 0.223D-01 0.139D+00 0.374D+00 0.465D+00
 Gap=     0.182 Goal=   None    Shift=    0.000
 RMSDP=1.63D-04 MaxDP=6.45D-03 DE=-6.24D-03 OVMax= 1.09D-02

 Cycle   6  Pass 0  IDiag  1:
 RMSU=  8.45D-05    CP:  9.84D-01  7.40D-01  6.27D-01  7.07D-01  4.34D-01
 E= -1120.33643266727     Delta-E=       -0.000856647383 Rises=F Damp=F
 DIIS: error= 6.06D-04 at cycle   6 NSaved=   6.
 NSaved= 6 IEnMin= 6 EnMin= -1120.33643266727     IErMin= 6 ErrMin= 6.06D-04
 ErrMax= 6.06D-04  0.00D+00 EMaxC= 1.00D-01 BMatC= 1.42D-04 BMatP= 1.10D-03
 IDIUse=3 WtCom= 9.94D-01 WtEn= 6.06D-03
 Coeff-Com: -0.144D-02 0.410D-02 0.493D-01 0.154D+00 0.301D+00 0.493D+00
 Coeff-En:   0.000D+00 0.000D+00 0.000D+00 0.000D+00 0.113D+00 0.887D+00
 Coeff:     -0.143D-02 0.407D-02 0.490D-01 0.153D+00 0.300D+00 0.496D+00
 Gap=     0.182 Goal=   None    Shift=    0.000
 RMSDP=4.99D-05 MaxDP=2.02D-03 DE=-8.57D-04 OVMax= 3.35D-03

 Cycle   7  Pass 0  IDiag  1:
 RMSU=  2.66D-05    CP:  9.84D-01  7.39D-01  6.28D-01  7.11D-01  5.26D-01
                    CP:  5.76D-01
 E= -1120.33655302990     Delta-E=       -0.000120362634 Rises=F Damp=F
 DIIS: error= 1.61D-04 at cycle   7 NSaved=   7.
 NSaved= 7 IEnMin= 7 EnMin= -1120.33655302990     IErMin= 7 ErrMin= 1.61D-04
 ErrMax= 1.61D-04  0.00D+00 EMaxC= 1.00D-01 BMatC= 8.05D-06 BMatP= 1.42D-04
 IDIUse=3 WtCom= 9.98D-01 WtEn= 1.61D-03
 Coeff-Com: -0.784D-03 0.157D-03 0.152D-01 0.520D-01 0.128D+00 0.279D+00
 Coeff-Com:  0.527D+00
 Coeff-En:   0.000D+00 0.000D+00 0.000D+00 0.000D+00 0.000D+00 0.000D+00
 Coeff-En:   0.100D+01
 Coeff:     -0.782D-03 0.157D-03 0.152D-01 0.519D-01 0.127D+00 0.278D+00
 Coeff:      0.528D+00
 Gap=     0.182 Goal=   None    Shift=    0.000
 RMSDP=1.25D-05 MaxDP=3.68D-04 DE=-1.20D-04 OVMax= 7.83D-04

 Cycle   8  Pass 0  IDiag  1:
 RMSU=  7.62D-06    CP:  9.84D-01  7.39D-01  6.28D-01  7.12D-01  5.29D-01
                    CP:  5.98D-01  6.43D-01
 E= -1120.33655978746     Delta-E=       -0.000006757559 Rises=F Damp=F
 DIIS: error= 3.90D-05 at cycle   8 NSaved=   8.
 NSaved= 8 IEnMin= 8 EnMin= -1120.33655978746     IErMin= 8 ErrMin= 3.90D-05
 ErrMax= 3.90D-05  0.00D+00 EMaxC= 1.00D-01 BMatC= 6.88D-07 BMatP= 8.05D-06
 IDIUse=1 WtCom= 1.00D+00 WtEn= 0.00D+00
 Coeff-Com: -0.294D-03-0.331D-03 0.371D-02 0.141D-01 0.427D-01 0.112D+00
 Coeff-Com:  0.287D+00 0.541D+00
 Coeff:     -0.294D-03-0.331D-03 0.371D-02 0.141D-01 0.427D-01 0.112D+00
 Coeff:      0.287D+00 0.541D+00
 Gap=     0.182 Goal=   None    Shift=    0.000
 RMSDP=4.48D-06 MaxDP=1.68D-04 DE=-6.76D-06 OVMax= 3.34D-04

 Initial convergence to 1.0D-05 achieved.  Increase integral accuracy.
 Cycle   9  Pass 1  IDiag  1:
 E= -1120.33651888982     Delta-E=        0.000040897637 Rises=F Damp=F
 DIIS: error= 5.93D-05 at cycle   1 NSaved=   1.
 NSaved= 1 IEnMin= 1 EnMin= -1120.33651888982     IErMin= 1 ErrMin= 5.93D-05
 ErrMax= 5.93D-05  0.00D+00 EMaxC= 1.00D-01 BMatC= 5.44D-07 BMatP= 5.44D-07
 IDIUse=1 WtCom= 1.00D+00 WtEn= 0.00D+00
 Coeff-Com:  0.100D+01
 Coeff:      0.100D+01
 Gap=     0.182 Goal=   None    Shift=    0.000
 RMSDP=4.48D-06 MaxDP=1.68D-04 DE= 4.09D-05 OVMax= 3.55D-04

 Cycle  10  Pass 1  IDiag  1:
 RMSU=  3.92D-05    CP:  1.00D+00
 E= -1120.33651896626     Delta-E=       -0.000000076440 Rises=F Damp=F
 DIIS: error= 3.51D-05 at cycle   2 NSaved=   2.
 NSaved= 2 IEnMin= 2 EnMin= -1120.33651896626     IErMin= 2 ErrMin= 3.51D-05
 ErrMax= 3.51D-05  0.00D+00 EMaxC= 1.00D-01 BMatC= 4.79D-07 BMatP= 5.44D-07
 IDIUse=1 WtCom= 1.00D+00 WtEn= 0.00D+00
 Coeff-Com:  0.478D+00 0.522D+00
 Coeff:      0.478D+00 0.522D+00
 Gap=     0.182 Goal=   None    Shift=    0.000
 RMSDP=4.54D-06 MaxDP=2.61D-04 DE=-7.64D-08 OVMax= 4.20D-04

 Cycle  11  Pass 1  IDiag  1:
 RMSU=  4.54D-06    CP:  1.00D+00  9.98D-01
 E= -1120.33651920571     Delta-E=       -0.000000239451 Rises=F Damp=F
 DIIS: error= 2.76D-05 at cycle   3 NSaved=   3.
 NSaved= 3 IEnMin= 3 EnMin= -1120.33651920571     IErMin= 3 ErrMin= 2.76D-05
 ErrMax= 2.76D-05  0.00D+00 EMaxC= 1.00D-01 BMatC= 2.42D-07 BMatP= 4.79D-07
 IDIUse=1 WtCom= 1.00D+00 WtEn= 0.00D+00
 Coeff-Com:  0.561D-02 0.414D+00 0.580D+00
 Coeff:      0.561D-02 0.414D+00 0.580D+00
 Gap=     0.182 Goal=   None    Shift=    0.000
 RMSDP=1.93D-06 MaxDP=1.19D-04 DE=-2.39D-07 OVMax= 1.77D-04

 Cycle  12  Pass 1  IDiag  1:
 RMSU=  5.78D-07    CP:  1.00D+00  1.01D+00  6.04D-01
 E= -1120.33651943715     Delta-E=       -0.000000231433 Rises=F Damp=F
 DIIS: error= 4.79D-06 at cycle   4 NSaved=   4.
 NSaved= 4 IEnMin= 4 EnMin= -1120.33651943715     IErMin= 4 ErrMin= 4.79D-06
 ErrMax= 4.79D-06  0.00D+00 EMaxC= 1.00D-01 BMatC= 5.68D-09 BMatP= 2.42D-07
 IDIUse=1 WtCom= 1.00D+00 WtEn= 0.00D+00
 Coeff-Com: -0.574D-02 0.235D+00 0.342D+00 0.429D+00
 Coeff:     -0.574D-02 0.235D+00 0.342D+00 0.429D+00
 Gap=     0.182 Goal=   None    Shift=    0.000
 RMSDP=3.41D-07 MaxDP=1.30D-05 DE=-2.31D-07 OVMax= 2.44D-05

 Cycle  13  Pass 1  IDiag  1:
 RMSU=  2.02D-07    CP:  1.00D+00  1.01D+00  6.02D-01  5.26D-01
 E= -1120.33651944233     Delta-E=       -0.000000005184 Rises=F Damp=F
 DIIS: error= 1.04D-06 at cycle   5 NSaved=   5.
 NSaved= 5 IEnMin= 5 EnMin= -1120.33651944233     IErMin= 5 ErrMin= 1.04D-06
 ErrMax= 1.04D-06  0.00D+00 EMaxC= 1.00D-01 BMatC= 4.14D-10 BMatP= 5.68D-09
 IDIUse=1 WtCom= 1.00D+00 WtEn= 0.00D+00
 Coeff-Com: -0.390D-02 0.109D+00 0.161D+00 0.265D+00 0.468D+00
 Coeff:     -0.390D-02 0.109D+00 0.161D+00 0.265D+00 0.468D+00
 Gap=     0.182 Goal=   None    Shift=    0.000
 RMSDP=9.48D-08 MaxDP=2.71D-06 DE=-5.18D-09 OVMax= 5.65D-06

 Cycle  14  Pass 1  IDiag  1:
 RMSU=  6.34D-08    CP:  1.00D+00  1.01D+00  6.03D-01  5.54D-01  6.62D-01
 E= -1120.33651944274     Delta-E=       -0.000000000412 Rises=F Damp=F
 DIIS: error= 2.13D-07 at cycle   6 NSaved=   6.
 NSaved= 6 IEnMin= 6 EnMin= -1120.33651944274     IErMin= 6 ErrMin= 2.13D-07
 ErrMax= 2.13D-07  0.00D+00 EMaxC= 1.00D-01 BMatC= 2.00D-11 BMatP= 4.14D-10
 IDIUse=1 WtCom= 1.00D+00 WtEn= 0.00D+00
 Coeff-Com: -0.137D-02 0.331D-01 0.488D-01 0.958D-01 0.232D+00 0.591D+00
 Coeff:     -0.137D-02 0.331D-01 0.488D-01 0.958D-01 0.232D+00 0.591D+00
 Gap=     0.182 Goal=   None    Shift=    0.000
 RMSDP=2.49D-08 MaxDP=8.02D-07 DE=-4.12D-10 OVMax= 1.29D-06

 Cycle  15  Pass 1  IDiag  1:
 RMSU=  1.97D-08    CP:  1.00D+00  1.01D+00  6.03D-01  5.62D-01  6.93D-01
                    CP:  7.99D-01
 E= -1120.33651944274     Delta-E=        0.000000000000 Rises=F Damp=F
 DIIS: error= 1.63D-07 at cycle   7 NSaved=   7.
 NSaved= 7 IEnMin= 6 EnMin= -1120.33651944274     IErMin= 7 ErrMin= 1.63D-07
 ErrMax= 1.63D-07  0.00D+00 EMaxC= 1.00D-01 BMatC= 6.13D-12 BMatP= 2.00D-11
 IDIUse=1 WtCom= 1.00D+00 WtEn= 0.00D+00
 Coeff-Com: -0.313D-03 0.456D-02 0.663D-02 0.220D-01 0.769D-01 0.387D+00
 Coeff-Com:  0.503D+00
 Coeff:     -0.313D-03 0.456D-02 0.663D-02 0.220D-01 0.769D-01 0.387D+00
 Coeff:      0.503D+00
 Gap=     0.182 Goal=   None    Shift=    0.000
 RMSDP=1.11D-08 MaxDP=3.55D-07 DE= 0.00D+00 OVMax= 8.48D-07

 Cycle  16  Pass 1  IDiag  1:
 RMSU=  6.77D-09    CP:  1.00D+00  1.01D+00  6.03D-01  5.63D-01  7.02D-01
                    CP:  8.39D-01  5.91D-01
 E= -1120.33651944276     Delta-E=       -0.000000000017 Rises=F Damp=F
 DIIS: error= 5.04D-08 at cycle   8 NSaved=   8.
 NSaved= 8 IEnMin= 8 EnMin= -1120.33651944276     IErMin= 8 ErrMin= 5.04D-08
 ErrMax= 5.04D-08  0.00D+00 EMaxC= 1.00D-01 BMatC= 5.04D-13 BMatP= 6.13D-12
 IDIUse=1 WtCom= 1.00D+00 WtEn= 0.00D+00
 Coeff-Com:  0.204D-04-0.206D-02-0.319D-02-0.116D-02 0.864D-02 0.134D+00
 Coeff-Com:  0.281D+00 0.582D+00
 Coeff:      0.204D-04-0.206D-02-0.319D-02-0.116D-02 0.864D-02 0.134D+00
 Coeff:      0.281D+00 0.582D+00
 Gap=     0.182 Goal=   None    Shift=    0.000
 RMSDP=3.49D-09 MaxDP=8.41D-08 DE=-1.73D-11 OVMax= 2.43D-07

 SCF Done:  E(RB3LYP) =  -1120.33651944     A.U. after   16 cycles
            NFock= 16  Conv=0.35D-08     -V/T= 2.0073
 KE= 1.112229484327D+03 PE=-4.971280869924D+03 EE= 1.566617591951D+03
 Leave Link  502 at Thu Aug  6 22:05:56 2020, MaxMem=    33554432 cpu:       159.0
 (Enter /prod/apps/gaussian/g09d1/l601.exe)
 Copying SCF densities to generalized density rwf, IOpCl= 0 IROHF=0.

 **********************************************************************

            Population analysis using the SCF density.

 **********************************************************************

 Orbital symmetries:
       Occupied  (A) (A) (A) (A) (A) (A) (A) (A) (A) (A) (A) (A)
                 (A) (A) (A) (A) (A) (A) (A) (A) (A) (A) (A) (A)
                 (A) (A) (A) (A) (A) (A) (A) (A) (A) (A) (A) (A)
                 (A) (A) (A) (A) (A) (A) (A) (A) (A) (A) (A) (A)
                 (A) (A) (A) (A) (A) (A) (A) (A) (A) (A) (A) (A)
                 (A) (A)
       Virtual   (A) (A) (A) (A) (A) (A) (A) (A) (A) (A) (A) (A)
                 (A) (A) (A) (A) (A) (A) (A) (A) (A) (A) (A) (A)
                 (A) (A) (A) (A) (A) (A) (A) (A) (A) (A) (A) (A)
                 (A) (A) (A) (A) (A) (A) (A) (A) (A) (A) (A) (A)
                 (A) (A) (A) (A) (A) (A) (A) (A) (A) (A) (A) (A)
                 (A) (A) (A) (A) (A) (A) (A) (A) (A) (A) (A) (A)
                 (A) (A) (A) (A) (A) (A) (A) (A) (A) (A) (A) (A)
                 (A) (A) (A) (A) (A) (A) (A) (A) (A) (A) (A) (A)
                 (A) (A) (A) (A) (A) (A) (A) (A) (A) (A) (A) (A)
                 (A) (A) (A) (A) (A) (A) (A) (A) (A) (A) (A) (A)
                 (A) (A) (A) (A) (A) (A) (A) (A) (A) (A) (A) (A)
                 (A) (A) (A) (A) (A) (A) (A) (A) (A) (A) (A) (A)
                 (A) (A) (A) (A) (A) (A) (A) (A) (A) (A) (A) (A)
                 (A) (A) (A) (A) (A) (A) (A) (A) (A) (A) (A) (A)
                 (A) (A) (A) (A) (A) (A) (A) (A) (A) (A) (A) (A)
                 (A) (A) (A) (A) (A) (A) (A) (A) (A) (A) (A) (A)
                 (A) (A) (A) (A) (A) (A) (A) (A) (A) (A)
 The electronic state is 1-A.
 Alpha  occ. eigenvalues --  -89.12063 -19.24255 -19.14658 -19.14492 -14.39265
 Alpha  occ. eigenvalues --  -14.38282 -10.27969 -10.27466 -10.22559 -10.22311
 Alpha  occ. eigenvalues --  -10.21191 -10.21072 -10.20811 -10.20757 -10.20748
 Alpha  occ. eigenvalues --  -10.20601  -8.14617  -6.11178  -6.10995  -6.10880
 Alpha  occ. eigenvalues --   -1.14884  -1.11554  -1.00269  -0.96503  -0.88115
 Alpha  occ. eigenvalues --   -0.85565  -0.81723  -0.78076  -0.76320  -0.75929
 Alpha  occ. eigenvalues --   -0.66392  -0.65609  -0.62833  -0.61068  -0.58123
 Alpha  occ. eigenvalues --   -0.56031  -0.53168  -0.51314  -0.49369  -0.48817
 Alpha  occ. eigenvalues --   -0.47899  -0.47619  -0.46889  -0.45639  -0.44416
 Alpha  occ. eigenvalues --   -0.44045  -0.43571  -0.42857  -0.40018  -0.39095
 Alpha  occ. eigenvalues --   -0.37703  -0.36934  -0.35990  -0.34539  -0.31916
 Alpha  occ. eigenvalues --   -0.31634  -0.31288  -0.30473  -0.29906  -0.26888
 Alpha  occ. eigenvalues --   -0.26201  -0.23946
 Alpha virt. eigenvalues --   -0.05731  -0.01701   0.01589   0.04441   0.06164
 Alpha virt. eigenvalues --    0.07177   0.07598   0.08229   0.09637   0.10530
 Alpha virt. eigenvalues --    0.11279   0.12230   0.12630   0.13877   0.15483
 Alpha virt. eigenvalues --    0.15641   0.16211   0.16860   0.17972   0.18137
 Alpha virt. eigenvalues --    0.22128   0.24808   0.25226   0.28867   0.28947
 Alpha virt. eigenvalues --    0.31448   0.32276   0.35212   0.36433   0.37959
 Alpha virt. eigenvalues --    0.41396   0.43253   0.43816   0.44301   0.47388
 Alpha virt. eigenvalues --    0.49269   0.49747   0.51182   0.51549   0.52628
 Alpha virt. eigenvalues --    0.52972   0.53774   0.55057   0.56285   0.57232
 Alpha virt. eigenvalues --    0.57536   0.58002   0.59192   0.59894   0.60632
 Alpha virt. eigenvalues --    0.61388   0.62102   0.63864   0.64308   0.66274
 Alpha virt. eigenvalues --    0.68690   0.69840   0.71501   0.72013   0.75478
 Alpha virt. eigenvalues --    0.76378   0.77575   0.79623   0.80346   0.81306
 Alpha virt. eigenvalues --    0.82120   0.82455   0.83222   0.83904   0.84643
 Alpha virt. eigenvalues --    0.85835   0.86199   0.87428   0.87993   0.88554
 Alpha virt. eigenvalues --    0.89899   0.91104   0.93180   0.94230   0.95462
 Alpha virt. eigenvalues --    0.96121   0.98152   0.98652   1.00390   1.02494
 Alpha virt. eigenvalues --    1.03258   1.04434   1.05040   1.07126   1.08961
 Alpha virt. eigenvalues --    1.10429   1.14054   1.14666   1.16399   1.16808
 Alpha virt. eigenvalues --    1.17186   1.20485   1.22441   1.23478   1.25697
 Alpha virt. eigenvalues --    1.29703   1.30767   1.33503   1.34703   1.36469
 Alpha virt. eigenvalues --    1.37131   1.41271   1.41544   1.42787   1.44839
 Alpha virt. eigenvalues --    1.46331   1.47455   1.47480   1.49300   1.49473
 Alpha virt. eigenvalues --    1.51603   1.53533   1.57772   1.58513   1.66656
 Alpha virt. eigenvalues --    1.69512   1.72698   1.75550   1.76809   1.78076
 Alpha virt. eigenvalues --    1.78713   1.80631   1.81303   1.82294   1.83599
 Alpha virt. eigenvalues --    1.86115   1.87089   1.88187   1.91632   1.92808
 Alpha virt. eigenvalues --    1.94429   1.96000   1.97756   1.99713   2.00960
 Alpha virt. eigenvalues --    2.04135   2.06746   2.08148   2.09703   2.10194
 Alpha virt. eigenvalues --    2.11474   2.12630   2.13809   2.15738   2.17312
 Alpha virt. eigenvalues --    2.18752   2.20865   2.22642   2.23284   2.24740
 Alpha virt. eigenvalues --    2.25266   2.25929   2.27849   2.29295   2.29494
 Alpha virt. eigenvalues --    2.32700   2.35007   2.42167   2.50701   2.52675
 Alpha virt. eigenvalues --    2.53203   2.56700   2.57495   2.59803   2.61869
 Alpha virt. eigenvalues --    2.65535   2.65923   2.70452   2.73129   2.73628
 Alpha virt. eigenvalues --    2.74944   2.76615   2.82446   2.87012   2.88909
 Alpha virt. eigenvalues --    2.91461   3.02226   3.05534   3.12900   3.26664
 Alpha virt. eigenvalues --    3.42182   3.76892   3.80367   3.94776   3.98557
 Alpha virt. eigenvalues --    4.06506   4.07632   4.10089   4.10203   4.15146
 Alpha virt. eigenvalues --    4.21706   4.22887   4.30802   4.36957   4.39739
 Alpha virt. eigenvalues --    4.56235   4.73599
          Condensed to atoms (all electrons):
               1          2          3          4          5          6
     1  O    8.198718   0.451000  -0.055264   0.006397  -0.002046  -0.000002
     2  S    0.451000  13.656005   0.072135   0.003068  -0.000338  -0.000262
     3  N   -0.055264   0.072135   7.509303   0.214213  -0.073047   0.005581
     4  C    0.006397   0.003068   0.214213   4.507601   0.386775  -0.027374
     5  N   -0.002046  -0.000338  -0.073047   0.386775   6.903337   0.116083
     6  O   -0.000002  -0.000262   0.005581  -0.027374   0.116083   8.183591
     7  C    0.000005   0.000233  -0.000296  -0.023711  -0.077815   0.250194
     8  C    0.000000  -0.000009  -0.000203   0.003046   0.004169  -0.037986
     9  C    0.000000   0.000000   0.000003   0.000625  -0.000099   0.003210
    10  C    0.000000   0.000000   0.000000  -0.000006   0.000001  -0.000060
    11  C    0.000000   0.000000   0.000000   0.000000   0.000000   0.000001
    12  C    0.000000   0.000000   0.000000   0.000005   0.000000   0.000302
    13  C    0.000000   0.000000  -0.000001  -0.000331   0.000127  -0.006464
    14  C    0.000125   0.001179  -0.059497   0.439310  -0.038534  -0.096698
    15  C   -0.056417   0.207704  -0.049755  -0.009252  -0.008824   0.000174
    16  O   -0.044807   0.457859  -0.051194   0.001629  -0.000029   0.000000
    17  H   -0.000118  -0.012687   0.305264  -0.020337   0.003090  -0.000070
    18  H    0.000000   0.000000  -0.000001   0.000082  -0.000005   0.000021
    19  H    0.000000   0.000000   0.000000   0.000000   0.000000   0.000000
    20  H    0.000000   0.000000   0.000000   0.000000   0.000000   0.000000
    21  H    0.000000   0.000000   0.000000   0.000000   0.000000  -0.000003
    22  H    0.000000   0.000000   0.000000   0.000071  -0.000267   0.009776
    23  H    0.000002  -0.000109  -0.001679  -0.030514   0.004772   0.003563
    24  H   -0.001110  -0.001332  -0.002822  -0.001030   0.020856  -0.000462
    25  H    0.001911  -0.007007   0.001223   0.000393   0.000038  -0.000001
    26  H    0.000057  -0.018186   0.002424   0.000136   0.000214  -0.000001
               7          8          9         10         11         12
     1  O    0.000005   0.000000   0.000000   0.000000   0.000000   0.000000
     2  S    0.000233  -0.000009   0.000000   0.000000   0.000000   0.000000
     3  N   -0.000296  -0.000203   0.000003   0.000000   0.000000   0.000000
     4  C   -0.023711   0.003046   0.000625  -0.000006   0.000000   0.000005
     5  N   -0.077815   0.004169  -0.000099   0.000001   0.000000   0.000000
     6  O    0.250194  -0.037986   0.003210  -0.000060   0.000001   0.000302
     7  C    4.723550   0.345077  -0.041763   0.006434   0.000948   0.004806
     8  C    0.345077   4.769224   0.537326  -0.008075  -0.033785  -0.007964
     9  C   -0.041763   0.537326   5.003916   0.522429  -0.038495  -0.041366
    10  C    0.006434  -0.008075   0.522429   4.860462   0.545492  -0.023716
    11  C    0.000948  -0.033785  -0.038495   0.545492   4.851572   0.543296
    12  C    0.004806  -0.007964  -0.041366  -0.023716   0.543296   4.874282
    13  C   -0.039570   0.477292  -0.084621  -0.042519  -0.035801   0.504883
    14  C    0.507178  -0.060027  -0.021667   0.000203   0.000015  -0.000242
    15  C   -0.000032   0.000000   0.000000   0.000000   0.000000   0.000000
    16  O    0.000000   0.000000   0.000000   0.000000   0.000000   0.000000
    17  H   -0.000005  -0.000002   0.000000   0.000000   0.000000   0.000000
    18  H   -0.013744  -0.038066   0.351508  -0.044360   0.004697   0.000205
    19  H   -0.000214   0.003306  -0.038697   0.359229  -0.041643   0.004484
    20  H    0.000003   0.000551   0.004899  -0.042628   0.361129  -0.042393
    21  H   -0.000186   0.003143   0.000889   0.004487  -0.042036   0.360108
    22  H   -0.013198  -0.038595   0.005428   0.000274   0.004414  -0.042615
    23  H   -0.024666  -0.003848   0.001392   0.000092  -0.000001   0.000002
    24  H    0.000069   0.000000   0.000000   0.000000   0.000000   0.000000
    25  H    0.000001   0.000000   0.000000   0.000000   0.000000   0.000000
    26  H    0.000000   0.000000   0.000000   0.000000   0.000000   0.000000
              13         14         15         16         17         18
     1  O    0.000000   0.000125  -0.056417  -0.044807  -0.000118   0.000000
     2  S    0.000000   0.001179   0.207704   0.457859  -0.012687   0.000000
     3  N   -0.000001  -0.059497  -0.049755  -0.051194   0.305264  -0.000001
     4  C   -0.000331   0.439310  -0.009252   0.001629  -0.020337   0.000082
     5  N    0.000127  -0.038534  -0.008824  -0.000029   0.003090  -0.000005
     6  O   -0.006464  -0.096698   0.000174   0.000000  -0.000070   0.000021
     7  C   -0.039570   0.507178  -0.000032   0.000000  -0.000005  -0.013744
     8  C    0.477292  -0.060027   0.000000   0.000000  -0.000002  -0.038066
     9  C   -0.084621  -0.021667   0.000000   0.000000   0.000000   0.351508
    10  C   -0.042519   0.000203   0.000000   0.000000   0.000000  -0.044360
    11  C   -0.035801   0.000015   0.000000   0.000000   0.000000   0.004697
    12  C    0.504883  -0.000242   0.000000   0.000000   0.000000   0.000205
    13  C    5.042772   0.012455   0.000000   0.000000   0.000000   0.006093
    14  C    0.012455   5.267617  -0.000337  -0.000051  -0.004956   0.006299
    15  C    0.000000  -0.000337   5.600878  -0.058486   0.003211   0.000000
    16  O    0.000000  -0.000051  -0.058486   8.216341   0.005604   0.000000
    17  H    0.000000  -0.004956   0.003211   0.005604   0.347799   0.000000
    18  H    0.006093   0.006299   0.000000   0.000000   0.000000   0.594327
    19  H    0.000863   0.000000   0.000000   0.000000   0.000000  -0.005268
    20  H    0.004706   0.000000   0.000000   0.000000   0.000000  -0.000171
    21  H   -0.037831   0.000002   0.000000   0.000000   0.000000   0.000016
    22  H    0.360431   0.000262   0.000000   0.000000   0.000000  -0.000151
    23  H   -0.000124   0.347380   0.000001  -0.000001   0.001860   0.002257
    24  H    0.000000   0.000265   0.323142   0.001538  -0.000119   0.000000
    25  H    0.000000  -0.000002   0.338063  -0.000009  -0.000047   0.000000
    26  H    0.000000   0.000003   0.356380  -0.000432  -0.000060   0.000000
              19         20         21         22         23         24
     1  O    0.000000   0.000000   0.000000   0.000000   0.000002  -0.001110
     2  S    0.000000   0.000000   0.000000   0.000000  -0.000109  -0.001332
     3  N    0.000000   0.000000   0.000000   0.000000  -0.001679  -0.002822
     4  C    0.000000   0.000000   0.000000   0.000071  -0.030514  -0.001030
     5  N    0.000000   0.000000   0.000000  -0.000267   0.004772   0.020856
     6  O    0.000000   0.000000  -0.000003   0.009776   0.003563  -0.000462
     7  C   -0.000214   0.000003  -0.000186  -0.013198  -0.024666   0.000069
     8  C    0.003306   0.000551   0.003143  -0.038595  -0.003848   0.000000
     9  C   -0.038697   0.004899   0.000889   0.005428   0.001392   0.000000
    10  C    0.359229  -0.042628   0.004487   0.000274   0.000092   0.000000
    11  C   -0.041643   0.361129  -0.042036   0.004414  -0.000001   0.000000
    12  C    0.004484  -0.042393   0.360108  -0.042615   0.000002   0.000000
    13  C    0.000863   0.004706  -0.037831   0.360431  -0.000124   0.000000
    14  C    0.000000   0.000000   0.000002   0.000262   0.347380   0.000265
    15  C    0.000000   0.000000   0.000000   0.000000   0.000001   0.323142
    16  O    0.000000   0.000000   0.000000   0.000000  -0.000001   0.001538
    17  H    0.000000   0.000000   0.000000   0.000000   0.001860  -0.000119
    18  H   -0.005268  -0.000171   0.000016  -0.000151   0.002257   0.000000
    19  H    0.583488  -0.005392  -0.000176   0.000016  -0.000003   0.000000
    20  H   -0.005392   0.584813  -0.005379  -0.000157   0.000000   0.000000
    21  H   -0.000176  -0.005379   0.579345  -0.004849   0.000000   0.000000
    22  H    0.000016  -0.000157  -0.004849   0.553605  -0.000009   0.000000
    23  H   -0.000003   0.000000   0.000000  -0.000009   0.542069  -0.000003
    24  H    0.000000   0.000000   0.000000   0.000000  -0.000003   0.448670
    25  H    0.000000   0.000000   0.000000   0.000000   0.000000  -0.021107
    26  H    0.000000   0.000000   0.000000   0.000000   0.000000  -0.014575
              25         26
     1  O    0.001911   0.000057
     2  S   -0.007007  -0.018186
     3  N    0.001223   0.002424
     4  C    0.000393   0.000136
     5  N    0.000038   0.000214
     6  O   -0.000001  -0.000001
     7  C    0.000001   0.000000
     8  C    0.000000   0.000000
     9  C    0.000000   0.000000
    10  C    0.000000   0.000000
    11  C    0.000000   0.000000
    12  C    0.000000   0.000000
    13  C    0.000000   0.000000
    14  C   -0.000002   0.000003
    15  C    0.338063   0.356380
    16  O   -0.000009  -0.000432
    17  H   -0.000047  -0.000060
    18  H    0.000000   0.000000
    19  H    0.000000   0.000000
    20  H    0.000000   0.000000
    21  H    0.000000   0.000000
    22  H    0.000000   0.000000
    23  H    0.000000   0.000000
    24  H   -0.021107  -0.014575
    25  H    0.496986  -0.019474
    26  H   -0.019474   0.476105
 Mulliken charges:
               1
     1  O   -0.498452
     2  S    1.190746
     3  N   -0.816386
     4  C    0.549205
     5  N   -0.238458
     6  O   -0.403113
     7  C    0.396700
     8  C    0.085427
     9  C   -0.164917
    10  C   -0.137739
    11  C   -0.119803
    12  C   -0.134076
    13  C   -0.162358
    14  C   -0.300281
    15  C   -0.646451
    16  O   -0.527962
    17  H    0.371572
    18  H    0.136259
    19  H    0.140009
    20  H    0.140018
    21  H    0.142469
    22  H    0.165566
    23  H    0.157568
    24  H    0.248019
    25  H    0.209031
    26  H    0.217409
 Sum of Mulliken charges =   0.00000
 Mulliken charges with hydrogens summed into heavy atoms:
               1
     1  O   -0.498452
     2  S    1.190746
     3  N   -0.444814
     4  C    0.549205
     5  N   -0.238458
     6  O   -0.403113
     7  C    0.396700
     8  C    0.085427
     9  C   -0.028658
    10  C    0.002269
    11  C    0.020215
    12  C    0.008394
    13  C    0.003208
    14  C   -0.142713
    15  C    0.028007
    16  O   -0.527962
 Electronic spatial extent (au):  <R**2>=           5839.3401
 Charge=              0.0000 electrons
 Dipole moment (field-independent basis, Debye):
    X=              4.3683    Y=              1.1406    Z=             -2.7527  Tot=              5.2878
 Quadrupole moment (field-independent basis, Debye-Ang):
   XX=            -94.6680   YY=            -90.0544   ZZ=           -104.5339
   XY=              8.2960   XZ=             10.9432   YZ=              0.7784
 Traceless Quadrupole moment (field-independent basis, Debye-Ang):
   XX=              1.7508   YY=              6.3644   ZZ=             -8.1151
   XY=              8.2960   XZ=             10.9432   YZ=              0.7784
 Octapole moment (field-independent basis, Debye-Ang**2):
  XXX=            107.5976  YYY=              9.6233  ZZZ=             -4.0491  XYY=             -0.7790
  XXY=            -54.5603  XXZ=            -28.8720  XZZ=            -18.3269  YZZ=             -1.0076
  YYZ=             -1.3702  XYZ=             -8.8411
 Hexadecapole moment (field-independent basis, Debye-Ang**3):
 XXXX=          -6488.8223 YYYY=           -587.7443 ZZZZ=           -249.8259 XXXY=            259.3627
 XXXZ=            147.8428 YYYX=            -10.6468 YYYZ=             -8.4811 ZZZX=             11.9777
 ZZZY=              3.9739 XXYY=          -1148.4925 XXZZ=          -1257.6838 YYZZ=           -153.4235
 XXYZ=             14.8099 YYXZ=              4.7827 ZZXY=            -10.4339
 N-N= 1.172097274204D+03 E-N=-4.971280868721D+03  KE= 1.112229484327D+03
 No NMR shielding tensors so no spin-rotation constants.
 Leave Link  601 at Thu Aug  6 22:05:56 2020, MaxMem=    33554432 cpu:         0.2
 (Enter /prod/apps/gaussian/g09d1/l9999.exe)
 1\1\GINC-PIRINEUS9\SP\RB3LYP\6-31G(d)\C10H10N2O3S1\UBAFAR01\06-Aug-202
 0\0\\#p b3lyp/6-31G(d)\\SM41.n.5.pdb.xyz\\0,1\O,0,1.975,0.213,3.824\S,
 0,2.945,-0.009,2.75\N,0,2.593,0.959,1.391\C,0,2.156,2.278,1.49\N,0,2.5
 87,3.063,2.46\O,0,1.976,4.299,2.215\C,0,1.214,4.218,1.1\C,0,0.502,5.42
 ,0.684\C,0,-0.285,5.403,-0.478\C,0,-0.967,6.548,-0.878\C,0,-0.871,7.72
 1,-0.125\C,0,-0.089,7.743,1.032\C,0,0.595,6.601,1.438\C,0,1.286,2.951,
 0.592\C,0,4.523,0.657,3.264\O,0,3.108,-1.348,2.178\H,0,2.185,0.4,0.646
 \H,0,-0.36,4.494,-1.064\H,0,-1.573,6.526,-1.777\H,0,-1.403,8.613,-0.43
 8\H,0,-0.012,8.651,1.619\H,0,1.203,6.611,2.334\H,0,0.793,2.551,-0.278\
 H,0,4.382,1.722,3.449\H,0,5.248,0.484,2.47\H,0,4.809,0.133,4.176\\Vers
 ion=AM64L-G09RevD.01\State=1-A\HF=-1120.3365194\RMSD=3.495e-09\Dipole=
 -0.0614565,1.4373483,-1.5027234\Quadrupole=5.4336741,-5.8164143,0.3827
 401,-5.8473054,7.5473536,3.4512647\PG=C01 [X(C10H10N2O3S1)]\\@


 TOM, TOM, THE BURGLAR'S SON
 STOLE A MACHINE AND AWAY HE RUN
 THE JOB WAS NEAT, BUT TOM GOT BEAT
 BY THE TIME HE GOT HOME IT WAS OBSOLETE.
 Job cpu time:       0 days  0 hours  2 minutes 42.2 seconds.
 File lengths (MBytes):  RWF=     40 Int=      0 D2E=      0 Chk=      4 Scr=      1
 Normal termination of Gaussian 09 at Thu Aug  6 22:05:56 2020.
 Initial command:
 /prod/apps/gaussian/g09d1/l1.exe "/tmp/ubafar01/1448638/Gau-124424.inp" -scrdir="/tmp/ubafar01/1448638/"
 Entering Link 1 = /prod/apps/gaussian/g09d1/l1.exe PID=    125586.
  
 Copyright (c) 1988,1990,1992,1993,1995,1998,2003,2009,2013,
            Gaussian, Inc.  All Rights Reserved.
  
 This is part of the Gaussian(R) 09 program.  It is based on
 the Gaussian(R) 03 system (copyright 2003, Gaussian, Inc.),
 the Gaussian(R) 98 system (copyright 1998, Gaussian, Inc.),
 the Gaussian(R) 94 system (copyright 1995, Gaussian, Inc.),
 the Gaussian 92(TM) system (copyright 1992, Gaussian, Inc.),
 the Gaussian 90(TM) system (copyright 1990, Gaussian, Inc.),
 the Gaussian 88(TM) system (copyright 1988, Gaussian, Inc.),
 the Gaussian 86(TM) system (copyright 1986, Carnegie Mellon
 University), and the Gaussian 82(TM) system (copyright 1983,
 Carnegie Mellon University). Gaussian is a federally registered
 trademark of Gaussian, Inc.
  
 This software contains proprietary and confidential information,
 including trade secrets, belonging to Gaussian, Inc.
  
 This software is provided under written license and may be
 used, copied, transmitted, or stored only in accord with that
 written license.
  
 The following legend is applicable only to US Government
 contracts under FAR:
  
                    RESTRICTED RIGHTS LEGEND
  
 Use, reproduction and disclosure by the US Government is
 subject to restrictions as set forth in subparagraphs (a)
 and (c) of the Commercial Computer Software - Restricted
 Rights clause in FAR 52.227-19.
  
 Gaussian, Inc.
 340 Quinnipiac St., Bldg. 40, Wallingford CT 06492
  
  
 ---------------------------------------------------------------
 Warning -- This program may not be used in any manner that
 competes with the business of Gaussian, Inc. or will provide
 assistance to any competitor of Gaussian, Inc.  The licensee
 of this program is prohibited from giving any competitor of
 Gaussian, Inc. access to this program.  By using this program,
 the user acknowledges that Gaussian, Inc. is engaged in the
 business of creating and licensing software in the field of
 computational chemistry and represents and warrants to the
 licensee that it is not a competitor of Gaussian, Inc. and that
 it will not use this program in any manner prohibited above.
 ---------------------------------------------------------------
  

 Cite this work as:
 Gaussian 09, Revision D.01,
 M. J. Frisch, G. W. Trucks, H. B. Schlegel, G. E. Scuseria, 
 M. A. Robb, J. R. Cheeseman, G. Scalmani, V. Barone, B. Mennucci, 
 G. A. Petersson, H. Nakatsuji, M. Caricato, X. Li, H. P. Hratchian, 
 A. F. Izmaylov, J. Bloino, G. Zheng, J. L. Sonnenberg, M. Hada, 
 M. Ehara, K. Toyota, R. Fukuda, J. Hasegawa, M. Ishida, T. Nakajima, 
 Y. Honda, O. Kitao, H. Nakai, T. Vreven, J. A. Montgomery, Jr., 
 J. E. Peralta, F. Ogliaro, M. Bearpark, J. J. Heyd, E. Brothers, 
 K. N. Kudin, V. N. Staroverov, T. Keith, R. Kobayashi, J. Normand, 
 K. Raghavachari, A. Rendell, J. C. Burant, S. S. Iyengar, J. Tomasi, 
 M. Cossi, N. Rega, J. M. Millam, M. Klene, J. E. Knox, J. B. Cross, 
 V. Bakken, C. Adamo, J. Jaramillo, R. Gomperts, R. E. Stratmann, 
 O. Yazyev, A. J. Austin, R. Cammi, C. Pomelli, J. W. Ochterski, 
 R. L. Martin, K. Morokuma, V. G. Zakrzewski, G. A. Voth, 
 P. Salvador, J. J. Dannenberg, S. Dapprich, A. D. Daniels, 
 O. Farkas, J. B. Foresman, J. V. Ortiz, J. Cioslowski, 
 and D. J. Fox, Gaussian, Inc., Wallingford CT, 2013.
 
 ******************************************
 Gaussian 09:  AM64L-G09RevD.01 24-Apr-2013
                 6-Aug-2020 
 ******************************************
 %nproc=1
 Will use up to    1 processors via shared memory.
 %Chk=SM41.n.5.pdb.xyz.mst.n.o.chk
 %subst l301 /dades/curu/work_g09D01_MST_AddSphPartition_ReadGammas/exe-dir/
 %subst l502 /dades/curu/work_g09D01_MST_AddSphPartition_ReadGammas/exe-dir/
 ----------------------------------------------------------------------
 #p b3lyp/6-31G(d) scrf=(iefpcm,read,solvent=n-Octanol) geom=allcheck g
 uess=read
 ----------------------------------------------------------------------
 1/29=7,38=1,40=2/1;
 2/12=2,40=1/2;
 3/5=1,6=6,7=1,11=2,14=-4,16=1,25=1,30=1,70=2203,72=25,74=-5,116=-2/1,2,3;
 4/5=1/1;
 5/5=2,38=6,53=25/2;
 6/7=2,8=2,9=2,10=2,28=1/1;
 99/5=1,9=1/99;
 Leave Link    1 at Thu Aug  6 22:05:57 2020, MaxMem=           0 cpu:         0.0
 (Enter /prod/apps/gaussian/g09d1/l101.exe)
 Structure from the checkpoint file:  "SM41.n.5.pdb.xyz.mst.n.o.chk"
 ----------------
 SM41.n.5.pdb.xyz
 ----------------
 Charge =  0 Multiplicity = 1
 Z-Matrix found in file.
 O,0,1.975,0.213,3.824
 S,0,2.945,-0.009,2.75
 N,0,2.593,0.959,1.391
 C,0,2.156,2.278,1.49
 N,0,2.587,3.063,2.46
 O,0,1.976,4.299,2.215
 C,0,1.214,4.218,1.1
 C,0,0.502,5.42,0.684
 C,0,-0.285,5.403,-0.478
 C,0,-0.967,6.548,-0.878
 C,0,-0.871,7.721,-0.125
 C,0,-0.089,7.743,1.032
 C,0,0.595,6.601,1.438
 C,0,1.286,2.951,0.592
 C,0,4.523,0.657,3.264
 O,0,3.108,-1.348,2.178
 H,0,2.185,0.4,0.646
 H,0,-0.36,4.494,-1.064
 H,0,-1.573,6.526,-1.777
 H,0,-1.403,8.613,-0.438
 H,0,-0.012,8.651,1.619
 H,0,1.203,6.611,2.334
 H,0,0.793,2.551,-0.278
 H,0,4.382,1.722,3.449
 H,0,5.248,0.484,2.47
 H,0,4.809,0.133,4.176
 Recover connectivity data from disk.
 NAtoms=     26 NQM=       26 NQMF=       0 NMMI=      0 NMMIF=      0
                NMic=       0 NMicF=      0.
                    Isotopes and Nuclear Properties:
 (Nuclear quadrupole moments (NQMom) in fm**2, nuclear magnetic moments (NMagM)
  in nuclear magnetons)

  Atom         1           2           3           4           5           6           7           8           9          10
 IAtWgt=          16          32          14          12          14          16          12          12          12          12
 AtmWgt=  15.9949146  31.9720718  14.0030740  12.0000000  14.0030740  15.9949146  12.0000000  12.0000000  12.0000000  12.0000000
 NucSpn=           0           0           2           0           2           0           0           0           0           0
 AtZEff=  -5.6000000 -13.6000000  -4.5500000  -3.6000000  -4.5500000  -5.6000000  -3.6000000  -3.6000000  -3.6000000  -3.6000000
 NQMom=    0.0000000   0.0000000   2.0440000   0.0000000   2.0440000   0.0000000   0.0000000   0.0000000   0.0000000   0.0000000
 NMagM=    0.0000000   0.0000000   0.4037610   0.0000000   0.4037610   0.0000000   0.0000000   0.0000000   0.0000000   0.0000000
 AtZNuc=   8.0000000  16.0000000   7.0000000   6.0000000   7.0000000   8.0000000   6.0000000   6.0000000   6.0000000   6.0000000

  Atom        11          12          13          14          15          16          17          18          19          20
 IAtWgt=          12          12          12          12          12          16           1           1           1           1
 AtmWgt=  12.0000000  12.0000000  12.0000000  12.0000000  12.0000000  15.9949146   1.0078250   1.0078250   1.0078250   1.0078250
 NucSpn=           0           0           0           0           0           0           1           1           1           1
 AtZEff=  -3.6000000  -3.6000000  -3.6000000  -3.6000000  -3.6000000  -5.6000000  -1.0000000  -1.0000000  -1.0000000  -1.0000000
 NQMom=    0.0000000   0.0000000   0.0000000   0.0000000   0.0000000   0.0000000   0.0000000   0.0000000   0.0000000   0.0000000
 NMagM=    0.0000000   0.0000000   0.0000000   0.0000000   0.0000000   0.0000000   2.7928460   2.7928460   2.7928460   2.7928460
 AtZNuc=   6.0000000   6.0000000   6.0000000   6.0000000   6.0000000   8.0000000   1.0000000   1.0000000   1.0000000   1.0000000

  Atom        21          22          23          24          25          26
 IAtWgt=           1           1           1           1           1           1
 AtmWgt=   1.0078250   1.0078250   1.0078250   1.0078250   1.0078250   1.0078250
 NucSpn=           1           1           1           1           1           1
 AtZEff=  -1.0000000  -1.0000000  -1.0000000  -1.0000000  -1.0000000  -1.0000000
 NQMom=    0.0000000   0.0000000   0.0000000   0.0000000   0.0000000   0.0000000
 NMagM=    2.7928460   2.7928460   2.7928460   2.7928460   2.7928460   2.7928460
 AtZNuc=   1.0000000   1.0000000   1.0000000   1.0000000   1.0000000   1.0000000
 Leave Link  101 at Thu Aug  6 22:05:57 2020, MaxMem=    33554432 cpu:         0.1
 (Enter /prod/apps/gaussian/g09d1/l202.exe)
                          Input orientation:                          
 ---------------------------------------------------------------------
 Center     Atomic      Atomic             Coordinates (Angstroms)
 Number     Number       Type             X           Y           Z
 ---------------------------------------------------------------------
      1          8           0        1.975000    0.213000    3.824000
      2         16           0        2.945000   -0.009000    2.750000
      3          7           0        2.593000    0.959000    1.391000
      4          6           0        2.156000    2.278000    1.490000
      5          7           0        2.587000    3.063000    2.460000
      6          8           0        1.976000    4.299000    2.215000
      7          6           0        1.214000    4.218000    1.100000
      8          6           0        0.502000    5.420000    0.684000
      9          6           0       -0.285000    5.403000   -0.478000
     10          6           0       -0.967000    6.548000   -0.878000
     11          6           0       -0.871000    7.721000   -0.125000
     12          6           0       -0.089000    7.743000    1.032000
     13          6           0        0.595000    6.601000    1.438000
     14          6           0        1.286000    2.951000    0.592000
     15          6           0        4.523000    0.657000    3.264000
     16          8           0        3.108000   -1.348000    2.178000
     17          1           0        2.185000    0.400000    0.646000
     18          1           0       -0.360000    4.494000   -1.064000
     19          1           0       -1.573000    6.526000   -1.777000
     20          1           0       -1.403000    8.613000   -0.438000
     21          1           0       -0.012000    8.651000    1.619000
     22          1           0        1.203000    6.611000    2.334000
     23          1           0        0.793000    2.551000   -0.278000
     24          1           0        4.382000    1.722000    3.449000
     25          1           0        5.248000    0.484000    2.470000
     26          1           0        4.809000    0.133000    4.176000
 ---------------------------------------------------------------------
                    Distance matrix (angstroms):
                    1          2          3          4          5
     1  O    0.000000
     2  S    1.464124   0.000000
     3  N    2.618765   1.705230   0.000000
     4  C    3.121625   2.727726   1.393029   0.000000
     5  N    3.218313   3.106356   2.360003   1.320184   0.000000
     6  O    4.391387   4.447926   3.495034   2.154638   1.400372
     7  C    4.902991   4.856582   3.550690   2.191589   2.251389
     8  C    6.256371   6.301638   4.977213   3.641087   3.613426
     9  C    7.109916   7.081146   5.614729   4.426865   4.728195
    10  C    8.420000   8.453424   7.004205   5.795986   5.993195
    11  C    8.947870   9.087375   7.747399   6.434066   6.351138
    12  C    8.291939   8.500011   7.303743   5.925877   5.576967
    13  C    6.957294   7.136942   5.985514   4.596494   4.186883
    14  C    4.291525   4.021299   2.512909   1.419941   2.279160
    15  C    2.646326   1.788249   2.706332   3.373041   3.191136
    16  O    2.535690   1.465153   2.491354   3.811499   4.450605
    17  H    3.190416   2.274137   1.016843   2.059141   3.247117
    18  H    6.904472   6.763626   5.219527   4.214716   4.811564
    19  H    9.154970   9.143975   7.640895   6.528724   6.873874
    20  H   10.006774  10.168940   8.825926   7.517705   7.424352
    21  H    8.944833   9.220554   8.124338   6.732904   6.219954
    22  H    6.614415   6.857990   5.896308   4.516130   3.810464
    23  H    4.867214   4.511484   2.925752   2.249027   3.313189
    24  H    2.865546   2.355829   2.831617   3.016934   2.449169
    25  H    3.552363   2.371763   2.904977   3.706656   3.705707
    26  H    2.856897   2.351199   3.653650   4.342123   4.057935
                    6          7          8          9         10
     6  O    0.000000
     7  C    1.352934   0.000000
     8  C    2.402765   1.457671   0.000000
     9  C    3.685537   2.478167   1.403532   0.000000
    10  C    4.825546   3.754750   2.422847   1.391456   0.000000
    11  C    5.029025   4.256625   2.798966   2.416843   1.397195
    12  C    4.186269   3.758731   2.422130   2.791794   2.418059
    13  C    2.794655   2.485175   1.404253   2.425007   2.794013
    14  C    2.219760   1.366944   2.592119   3.102458   4.491694
    15  C    4.566374   5.321005   6.746185   7.722949   9.055393
    16  O    5.759462   5.977431   7.404667   8.008919   9.396360
    17  H    4.208045   3.965612   5.294746   5.691598   7.074997
    18  H    4.030727   2.690083   2.157782   1.084113   2.149875
    19  H    5.787140   4.622917   3.403731   2.146503   1.084399
    20  H    6.088238   5.341363   3.883704   3.399356   2.155904
    21  H    4.821542   4.628599   3.402614   3.875751   3.401418
    22  H    2.440704   2.692457   2.152297   3.403050   3.876830
    23  H    3.266503   2.203410   3.039948   3.055485   4.408357
    24  H    3.735307   4.667338   6.031155   7.124042   8.403869
    25  H    5.032418   5.665052   7.076610   7.968774   9.306311
    26  H    5.406197   6.250842   7.661376   8.682249  10.002865
                   11         12         13         14         15
    11  C    0.000000
    12  C    1.396659   0.000000
    13  C    2.417959   1.391710   0.000000
    14  C    5.283904   5.004747   3.809947   0.000000
    15  C    9.512132   8.744356   7.354903   4.783324   0.000000
    16  O   10.167744   9.704659   8.369550   4.931174   2.683588
    17  H    7.970610   7.696734   6.450408   2.705313   3.519406
    18  H    3.399466   3.875907   3.407562   2.798661   7.569534
    19  H    2.156370   3.402033   3.878411   5.154286   9.849775
    20  H    1.084738   2.155086   3.399930   6.352154  10.588683
    21  H    2.155068   1.083957   2.145626   5.935447   9.336824
    22  H    3.402978   2.155433   1.082857   4.054264   6.880219
    23  H    5.433342   5.426867   4.402994   1.077009   5.481414
    24  H    8.738163   7.879351   6.495393   4.388406   1.090106
    25  H    9.826004   9.123842   7.754555   5.030946   1.089032
    26  H   10.408590   9.580566   8.190816   5.761745   1.090007
                   16         17         18         19         20
    16  O    0.000000
    17  H    2.500891   0.000000
    18  H    7.527719   5.114876   0.000000
    19  H    9.977658   7.584284   2.471591   0.000000
    20  H   11.243402   9.027855   4.294867   2.485436   0.000000
    21  H   10.489370   8.593750   4.959863   4.299437   2.483460
    22  H    8.185294   6.510775   4.297797   4.961222   4.299212
    23  H    5.156875   2.723645   2.392165   4.862672   6.449485
    24  H    3.558570   3.798855   7.108988   9.265609   9.801065
    25  H    2.832153   3.565950   7.747188  10.053299  10.898298
    26  H    3.013099   4.406537   8.555377  10.818437  11.479910
                   21         22         23         24         25
    21  H    0.000000
    22  H    2.479728   0.000000
    23  H    6.438683   4.845023   0.000000
    24  H    8.406377   5.937305   5.240104   0.000000
    25  H    9.751497   7.343068   5.627701   1.800289   0.000000
    26  H   10.116156   7.639416   6.466305   1.798827   1.796207
                   26
    26  H    0.000000
 Stoichiometry    C10H10N2O3S
 Framework group  C1[X(C10H10N2O3S)]
 Deg. of freedom    72
 Full point group                 C1      NOp   1
 RotChk:  IX=0 Diff= 4.99D-15
 Largest Abelian subgroup         C1      NOp   1
 Largest concise Abelian subgroup C1      NOp   1
                         Standard orientation:                         
 ---------------------------------------------------------------------
 Center     Atomic      Atomic             Coordinates (Angstroms)
 Number     Number       Type             X           Y           Z
 ---------------------------------------------------------------------
      1          8           0       -3.338670   -0.375025    1.571615
      2         16           0       -3.601944    0.137537    0.225648
      3          7           0       -2.201698    0.834028   -0.454073
      4          6           0       -0.929452    0.288160   -0.299319
      5          7           0       -0.756552   -1.019222   -0.238140
      6          8           0        0.628824   -1.189666   -0.125332
      7          6           0        1.239446    0.017556   -0.138955
      8          6           0        2.693413    0.036268   -0.036798
      9          6           0        3.383789    1.257830   -0.069491
     10          6           0        4.771598    1.280070    0.028696
     11          6           0        5.485044    0.085904    0.159525
     12          6           0        4.802623   -1.132241    0.192402
     13          6           0        3.414598   -1.161364    0.095477
     14          6           0        0.296954    1.001825   -0.245996
     15          6           0       -3.876530   -1.251360   -0.866783
     16          8           0       -4.624086    1.167518    0.023070
     17          1           0       -2.264366    1.848920   -0.447962
     18          1           0        2.831957    2.185361   -0.171805
     19          1           0        5.296999    2.228334    0.002788
     20          1           0        6.566937    0.104573    0.235780
     21          1           0        5.352436   -2.060880    0.293881
     22          1           0        2.879133   -2.102235    0.120354
     23          1           0        0.444832    2.068275   -0.273694
     24          1           0       -2.973241   -1.861397   -0.850887
     25          1           0       -4.082057   -0.871352   -1.866454
     26          1           0       -4.731202   -1.802326   -0.474241
 ---------------------------------------------------------------------
 Rotational constants (GHZ):      1.8763471      0.1847637      0.1754216
 Leave Link  202 at Thu Aug  6 22:05:57 2020, MaxMem=    33554432 cpu:         0.0
 (Enter /dades/curu/work_g09D01_MST_AddSphPartition_ReadGammas/exe-dir/l301.exe)
 Standard basis: 6-31G(d) (6D, 7F)
 Ernie: Thresh=  0.10000D-02 Tol=  0.10000D-05 Strict=F.
 There are   264 symmetry adapted cartesian basis functions of A   symmetry.
 There are   264 symmetry adapted basis functions of A   symmetry.
   264 basis functions,   512 primitive gaussians,   264 cartesian basis functions
    62 alpha electrons       62 beta electrons
       nuclear repulsion energy      1172.0972742043 Hartrees.
 IExCor=  402 DFT=T Ex+Corr=B3LYP ExCW=0 ScaHFX=  0.200000
 ScaDFX=  0.800000  0.720000  1.000000  0.810000 ScalE2=  1.000000  1.000000
 IRadAn=      0 IRanWt=     -1 IRanGd=            0 ICorTp=0 IEmpDi=  4
 NAtoms=   26 NActive=   26 NUniq=   26 SFac= 1.00D+00 NAtFMM=   60 NAOKFM=F Big=F
 Integral buffers will be    131072 words long.
 Raffenetti 2 integral format.
 Two-electron integral symmetry is turned on.
 Using the following non-standard input for PCM:
 MSTModel=DFT cav g03defaults OFac=0.8 Rmin=0.3
 Warning! Using old PCM defaults because the g03defaults keyword was found.
 These settings can be overridden by following keywords.
 --- end of non-standard input.
 MST model for solvation energy: B3LYP parametrization.
 MST cavity parameters:
 ISph   IAn     Re0     Alpha   Atom Type   QCorr
 ------------------------------------------------
   1      8     1.40     1.50      O          F
   2     16     1.75     1.50      S          F
   3      7     1.50     1.50      NH         F
   4      6     1.50     1.50      C          F
   5      7     1.50     1.50      N          F
   6      8     1.40     1.50      O          F
   7      6     1.50     1.50      C          F
   8      6     1.50     1.50      C          F
   9      6     1.50     1.50      CH         F
  10      6     1.50     1.50      CH         F
  11      6     1.50     1.50      CH         F
  12      6     1.50     1.50      CH         F
  13      6     1.50     1.50      CH         F
  14      6     1.50     1.50      CH         F
  15      6     1.50     1.50      CH3        F
  16      8     1.40     1.50      O          F
  17      1     0.90     1.50      NH         F
  18      1     1.20     1.50      CH         F
  19      1     1.20     1.50      CH         F
  20      1     1.20     1.50      CH         F
  21      1     1.20     1.50      CH         F
  22      1     1.20     1.50      CH         F
  23      1     1.20     1.50      CH         F
  24      1     1.20     1.50      CH3        F
  25      1     1.20     1.50      CH3        F
  26      1     1.20     1.50      CH3        F
 ------------------------------------------------------------------------------
 Polarizable Continuum Model (PCM)
 =================================
 Model                : PCM (using non-symmetric T matrix).
 Atomic radii         : MST.
 Polarization charges : Total charges.
 Charge compensation  : None.
 Solution method      : On-the-fly selection.
 Cavity type          : Scaled SES (Solvent Excluding Surface) (Alpha=1.500).
 Cavity algorithm     : GePol (RMin=0.300 OFac=0.800).
                        Default sphere list used, NSphG=   26.
                        Tesserae with average area of 0.200 Ang**2.
                        Smoothing algorithm: None.
                        Polarization charges: point-like.
                        Self-potential: constant (ISelfS= 1).
                        Self-field    : global E.n sum rule (ISelfD= 3).
 Solvent              : n-Octanol, Eps=   9.862900 Eps(inf)=   2.043470
                        RSolv=   3.420000 Ang.
 ------------------------------------------------------------------------------
 GePol: Number of generator spheres                  =      26
 GePol: Total number of spheres                      =      36
 GePol: Number of exposed spheres                    =      34 ( 94.44%)
 GePol: Number of tesserae                           =    2232
 GePol: Average area of tesserae                     =       0.14 Ang**2
 GePol: Minimum area of tessera                      =   0.10D-02 Ang**2
 GePol: Maximum area of tessera                      =    0.32570 Ang**2
 GePol: Number of small tesserae                     =      20
 GePol: Fraction of small tesserae (<1% of avg)      =       0.90%
 GePol: Total count of vertices                      =    7593
 GePol: Maximum number of vertices in a tessera      =       7
 GePol: Cavity surface area                          =    310.875 Ang**2
 GePol: Cavity volume                                =    358.545 Ang**3
 Surface areas from nonelectrostatic (unscaled) cavity:
 Sphere =    1 Type = O    Surf =       15.443
 Sphere =    2 Type = S    Surf =        9.410
 Sphere =    3 Type = NH   Surf =        9.723
 Sphere =    4 Type = C    Surf =        5.791
 Sphere =    5 Type = N    Surf =       12.934
 Sphere =    6 Type = O    Surf =       10.276
 Sphere =    7 Type = C    Surf =        6.855
 Sphere =    8 Type = C    Surf =        6.134
 Sphere =    9 Type = CH   Surf =        7.699
 Sphere =   10 Type = CH   Surf =        7.719
 Sphere =   11 Type = CH   Surf =        7.749
 Sphere =   12 Type = CH   Surf =        7.716
 Sphere =   13 Type = CH   Surf =        7.645
 Sphere =   14 Type = CH   Surf =        8.404
 Sphere =   15 Type = CH3  Surf =        4.508
 Sphere =   16 Type = O    Surf =       15.450
 Sphere =   17 Type = NH   Surf =        3.960
 Sphere =   18 Type = CH   Surf =       10.318
 Sphere =   19 Type = CH   Surf =       10.320
 Sphere =   20 Type = CH   Surf =       10.321
 Sphere =   21 Type = CH   Surf =       10.317
 Sphere =   22 Type = CH   Surf =        9.718
 Sphere =   23 Type = CH   Surf =       10.269
 Sphere =   24 Type = CH3  Surf =        9.079
 Sphere =   25 Type = CH3  Surf =       10.178
 Sphere =   26 Type = CH3  Surf =       10.128
 PCM non-electrostatic energy =        -0.0111535294 Hartrees.
 Nuclear repulsion after PCM non-electrostatic terms =     1172.0861206749 Hartrees.
 Leave Link  301 at Thu Aug  6 22:05:57 2020, MaxMem=    33554432 cpu:         0.1
 (Enter /prod/apps/gaussian/g09d1/l302.exe)
 NPDir=0 NMtPBC=     1 NCelOv=     1 NCel=       1 NClECP=     1 NCelD=      1
         NCelK=      1 NCelE2=     1 NClLst=     1 CellRange=     0.0.
 One-electron integrals computed using PRISM.
 NBasis=   264 RedAO= T EigKep=  4.57D-04  NBF=   264
 NBsUse=   264 1.00D-06 EigRej= -1.00D+00 NBFU=   264
 Precomputing XC quadrature grid using
 IXCGrd= 4 IRadAn=           0 IRanWt=          -1 IRanGd=           0 AccXCQ= 0.00D+00.
 Generated NRdTot=       0 NPtTot=           0 NUsed=           0 NTot=          32
 NSgBfM=   261   261   261   261   261 MxSgAt=    26 MxSgA2=    26.
 Leave Link  302 at Thu Aug  6 22:05:57 2020, MaxMem=    33554432 cpu:         0.7
 (Enter /prod/apps/gaussian/g09d1/l303.exe)
 DipDrv:  MaxL=1.
 Leave Link  303 at Thu Aug  6 22:05:57 2020, MaxMem=    33554432 cpu:         0.0
 (Enter /prod/apps/gaussian/g09d1/l401.exe)
 Initial guess from the checkpoint file:  "SM41.n.5.pdb.xyz.mst.n.o.chk"
 B after Tr=     0.000000    0.000000    0.000000
         Rot=    1.000000    0.000000    0.000000    0.000000 Ang=   0.00 deg.
 Guess basis will be translated and rotated to current coordinates.
 JPrj=2 DoOrth=T DoCkMO=T.
 Leave Link  401 at Thu Aug  6 22:05:58 2020, MaxMem=    33554432 cpu:         0.2
 (Enter /dades/curu/work_g09D01_MST_AddSphPartition_ReadGammas/exe-dir/l502.exe)
 Closed shell SCF:
 Using DIIS extrapolation, IDIIS=  1040.
 Integral symmetry usage will be decided dynamically.
 IVT=      231207 IEndB=      231207 NGot=    33554432 MDV=    33409826
 LenX=    33409826 LenY=    33339689
 Requested convergence on RMS density matrix=1.00D-08 within 128 cycles.
 Requested convergence on MAX density matrix=1.00D-06.
 Requested convergence on             energy=1.00D-06.
 No special actions if energy rises.
 Fock matrices will be formed incrementally for  20 cycles.

 Cycle   1  Pass 1  IDiag  1:
 FoFJK:  IHMeth= 1 ICntrl=       0 DoSepK=F KAlg= 0 I1Cent=   0 FoldK=F
 IRaf= 740000000 NMat=   1 IRICut=       1 DoRegI=T DoRafI=F ISym2E= 0.
 FoFCou: FMM=F IPFlag=           0 FMFlag=      100000 FMFlg1=           0
         NFxFlg=           0 DoJE=F BraDBF=F KetDBF=F FulRan=T
         wScrn=  0.000000 ICntrl=       0 IOpCl=  0 I1Cent=           0 NGrid=           0
         NMat0=    1 NMatS0=      1 NMatT0=    0 NMatD0=    1 NMtDS0=    0 NMtDT0=    0
 Symmetry not used in FoFCou.
 Inv3:  Mode=1 IEnd=    14945472.
 Iteration    1 A*A^-1 deviation from unit magnitude is 9.99D-15 for   2230.
 Iteration    1 A*A^-1 deviation from orthogonality  is 3.59D-15 for   2230   2227.
[...]
   21      H21     16.52  -0.032   -0.15
   22      H22     11.79  -0.022   -0.05
   23      H23     11.90  -0.044   -0.49
   24      H24      8.51  -0.018   -0.03
   25      H25     14.74  -0.046   -0.19
   26      H26     15.12  -0.052   -0.16
 Added spheres:    16.87  -0.010    0.00
 --------------------------------------------------------------------
 After PCM corrections, the energy is  -1120.35904449     a.u.
 --------------------------------------------------------------------
 Leave Link  502 at Thu Aug  6 22:07:49 2020, MaxMem=    33554432 cpu:       111.0
 (Enter /prod/apps/gaussian/g09d1/l601.exe)
 Copying SCF densities to generalized density rwf, IOpCl= 0 IROHF=0.

 **********************************************************************

            Population analysis using the SCF density.

 **********************************************************************

 Orbital symmetries:
       Occupied  (A) (A) (A) (A) (A) (A) (A) (A) (A) (A) (A) (A)
                 (A) (A) (A) (A) (A) (A) (A) (A) (A) (A) (A) (A)
                 (A) (A) (A) (A) (A) (A) (A) (A) (A) (A) (A) (A)
                 (A) (A) (A) (A) (A) (A) (A) (A) (A) (A) (A) (A)
                 (A) (A) (A) (A) (A) (A) (A) (A) (A) (A) (A) (A)
                 (A) (A)
       Virtual   (A) (A) (A) (A) (A) (A) (A) (A) (A) (A) (A) (A)
                 (A) (A) (A) (A) (A) (A) (A) (A) (A) (A) (A) (A)
                 (A) (A) (A) (A) (A) (A) (A) (A) (A) (A) (A) (A)
                 (A) (A) (A) (A) (A) (A) (A) (A) (A) (A) (A) (A)
                 (A) (A) (A) (A) (A) (A) (A) (A) (A) (A) (A) (A)
                 (A) (A) (A) (A) (A) (A) (A) (A) (A) (A) (A) (A)
                 (A) (A) (A) (A) (A) (A) (A) (A) (A) (A) (A) (A)
                 (A) (A) (A) (A) (A) (A) (A) (A) (A) (A) (A) (A)
                 (A) (A) (A) (A) (A) (A) (A) (A) (A) (A) (A) (A)
                 (A) (A) (A) (A) (A) (A) (A) (A) (A) (A) (A) (A)
                 (A) (A) (A) (A) (A) (A) (A) (A) (A) (A) (A) (A)
                 (A) (A) (A) (A) (A) (A) (A) (A) (A) (A) (A) (A)
                 (A) (A) (A) (A) (A) (A) (A) (A) (A) (A) (A) (A)
                 (A) (A) (A) (A) (A) (A) (A) (A) (A) (A) (A) (A)
                 (A) (A) (A) (A) (A) (A) (A) (A) (A) (A) (A) (A)
                 (A) (A) (A) (A) (A) (A) (A) (A) (A) (A) (A) (A)
                 (A) (A) (A) (A) (A) (A) (A) (A) (A) (A)
 The electronic state is 1-A.
 Alpha  occ. eigenvalues --  -89.12931 -19.24359 -19.15692 -19.15636 -14.39324
 Alpha  occ. eigenvalues --  -14.38446 -10.28074 -10.27372 -10.22716 -10.21962
 Alpha  occ. eigenvalues --  -10.20783 -10.20668 -10.20402 -10.20269 -10.20187
 Alpha  occ. eigenvalues --  -10.20109  -8.15482  -6.12033  -6.11882  -6.11736
 Alpha  occ. eigenvalues --   -1.15032  -1.12548  -1.01411  -0.96651  -0.87866
 Alpha  occ. eigenvalues --   -0.85568  -0.81574  -0.78356  -0.75862  -0.75605
 Alpha  occ. eigenvalues --   -0.66607  -0.65393  -0.62563  -0.60715  -0.58108
 Alpha  occ. eigenvalues --   -0.55712  -0.53450  -0.51129  -0.49553  -0.48922
 Alpha  occ. eigenvalues --   -0.48242  -0.47656  -0.47077  -0.45247  -0.44411
 Alpha  occ. eigenvalues --   -0.43734  -0.43559  -0.43121  -0.40014  -0.39003
 Alpha  occ. eigenvalues --   -0.37673  -0.36554  -0.35547  -0.35465  -0.32914
 Alpha  occ. eigenvalues --   -0.32442  -0.31856  -0.31164  -0.30237  -0.26614
 Alpha  occ. eigenvalues --   -0.26201  -0.23825
 Alpha virt. eigenvalues --   -0.05547  -0.01291   0.01491   0.04775   0.06366
 Alpha virt. eigenvalues --    0.06697   0.07868   0.08441   0.09633   0.11071
 Alpha virt. eigenvalues --    0.11435   0.12163   0.12955   0.14713   0.15430
 Alpha virt. eigenvalues --    0.16454   0.16584   0.16951   0.18251   0.18802
 Alpha virt. eigenvalues --    0.22782   0.25175   0.25457   0.29094   0.29539
 Alpha virt. eigenvalues --    0.31678   0.32671   0.34255   0.36006   0.37914
 Alpha virt. eigenvalues --    0.41118   0.43240   0.43641   0.44175   0.47665
 Alpha virt. eigenvalues --    0.48967   0.49855   0.51250   0.51601   0.53004
 Alpha virt. eigenvalues --    0.53172   0.53807   0.55407   0.56436   0.57620
 Alpha virt. eigenvalues --    0.57843   0.58480   0.59434   0.60359   0.61074
 Alpha virt. eigenvalues --    0.61560   0.62262   0.64019   0.64535   0.66389
 Alpha virt. eigenvalues --    0.68190   0.69710   0.71408   0.71594   0.75652
 Alpha virt. eigenvalues --    0.76211   0.77917   0.79266   0.79650   0.80898
 Alpha virt. eigenvalues --    0.81363   0.83148   0.83611   0.84442   0.84665
 Alpha virt. eigenvalues --    0.86064   0.86448   0.87511   0.88159   0.88887
 Alpha virt. eigenvalues --    0.90459   0.91269   0.93246   0.94439   0.94964
 Alpha virt. eigenvalues --    0.96422   0.97772   0.98545   1.00306   1.01798
 Alpha virt. eigenvalues --    1.02531   1.04115   1.04264   1.06905   1.09239
 Alpha virt. eigenvalues --    1.10530   1.13805   1.14514   1.15727   1.16798
 Alpha virt. eigenvalues --    1.17348   1.19558   1.22072   1.23874   1.25861
 Alpha virt. eigenvalues --    1.29549   1.30890   1.33298   1.34299   1.36399
 Alpha virt. eigenvalues --    1.37106   1.41505   1.41958   1.42671   1.45074
 Alpha virt. eigenvalues --    1.46595   1.47145   1.47928   1.49622   1.49781
 Alpha virt. eigenvalues --    1.51410   1.53390   1.57566   1.58482   1.66373
 Alpha virt. eigenvalues --    1.69077   1.72499   1.74769   1.76641   1.78273
 Alpha virt. eigenvalues --    1.78600   1.79661   1.80612   1.81358   1.83304
 Alpha virt. eigenvalues --    1.84995   1.87054   1.88558   1.91881   1.92734
 Alpha virt. eigenvalues --    1.94407   1.96370   1.97872   1.99874   2.00438
 Alpha virt. eigenvalues --    2.04448   2.05841   2.07385   2.09749   2.10205
 Alpha virt. eigenvalues --    2.11733   2.13025   2.14143   2.15582   2.17364
 Alpha virt. eigenvalues --    2.18518   2.20709   2.22713   2.23293   2.24572
 Alpha virt. eigenvalues --    2.25265   2.25877   2.28011   2.29051   2.29745
 Alpha virt. eigenvalues --    2.32835   2.34932   2.42174   2.50626   2.52872
 Alpha virt. eigenvalues --    2.53338   2.56738   2.57936   2.59888   2.62012
 Alpha virt. eigenvalues --    2.65874   2.66248   2.70641   2.73012   2.73763
 Alpha virt. eigenvalues --    2.74639   2.76722   2.81115   2.87034   2.89001
 Alpha virt. eigenvalues --    2.91575   3.02279   3.05382   3.13091   3.26796
 Alpha virt. eigenvalues --    3.42615   3.75998   3.79897   3.93901   3.97845
 Alpha virt. eigenvalues --    4.06623   4.07913   4.10298   4.10557   4.14842
 Alpha virt. eigenvalues --    4.21594   4.22953   4.31235   4.37051   4.39945
 Alpha virt. eigenvalues --    4.56364   4.73924
          Condensed to atoms (all electrons):
               1          2          3          4          5          6
     1  O    8.228164   0.447548  -0.055540   0.006419  -0.002085  -0.000002
     2  S    0.447548  13.633691   0.088667   0.001589   0.000568  -0.000290
     3  N   -0.055540   0.088667   7.492627   0.218750  -0.073800   0.005598
     4  C    0.006419   0.001589   0.218750   4.495139   0.392412  -0.030470
     5  N   -0.002085   0.000568  -0.073800   0.392412   6.923274   0.113699
     6  O   -0.000002  -0.000290   0.005598  -0.030470   0.113699   8.196921
     7  C    0.000006   0.000212  -0.000437  -0.022224  -0.079589   0.248007
     8  C    0.000000  -0.000009  -0.000205   0.002905   0.004188  -0.037878
     9  C    0.000000   0.000000   0.000003   0.000635  -0.000098   0.003173
    10  C    0.000000   0.000000   0.000000  -0.000007   0.000001  -0.000061
    11  C    0.000000   0.000000   0.000000   0.000000   0.000000   0.000001
    12  C    0.000000   0.000000   0.000000   0.000005   0.000000   0.000291
    13  C    0.000000   0.000000  -0.000001  -0.000337   0.000131  -0.006644
    14  C    0.000117   0.001137  -0.057558   0.447334  -0.040941  -0.095465
    15  C   -0.056998   0.220900  -0.051036  -0.009113  -0.009172   0.000179
    16  O   -0.044322   0.459441  -0.051431   0.001515  -0.000030   0.000000
    17  H   -0.000179  -0.012087   0.304466  -0.017873   0.002863  -0.000063
    18  H    0.000000   0.000000  -0.000001   0.000091  -0.000005   0.000023
    19  H    0.000000   0.000000   0.000000   0.000000   0.000000   0.000000
    20  H    0.000000   0.000000   0.000000   0.000000   0.000000   0.000000
    21  H    0.000000   0.000000   0.000000   0.000000   0.000000  -0.000003
    22  H    0.000000   0.000000   0.000000   0.000064  -0.000266   0.009800
    23  H    0.000002  -0.000110  -0.001668  -0.028238   0.004664   0.003394
    24  H   -0.001068  -0.002023  -0.002888  -0.001029   0.021151  -0.000464
    25  H    0.001867  -0.007225   0.001000   0.000361   0.000030  -0.000001
    26  H    0.000127  -0.017644   0.002446   0.000135   0.000206  -0.000001
               7          8          9         10         11         12
     1  O    0.000006   0.000000   0.000000   0.000000   0.000000   0.000000
     2  S    0.000212  -0.000009   0.000000   0.000000   0.000000   0.000000
     3  N   -0.000437  -0.000205   0.000003   0.000000   0.000000   0.000000
     4  C   -0.022224   0.002905   0.000635  -0.000007   0.000000   0.000005
     5  N   -0.079589   0.004188  -0.000098   0.000001   0.000000   0.000000
     6  O    0.248007  -0.037878   0.003173  -0.000061   0.000001   0.000291
     7  C    4.727947   0.346230  -0.042527   0.006409   0.000906   0.004815
     8  C    0.346230   4.778477   0.536937  -0.009858  -0.033759  -0.008849
     9  C   -0.042527   0.536937   5.008536   0.521120  -0.039441  -0.041502
    10  C    0.006409  -0.009858   0.521120   4.869572   0.542899  -0.024846
    11  C    0.000906  -0.033759  -0.039441   0.542899   4.862138   0.541125
    12  C    0.004815  -0.008849  -0.041502  -0.024846   0.541125   4.881540
    13  C   -0.040610   0.475182  -0.082853  -0.042232  -0.037015   0.506214
    14  C    0.509793  -0.059018  -0.020569   0.000215   0.000015  -0.000234
    15  C   -0.000032   0.000000   0.000000   0.000000   0.000000   0.000000
    16  O    0.000000   0.000000   0.000000   0.000000   0.000000   0.000000
    17  H    0.000003  -0.000002   0.000000   0.000000   0.000000   0.000000
    18  H   -0.012977  -0.038077   0.354896  -0.041857   0.004546   0.000194
    19  H   -0.000209   0.003227  -0.037614   0.361482  -0.040869   0.004393
    20  H    0.000003   0.000522   0.004834  -0.041773   0.363199  -0.041671
    21  H   -0.000179   0.003180   0.000827   0.004422  -0.041114   0.362113
    22  H   -0.013102  -0.041504   0.005382   0.000229   0.004490  -0.041589
    23  H   -0.025012  -0.003617   0.001307   0.000091  -0.000001   0.000002
    24  H    0.000071   0.000000   0.000000   0.000000   0.000000   0.000000
    25  H    0.000001   0.000000   0.000000   0.000000   0.000000   0.000000
    26  H    0.000000   0.000000   0.000000   0.000000   0.000000   0.000000
              13         14         15         16         17         18
     1  O    0.000000   0.000117  -0.056998  -0.044322  -0.000179   0.000000
     2  S    0.000000   0.001137   0.220900   0.459441  -0.012087   0.000000
     3  N   -0.000001  -0.057558  -0.051036  -0.051431   0.304466  -0.000001
     4  C   -0.000337   0.447334  -0.009113   0.001515  -0.017873   0.000091
     5  N    0.000131  -0.040941  -0.009172  -0.000030   0.002863  -0.000005
     6  O   -0.006644  -0.095465   0.000179   0.000000  -0.000063   0.000023
     7  C   -0.040610   0.509793  -0.000032   0.000000   0.000003  -0.012977
     8  C    0.475182  -0.059018   0.000000   0.000000  -0.000002  -0.038077
     9  C   -0.082853  -0.020569   0.000000   0.000000   0.000000   0.354896
    10  C   -0.042232   0.000215   0.000000   0.000000   0.000000  -0.041857
    11  C   -0.037015   0.000015   0.000000   0.000000   0.000000   0.004546
    12  C    0.506214  -0.000234   0.000000   0.000000   0.000000   0.000194
    13  C    5.050175   0.012120   0.000000   0.000000   0.000000   0.005770
    14  C    0.012120   5.248104  -0.000332  -0.000050  -0.004540   0.006167
    15  C    0.000000  -0.000332   5.586853  -0.058276   0.002801   0.000000
    16  O    0.000000  -0.000050  -0.058276   8.231729   0.004774   0.000000
    17  H    0.000000  -0.004540   0.002801   0.004774   0.318676   0.000000
    18  H    0.005770   0.006167   0.000000   0.000000   0.000000   0.570929
    19  H    0.000833  -0.000001   0.000000   0.000000   0.000000  -0.004973
    20  H    0.004663   0.000000   0.000000   0.000000   0.000000  -0.000161
    21  H   -0.037600   0.000001   0.000000   0.000000   0.000000   0.000015
    22  H    0.361688   0.000265   0.000000   0.000000   0.000000  -0.000145
    23  H   -0.000113   0.351369   0.000001  -0.000001   0.001622   0.002081
    24  H    0.000000   0.000250   0.323202   0.001570  -0.000101   0.000000
    25  H    0.000000  -0.000001   0.341019  -0.000088  -0.000046   0.000000
    26  H    0.000000   0.000003   0.354849  -0.000406  -0.000051   0.000000
              19         20         21         22         23         24
     1  O    0.000000   0.000000   0.000000   0.000000   0.000002  -0.001068
     2  S    0.000000   0.000000   0.000000   0.000000  -0.000110  -0.002023
     3  N    0.000000   0.000000   0.000000   0.000000  -0.001668  -0.002888
     4  C    0.000000   0.000000   0.000000   0.000064  -0.028238  -0.001029
     5  N    0.000000   0.000000   0.000000  -0.000266   0.004664   0.021151
     6  O    0.000000   0.000000  -0.000003   0.009800   0.003394  -0.000464
     7  C   -0.000209   0.000003  -0.000179  -0.013102  -0.025012   0.000071
     8  C    0.003227   0.000522   0.003180  -0.041504  -0.003617   0.000000
     9  C   -0.037614   0.004834   0.000827   0.005382   0.001307   0.000000
    10  C    0.361482  -0.041773   0.004422   0.000229   0.000091   0.000000
    11  C   -0.040869   0.363199  -0.041114   0.004490  -0.000001   0.000000
    12  C    0.004393  -0.041671   0.362113  -0.041589   0.000002   0.000000
    13  C    0.000833   0.004663  -0.037600   0.361688  -0.000113   0.000000
    14  C   -0.000001   0.000000   0.000001   0.000265   0.351369   0.000250
    15  C    0.000000   0.000000   0.000000   0.000000   0.000001   0.323202
    16  O    0.000000   0.000000   0.000000   0.000000  -0.000001   0.001570
    17  H    0.000000   0.000000   0.000000   0.000000   0.001622  -0.000101
    18  H   -0.004973  -0.000161   0.000015  -0.000145   0.002081   0.000000
    19  H    0.566167  -0.005176  -0.000168   0.000015  -0.000002   0.000000
    20  H   -0.005176   0.568908  -0.005189  -0.000153   0.000000   0.000000
    21  H   -0.000168  -0.005189   0.565659  -0.004861   0.000000   0.000000
    22  H    0.000015  -0.000153  -0.004861   0.555679  -0.000009   0.000000
    23  H   -0.000002   0.000000   0.000000  -0.000009   0.511315  -0.000003
    24  H    0.000000   0.000000   0.000000   0.000000  -0.000003   0.449660
    25  H    0.000000   0.000000   0.000000   0.000000   0.000000  -0.019841
    26  H    0.000000   0.000000   0.000000   0.000000   0.000000  -0.014268
              25         26
     1  O    0.001867   0.000127
     2  S   -0.007225  -0.017644
     3  N    0.001000   0.002446
     4  C    0.000361   0.000135
     5  N    0.000030   0.000206
     6  O   -0.000001  -0.000001
     7  C    0.000001   0.000000
     8  C    0.000000   0.000000
     9  C    0.000000   0.000000
    10  C    0.000000   0.000000
    11  C    0.000000   0.000000
    12  C    0.000000   0.000000
    13  C    0.000000   0.000000
    14  C   -0.000001   0.000003
    15  C    0.341019   0.354849
    16  O   -0.000088  -0.000406
    17  H   -0.000046  -0.000051
    18  H    0.000000   0.000000
    19  H    0.000000   0.000000
    20  H    0.000000   0.000000
    21  H    0.000000   0.000000
    22  H    0.000000   0.000000
    23  H    0.000000   0.000000
    24  H   -0.019841  -0.014268
    25  H    0.478411  -0.017925
    26  H   -0.017925   0.465892
 Mulliken charges:
               1
     1  O   -0.524057
     2  S    1.185635
     3  N   -0.818990
     4  C    0.541934
     5  N   -0.257201
     6  O   -0.409745
     7  C    0.392493
     8  C    0.081927
     9  C   -0.173046
    10  C   -0.145808
    11  C   -0.127120
    12  C   -0.142000
    13  C   -0.169371
    14  C   -0.298182
    15  C   -0.644845
    16  O   -0.544425
    17  H    0.399736
    18  H    0.153483
    19  H    0.152894
    20  H    0.151993
    21  H    0.152895
    22  H    0.164018
    23  H    0.182926
    24  H    0.245781
    25  H    0.222437
    26  H    0.226637
 Sum of Mulliken charges =   0.00000
 Mulliken charges with hydrogens summed into heavy atoms:
               1
     1  O   -0.524057
     2  S    1.185635
     3  N   -0.419254
     4  C    0.541934
     5  N   -0.257201
     6  O   -0.409745
     7  C    0.392493
     8  C    0.081927
     9  C   -0.019563
    10  C    0.007086
    11  C    0.024874
    12  C    0.010895
    13  C   -0.005353
    14  C   -0.115256
    15  C    0.050010
    16  O   -0.544425
 Electronic spatial extent (au):  <R**2>=           5837.9371
 Charge=              0.0000 electrons
 Dipole moment (field-independent basis, Debye):
    X=              4.9307    Y=              1.6984    Z=             -3.2245  Tot=              6.1314
 Quadrupole moment (field-independent basis, Debye-Ang):
   XX=            -93.6352   YY=            -89.0494   ZZ=           -104.6847
   XY=              9.1962   XZ=             12.4405   YZ=              0.8044
 Traceless Quadrupole moment (field-independent basis, Debye-Ang):
   XX=              2.1546   YY=              6.7404   ZZ=             -8.8950
   XY=              9.1962   XZ=             12.4405   YZ=              0.8044
 Octapole moment (field-independent basis, Debye-Ang**2):
  XXX=            128.2250  YYY=             12.3597  ZZZ=             -5.7841  XYY=              0.7409
  XXY=            -55.3654  XXZ=            -34.2201  XZZ=            -17.8006  YZZ=             -0.7733
  YYZ=             -2.1490  XYZ=             -9.6233
 Hexadecapole moment (field-independent basis, Debye-Ang**3):
 XXXX=          -6420.5846 YYYY=           -579.4919 ZZZZ=           -250.5893 XXXY=            285.5106
 XXXZ=            172.6592 YYYX=             -5.8795 YYYZ=             -8.8391 ZZZX=             17.9371
 ZZZY=              4.6717 XXYY=          -1135.4409 XXZZ=          -1258.1859 YYZZ=           -152.7065
 XXYZ=             17.0132 YYXZ=              7.0298 ZZXY=             -9.5620
 N-N= 1.172086120675D+03 E-N=-4.971563309608D+03  KE= 1.112238188024D+03
 No NMR shielding tensors so no spin-rotation constants.
 Leave Link  601 at Thu Aug  6 22:07:49 2020, MaxMem=    33554432 cpu:         0.2
 (Enter /prod/apps/gaussian/g09d1/l9999.exe)
 1\1\GINC-PIRINEUS9\SP\RB3LYP\6-31G(d)\C10H10N2O3S1\UBAFAR01\06-Aug-202
 0\0\\#p b3lyp/6-31G(d) scrf=(iefpcm,read,solvent=n-Octanol) geom=allch
 eck guess=read\\SM41.n.5.pdb.xyz\\0,1\O,0,1.975,0.213,3.824\S,0,2.945,
 -0.009,2.75\N,0,2.593,0.959,1.391\C,0,2.156,2.278,1.49\N,0,2.587,3.063
 ,2.46\O,0,1.976,4.299,2.215\C,0,1.214,4.218,1.1\C,0,0.502,5.42,0.684\C
 ,0,-0.285,5.403,-0.478\C,0,-0.967,6.548,-0.878\C,0,-0.871,7.721,-0.125
 \C,0,-0.089,7.743,1.032\C,0,0.595,6.601,1.438\C,0,1.286,2.951,0.592\C,
 0,4.523,0.657,3.264\O,0,3.108,-1.348,2.178\H,0,2.185,0.4,0.646\H,0,-0.
 36,4.494,-1.064\H,0,-1.573,6.526,-1.777\H,0,-1.403,8.613,-0.438\H,0,-0
 .012,8.651,1.619\H,0,1.203,6.611,2.334\H,0,0.793,2.551,-0.278\H,0,4.38
 2,1.722,3.449\H,0,5.248,0.484,2.47\H,0,4.809,0.133,4.176\\Version=AM64
 L-G09RevD.01\State=1-A\HF=-1120.3590445\RMSD=5.750e-09\Dipole=-0.10097
 72,1.5507774,-1.8449872\Quadrupole=6.1862594,-6.4711144,0.284855,-6.73
 49389,8.264773,3.818341\PG=C01 [X(C10H10N2O3S1)]\\@


 THERE IS NO SUBJECT, HOWEVER COMPLEX,
 WHICH, IF STUDIED WITH PATIENCE AND INTELLIGIENCE
 WILL NOT BECOME
 MORE COMPLEX
                        QUOTED BY D. GORDON ROHMAN
 Job cpu time:       0 days  0 hours  1 minutes 52.3 seconds.
 File lengths (MBytes):  RWF=    123 Int=      0 D2E=      0 Chk=      5 Scr=      1
 Normal termination of Gaussian 09 at Thu Aug  6 22:07:49 2020.
