 Entering Gaussian System, Link 0=g09
 Initial command:
 /prod/apps/gaussian/g09d1/l1.exe "/tmp/ubafar01/1448640/Gau-124940.inp" -scrdir="/tmp/ubafar01/1448640/"
 Entering Link 1 = /prod/apps/gaussian/g09d1/l1.exe PID=    124941.
  
 Copyright (c) 1988,1990,1992,1993,1995,1998,2003,2009,2013,
            Gaussian, Inc.  All Rights Reserved.
  
 This is part of the Gaussian(R) 09 program.  It is based on
 the Gaussian(R) 03 system (copyright 2003, Gaussian, Inc.),
 the Gaussian(R) 98 system (copyright 1998, Gaussian, Inc.),
 the Gaussian(R) 94 system (copyright 1995, Gaussian, Inc.),
 the Gaussian 92(TM) system (copyright 1992, Gaussian, Inc.),
 the Gaussian 90(TM) system (copyright 1990, Gaussian, Inc.),
 the Gaussian 88(TM) system (copyright 1988, Gaussian, Inc.),
 the Gaussian 86(TM) system (copyright 1986, Carnegie Mellon
 University), and the Gaussian 82(TM) system (copyright 1983,
 Carnegie Mellon University). Gaussian is a federally registered
 trademark of Gaussian, Inc.
  
 This software contains proprietary and confidential information,
 including trade secrets, belonging to Gaussian, Inc.
  
 This software is provided under written license and may be
 used, copied, transmitted, or stored only in accord with that
 written license.
  
 The following legend is applicable only to US Government
 contracts under FAR:
  
                    RESTRICTED RIGHTS LEGEND
  
 Use, reproduction and disclosure by the US Government is
 subject to restrictions as set forth in subparagraphs (a)
 and (c) of the Commercial Computer Software - Restricted
 Rights clause in FAR 52.227-19.
  
 Gaussian, Inc.
 340 Quinnipiac St., Bldg. 40, Wallingford CT 06492
  
  
 ---------------------------------------------------------------
 Warning -- This program may not be used in any manner that
 competes with the business of Gaussian, Inc. or will provide
 assistance to any competitor of Gaussian, Inc.  The licensee
 of this program is prohibited from giving any competitor of
 Gaussian, Inc. access to this program.  By using this program,
 the user acknowledges that Gaussian, Inc. is engaged in the
 business of creating and licensing software in the field of
 computational chemistry and represents and warrants to the
 licensee that it is not a competitor of Gaussian, Inc. and that
 it will not use this program in any manner prohibited above.
 ---------------------------------------------------------------
  

 Cite this work as:
 Gaussian 09, Revision D.01,
 M. J. Frisch, G. W. Trucks, H. B. Schlegel, G. E. Scuseria, 
 M. A. Robb, J. R. Cheeseman, G. Scalmani, V. Barone, B. Mennucci, 
 G. A. Petersson, H. Nakatsuji, M. Caricato, X. Li, H. P. Hratchian, 
 A. F. Izmaylov, J. Bloino, G. Zheng, J. L. Sonnenberg, M. Hada, 
 M. Ehara, K. Toyota, R. Fukuda, J. Hasegawa, M. Ishida, T. Nakajima, 
 Y. Honda, O. Kitao, H. Nakai, T. Vreven, J. A. Montgomery, Jr., 
 J. E. Peralta, F. Ogliaro, M. Bearpark, J. J. Heyd, E. Brothers, 
 K. N. Kudin, V. N. Staroverov, T. Keith, R. Kobayashi, J. Normand, 
 K. Raghavachari, A. Rendell, J. C. Burant, S. S. Iyengar, J. Tomasi, 
 M. Cossi, N. Rega, J. M. Millam, M. Klene, J. E. Knox, J. B. Cross, 
 V. Bakken, C. Adamo, J. Jaramillo, R. Gomperts, R. E. Stratmann, 
 O. Yazyev, A. J. Austin, R. Cammi, C. Pomelli, J. W. Ochterski, 
 R. L. Martin, K. Morokuma, V. G. Zakrzewski, G. A. Voth, 
 P. Salvador, J. J. Dannenberg, S. Dapprich, A. D. Daniels, 
 O. Farkas, J. B. Foresman, J. V. Ortiz, J. Cioslowski, 
 and D. J. Fox, Gaussian, Inc., Wallingford CT, 2013.
 
 ******************************************
 Gaussian 09:  AM64L-G09RevD.01 24-Apr-2013
                 6-Aug-2020 
 ******************************************
 %nproc=1
 Will use up to    1 processors via shared memory.
 %Chk=SM41.n.7.pdb.xyz.mst.n.o.chk
 -----------------
 #p b3lyp/6-31G(d)
 -----------------
 1/38=1/1;
 2/12=2,17=6,18=5,40=1/2;
 3/5=1,6=6,7=1,11=2,16=1,25=1,30=1,74=-5/1,2,3;
 4//1;
 5/5=2,38=5/2;
 6/7=2,8=2,9=2,10=2,28=1/1;
 99/5=1,9=1/99;
 Leave Link    1 at Thu Aug  6 22:04:45 2020, MaxMem=           0 cpu:         0.0
 (Enter /prod/apps/gaussian/g09d1/l101.exe)
 ----------------
 SM41.n.7.pdb.xyz
 ----------------
 Symbolic Z-matrix:
 Charge =  0 Multiplicity = 1
 O                     4.264    -0.925     0.329 
 S                     3.769     0.393    -0.063 
 N                     3.33      1.137     1.392 
 C                     2.77      2.416     1.445 
 N                     3.071     3.203     2.46 
 O                     2.297     4.353     2.256 
 C                     1.578     4.223     1.115 
 C                     0.715     5.336     0.735 
 C                    -0.048     5.264    -0.441 
 C                    -0.872     6.324    -0.806 
 C                    -0.945     7.465    -0.004 
 C                    -0.188     7.542     1.167 
 C                     0.639     6.485     1.537 
 C                     1.834     3.002     0.553 
 C                     5.136     1.358    -0.717 
 O                     2.632     0.54     -0.972 
 H                     3.956     0.907     2.161 
 H                     0.006     4.379    -1.065 
 H                    -1.459     6.26     -1.716 
 H                    -1.588     8.29     -0.29 
 H                    -0.241     8.426     1.792 
 H                     1.228     6.538     2.444 
 H                     1.43      2.56     -0.342 
 H                     5.97      1.31     -0.018 
 H                     4.806     2.386    -0.863 
 H                     5.415     0.913    -1.673 
 
 NAtoms=     26 NQM=       26 NQMF=       0 NMMI=      0 NMMIF=      0
                NMic=       0 NMicF=      0.
                    Isotopes and Nuclear Properties:
 (Nuclear quadrupole moments (NQMom) in fm**2, nuclear magnetic moments (NMagM)
  in nuclear magnetons)

  Atom         1           2           3           4           5           6           7           8           9          10
 IAtWgt=          16          32          14          12          14          16          12          12          12          12
 AtmWgt=  15.9949146  31.9720718  14.0030740  12.0000000  14.0030740  15.9949146  12.0000000  12.0000000  12.0000000  12.0000000
 NucSpn=           0           0           2           0           2           0           0           0           0           0
 AtZEff=   0.0000000   0.0000000   0.0000000   0.0000000   0.0000000   0.0000000   0.0000000   0.0000000   0.0000000   0.0000000
 NQMom=    0.0000000   0.0000000   2.0440000   0.0000000   2.0440000   0.0000000   0.0000000   0.0000000   0.0000000   0.0000000
 NMagM=    0.0000000   0.0000000   0.4037610   0.0000000   0.4037610   0.0000000   0.0000000   0.0000000   0.0000000   0.0000000
 AtZNuc=   8.0000000  16.0000000   7.0000000   6.0000000   7.0000000   8.0000000   6.0000000   6.0000000   6.0000000   6.0000000

  Atom        11          12          13          14          15          16          17          18          19          20
 IAtWgt=          12          12          12          12          12          16           1           1           1           1
 AtmWgt=  12.0000000  12.0000000  12.0000000  12.0000000  12.0000000  15.9949146   1.0078250   1.0078250   1.0078250   1.0078250
 NucSpn=           0           0           0           0           0           0           1           1           1           1
 AtZEff=   0.0000000   0.0000000   0.0000000   0.0000000   0.0000000   0.0000000   0.0000000   0.0000000   0.0000000   0.0000000
 NQMom=    0.0000000   0.0000000   0.0000000   0.0000000   0.0000000   0.0000000   0.0000000   0.0000000   0.0000000   0.0000000
 NMagM=    0.0000000   0.0000000   0.0000000   0.0000000   0.0000000   0.0000000   2.7928460   2.7928460   2.7928460   2.7928460
 AtZNuc=   6.0000000   6.0000000   6.0000000   6.0000000   6.0000000   8.0000000   1.0000000   1.0000000   1.0000000   1.0000000

  Atom        21          22          23          24          25          26
 IAtWgt=           1           1           1           1           1           1
 AtmWgt=   1.0078250   1.0078250   1.0078250   1.0078250   1.0078250   1.0078250
 NucSpn=           1           1           1           1           1           1
 AtZEff=   0.0000000   0.0000000   0.0000000   0.0000000   0.0000000   0.0000000
 NQMom=    0.0000000   0.0000000   0.0000000   0.0000000   0.0000000   0.0000000
 NMagM=    2.7928460   2.7928460   2.7928460   2.7928460   2.7928460   2.7928460
 AtZNuc=   1.0000000   1.0000000   1.0000000   1.0000000   1.0000000   1.0000000
 Leave Link  101 at Thu Aug  6 22:04:45 2020, MaxMem=    33554432 cpu:         0.1
 (Enter /prod/apps/gaussian/g09d1/l202.exe)
                          Input orientation:                          
 ---------------------------------------------------------------------
 Center     Atomic      Atomic             Coordinates (Angstroms)
 Number     Number       Type             X           Y           Z
 ---------------------------------------------------------------------
      1          8           0        4.264000   -0.925000    0.329000
      2         16           0        3.769000    0.393000   -0.063000
      3          7           0        3.330000    1.137000    1.392000
      4          6           0        2.770000    2.416000    1.445000
      5          7           0        3.071000    3.203000    2.460000
      6          8           0        2.297000    4.353000    2.256000
      7          6           0        1.578000    4.223000    1.115000
      8          6           0        0.715000    5.336000    0.735000
      9          6           0       -0.048000    5.264000   -0.441000
     10          6           0       -0.872000    6.324000   -0.806000
     11          6           0       -0.945000    7.465000   -0.004000
     12          6           0       -0.188000    7.542000    1.167000
     13          6           0        0.639000    6.485000    1.537000
     14          6           0        1.834000    3.002000    0.553000
     15          6           0        5.136000    1.358000   -0.717000
     16          8           0        2.632000    0.540000   -0.972000
     17          1           0        3.956000    0.907000    2.161000
     18          1           0        0.006000    4.379000   -1.065000
     19          1           0       -1.459000    6.260000   -1.716000
     20          1           0       -1.588000    8.290000   -0.290000
     21          1           0       -0.241000    8.426000    1.792000
     22          1           0        1.228000    6.538000    2.444000
     23          1           0        1.430000    2.560000   -0.342000
     24          1           0        5.970000    1.310000   -0.018000
     25          1           0        4.806000    2.386000   -0.863000
     26          1           0        5.415000    0.913000   -1.673000
 ---------------------------------------------------------------------
                    Distance matrix (angstroms):
                    1          2          3          4          5
     1  O    0.000000
     2  S    1.461442   0.000000
     3  N    2.500834   1.692124   0.000000
     4  C    3.826196   2.713779   1.397229   0.000000
     5  N    4.796331   3.840421   2.340099   1.319165   0.000000
     6  O    5.953125   4.819351   3.486580   2.152538   1.401140
     7  C    5.859547   4.566954   3.559442   2.189752   2.253547
     8  C    7.208353   5.864893   4.990138   3.640539   3.616082
     9  C    7.582214   6.199920   5.639406   4.428230   4.731985
    10  C    8.956267   7.567542   7.028014   5.796864   5.996219
    11  C    9.881127   8.499321   7.763248   6.433757   6.353282
    12  C    9.602741   8.263108   7.311017   5.924772   5.578517
    13  C    8.337145   7.033446   5.988623   4.594169   4.187849
    14  C    4.623462   3.306140   2.533804   1.419562   2.281933
    15  C    2.658306   1.796561   2.785383   3.375139   4.214449
    16  O    2.549951   1.463099   2.536160   3.062729   4.366110
    17  H    2.609083   2.290271   1.017908   2.048495   2.478758
    18  H    6.943070   5.572465   5.253227   4.218195   4.816931
    19  H    9.410578   8.030323   7.670679   6.530903   6.877872
    20  H   10.933677   9.545239   8.842017   7.517065   7.426059
    21  H   10.482204   9.167890   8.126596   6.731020   6.220554
    22  H    8.329879   7.106529   5.890323   4.512942   3.810398
    23  H    4.541698   3.200727   2.939674   2.238237   3.310217
    24  H    2.833032   2.384809   2.997937   3.688307   4.257715
    25  H    3.560527   2.384831   2.970455   3.077834   3.836671
    26  H    2.951449   2.360469   3.713708   4.356255   5.274479
                    6          7          8          9         10
     6  O    0.000000
     7  C    1.354896   0.000000
     8  C    2.404673   1.458745   0.000000
     9  C    3.688191   2.479656   1.403684   0.000000
    10  C    4.827344   3.755921   2.422683   1.391331   0.000000
    11  C    5.030180   4.257729   2.798993   2.416605   1.396572
    12  C    4.186988   3.759950   2.422492   2.791872   2.417459
    13  C    2.794879   2.485246   1.403275   2.423901   2.792614
    14  C    2.222561   1.368291   2.594772   3.105898   4.494997
    15  C    5.086126   4.921769   6.121930   6.496681   7.795200
    16  O    5.007113   4.362450   5.439702   5.457155   6.764631
    17  H    3.825732   4.212464   5.670414   6.464199   7.839424
    18  H    4.034650   2.692196   2.158363   1.084213   2.149649
    19  H    5.789730   4.624640   3.404035   2.146756   1.084788
    20  H    6.088950   5.342104   3.883368   3.398688   2.155010
    21  H    4.821418   4.629503   3.402835   3.875794   3.400907
    22  H    2.439740   2.692205   2.151431   3.402128   3.875345
    23  H    3.273552   2.215925   3.062243   3.083164   4.436462
    24  H    5.284113   5.390633   6.662635   7.213139   8.519044
    25  H    4.460082   4.207973   5.290783   5.658824   6.910194
    26  H    6.082151   5.783737   6.888497   7.091784   8.340083
                   11         12         13         14         15
    11  C    0.000000
    12  C    1.396502   0.000000
    13  C    2.417465   1.392149   0.000000
    14  C    5.286914   5.007702   3.811505   0.000000
    15  C    8.647681   8.374741   7.182594   3.901133   0.000000
    16  O    7.854144   7.845746   6.753529   3.003976   2.646538
    17  H    8.468435   7.885683   6.519659   3.387857   3.143038
    18  H    3.399047   3.876084   3.406806   2.802791   5.963593
    19  H    2.155728   3.401566   3.877401   5.158175   8.277779
    20  H    1.084375   2.154612   3.399336   6.354815   9.666806
    21  H    2.155169   1.083923   2.146370   5.938057   9.228425
    22  H    3.402053   2.154948   1.082765   4.055418   7.217810
    23  H    5.460210   5.451177   4.422889   1.076850   3.914060
    24  H    9.257508   8.840985   7.590666   4.505042   1.089248
    25  H    7.720630   7.459576   6.318678   3.349223   1.089495
    26  H    9.282449   9.132516   8.010085   4.705588   1.090780
                   16         17         18         19         20
    16  O    0.000000
    17  H    3.421017   0.000000
    18  H    4.652144   6.169632   0.000000
    19  H    7.071649   8.544470   2.471475   0.000000
    20  H    8.850764   9.552593   4.293877   2.484153   0.000000
    21  H    8.836448   8.618952   4.960007   4.298970   2.483471
    22  H    7.043882   6.263404   4.297400   4.960126   4.298153
    23  H    2.433537   3.921491   2.420592   4.891237   6.476413
    24  H    3.556017   2.994436   6.788539   9.087120  10.291635
    25  H    2.854098   3.471962   5.201236   7.415235   8.721742
    26  H    2.894066   4.102228   6.452914   8.708854  10.265224
                   21         22         23         24         25
    21  H    0.000000
    22  H    2.479437   0.000000
    23  H    6.461900   4.860770   0.000000
    24  H    9.617176   7.475292   4.720072   0.000000
    25  H    8.306794   6.401362   3.420394   1.796301   0.000000
    26  H   10.022062   8.131499   4.512693   1.790156   1.787935
                   26
    26  H    0.000000
 Stoichiometry    C10H10N2O3S
 Framework group  C1[X(C10H10N2O3S)]
 Deg. of freedom    72
 Full point group                 C1      NOp   1
 Largest Abelian subgroup         C1      NOp   1
 Largest concise Abelian subgroup C1      NOp   1
                         Standard orientation:                         
 ---------------------------------------------------------------------
 Center     Atomic      Atomic             Coordinates (Angstroms)
 Number     Number       Type             X           Y           Z
 ---------------------------------------------------------------------
      1          8           0       -4.697603   -0.176772   -0.518141
      2         16           0       -3.349779   -0.476227   -0.039067
      3          7           0       -2.409877    0.832732   -0.555295
      4          6           0       -1.034354    0.910497   -0.322614
      5          7           0       -0.492796    2.089767   -0.085481
      6          8           0        0.880353    1.832138    0.020741
      7          6           0        1.109357    0.505707   -0.133782
      8          6           0        2.491610    0.048286   -0.043880
      9          6           0        2.791286   -1.315553   -0.186942
     10          6           0        4.108711   -1.754777   -0.101663
     11          6           0        5.140102   -0.841093    0.125992
     12          6           0        4.847635    0.516914    0.269174
     13          6           0        3.531308    0.962334    0.185740
     14          6           0       -0.076961   -0.136894   -0.361673
     15          6           0       -3.341614   -0.410972    1.756289
     16          8           0       -2.646445   -1.690327   -0.453723
     17          1           0       -2.906396    1.720294   -0.512405
     18          1           0        1.992651   -2.026957   -0.364716
     19          1           0        4.331827   -2.810394   -0.214168
     20          1           0        6.166284   -1.185303    0.191868
     21          1           0        5.644940    1.229412    0.446773
     22          1           0        3.297786    2.013941    0.295141
     23          1           0       -0.268414   -1.181131   -0.542006
     24          1           0       -3.806090    0.519877    2.079157
     25          1           0       -2.312814   -0.478102    2.108517
     26          1           0       -3.917528   -1.266515    2.111496
 ---------------------------------------------------------------------
 Rotational constants (GHZ):      1.3745522      0.2089766      0.1907515
 Leave Link  202 at Thu Aug  6 22:04:45 2020, MaxMem=    33554432 cpu:         0.0
 (Enter /prod/apps/gaussian/g09d1/l301.exe)
 Standard basis: 6-31G(d) (6D, 7F)
 Ernie: Thresh=  0.10000D-02 Tol=  0.10000D-05 Strict=F.
 There are   264 symmetry adapted cartesian basis functions of A   symmetry.
 There are   264 symmetry adapted basis functions of A   symmetry.
   264 basis functions,   512 primitive gaussians,   264 cartesian basis functions
    62 alpha electrons       62 beta electrons
       nuclear repulsion energy      1180.7274880273 Hartrees.
 IExCor=  402 DFT=T Ex+Corr=B3LYP ExCW=0 ScaHFX=  0.200000
 ScaDFX=  0.800000  0.720000  1.000000  0.810000 ScalE2=  1.000000  1.000000
 IRadAn=      0 IRanWt=     -1 IRanGd=            0 ICorTp=0 IEmpDi=  4
 NAtoms=   26 NActive=   26 NUniq=   26 SFac= 1.00D+00 NAtFMM=   60 NAOKFM=F Big=F
 Integral buffers will be    131072 words long.
 Raffenetti 2 integral format.
 Two-electron integral symmetry is turned on.
 Leave Link  301 at Thu Aug  6 22:04:45 2020, MaxMem=    33554432 cpu:         0.0
 (Enter /prod/apps/gaussian/g09d1/l302.exe)
 NPDir=0 NMtPBC=     1 NCelOv=     1 NCel=       1 NClECP=     1 NCelD=      1
         NCelK=      1 NCelE2=     1 NClLst=     1 CellRange=     0.0.
 One-electron integrals computed using PRISM.
 NBasis=   264 RedAO= T EigKep=  4.56D-04  NBF=   264
 NBsUse=   264 1.00D-06 EigRej= -1.00D+00 NBFU=   264
 Precomputing XC quadrature grid using
 IXCGrd= 4 IRadAn=           0 IRanWt=          -1 IRanGd=           0 AccXCQ= 0.00D+00.
 Generated NRdTot=       0 NPtTot=           0 NUsed=           0 NTot=          32
 NSgBfM=   263   263   263   263   263 MxSgAt=    26 MxSgA2=    26.
 Leave Link  302 at Thu Aug  6 22:04:45 2020, MaxMem=    33554432 cpu:         0.7
 (Enter /prod/apps/gaussian/g09d1/l303.exe)
 DipDrv:  MaxL=1.
 Leave Link  303 at Thu Aug  6 22:04:45 2020, MaxMem=    33554432 cpu:         0.0
 (Enter /prod/apps/gaussian/g09d1/l401.exe)
 ExpMin= 1.17D-01 ExpMax= 2.19D+04 ExpMxC= 3.30D+03 IAcc=1 IRadAn=         1 AccDes= 0.00D+00
 Harris functional with IExCor=  402 and IRadAn=       1 diagonalized for initial guess.
 HarFok:  IExCor=  402 AccDes= 0.00D+00 IRadAn=         1 IDoV= 1 UseB2=F ITyADJ=14
 ICtDFT=  3500011 ScaDFX=  1.000000  1.000000  1.000000  1.000000
 FoFCou: FMM=F IPFlag=           0 FMFlag=      100000 FMFlg1=           0
         NFxFlg=           0 DoJE=T BraDBF=F KetDBF=T FulRan=T
         wScrn=  0.000000 ICntrl=     500 IOpCl=  0 I1Cent=   200000004 NGrid=           0
         NMat0=    1 NMatS0=      1 NMatT0=    0 NMatD0=    1 NMtDS0=    0 NMtDT0=    0
 Petite list used in FoFCou.
 Harris En= -1120.38057722205    
 JPrj=0 DoOrth=F DoCkMO=F.
 Leave Link  401 at Thu Aug  6 22:04:48 2020, MaxMem=    33554432 cpu:         2.1
 (Enter /prod/apps/gaussian/g09d1/l502.exe)
 Closed shell SCF:
 Using DIIS extrapolation, IDIIS=  1040.
 Integral symmetry usage will be decided dynamically.
 IVT=      231207 IEndB=      231207 NGot=    33554432 MDV=    33409826
 LenX=    33409826 LenY=    33339689
 Requested convergence on RMS density matrix=1.00D-08 within 128 cycles.
 Requested convergence on MAX density matrix=1.00D-06.
 Requested convergence on             energy=1.00D-06.
 No special actions if energy rises.
 Fock matrices will be formed incrementally for  20 cycles.
 Integral accuracy reduced to 1.0D-05 until final iterations.

 Cycle   1  Pass 0  IDiag  1:
 FoFJK:  IHMeth= 1 ICntrl=       0 DoSepK=F KAlg= 0 I1Cent=   0 FoldK=F
 IRaf= 760000000 NMat=   1 IRICut=       1 DoRegI=T DoRafI=F ISym2E= 0.
 FoFCou: FMM=F IPFlag=           0 FMFlag=      100000 FMFlg1=           0
         NFxFlg=           0 DoJE=F BraDBF=F KetDBF=F FulRan=T
         wScrn=  0.000000 ICntrl=       0 IOpCl=  0 I1Cent=           0 NGrid=           0
         NMat0=    1 NMatS0=      1 NMatT0=    0 NMatD0=    1 NMtDS0=    0 NMtDT0=    0
 Symmetry not used in FoFCou.
 E= -1119.84030186485    
 DIIS: error= 4.19D-02 at cycle   1 NSaved=   1.
 NSaved= 1 IEnMin= 1 EnMin= -1119.84030186485     IErMin= 1 ErrMin= 4.19D-02
 ErrMax= 4.19D-02  0.00D+00 EMaxC= 1.00D-01 BMatC= 5.77D-01 BMatP= 5.77D-01
 IDIUse=3 WtCom= 5.81D-01 WtEn= 4.19D-01
 Coeff-Com:  0.100D+01
 Coeff-En:   0.100D+01
 Coeff:      0.100D+01
 Gap=     0.282 Goal=   None    Shift=    0.000
 GapD=    0.282 DampG=1.000 DampE=0.500 DampFc=0.5000 IDamp=-1.
 Damping current iteration by 5.00D-01
 RMSDP=7.36D-03 MaxDP=5.78D-01              OVMax= 2.95D-01

 Cycle   2  Pass 0  IDiag  1:
 RMSU=  3.67D-03    CP:  9.92D-01
 E= -1119.95727076840     Delta-E=       -0.116968903553 Rises=F Damp=T
 DIIS: error= 1.86D-02 at cycle   2 NSaved=   2.
 NSaved= 2 IEnMin= 2 EnMin= -1119.95727076840     IErMin= 2 ErrMin= 1.86D-02
 ErrMax= 1.86D-02  0.00D+00 EMaxC= 1.00D-01 BMatC= 9.44D-02 BMatP= 5.77D-01
 IDIUse=3 WtCom= 8.14D-01 WtEn= 1.86D-01
 Coeff-Com:  0.234D+00 0.766D+00
 Coeff-En:   0.375D+00 0.625D+00
 Coeff:      0.260D+00 0.740D+00
 Gap=     0.229 Goal=   None    Shift=    0.000
 RMSDP=2.20D-03 MaxDP=1.29D-01 DE=-1.17D-01 OVMax= 2.29D-01

 Cycle   3  Pass 0  IDiag  1:
 RMSU=  1.81D-03    CP:  9.79D-01  6.66D-01
 E= -1120.29341853276     Delta-E=       -0.336147764362 Rises=F Damp=F
 DIIS: error= 1.40D-02 at cycle   3 NSaved=   3.
 NSaved= 3 IEnMin= 3 EnMin= -1120.29341853276     IErMin= 3 ErrMin= 1.40D-02
 ErrMax= 1.40D-02  0.00D+00 EMaxC= 1.00D-01 BMatC= 5.05D-02 BMatP= 9.44D-02
 IDIUse=3 WtCom= 8.60D-01 WtEn= 1.40D-01
 Coeff-Com:  0.796D-01 0.422D+00 0.498D+00
 Coeff-En:   0.000D+00 0.000D+00 0.100D+01
 Coeff:      0.684D-01 0.363D+00 0.569D+00
 Gap=     0.184 Goal=   None    Shift=    0.000
 RMSDP=1.19D-03 MaxDP=3.97D-02 DE=-3.36D-01 OVMax= 6.63D-02

 Cycle   4  Pass 0  IDiag  1:
 RMSU=  7.66D-04    CP:  9.85D-01  7.50D-01  5.31D-01
 E= -1120.33079666663     Delta-E=       -0.037378133868 Rises=F Damp=F
 DIIS: error= 5.15D-03 at cycle   4 NSaved=   4.
 NSaved= 4 IEnMin= 4 EnMin= -1120.33079666663     IErMin= 4 ErrMin= 5.15D-03
 ErrMax= 5.15D-03  0.00D+00 EMaxC= 1.00D-01 BMatC= 9.13D-03 BMatP= 5.05D-02
 IDIUse=3 WtCom= 9.49D-01 WtEn= 5.15D-02
 Coeff-Com:  0.984D-02 0.786D-01 0.312D+00 0.600D+00
 Coeff-En:   0.000D+00 0.000D+00 0.150D+00 0.850D+00
 Coeff:      0.933D-02 0.745D-01 0.304D+00 0.613D+00
 Gap=     0.182 Goal=   None    Shift=    0.000
 RMSDP=4.05D-04 MaxDP=1.65D-02 DE=-3.74D-02 OVMax= 1.86D-02

 Cycle   5  Pass 0  IDiag  1:
 RMSU=  2.19D-04    CP:  9.84D-01  7.30D-01  6.45D-01  6.62D-01
 E= -1120.33774147363     Delta-E=       -0.006944806998 Rises=F Damp=F
 DIIS: error= 1.42D-03 at cycle   5 NSaved=   5.
 NSaved= 5 IEnMin= 5 EnMin= -1120.33774147363     IErMin= 5 ErrMin= 1.42D-03
 ErrMax= 1.42D-03  0.00D+00 EMaxC= 1.00D-01 BMatC= 8.60D-04 BMatP= 9.13D-03
 IDIUse=3 WtCom= 9.86D-01 WtEn= 1.42D-02
 Coeff-Com:  0.162D-03 0.185D-01 0.144D+00 0.363D+00 0.474D+00
 Coeff-En:   0.000D+00 0.000D+00 0.000D+00 0.553D-02 0.994D+00
 Coeff:      0.160D-03 0.182D-01 0.142D+00 0.358D+00 0.482D+00
 Gap=     0.183 Goal=   None    Shift=    0.000
 RMSDP=1.47D-04 MaxDP=6.21D-03 DE=-6.94D-03 OVMax= 1.05D-02

 Cycle   6  Pass 0  IDiag  1:
 RMSU=  8.01D-05    CP:  9.84D-01  7.34D-01  6.46D-01  6.97D-01  4.54D-01
 E= -1120.33839254440     Delta-E=       -0.000651070773 Rises=F Damp=F
 DIIS: error= 7.73D-04 at cycle   6 NSaved=   6.
 NSaved= 6 IEnMin= 6 EnMin= -1120.33839254440     IErMin= 6 ErrMin= 7.73D-04
 ErrMax= 7.73D-04  0.00D+00 EMaxC= 1.00D-01 BMatC= 1.35D-04 BMatP= 8.60D-04
 IDIUse=3 WtCom= 9.92D-01 WtEn= 7.73D-03
 Coeff-Com: -0.982D-03 0.306D-02 0.513D-01 0.149D+00 0.318D+00 0.480D+00
 Coeff-En:   0.000D+00 0.000D+00 0.000D+00 0.000D+00 0.145D+00 0.855D+00
 Coeff:     -0.974D-03 0.303D-02 0.509D-01 0.148D+00 0.316D+00 0.483D+00
 Gap=     0.182 Goal=   None    Shift=    0.000
 RMSDP=4.92D-05 MaxDP=2.28D-03 DE=-6.51D-04 OVMax= 3.68D-03

 Cycle   7  Pass 0  IDiag  1:
 RMSU=  2.54D-05    CP:  9.84D-01  7.33D-01  6.47D-01  7.00D-01  5.51D-01
                    CP:  5.50D-01
 E= -1120.33850987304     Delta-E=       -0.000117328637 Rises=F Damp=F
 DIIS: error= 1.11D-04 at cycle   7 NSaved=   7.
 NSaved= 7 IEnMin= 7 EnMin= -1120.33850987304     IErMin= 7 ErrMin= 1.11D-04
 ErrMax= 1.11D-04  0.00D+00 EMaxC= 1.00D-01 BMatC= 7.98D-06 BMatP= 1.35D-04
 IDIUse=3 WtCom= 9.99D-01 WtEn= 1.11D-03
 Coeff-Com: -0.630D-03-0.108D-03 0.165D-01 0.522D-01 0.138D+00 0.279D+00
 Coeff-Com:  0.514D+00
 Coeff-En:   0.000D+00 0.000D+00 0.000D+00 0.000D+00 0.000D+00 0.000D+00
 Coeff-En:   0.100D+01
 Coeff:     -0.629D-03-0.107D-03 0.164D-01 0.521D-01 0.138D+00 0.279D+00
 Coeff:      0.515D+00
 Gap=     0.183 Goal=   None    Shift=    0.000
 RMSDP=1.22D-05 MaxDP=4.11D-04 DE=-1.17D-04 OVMax= 8.19D-04

 Cycle   8  Pass 0  IDiag  1:
 RMSU=  7.81D-06    CP:  9.84D-01  7.33D-01  6.47D-01  7.02D-01  5.54D-01
                    CP:  5.77D-01  6.48D-01
 E= -1120.33851644320     Delta-E=       -0.000006570160 Rises=F Damp=F
 DIIS: error= 3.96D-05 at cycle   8 NSaved=   8.
 NSaved= 8 IEnMin= 8 EnMin= -1120.33851644320     IErMin= 8 ErrMin= 3.96D-05
 ErrMax= 3.96D-05  0.00D+00 EMaxC= 1.00D-01 BMatC= 6.99D-07 BMatP= 7.98D-06
 IDIUse=1 WtCom= 1.00D+00 WtEn= 0.00D+00
 Coeff-Com: -0.241D-03-0.398D-03 0.378D-02 0.135D-01 0.445D-01 0.111D+00
 Coeff-Com:  0.285D+00 0.543D+00
 Coeff:     -0.241D-03-0.398D-03 0.378D-02 0.135D-01 0.445D-01 0.111D+00
 Coeff:      0.285D+00 0.543D+00
 Gap=     0.183 Goal=   None    Shift=    0.000
 RMSDP=4.37D-06 MaxDP=1.24D-04 DE=-6.57D-06 OVMax= 2.92D-04

 Initial convergence to 1.0D-05 achieved.  Increase integral accuracy.
 Cycle   9  Pass 1  IDiag  1:
 E= -1120.33846291824     Delta-E=        0.000053524957 Rises=F Damp=F
 DIIS: error= 4.46D-05 at cycle   1 NSaved=   1.
 NSaved= 1 IEnMin= 1 EnMin= -1120.33846291824     IErMin= 1 ErrMin= 4.46D-05
 ErrMax= 4.46D-05  0.00D+00 EMaxC= 1.00D-01 BMatC= 3.92D-07 BMatP= 3.92D-07
 IDIUse=1 WtCom= 1.00D+00 WtEn= 0.00D+00
 Coeff-Com:  0.100D+01
 Coeff:      0.100D+01
 Gap=     0.183 Goal=   None    Shift=    0.000
 RMSDP=4.37D-06 MaxDP=1.24D-04 DE= 5.35D-05 OVMax= 2.29D-04

 Cycle  10  Pass 1  IDiag  1:
 RMSU=  2.71D-05    CP:  1.00D+00
 E= -1120.33846295072     Delta-E=       -0.000000032475 Rises=F Damp=F
 DIIS: error= 3.17D-05 at cycle   2 NSaved=   2.
 NSaved= 2 IEnMin= 2 EnMin= -1120.33846295072     IErMin= 2 ErrMin= 3.17D-05
 ErrMax= 3.17D-05  0.00D+00 EMaxC= 1.00D-01 BMatC= 3.77D-07 BMatP= 3.92D-07
 IDIUse=1 WtCom= 1.00D+00 WtEn= 0.00D+00
 Coeff-Com:  0.493D+00 0.507D+00
 Coeff:      0.493D+00 0.507D+00
 Gap=     0.183 Goal=   None    Shift=    0.000
 RMSDP=3.74D-06 MaxDP=1.18D-04 DE=-3.25D-08 OVMax= 2.41D-04

 Cycle  11  Pass 1  IDiag  1:
 RMSU=  3.74D-06    CP:  1.00D+00  9.92D-01
 E= -1120.33846316092     Delta-E=       -0.000000210198 Rises=F Damp=F
 DIIS: error= 2.14D-05 at cycle   3 NSaved=   3.
 NSaved= 3 IEnMin= 3 EnMin= -1120.33846316092     IErMin= 3 ErrMin= 2.14D-05
 ErrMax= 2.14D-05  0.00D+00 EMaxC= 1.00D-01 BMatC= 1.54D-07 BMatP= 3.77D-07
 IDIUse=1 WtCom= 1.00D+00 WtEn= 0.00D+00
 Coeff-Com:  0.146D-01 0.387D+00 0.598D+00
 Coeff:      0.146D-01 0.387D+00 0.598D+00
 Gap=     0.183 Goal=   None    Shift=    0.000
 RMSDP=1.55D-06 MaxDP=5.23D-05 DE=-2.10D-07 OVMax= 9.51D-05

 Cycle  12  Pass 1  IDiag  1:
 RMSU=  5.76D-07    CP:  1.00D+00  1.00D+00  6.24D-01
 E= -1120.33846329386     Delta-E=       -0.000000132940 Rises=F Damp=F
 DIIS: error= 3.11D-06 at cycle   4 NSaved=   4.
 NSaved= 4 IEnMin= 4 EnMin= -1120.33846329386     IErMin= 4 ErrMin= 3.11D-06
 ErrMax= 3.11D-06  0.00D+00 EMaxC= 1.00D-01 BMatC= 6.33D-09 BMatP= 1.54D-07
 IDIUse=1 WtCom= 1.00D+00 WtEn= 0.00D+00
 Coeff-Com: -0.519D-02 0.221D+00 0.365D+00 0.418D+00
 Coeff:     -0.519D-02 0.221D+00 0.365D+00 0.418D+00
 Gap=     0.183 Goal=   None    Shift=    0.000
 RMSDP=3.49D-07 MaxDP=1.37D-05 DE=-1.33D-07 OVMax= 2.75D-05

 Cycle  13  Pass 1  IDiag  1:
 RMSU=  1.82D-07    CP:  1.00D+00  1.00D+00  6.25D-01  4.84D-01
 E= -1120.33846329962     Delta-E=       -0.000000005770 Rises=F Damp=F
 DIIS: error= 8.75D-07 at cycle   5 NSaved=   5.
 NSaved= 5 IEnMin= 5 EnMin= -1120.33846329962     IErMin= 5 ErrMin= 8.75D-07
 ErrMax= 8.75D-07  0.00D+00 EMaxC= 1.00D-01 BMatC= 3.56D-10 BMatP= 6.33D-09
 IDIUse=1 WtCom= 1.00D+00 WtEn= 0.00D+00
 Coeff-Com: -0.405D-02 0.105D+00 0.176D+00 0.251D+00 0.472D+00
 Coeff:     -0.405D-02 0.105D+00 0.176D+00 0.251D+00 0.472D+00
 Gap=     0.183 Goal=   None    Shift=    0.000
 RMSDP=8.94D-08 MaxDP=3.78D-06 DE=-5.77D-09 OVMax= 6.86D-06

 Cycle  14  Pass 1  IDiag  1:
 RMSU=  6.11D-08    CP:  1.00D+00  1.00D+00  6.27D-01  5.11D-01  6.54D-01
 E= -1120.33846329997     Delta-E=       -0.000000000347 Rises=F Damp=F
 DIIS: error= 1.63D-07 at cycle   6 NSaved=   6.
 NSaved= 6 IEnMin= 6 EnMin= -1120.33846329997     IErMin= 6 ErrMin= 1.63D-07
 ErrMax= 1.63D-07  0.00D+00 EMaxC= 1.00D-01 BMatC= 1.57D-11 BMatP= 3.56D-10
 IDIUse=1 WtCom= 1.00D+00 WtEn= 0.00D+00
 Coeff-Com: -0.150D-02 0.320D-01 0.545D-01 0.863D-01 0.230D+00 0.599D+00
 Coeff:     -0.150D-02 0.320D-01 0.545D-01 0.863D-01 0.230D+00 0.599D+00
 Gap=     0.183 Goal=   None    Shift=    0.000
 RMSDP=2.22D-08 MaxDP=8.73D-07 DE=-3.47D-10 OVMax= 1.27D-06

 Cycle  15  Pass 1  IDiag  1:
 RMSU=  1.75D-08    CP:  1.00D+00  1.00D+00  6.28D-01  5.16D-01  6.98D-01
                    CP:  8.31D-01
 E= -1120.33846329999     Delta-E=       -0.000000000016 Rises=F Damp=F
 DIIS: error= 9.60D-08 at cycle   7 NSaved=   7.
 NSaved= 7 IEnMin= 7 EnMin= -1120.33846329999     IErMin= 7 ErrMin= 9.60D-08
 ErrMax= 9.60D-08  0.00D+00 EMaxC= 1.00D-01 BMatC= 4.22D-12 BMatP= 1.57D-11
 IDIUse=1 WtCom= 1.00D+00 WtEn= 0.00D+00
 Coeff-Com: -0.361D-03 0.494D-02 0.869D-02 0.178D-01 0.764D-01 0.378D+00
 Coeff-Com:  0.515D+00
 Coeff:     -0.361D-03 0.494D-02 0.869D-02 0.178D-01 0.764D-01 0.378D+00
 Coeff:      0.515D+00
 Gap=     0.183 Goal=   None    Shift=    0.000
 RMSDP=9.60D-09 MaxDP=3.50D-07 DE=-1.64D-11 OVMax= 5.21D-07

 SCF Done:  E(RB3LYP) =  -1120.33846330     A.U. after   15 cycles
            NFock= 15  Conv=0.96D-08     -V/T= 2.0073
 KE= 1.112228372345D+03 PE=-4.988260319823D+03 EE= 1.574965996151D+03
 Leave Link  502 at Thu Aug  6 22:07:19 2020, MaxMem=    33554432 cpu:       151.1
 (Enter /prod/apps/gaussian/g09d1/l601.exe)
 Copying SCF densities to generalized density rwf, IOpCl= 0 IROHF=0.

 **********************************************************************

            Population analysis using the SCF density.

 **********************************************************************

 Orbital symmetries:
       Occupied  (A) (A) (A) (A) (A) (A) (A) (A) (A) (A) (A) (A)
                 (A) (A) (A) (A) (A) (A) (A) (A) (A) (A) (A) (A)
                 (A) (A) (A) (A) (A) (A) (A) (A) (A) (A) (A) (A)
                 (A) (A) (A) (A) (A) (A) (A) (A) (A) (A) (A) (A)
                 (A) (A) (A) (A) (A) (A) (A) (A) (A) (A) (A) (A)
                 (A) (A)
       Virtual   (A) (A) (A) (A) (A) (A) (A) (A) (A) (A) (A) (A)
                 (A) (A) (A) (A) (A) (A) (A) (A) (A) (A) (A) (A)
                 (A) (A) (A) (A) (A) (A) (A) (A) (A) (A) (A) (A)
                 (A) (A) (A) (A) (A) (A) (A) (A) (A) (A) (A) (A)
                 (A) (A) (A) (A) (A) (A) (A) (A) (A) (A) (A) (A)
                 (A) (A) (A) (A) (A) (A) (A) (A) (A) (A) (A) (A)
                 (A) (A) (A) (A) (A) (A) (A) (A) (A) (A) (A) (A)
                 (A) (A) (A) (A) (A) (A) (A) (A) (A) (A) (A) (A)
                 (A) (A) (A) (A) (A) (A) (A) (A) (A) (A) (A) (A)
                 (A) (A) (A) (A) (A) (A) (A) (A) (A) (A) (A) (A)
                 (A) (A) (A) (A) (A) (A) (A) (A) (A) (A) (A) (A)
                 (A) (A) (A) (A) (A) (A) (A) (A) (A) (A) (A) (A)
                 (A) (A) (A) (A) (A) (A) (A) (A) (A) (A) (A) (A)
                 (A) (A) (A) (A) (A) (A) (A) (A) (A) (A) (A) (A)
                 (A) (A) (A) (A) (A) (A) (A) (A) (A) (A) (A) (A)
                 (A) (A) (A) (A) (A) (A) (A) (A) (A) (A) (A) (A)
                 (A) (A) (A) (A) (A) (A) (A) (A) (A) (A)
 The electronic state is 1-A.
 Alpha  occ. eigenvalues --  -89.13158 -19.24046 -19.15676 -19.15595 -14.39688
 Alpha  occ. eigenvalues --  -14.38286 -10.27746 -10.27073 -10.24197 -10.22014
 Alpha  occ. eigenvalues --  -10.20827 -10.20530 -10.20490 -10.20457 -10.20361
 Alpha  occ. eigenvalues --  -10.20316  -8.15669  -6.12209  -6.12059  -6.11957
 Alpha  occ. eigenvalues --   -1.14635  -1.12712  -1.01594  -0.96865  -0.87877
 Alpha  occ. eigenvalues --   -0.85570  -0.81292  -0.78847  -0.76033  -0.75686
 Alpha  occ. eigenvalues --   -0.67051  -0.64760  -0.62578  -0.60463  -0.59809
 Alpha  occ. eigenvalues --   -0.55389  -0.54380  -0.50736  -0.50287  -0.49072
 Alpha  occ. eigenvalues --   -0.48094  -0.47692  -0.46994  -0.45697  -0.45346
 Alpha  occ. eigenvalues --   -0.44019  -0.43771  -0.42983  -0.39973  -0.38843
 Alpha  occ. eigenvalues --   -0.37267  -0.36735  -0.35698  -0.35009  -0.32985
 Alpha  occ. eigenvalues --   -0.32103  -0.31716  -0.31461  -0.30141  -0.26831
 Alpha  occ. eigenvalues --   -0.26391  -0.23723
 Alpha virt. eigenvalues --   -0.05465  -0.01438   0.01325   0.04277   0.05844
 Alpha virt. eigenvalues --    0.06725   0.07801   0.08713   0.09157   0.09918
 Alpha virt. eigenvalues --    0.11201   0.11823   0.13045   0.13880   0.14207
 Alpha virt. eigenvalues --    0.14429   0.16109   0.16564   0.17278   0.18411
 Alpha virt. eigenvalues --    0.23150   0.24067   0.26808   0.28023   0.29236
 Alpha virt. eigenvalues --    0.31119   0.32621   0.34642   0.35611   0.37100
 Alpha virt. eigenvalues --    0.40303   0.41634   0.43729   0.44716   0.46908
 Alpha virt. eigenvalues --    0.49732   0.50602   0.51298   0.51818   0.53004
 Alpha virt. eigenvalues --    0.53295   0.54109   0.55372   0.57270   0.57904
 Alpha virt. eigenvalues --    0.58211   0.59054   0.59780   0.60360   0.60902
 Alpha virt. eigenvalues --    0.62044   0.63365   0.63911   0.64397   0.66465
 Alpha virt. eigenvalues --    0.68703   0.69007   0.70314   0.71143   0.74826
 Alpha virt. eigenvalues --    0.75531   0.76578   0.78248   0.79849   0.81060
 Alpha virt. eigenvalues --    0.81557   0.81671   0.82681   0.83445   0.83841
 Alpha virt. eigenvalues --    0.84825   0.85170   0.85944   0.88137   0.88569
 Alpha virt. eigenvalues --    0.89262   0.90326   0.91824   0.94210   0.94865
 Alpha virt. eigenvalues --    0.95775   0.96890   0.97781   0.99096   1.01451
 Alpha virt. eigenvalues --    1.03093   1.03431   1.06028   1.09298   1.10184
 Alpha virt. eigenvalues --    1.12869   1.14826   1.15603   1.17012   1.17988
 Alpha virt. eigenvalues --    1.20102   1.20592   1.23654   1.24135   1.24605
 Alpha virt. eigenvalues --    1.29327   1.30630   1.31261   1.34814   1.35445
 Alpha virt. eigenvalues --    1.37028   1.40135   1.41216   1.41786   1.42834
 Alpha virt. eigenvalues --    1.46367   1.46707   1.47746   1.48762   1.49611
 Alpha virt. eigenvalues --    1.51738   1.54371   1.57772   1.60517   1.63515
 Alpha virt. eigenvalues --    1.68324   1.73515   1.74173   1.76699   1.78283
 Alpha virt. eigenvalues --    1.78531   1.80185   1.80247   1.81562   1.84916
 Alpha virt. eigenvalues --    1.85785   1.87024   1.88499   1.90498   1.91910
 Alpha virt. eigenvalues --    1.94600   1.96389   1.97732   2.00366   2.02022
 Alpha virt. eigenvalues --    2.03923   2.05562   2.06374   2.09756   2.10328
 Alpha virt. eigenvalues --    2.12186   2.12861   2.13359   2.14265   2.15664
 Alpha virt. eigenvalues --    2.17841   2.18650   2.20135   2.22072   2.23875
 Alpha virt. eigenvalues --    2.25328   2.28005   2.29469   2.30117   2.30524
 Alpha virt. eigenvalues --    2.32426   2.33589   2.43846   2.50563   2.52537
 Alpha virt. eigenvalues --    2.53838   2.56533   2.57696   2.59375   2.62032
 Alpha virt. eigenvalues --    2.65752   2.66500   2.68996   2.73379   2.74148
 Alpha virt. eigenvalues --    2.74372   2.76256   2.80735   2.84637   2.89824
 Alpha virt. eigenvalues --    2.90488   3.01185   3.04912   3.13431   3.26951
 Alpha virt. eigenvalues --    3.42498   3.75995   3.79030   3.89597   3.97257
 Alpha virt. eigenvalues --    4.04232   4.06892   4.08340   4.10374   4.12558
 Alpha virt. eigenvalues --    4.20753   4.24134   4.31040   4.37590   4.39240
 Alpha virt. eigenvalues --    4.54883   4.73788
          Condensed to atoms (all electrons):
               1          2          3          4          5          6
     1  O    8.198165   0.459929  -0.052284   0.001524  -0.000014   0.000000
     2  S    0.459929  13.659056   0.110663  -0.010290  -0.002287   0.000113
     3  N   -0.052284   0.110663   7.443606   0.217989  -0.078956   0.005632
     4  C    0.001524  -0.010290   0.217989   4.555961   0.423695  -0.040756
     5  N   -0.000014  -0.002287  -0.078956   0.423695   6.878967   0.135281
     6  O    0.000000   0.000113   0.005632  -0.040756   0.135281   8.170059
     7  C   -0.000001   0.000440  -0.000481  -0.020353  -0.082410   0.251103
     8  C    0.000000  -0.000013  -0.000201   0.003985   0.004740  -0.037706
     9  C    0.000000  -0.000002   0.000003   0.000617  -0.000110   0.003170
    10  C    0.000000   0.000000   0.000000  -0.000007   0.000001  -0.000061
    11  C    0.000000   0.000000   0.000000   0.000000   0.000000   0.000001
    12  C    0.000000   0.000000   0.000000   0.000005   0.000001   0.000303
    13  C    0.000000   0.000000  -0.000001  -0.000390   0.000167  -0.006494
    14  C   -0.000042  -0.000851  -0.055600   0.436970  -0.048728  -0.092249
    15  C   -0.057783   0.209100  -0.062663   0.001260  -0.000006   0.000007
    16  O   -0.041961   0.422520  -0.049375  -0.006028   0.000081   0.000000
    17  H    0.001083  -0.004588   0.288751  -0.025290   0.004249  -0.000197
    18  H    0.000000  -0.000004   0.000000   0.000070  -0.000004   0.000030
    19  H    0.000000   0.000000   0.000000   0.000000   0.000000   0.000000
    20  H    0.000000   0.000000   0.000000   0.000000   0.000000   0.000000
    21  H    0.000000   0.000000   0.000000   0.000000   0.000000  -0.000002
    22  H    0.000000   0.000000   0.000000   0.000061  -0.000239   0.009849
    23  H    0.000017   0.001124  -0.001522  -0.025153   0.004864   0.003099
    24  H    0.000198  -0.006907   0.000172   0.000313   0.000037   0.000000
    25  H    0.001777  -0.007053  -0.002033   0.002009   0.000168  -0.000037
    26  H   -0.000440  -0.013943   0.002392   0.000004  -0.000003   0.000000
               7          8          9         10         11         12
     1  O   -0.000001   0.000000   0.000000   0.000000   0.000000   0.000000
     2  S    0.000440  -0.000013  -0.000002   0.000000   0.000000   0.000000
     3  N   -0.000481  -0.000201   0.000003   0.000000   0.000000   0.000000
     4  C   -0.020353   0.003985   0.000617  -0.000007   0.000000   0.000005
     5  N   -0.082410   0.004740  -0.000110   0.000001   0.000000   0.000001
     6  O    0.251103  -0.037706   0.003170  -0.000061   0.000001   0.000303
     7  C    4.775441   0.337667  -0.041270   0.006391   0.000929   0.004745
     8  C    0.337667   4.771882   0.537078  -0.008271  -0.033674  -0.007953
     9  C   -0.041270   0.537078   5.006676   0.520940  -0.038317  -0.041709
    10  C    0.006391  -0.008271   0.520940   4.861828   0.545476  -0.023786
    11  C    0.000929  -0.033674  -0.038317   0.545476   4.852129   0.543760
    12  C    0.004745  -0.007953  -0.041709  -0.023786   0.543760   4.874861
    13  C   -0.039642   0.478522  -0.084160  -0.042377  -0.036031   0.505248
    14  C    0.479579  -0.059271  -0.021811   0.000248   0.000014  -0.000240
    15  C   -0.000223   0.000001   0.000000   0.000000   0.000000   0.000000
    16  O    0.000583  -0.000005   0.000003   0.000000   0.000000   0.000000
    17  H    0.000271   0.000001   0.000000   0.000000   0.000000   0.000000
    18  H   -0.013473  -0.037130   0.352686  -0.043794   0.004609   0.000221
    19  H   -0.000211   0.003273  -0.038387   0.359294  -0.041925   0.004488
    20  H    0.000003   0.000538   0.004930  -0.042797   0.361030  -0.042704
    21  H   -0.000185   0.003165   0.000876   0.004509  -0.042206   0.360023
    22  H   -0.013432  -0.038530   0.005526   0.000268   0.004447  -0.043009
    23  H   -0.031538  -0.002602   0.000725   0.000075   0.000000   0.000000
    24  H    0.000001   0.000000   0.000000   0.000000   0.000000   0.000000
    25  H    0.000145  -0.000002   0.000000   0.000000   0.000000   0.000000
    26  H    0.000000   0.000000   0.000000   0.000000   0.000000   0.000000
              13         14         15         16         17         18
     1  O    0.000000  -0.000042  -0.057783  -0.041961   0.001083   0.000000
     2  S    0.000000  -0.000851   0.209100   0.422520  -0.004588  -0.000004
     3  N   -0.000001  -0.055600  -0.062663  -0.049375   0.288751   0.000000
     4  C   -0.000390   0.436970   0.001260  -0.006028  -0.025290   0.000070
     5  N    0.000167  -0.048728  -0.000006   0.000081   0.004249  -0.000004
     6  O   -0.006494  -0.092249   0.000007   0.000000  -0.000197   0.000030
     7  C   -0.039642   0.479579  -0.000223   0.000583   0.000271  -0.013473
     8  C    0.478522  -0.059271   0.000001  -0.000005   0.000001  -0.037130
     9  C   -0.084160  -0.021811   0.000000   0.000003   0.000000   0.352686
    10  C   -0.042377   0.000248   0.000000   0.000000   0.000000  -0.043794
    11  C   -0.036031   0.000014   0.000000   0.000000   0.000000   0.004609
    12  C    0.505248  -0.000240   0.000000   0.000000   0.000000   0.000221
    13  C    5.044197   0.012060   0.000000   0.000000   0.000000   0.005957
    14  C    0.012060   5.272704  -0.001726   0.000241   0.004931   0.006973
    15  C    0.000000  -0.001726   5.559307  -0.057803   0.000565   0.000000
    16  O    0.000000   0.000241  -0.057803   8.246540   0.001461  -0.000014
    17  H    0.000000   0.004931   0.000565   0.001461   0.357531   0.000000
    18  H    0.005957   0.006973   0.000000  -0.000014   0.000000   0.582579
    19  H    0.000871  -0.000001   0.000000   0.000000   0.000000  -0.005147
    20  H    0.004756   0.000000   0.000000   0.000000   0.000000  -0.000169
    21  H   -0.038139   0.000001   0.000000   0.000000   0.000000   0.000016
    22  H    0.360009   0.000218   0.000000   0.000000   0.000000  -0.000150
    23  H   -0.000072   0.348968   0.000198   0.009798  -0.000167   0.002247
    24  H    0.000000   0.000005   0.339912   0.001921  -0.000015   0.000000
    25  H    0.000000   0.002475   0.338694  -0.000479   0.000079   0.000000
    26  H    0.000000  -0.000030   0.357698  -0.000128  -0.000020   0.000000
              19         20         21         22         23         24
     1  O    0.000000   0.000000   0.000000   0.000000   0.000017   0.000198
     2  S    0.000000   0.000000   0.000000   0.000000   0.001124  -0.006907
     3  N    0.000000   0.000000   0.000000   0.000000  -0.001522   0.000172
     4  C    0.000000   0.000000   0.000000   0.000061  -0.025153   0.000313
     5  N    0.000000   0.000000   0.000000  -0.000239   0.004864   0.000037
     6  O    0.000000   0.000000  -0.000002   0.009849   0.003099   0.000000
     7  C   -0.000211   0.000003  -0.000185  -0.013432  -0.031538   0.000001
     8  C    0.003273   0.000538   0.003165  -0.038530  -0.002602   0.000000
     9  C   -0.038387   0.004930   0.000876   0.005526   0.000725   0.000000
    10  C    0.359294  -0.042797   0.004509   0.000268   0.000075   0.000000
    11  C   -0.041925   0.361030  -0.042206   0.004447   0.000000   0.000000
    12  C    0.004488  -0.042704   0.360023  -0.043009   0.000000   0.000000
    13  C    0.000871   0.004756  -0.038139   0.360009  -0.000072   0.000000
    14  C   -0.000001   0.000000   0.000001   0.000218   0.348968   0.000005
    15  C    0.000000   0.000000   0.000000   0.000000   0.000198   0.339912
    16  O    0.000000   0.000000   0.000000   0.000000   0.009798   0.001921
    17  H    0.000000   0.000000   0.000000   0.000000  -0.000167  -0.000015
    18  H   -0.005147  -0.000169   0.000016  -0.000150   0.002247   0.000000
    19  H    0.583078  -0.005434  -0.000177   0.000016  -0.000002   0.000000
    20  H   -0.005434   0.586733  -0.005416  -0.000158   0.000000   0.000000
    21  H   -0.000177  -0.005416   0.581682  -0.004891   0.000000   0.000000
    22  H    0.000016  -0.000158  -0.004891   0.556937  -0.000007   0.000000
    23  H   -0.000002   0.000000   0.000000  -0.000007   0.494037  -0.000006
    24  H    0.000000   0.000000   0.000000   0.000000  -0.000006   0.499199
    25  H    0.000000   0.000000   0.000000   0.000000  -0.000003  -0.023615
    26  H    0.000000   0.000000   0.000000   0.000000   0.000001  -0.019596
              25         26
     1  O    0.001777  -0.000440
     2  S   -0.007053  -0.013943
     3  N   -0.002033   0.002392
     4  C    0.002009   0.000004
     5  N    0.000168  -0.000003
     6  O   -0.000037   0.000000
     7  C    0.000145   0.000000
     8  C   -0.000002   0.000000
     9  C    0.000000   0.000000
    10  C    0.000000   0.000000
    11  C    0.000000   0.000000
    12  C    0.000000   0.000000
    13  C    0.000000   0.000000
    14  C    0.002475  -0.000030
    15  C    0.338694   0.357698
    16  O   -0.000479  -0.000128
    17  H    0.000079  -0.000020
    18  H    0.000000   0.000000
    19  H    0.000000   0.000000
    20  H    0.000000   0.000000
    21  H    0.000000   0.000000
    22  H    0.000000   0.000000
    23  H   -0.000003   0.000001
    24  H   -0.023615  -0.019596
    25  H    0.495328  -0.021145
    26  H   -0.021145   0.469051
 Mulliken charges:
               1
     1  O   -0.510169
     2  S    1.182993
     3  N   -0.766091
     4  C    0.483804
     5  N   -0.239492
     6  O   -0.401144
     7  C    0.385920
     8  C    0.084506
     9  C   -0.167463
    10  C   -0.137938
    11  C   -0.120243
    12  C   -0.134252
    13  C   -0.164482
    14  C   -0.284838
    15  C   -0.626540
    16  O   -0.527352
    17  H    0.371355
    18  H    0.144495
    19  H    0.140265
    20  H    0.138688
    21  H    0.140743
    22  H    0.163086
    23  H    0.195920
    24  H    0.208379
    25  H    0.213692
    26  H    0.226160
 Sum of Mulliken charges =   0.00000
 Mulliken charges with hydrogens summed into heavy atoms:
               1
     1  O   -0.510169
     2  S    1.182993
     3  N   -0.394736
     4  C    0.483804
     5  N   -0.239492
     6  O   -0.401144
     7  C    0.385920
     8  C    0.084506
     9  C   -0.022968
    10  C    0.002327
    11  C    0.018445
    12  C    0.006491
    13  C   -0.001396
    14  C   -0.088918
    15  C    0.021691
    16  O   -0.527352
 Electronic spatial extent (au):  <R**2>=           5402.4492
 Charge=              0.0000 electrons
 Dipole moment (field-independent basis, Debye):
    X=              2.7114    Y=             -0.4657    Z=              3.3118  Tot=              4.3054
 Quadrupole moment (field-independent basis, Debye-Ang):
   XX=            -93.9881   YY=           -100.2028   ZZ=            -97.8005
   XY=             -7.8579   XZ=            -11.8264   YZ=             -1.8529
 Traceless Quadrupole moment (field-independent basis, Debye-Ang):
   XX=              3.3424   YY=             -2.8723   ZZ=             -0.4700
   XY=             -7.8579   XZ=            -11.8264   YZ=             -1.8529
 Octapole moment (field-independent basis, Debye-Ang**2):
  XXX=            103.8670  YYY=            -12.5043  ZZZ=              6.3121  XYY=              1.4965
  XXY=             17.0147  XXZ=             54.1687  XZZ=            -35.5135  YZZ=              0.0402
  YYZ=              0.5358  XYZ=             13.0134
 Hexadecapole moment (field-independent basis, Debye-Ang**3):
 XXXX=          -5877.8211 YYYY=           -850.1721 ZZZZ=           -282.3131 XXXY=            -59.1350
 XXXZ=           -141.9252 YYYX=            -23.3408 YYYZ=             -0.8791 ZZZX=            -20.7553
 ZZZY=             -2.5992 XXYY=          -1032.0397 XXZZ=          -1053.1620 YYZZ=           -186.6165
 XXYZ=            -18.3895 YYXZ=             -8.0196 ZZXY=             21.4877
 N-N= 1.180727488027D+03 E-N=-4.988260332322D+03  KE= 1.112228372345D+03
 No NMR shielding tensors so no spin-rotation constants.
 Leave Link  601 at Thu Aug  6 22:07:19 2020, MaxMem=    33554432 cpu:         0.2
 (Enter /prod/apps/gaussian/g09d1/l9999.exe)
 1\1\GINC-PIRINEUS9\SP\RB3LYP\6-31G(d)\C10H10N2O3S1\UBAFAR01\06-Aug-202
 0\0\\#p b3lyp/6-31G(d)\\SM41.n.7.pdb.xyz\\0,1\O,0,4.264,-0.925,0.329\S
 ,0,3.769,0.393,-0.063\N,0,3.33,1.137,1.392\C,0,2.77,2.416,1.445\N,0,3.
 071,3.203,2.46\O,0,2.297,4.353,2.256\C,0,1.578,4.223,1.115\C,0,0.715,5
 .336,0.735\C,0,-0.048,5.264,-0.441\C,0,-0.872,6.324,-0.806\C,0,-0.945,
 7.465,-0.004\C,0,-0.188,7.542,1.167\C,0,0.639,6.485,1.537\C,0,1.834,3.
 002,0.553\C,0,5.136,1.358,-0.717\O,0,2.632,0.54,-0.972\H,0,3.956,0.907
 ,2.161\H,0,0.006,4.379,-1.065\H,0,-1.459,6.26,-1.716\H,0,-1.588,8.29,-
 0.29\H,0,-0.241,8.426,1.792\H,0,1.228,6.538,2.444\H,0,1.43,2.56,-0.342
 \H,0,5.97,1.31,-0.018\H,0,4.806,2.386,-0.863\H,0,5.415,0.913,-1.673\\V
 ersion=AM64L-G09RevD.01\State=1-A\HF=-1120.3384633\RMSD=9.601e-09\Dipo
 le=0.321192,1.5398365,-0.6284902\Quadrupole=9.1950318,-8.1592023,-1.03
 58294,-5.9384902,-0.865525,-2.5798113\PG=C01 [X(C10H10N2O3S1)]\\@


 I MET A TRAVELLER FROM AN ANTIQUE LAND
 WHO SAID... TWO VAST AND TRUNKLESS LEGS OF STONE
 STAND IN THE DESERT..... NEAR THEM,  ON THE SAND,
 HALF SUNK,  A SHATTERED VISAGE LIES,  WHOSE FROWN,
 AND WRINKLED LIP,  AND SNEER OF COLD COMMAND
 TELL THAT ITS SCULPTOR WELL THOSE PASSIONS READ
 WHICH YET SURVIVE,  STAMPED ON THESE LIFELESS THINGS
 THE HAND THAT MOCKED THEM,  AND THE HEART THAT FED-
 AND ON THE PEDESTAL THESE WORDS APPEAR 
 MY NAME IS OZYMANDIAS, KING OF KINGS--   
 LOOK ON MY WORKS YE MIGHTY AND DESPAIR. 
 NOTHING BESIDE REMAINS,  ROUND THE DECAY 
 OF THAT COLOSSAL WRECK,  BOUNDLESS AND BARE
 THE LONE AND LEVEL SANDS STRETCH FAR AWAY.
                                    SHELLEY
 Job cpu time:       0 days  0 hours  2 minutes 34.4 seconds.
 File lengths (MBytes):  RWF=     40 Int=      0 D2E=      0 Chk=      4 Scr=      1
 Normal termination of Gaussian 09 at Thu Aug  6 22:07:19 2020.
 Initial command:
 /prod/apps/gaussian/g09d1/l1.exe "/tmp/ubafar01/1448640/Gau-124940.inp" -scrdir="/tmp/ubafar01/1448640/"
 Entering Link 1 = /prod/apps/gaussian/g09d1/l1.exe PID=    125594.
  
 Copyright (c) 1988,1990,1992,1993,1995,1998,2003,2009,2013,
            Gaussian, Inc.  All Rights Reserved.
  
 This is part of the Gaussian(R) 09 program.  It is based on
 the Gaussian(R) 03 system (copyright 2003, Gaussian, Inc.),
 the Gaussian(R) 98 system (copyright 1998, Gaussian, Inc.),
 the Gaussian(R) 94 system (copyright 1995, Gaussian, Inc.),
 the Gaussian 92(TM) system (copyright 1992, Gaussian, Inc.),
 the Gaussian 90(TM) system (copyright 1990, Gaussian, Inc.),
 the Gaussian 88(TM) system (copyright 1988, Gaussian, Inc.),
 the Gaussian 86(TM) system (copyright 1986, Carnegie Mellon
 University), and the Gaussian 82(TM) system (copyright 1983,
 Carnegie Mellon University). Gaussian is a federally registered
 trademark of Gaussian, Inc.
  
 This software contains proprietary and confidential information,
 including trade secrets, belonging to Gaussian, Inc.
  
 This software is provided under written license and may be
 used, copied, transmitted, or stored only in accord with that
 written license.
  
 The following legend is applicable only to US Government
 contracts under FAR:
  
                    RESTRICTED RIGHTS LEGEND
  
 Use, reproduction and disclosure by the US Government is
 subject to restrictions as set forth in subparagraphs (a)
 and (c) of the Commercial Computer Software - Restricted
 Rights clause in FAR 52.227-19.
  
 Gaussian, Inc.
 340 Quinnipiac St., Bldg. 40, Wallingford CT 06492
  
  
 ---------------------------------------------------------------
 Warning -- This program may not be used in any manner that
 competes with the business of Gaussian, Inc. or will provide
 assistance to any competitor of Gaussian, Inc.  The licensee
 of this program is prohibited from giving any competitor of
 Gaussian, Inc. access to this program.  By using this program,
 the user acknowledges that Gaussian, Inc. is engaged in the
 business of creating and licensing software in the field of
 computational chemistry and represents and warrants to the
 licensee that it is not a competitor of Gaussian, Inc. and that
 it will not use this program in any manner prohibited above.
 ---------------------------------------------------------------
  

 Cite this work as:
 Gaussian 09, Revision D.01,
 M. J. Frisch, G. W. Trucks, H. B. Schlegel, G. E. Scuseria, 
 M. A. Robb, J. R. Cheeseman, G. Scalmani, V. Barone, B. Mennucci, 
 G. A. Petersson, H. Nakatsuji, M. Caricato, X. Li, H. P. Hratchian, 
 A. F. Izmaylov, J. Bloino, G. Zheng, J. L. Sonnenberg, M. Hada, 
 M. Ehara, K. Toyota, R. Fukuda, J. Hasegawa, M. Ishida, T. Nakajima, 
 Y. Honda, O. Kitao, H. Nakai, T. Vreven, J. A. Montgomery, Jr., 
 J. E. Peralta, F. Ogliaro, M. Bearpark, J. J. Heyd, E. Brothers, 
 K. N. Kudin, V. N. Staroverov, T. Keith, R. Kobayashi, J. Normand, 
 K. Raghavachari, A. Rendell, J. C. Burant, S. S. Iyengar, J. Tomasi, 
 M. Cossi, N. Rega, J. M. Millam, M. Klene, J. E. Knox, J. B. Cross, 
 V. Bakken, C. Adamo, J. Jaramillo, R. Gomperts, R. E. Stratmann, 
 O. Yazyev, A. J. Austin, R. Cammi, C. Pomelli, J. W. Ochterski, 
 R. L. Martin, K. Morokuma, V. G. Zakrzewski, G. A. Voth, 
 P. Salvador, J. J. Dannenberg, S. Dapprich, A. D. Daniels, 
 O. Farkas, J. B. Foresman, J. V. Ortiz, J. Cioslowski, 
 and D. J. Fox, Gaussian, Inc., Wallingford CT, 2013.
 
 ******************************************
 Gaussian 09:  AM64L-G09RevD.01 24-Apr-2013
                 6-Aug-2020 
 ******************************************
 %nproc=1
 Will use up to    1 processors via shared memory.
 %Chk=SM41.n.7.pdb.xyz.mst.n.o.chk
 %subst l301 /dades/curu/work_g09D01_MST_AddSphPartition_ReadGammas/exe-dir/
 %subst l502 /dades/curu/work_g09D01_MST_AddSphPartition_ReadGammas/exe-dir/
 ----------------------------------------------------------------------
 #p b3lyp/6-31G(d) scrf=(iefpcm,read,solvent=n-Octanol) geom=allcheck g
 uess=read
 ----------------------------------------------------------------------
 1/29=7,38=1,40=2/1;
 2/12=2,40=1/2;
 3/5=1,6=6,7=1,11=2,14=-4,16=1,25=1,30=1,70=2203,72=25,74=-5,116=-2/1,2,3;
 4/5=1/1;
 5/5=2,38=6,53=25/2;
 6/7=2,8=2,9=2,10=2,28=1/1;
 99/5=1,9=1/99;
 Leave Link    1 at Thu Aug  6 22:07:19 2020, MaxMem=           0 cpu:         0.0
 (Enter /prod/apps/gaussian/g09d1/l101.exe)
 Structure from the checkpoint file:  "SM41.n.7.pdb.xyz.mst.n.o.chk"
 ----------------
 SM41.n.7.pdb.xyz
 ----------------
 Charge =  0 Multiplicity = 1
 Z-Matrix found in file.
 O,0,4.264,-0.925,0.329
 S,0,3.769,0.393,-0.063
 N,0,3.33,1.137,1.392
 C,0,2.77,2.416,1.445
 N,0,3.071,3.203,2.46
 O,0,2.297,4.353,2.256
 C,0,1.578,4.223,1.115
 C,0,0.715,5.336,0.735
 C,0,-0.048,5.264,-0.441
 C,0,-0.872,6.324,-0.806
 C,0,-0.945,7.465,-0.004
 C,0,-0.188,7.542,1.167
 C,0,0.639,6.485,1.537
 C,0,1.834,3.002,0.553
 C,0,5.136,1.358,-0.717
 O,0,2.632,0.54,-0.972
 H,0,3.956,0.907,2.161
 H,0,0.006,4.379,-1.065
 H,0,-1.459,6.26,-1.716
 H,0,-1.588,8.29,-0.29
 H,0,-0.241,8.426,1.792
 H,0,1.228,6.538,2.444
 H,0,1.43,2.56,-0.342
 H,0,5.97,1.31,-0.018
 H,0,4.806,2.386,-0.863
 H,0,5.415,0.913,-1.673
 Recover connectivity data from disk.
 NAtoms=     26 NQM=       26 NQMF=       0 NMMI=      0 NMMIF=      0
                NMic=       0 NMicF=      0.
                    Isotopes and Nuclear Properties:
 (Nuclear quadrupole moments (NQMom) in fm**2, nuclear magnetic moments (NMagM)
  in nuclear magnetons)

  Atom         1           2           3           4           5           6           7           8           9          10
 IAtWgt=          16          32          14          12          14          16          12          12          12          12
 AtmWgt=  15.9949146  31.9720718  14.0030740  12.0000000  14.0030740  15.9949146  12.0000000  12.0000000  12.0000000  12.0000000
 NucSpn=           0           0           2           0           2           0           0           0           0           0
 AtZEff=  -5.6000000 -13.6000000  -4.5500000  -3.6000000  -4.5500000  -5.6000000  -3.6000000  -3.6000000  -3.6000000  -3.6000000
 NQMom=    0.0000000   0.0000000   2.0440000   0.0000000   2.0440000   0.0000000   0.0000000   0.0000000   0.0000000   0.0000000
 NMagM=    0.0000000   0.0000000   0.4037610   0.0000000   0.4037610   0.0000000   0.0000000   0.0000000   0.0000000   0.0000000
 AtZNuc=   8.0000000  16.0000000   7.0000000   6.0000000   7.0000000   8.0000000   6.0000000   6.0000000   6.0000000   6.0000000

  Atom        11          12          13          14          15          16          17          18          19          20
 IAtWgt=          12          12          12          12          12          16           1           1           1           1
 AtmWgt=  12.0000000  12.0000000  12.0000000  12.0000000  12.0000000  15.9949146   1.0078250   1.0078250   1.0078250   1.0078250
 NucSpn=           0           0           0           0           0           0           1           1           1           1
 AtZEff=  -3.6000000  -3.6000000  -3.6000000  -3.6000000  -3.6000000  -5.6000000  -1.0000000  -1.0000000  -1.0000000  -1.0000000
 NQMom=    0.0000000   0.0000000   0.0000000   0.0000000   0.0000000   0.0000000   0.0000000   0.0000000   0.0000000   0.0000000
 NMagM=    0.0000000   0.0000000   0.0000000   0.0000000   0.0000000   0.0000000   2.7928460   2.7928460   2.7928460   2.7928460
 AtZNuc=   6.0000000   6.0000000   6.0000000   6.0000000   6.0000000   8.0000000   1.0000000   1.0000000   1.0000000   1.0000000

  Atom        21          22          23          24          25          26
 IAtWgt=           1           1           1           1           1           1
 AtmWgt=   1.0078250   1.0078250   1.0078250   1.0078250   1.0078250   1.0078250
 NucSpn=           1           1           1           1           1           1
 AtZEff=  -1.0000000  -1.0000000  -1.0000000  -1.0000000  -1.0000000  -1.0000000
 NQMom=    0.0000000   0.0000000   0.0000000   0.0000000   0.0000000   0.0000000
 NMagM=    2.7928460   2.7928460   2.7928460   2.7928460   2.7928460   2.7928460
 AtZNuc=   1.0000000   1.0000000   1.0000000   1.0000000   1.0000000   1.0000000
 Leave Link  101 at Thu Aug  6 22:07:19 2020, MaxMem=    33554432 cpu:         0.0
 (Enter /prod/apps/gaussian/g09d1/l202.exe)
                          Input orientation:                          
 ---------------------------------------------------------------------
 Center     Atomic      Atomic             Coordinates (Angstroms)
 Number     Number       Type             X           Y           Z
 ---------------------------------------------------------------------
      1          8           0        4.264000   -0.925000    0.329000
      2         16           0        3.769000    0.393000   -0.063000
      3          7           0        3.330000    1.137000    1.392000
      4          6           0        2.770000    2.416000    1.445000
      5          7           0        3.071000    3.203000    2.460000
      6          8           0        2.297000    4.353000    2.256000
      7          6           0        1.578000    4.223000    1.115000
      8          6           0        0.715000    5.336000    0.735000
      9          6           0       -0.048000    5.264000   -0.441000
     10          6           0       -0.872000    6.324000   -0.806000
     11          6           0       -0.945000    7.465000   -0.004000
     12          6           0       -0.188000    7.542000    1.167000
     13          6           0        0.639000    6.485000    1.537000
     14          6           0        1.834000    3.002000    0.553000
     15          6           0        5.136000    1.358000   -0.717000
     16          8           0        2.632000    0.540000   -0.972000
     17          1           0        3.956000    0.907000    2.161000
     18          1           0        0.006000    4.379000   -1.065000
     19          1           0       -1.459000    6.260000   -1.716000
     20          1           0       -1.588000    8.290000   -0.290000
     21          1           0       -0.241000    8.426000    1.792000
     22          1           0        1.228000    6.538000    2.444000
     23          1           0        1.430000    2.560000   -0.342000
     24          1           0        5.970000    1.310000   -0.018000
     25          1           0        4.806000    2.386000   -0.863000
     26          1           0        5.415000    0.913000   -1.673000
 ---------------------------------------------------------------------
                    Distance matrix (angstroms):
                    1          2          3          4          5
     1  O    0.000000
     2  S    1.461442   0.000000
     3  N    2.500834   1.692124   0.000000
     4  C    3.826196   2.713779   1.397229   0.000000
     5  N    4.796331   3.840421   2.340099   1.319165   0.000000
     6  O    5.953125   4.819351   3.486580   2.152538   1.401140
     7  C    5.859547   4.566954   3.559442   2.189752   2.253547
     8  C    7.208353   5.864893   4.990138   3.640539   3.616082
     9  C    7.582214   6.199920   5.639406   4.428230   4.731985
    10  C    8.956267   7.567542   7.028014   5.796864   5.996219
    11  C    9.881127   8.499321   7.763248   6.433757   6.353282
    12  C    9.602741   8.263108   7.311017   5.924772   5.578517
    13  C    8.337145   7.033446   5.988623   4.594169   4.187849
    14  C    4.623462   3.306140   2.533804   1.419562   2.281933
    15  C    2.658306   1.796561   2.785383   3.375139   4.214449
    16  O    2.549951   1.463099   2.536160   3.062729   4.366110
    17  H    2.609083   2.290271   1.017908   2.048495   2.478758
    18  H    6.943070   5.572465   5.253227   4.218195   4.816931
    19  H    9.410578   8.030323   7.670679   6.530903   6.877872
    20  H   10.933677   9.545239   8.842017   7.517065   7.426059
    21  H   10.482204   9.167890   8.126596   6.731020   6.220554
    22  H    8.329879   7.106529   5.890323   4.512942   3.810398
    23  H    4.541698   3.200727   2.939674   2.238237   3.310217
    24  H    2.833032   2.384809   2.997937   3.688307   4.257715
    25  H    3.560527   2.384831   2.970455   3.077834   3.836671
    26  H    2.951449   2.360469   3.713708   4.356255   5.274479
                    6          7          8          9         10
     6  O    0.000000
     7  C    1.354896   0.000000
     8  C    2.404673   1.458745   0.000000
     9  C    3.688191   2.479656   1.403684   0.000000
    10  C    4.827344   3.755921   2.422683   1.391331   0.000000
    11  C    5.030180   4.257729   2.798993   2.416605   1.396572
    12  C    4.186988   3.759950   2.422492   2.791872   2.417459
    13  C    2.794879   2.485246   1.403275   2.423901   2.792614
    14  C    2.222561   1.368291   2.594772   3.105898   4.494997
    15  C    5.086126   4.921769   6.121930   6.496681   7.795200
    16  O    5.007113   4.362450   5.439702   5.457155   6.764631
    17  H    3.825732   4.212464   5.670414   6.464199   7.839424
    18  H    4.034650   2.692196   2.158363   1.084213   2.149649
    19  H    5.789730   4.624640   3.404035   2.146756   1.084788
    20  H    6.088950   5.342104   3.883368   3.398688   2.155010
    21  H    4.821418   4.629503   3.402835   3.875794   3.400907
    22  H    2.439740   2.692205   2.151431   3.402128   3.875345
    23  H    3.273552   2.215925   3.062243   3.083164   4.436462
    24  H    5.284113   5.390633   6.662635   7.213139   8.519044
    25  H    4.460082   4.207973   5.290783   5.658824   6.910194
    26  H    6.082151   5.783737   6.888497   7.091784   8.340083
                   11         12         13         14         15
    11  C    0.000000
    12  C    1.396502   0.000000
    13  C    2.417465   1.392149   0.000000
    14  C    5.286914   5.007702   3.811505   0.000000
    15  C    8.647681   8.374741   7.182594   3.901133   0.000000
    16  O    7.854144   7.845746   6.753529   3.003976   2.646538
    17  H    8.468435   7.885683   6.519659   3.387857   3.143038
    18  H    3.399047   3.876084   3.406806   2.802791   5.963593
    19  H    2.155728   3.401566   3.877401   5.158175   8.277779
    20  H    1.084375   2.154612   3.399336   6.354815   9.666806
    21  H    2.155169   1.083923   2.146370   5.938057   9.228425
    22  H    3.402053   2.154948   1.082765   4.055418   7.217810
    23  H    5.460210   5.451177   4.422889   1.076850   3.914060
    24  H    9.257508   8.840985   7.590666   4.505042   1.089248
    25  H    7.720630   7.459576   6.318678   3.349223   1.089495
    26  H    9.282449   9.132516   8.010085   4.705588   1.090780
                   16         17         18         19         20
    16  O    0.000000
    17  H    3.421017   0.000000
    18  H    4.652144   6.169632   0.000000
    19  H    7.071649   8.544470   2.471475   0.000000
    20  H    8.850764   9.552593   4.293877   2.484153   0.000000
    21  H    8.836448   8.618952   4.960007   4.298970   2.483471
    22  H    7.043882   6.263404   4.297400   4.960126   4.298153
    23  H    2.433537   3.921491   2.420592   4.891237   6.476413
    24  H    3.556017   2.994436   6.788539   9.087120  10.291635
    25  H    2.854098   3.471962   5.201236   7.415235   8.721742
    26  H    2.894066   4.102228   6.452914   8.708854  10.265224
                   21         22         23         24         25
    21  H    0.000000
    22  H    2.479437   0.000000
    23  H    6.461900   4.860770   0.000000
    24  H    9.617176   7.475292   4.720072   0.000000
    25  H    8.306794   6.401362   3.420394   1.796301   0.000000
    26  H   10.022062   8.131499   4.512693   1.790156   1.787935
                   26
    26  H    0.000000
 Stoichiometry    C10H10N2O3S
 Framework group  C1[X(C10H10N2O3S)]
 Deg. of freedom    72
 Full point group                 C1      NOp   1
 RotChk:  IX=0 Diff= 1.19D-15
 Largest Abelian subgroup         C1      NOp   1
 Largest concise Abelian subgroup C1      NOp   1
                         Standard orientation:                         
 ---------------------------------------------------------------------
 Center     Atomic      Atomic             Coordinates (Angstroms)
 Number     Number       Type             X           Y           Z
 ---------------------------------------------------------------------
      1          8           0       -4.697603   -0.176772   -0.518141
      2         16           0       -3.349779   -0.476227   -0.039067
      3          7           0       -2.409877    0.832732   -0.555295
      4          6           0       -1.034354    0.910497   -0.322614
      5          7           0       -0.492796    2.089767   -0.085481
      6          8           0        0.880353    1.832138    0.020741
      7          6           0        1.109357    0.505707   -0.133782
      8          6           0        2.491610    0.048286   -0.043880
      9          6           0        2.791286   -1.315553   -0.186942
     10          6           0        4.108711   -1.754777   -0.101663
     11          6           0        5.140102   -0.841093    0.125992
     12          6           0        4.847635    0.516914    0.269174
     13          6           0        3.531308    0.962334    0.185740
     14          6           0       -0.076961   -0.136894   -0.361673
     15          6           0       -3.341614   -0.410972    1.756289
     16          8           0       -2.646445   -1.690327   -0.453723
     17          1           0       -2.906396    1.720294   -0.512405
     18          1           0        1.992651   -2.026957   -0.364716
     19          1           0        4.331827   -2.810394   -0.214168
     20          1           0        6.166284   -1.185303    0.191868
     21          1           0        5.644940    1.229412    0.446773
     22          1           0        3.297786    2.013941    0.295141
     23          1           0       -0.268414   -1.181131   -0.542006
     24          1           0       -3.806090    0.519877    2.079157
     25          1           0       -2.312814   -0.478102    2.108517
     26          1           0       -3.917528   -1.266515    2.111496
 ---------------------------------------------------------------------
 Rotational constants (GHZ):      1.3745522      0.2089766      0.1907515
 Leave Link  202 at Thu Aug  6 22:07:19 2020, MaxMem=    33554432 cpu:         0.0
 (Enter /dades/curu/work_g09D01_MST_AddSphPartition_ReadGammas/exe-dir/l301.exe)
 Standard basis: 6-31G(d) (6D, 7F)
 Ernie: Thresh=  0.10000D-02 Tol=  0.10000D-05 Strict=F.
 There are   264 symmetry adapted cartesian basis functions of A   symmetry.
 There are   264 symmetry adapted basis functions of A   symmetry.
   264 basis functions,   512 primitive gaussians,   264 cartesian basis functions
    62 alpha electrons       62 beta electrons
       nuclear repulsion energy      1180.7274880273 Hartrees.
 IExCor=  402 DFT=T Ex+Corr=B3LYP ExCW=0 ScaHFX=  0.200000
 ScaDFX=  0.800000  0.720000  1.000000  0.810000 ScalE2=  1.000000  1.000000
 IRadAn=      0 IRanWt=     -1 IRanGd=            0 ICorTp=0 IEmpDi=  4
 NAtoms=   26 NActive=   26 NUniq=   26 SFac= 1.00D+00 NAtFMM=   60 NAOKFM=F Big=F
 Integral buffers will be    131072 words long.
 Raffenetti 2 integral format.
 Two-electron integral symmetry is turned on.
 Using the following non-standard input for PCM:
 MSTModel=DFT cav g03defaults OFac=0.8 Rmin=0.3
 Warning! Using old PCM defaults because the g03defaults keyword was found.
 These settings can be overridden by following keywords.
 --- end of non-standard input.
 MST model for solvation energy: B3LYP parametrization.
 MST cavity parameters:
 ISph   IAn     Re0     Alpha   Atom Type   QCorr
 ------------------------------------------------
   1      8     1.40     1.50      O          F
   2     16     1.75     1.50      S          F
   3      7     1.50     1.50      NH         F
   4      6     1.50     1.50      C          F
   5      7     1.50     1.50      N          F
   6      8     1.40     1.50      O          F
   7      6     1.50     1.50      C          F
   8      6     1.50     1.50      C          F
   9      6     1.50     1.50      CH         F
  10      6     1.50     1.50      CH         F
  11      6     1.50     1.50      CH         F
  12      6     1.50     1.50      CH         F
  13      6     1.50     1.50      CH         F
  14      6     1.50     1.50      CH         F
  15      6     1.50     1.50      CH3        F
  16      8     1.40     1.50      O          F
  17      1     0.90     1.50      NH         F
  18      1     1.20     1.50      CH         F
  19      1     1.20     1.50      CH         F
  20      1     1.20     1.50      CH         F
  21      1     1.20     1.50      CH         F
  22      1     1.20     1.50      CH         F
  23      1     1.20     1.50      CH         F
  24      1     1.20     1.50      CH3        F
  25      1     1.20     1.50      CH3        F
  26      1     1.20     1.50      CH3        F
 ------------------------------------------------------------------------------
 Polarizable Continuum Model (PCM)
 =================================
 Model                : PCM (using non-symmetric T matrix).
 Atomic radii         : MST.
 Polarization charges : Total charges.
 Charge compensation  : None.
 Solution method      : On-the-fly selection.
 Cavity type          : Scaled SES (Solvent Excluding Surface) (Alpha=1.500).
 Cavity algorithm     : GePol (RMin=0.300 OFac=0.800).
                        Default sphere list used, NSphG=   26.
                        Tesserae with average area of 0.200 Ang**2.
                        Smoothing algorithm: None.
                        Polarization charges: point-like.
                        Self-potential: constant (ISelfS= 1).
                        Self-field    : global E.n sum rule (ISelfD= 3).
 Solvent              : n-Octanol, Eps=   9.862900 Eps(inf)=   2.043470
                        RSolv=   3.420000 Ang.
 ------------------------------------------------------------------------------
 GePol: Number of generator spheres                  =      26
 GePol: Total number of spheres                      =      38
 GePol: Number of exposed spheres                    =      37 ( 97.37%)
 GePol: Number of tesserae                           =    2271
 GePol: Average area of tesserae                     =       0.14 Ang**2
 GePol: Minimum area of tessera                      =   0.10D-02 Ang**2
 GePol: Maximum area of tessera                      =    0.31543 Ang**2
 GePol: Number of small tesserae                     =      18
 GePol: Fraction of small tesserae (<1% of avg)      =       0.79%
 GePol: Total count of vertices                      =    7731
 GePol: Maximum number of vertices in a tessera      =       7
 GePol: Cavity surface area                          =    309.199 Ang**2
 GePol: Cavity volume                                =    362.110 Ang**3
 Surface areas from nonelectrostatic (unscaled) cavity:
 Sphere =    1 Type = O    Surf =       15.424
 Sphere =    2 Type = S    Surf =        9.670
 Sphere =    3 Type = NH   Surf =        9.599
 Sphere =    4 Type = C    Surf =        5.772
 Sphere =    5 Type = N    Surf =       14.200
 Sphere =    6 Type = O    Surf =       10.261
 Sphere =    7 Type = C    Surf =        6.872
 Sphere =    8 Type = C    Surf =        6.141
 Sphere =    9 Type = CH   Surf =        7.700
 Sphere =   10 Type = CH   Surf =        7.712
 Sphere =   11 Type = CH   Surf =        7.746
 Sphere =   12 Type = CH   Surf =        7.719
 Sphere =   13 Type = CH   Surf =        7.641
 Sphere =   14 Type = CH   Surf =        8.417
 Sphere =   15 Type = CH3  Surf =        4.467
 Sphere =   16 Type = O    Surf =       14.764
 Sphere =   17 Type = NH   Surf =        3.968
 Sphere =   18 Type = CH   Surf =       10.319
 Sphere =   19 Type = CH   Surf =       10.322
 Sphere =   20 Type = CH   Surf =       10.318
 Sphere =   21 Type = CH   Surf =       10.317
 Sphere =   22 Type = CH   Surf =        9.715
 Sphere =   23 Type = CH   Surf =        9.554
 Sphere =   24 Type = CH3  Surf =       10.200
 Sphere =   25 Type = CH3  Surf =       10.200
 Sphere =   26 Type = CH3  Surf =       10.144
 PCM non-electrostatic energy =        -0.0110459723 Hartrees.
 Nuclear repulsion after PCM non-electrostatic terms =     1180.7164420551 Hartrees.
 Leave Link  301 at Thu Aug  6 22:07:19 2020, MaxMem=    33554432 cpu:         0.1
 (Enter /prod/apps/gaussian/g09d1/l302.exe)
 NPDir=0 NMtPBC=     1 NCelOv=     1 NCel=       1 NClECP=     1 NCelD=      1
         NCelK=      1 NCelE2=     1 NClLst=     1 CellRange=     0.0.
 One-electron integrals computed using PRISM.
 NBasis=   264 RedAO= T EigKep=  4.56D-04  NBF=   264
 NBsUse=   264 1.00D-06 EigRej= -1.00D+00 NBFU=   264
 Precomputing XC quadrature grid using
 IXCGrd= 4 IRadAn=           0 IRanWt=          -1 IRanGd=           0 AccXCQ= 0.00D+00.
 Generated NRdTot=       0 NPtTot=           0 NUsed=           0 NTot=          32
 NSgBfM=   263   263   263   263   263 MxSgAt=    26 MxSgA2=    26.
 Leave Link  302 at Thu Aug  6 22:07:20 2020, MaxMem=    33554432 cpu:         0.7
 (Enter /prod/apps/gaussian/g09d1/l303.exe)
 DipDrv:  MaxL=1.
 Leave Link  303 at Thu Aug  6 22:07:20 2020, MaxMem=    33554432 cpu:         0.0
 (Enter /prod/apps/gaussian/g09d1/l401.exe)
 Initial guess from the checkpoint file:  "SM41.n.7.pdb.xyz.mst.n.o.chk"
 B after Tr=     0.000000    0.000000    0.000000
         Rot=    1.000000    0.000000    0.000000    0.000000 Ang=   0.00 deg.
 Guess basis will be translated and rotated to current coordinates.
 JPrj=2 DoOrth=T DoCkMO=T.
 Leave Link  401 at Thu Aug  6 22:07:20 2020, MaxMem=    33554432 cpu:         0.2
 (Enter /dades/curu/work_g09D01_MST_AddSphPartition_ReadGammas/exe-dir/l502.exe)
 Closed shell SCF:
 Using DIIS extrapolation, IDIIS=  1040.
 Integral symmetry usage will be decided dynamically.
 IVT=      231207 IEndB=      231207 NGot=    33554432 MDV=    33409826
 LenX=    33409826 LenY=    33339689
 Requested convergence on RMS density matrix=1.00D-08 within 128 cycles.
 Requested convergence on MAX density matrix=1.00D-06.
 Requested convergence on             energy=1.00D-06.
 No special actions if energy rises.
 Fock matrices will be formed incrementally for  20 cycles.

 Cycle   1  Pass 1  IDiag  1:
 FoFJK:  IHMeth= 1 ICntrl=       0 DoSepK=F KAlg= 0 I1Cent=   0 FoldK=F
 IRaf= 760000000 NMat=   1 IRICut=       1 DoRegI=T DoRafI=F ISym2E= 0.
 FoFCou: FMM=F IPFlag=           0 FMFlag=      100000 FMFlg1=           0
         NFxFlg=           0 DoJE=F BraDBF=F KetDBF=F FulRan=T
         wScrn=  0.000000 ICntrl=       0 IOpCl=  0 I1Cent=           0 NGrid=           0
         NMat0=    1 NMatS0=      1 NMatT0=    0 NMatD0=    1 NMtDS0=    0 NMtDT0=    0
 Symmetry not used in FoFCou.
 Inv3:  Mode=1 IEnd=    15472323.
 Iteration    1 A*A^-1 deviation from unit magnitude is 6.66D-15 for   2246.
 Iteration    1 A*A^-1 deviation from orthogonality  is 8.32D-15 for    680    461.
 Iteration    1 A^-1*A deviation from unit magnitude is 6.44D-15 for   2268.
 Iteration    1 A^-1*A deviation from orthogonality  is 2.38D-15 for   2266   2254.
 E= -1120.35900739082    
 DIIS: error= 1.70D-03 at cycle   1 NSaved=   1.
[...]
   23      H23      5.92  -0.017   -0.07
   24      H24     14.38  -0.054   -0.47
   25      H25      8.77  -0.031   -0.29
   26      H26     15.16  -0.056   -0.35
 Added spheres:    23.23  -0.010    0.00
 --------------------------------------------------------------------
 After PCM corrections, the energy is  -1120.35989444     a.u.
 --------------------------------------------------------------------
 Leave Link  502 at Thu Aug  6 22:09:14 2020, MaxMem=    33554432 cpu:       113.4
 (Enter /prod/apps/gaussian/g09d1/l601.exe)
 Copying SCF densities to generalized density rwf, IOpCl= 0 IROHF=0.

 **********************************************************************

            Population analysis using the SCF density.

 **********************************************************************

 Orbital symmetries:
       Occupied  (A) (A) (A) (A) (A) (A) (A) (A) (A) (A) (A) (A)
                 (A) (A) (A) (A) (A) (A) (A) (A) (A) (A) (A) (A)
                 (A) (A) (A) (A) (A) (A) (A) (A) (A) (A) (A) (A)
                 (A) (A) (A) (A) (A) (A) (A) (A) (A) (A) (A) (A)
                 (A) (A) (A) (A) (A) (A) (A) (A) (A) (A) (A) (A)
                 (A) (A)
       Virtual   (A) (A) (A) (A) (A) (A) (A) (A) (A) (A) (A) (A)
                 (A) (A) (A) (A) (A) (A) (A) (A) (A) (A) (A) (A)
                 (A) (A) (A) (A) (A) (A) (A) (A) (A) (A) (A) (A)
                 (A) (A) (A) (A) (A) (A) (A) (A) (A) (A) (A) (A)
                 (A) (A) (A) (A) (A) (A) (A) (A) (A) (A) (A) (A)
                 (A) (A) (A) (A) (A) (A) (A) (A) (A) (A) (A) (A)
                 (A) (A) (A) (A) (A) (A) (A) (A) (A) (A) (A) (A)
                 (A) (A) (A) (A) (A) (A) (A) (A) (A) (A) (A) (A)
                 (A) (A) (A) (A) (A) (A) (A) (A) (A) (A) (A) (A)
                 (A) (A) (A) (A) (A) (A) (A) (A) (A) (A) (A) (A)
                 (A) (A) (A) (A) (A) (A) (A) (A) (A) (A) (A) (A)
                 (A) (A) (A) (A) (A) (A) (A) (A) (A) (A) (A) (A)
                 (A) (A) (A) (A) (A) (A) (A) (A) (A) (A) (A) (A)
                 (A) (A) (A) (A) (A) (A) (A) (A) (A) (A) (A) (A)
                 (A) (A) (A) (A) (A) (A) (A) (A) (A) (A) (A) (A)
                 (A) (A) (A) (A) (A) (A) (A) (A) (A) (A) (A) (A)
                 (A) (A) (A) (A) (A) (A) (A) (A) (A) (A)
 The electronic state is 1-A.
 Alpha  occ. eigenvalues --  -89.13496 -19.24312 -19.16204 -19.16175 -14.39662
 Alpha  occ. eigenvalues --  -14.38530 -10.27984 -10.27248 -10.23513 -10.21891
 Alpha  occ. eigenvalues --  -10.20580 -10.20421 -10.20341 -10.20204 -10.20120
 Alpha  occ. eigenvalues --  -10.20066  -8.16015  -6.12552  -6.12422  -6.12285
 Alpha  occ. eigenvalues --   -1.14919  -1.13211  -1.02189  -0.96951  -0.87827
 Alpha  occ. eigenvalues --   -0.85655  -0.81356  -0.78436  -0.75797  -0.75577
 Alpha  occ. eigenvalues --   -0.67116  -0.64708  -0.62417  -0.60337  -0.59801
 Alpha  occ. eigenvalues --   -0.55277  -0.54349  -0.50672  -0.50427  -0.49194
 Alpha  occ. eigenvalues --   -0.48132  -0.47798  -0.46723  -0.45248  -0.45002
 Alpha  occ. eigenvalues --   -0.44122  -0.43564  -0.42819  -0.40153  -0.38846
 Alpha  occ. eigenvalues --   -0.37365  -0.36478  -0.35589  -0.35408  -0.33635
 Alpha  occ. eigenvalues --   -0.32526  -0.32120  -0.32064  -0.30171  -0.26909
 Alpha  occ. eigenvalues --   -0.26289  -0.23768
 Alpha virt. eigenvalues --   -0.05486  -0.01246   0.01243   0.04461   0.05960
 Alpha virt. eigenvalues --    0.06833   0.08059   0.09089   0.09692   0.10358
 Alpha virt. eigenvalues --    0.11329   0.12581   0.13076   0.14591   0.14849
 Alpha virt. eigenvalues --    0.15075   0.16559   0.16741   0.17413   0.18930
 Alpha virt. eigenvalues --    0.23391   0.24080   0.26713   0.28191   0.29623
 Alpha virt. eigenvalues --    0.30984   0.32787   0.34081   0.35147   0.37065
 Alpha virt. eigenvalues --    0.40552   0.41589   0.43755   0.44602   0.47003
 Alpha virt. eigenvalues --    0.49712   0.50657   0.51405   0.52125   0.53172
 Alpha virt. eigenvalues --    0.53926   0.54183   0.55514   0.57516   0.57964
 Alpha virt. eigenvalues --    0.58498   0.59019   0.59871   0.60596   0.61123
 Alpha virt. eigenvalues --    0.62036   0.63309   0.63914   0.64505   0.66484
 Alpha virt. eigenvalues --    0.68206   0.68945   0.70271   0.70954   0.74756
 Alpha virt. eigenvalues --    0.75355   0.76328   0.78236   0.79528   0.80819
 Alpha virt. eigenvalues --    0.81225   0.81805   0.83101   0.83582   0.84182
 Alpha virt. eigenvalues --    0.85073   0.85880   0.86277   0.88462   0.88926
 Alpha virt. eigenvalues --    0.89523   0.90671   0.92003   0.94402   0.95207
 Alpha virt. eigenvalues --    0.95572   0.96729   0.97773   0.98766   1.01224
 Alpha virt. eigenvalues --    1.02910   1.03054   1.05912   1.09278   1.10232
 Alpha virt. eigenvalues --    1.12465   1.14825   1.15151   1.17157   1.17603
 Alpha virt. eigenvalues --    1.19659   1.20382   1.23662   1.23881   1.24626
 Alpha virt. eigenvalues --    1.29395   1.30547   1.31205   1.34668   1.35281
 Alpha virt. eigenvalues --    1.36800   1.39907   1.41241   1.41999   1.42807
 Alpha virt. eigenvalues --    1.46426   1.46876   1.47996   1.48750   1.49834
 Alpha virt. eigenvalues --    1.51559   1.54103   1.57574   1.60366   1.63428
 Alpha virt. eigenvalues --    1.68273   1.73423   1.74074   1.76668   1.78168
 Alpha virt. eigenvalues --    1.78433   1.79511   1.79701   1.81345   1.84341
 Alpha virt. eigenvalues --    1.85652   1.86811   1.88685   1.90201   1.92083
 Alpha virt. eigenvalues --    1.94487   1.96599   1.97740   2.00192   2.01763
 Alpha virt. eigenvalues --    2.03912   2.05233   2.06114   2.09692   2.10340
 Alpha virt. eigenvalues --    2.12310   2.13047   2.13528   2.14464   2.15629
 Alpha virt. eigenvalues --    2.17992   2.18743   2.20484   2.22061   2.24154
 Alpha virt. eigenvalues --    2.25453   2.27846   2.29594   2.29971   2.30462
 Alpha virt. eigenvalues --    2.32410   2.33545   2.43740   2.50373   2.52565
 Alpha virt. eigenvalues --    2.53769   2.56382   2.57895   2.59327   2.61955
 Alpha virt. eigenvalues --    2.65885   2.66608   2.69008   2.73284   2.73957
 Alpha virt. eigenvalues --    2.74364   2.76162   2.80309   2.84183   2.89848
 Alpha virt. eigenvalues --    2.90371   3.01124   3.04672   3.13368   3.26874
 Alpha virt. eigenvalues --    3.42700   3.75517   3.78624   3.88961   3.96983
 Alpha virt. eigenvalues --    4.04088   4.06920   4.08533   4.10600   4.12625
 Alpha virt. eigenvalues --    4.21036   4.24225   4.31246   4.37421   4.39258
 Alpha virt. eigenvalues --    4.54847   4.73883
          Condensed to atoms (all electrons):
               1          2          3          4          5          6
     1  O    8.219444   0.458589  -0.052026   0.001475  -0.000014   0.000000
     2  S    0.458589  13.641953   0.117555  -0.010409  -0.002263   0.000108
     3  N   -0.052026   0.117555   7.442793   0.221636  -0.077301   0.005581
     4  C    0.001475  -0.010409   0.221636   4.535381   0.431233  -0.043618
     5  N   -0.000014  -0.002263  -0.077301   0.431233   6.892174   0.131871
     6  O    0.000000   0.000108   0.005581  -0.043618   0.131871   8.181425
     7  C   -0.000001   0.000380  -0.000592  -0.018555  -0.084122   0.250676
     8  C    0.000000  -0.000015  -0.000203   0.003677   0.004713  -0.037666
     9  C    0.000000  -0.000002   0.000003   0.000618  -0.000110   0.003151
    10  C    0.000000   0.000000   0.000000  -0.000007   0.000001  -0.000061
    11  C    0.000000   0.000000   0.000000   0.000000   0.000000   0.000002
    12  C    0.000000   0.000000   0.000000   0.000005   0.000001   0.000293
    13  C    0.000000   0.000000  -0.000001  -0.000378   0.000168  -0.006733
    14  C   -0.000042  -0.001053  -0.055372   0.443146  -0.049796  -0.090843
    15  C   -0.058444   0.228632  -0.063545   0.000924   0.000021   0.000007
    16  O   -0.041226   0.422267  -0.049633  -0.005780   0.000080   0.000000
    17  H    0.000855  -0.004824   0.290094  -0.022722   0.003708  -0.000185
    18  H    0.000000  -0.000004   0.000000   0.000082  -0.000005   0.000029
    19  H    0.000000   0.000000   0.000000   0.000000   0.000000   0.000000
    20  H    0.000000   0.000000   0.000000   0.000000   0.000000   0.000000
    21  H    0.000000   0.000000   0.000000   0.000000   0.000000  -0.000003
    22  H    0.000000   0.000000   0.000000   0.000058  -0.000239   0.009840
    23  H    0.000017   0.001194  -0.001509  -0.026291   0.004951   0.003128
    24  H    0.000097  -0.007687   0.000128   0.000248   0.000038   0.000000
    25  H    0.001751  -0.007286  -0.002108   0.002013   0.000151  -0.000034
    26  H   -0.000380  -0.013892   0.002362   0.000013  -0.000003   0.000000
               7          8          9         10         11         12
     1  O   -0.000001   0.000000   0.000000   0.000000   0.000000   0.000000
     2  S    0.000380  -0.000015  -0.000002   0.000000   0.000000   0.000000
     3  N   -0.000592  -0.000203   0.000003   0.000000   0.000000   0.000000
     4  C   -0.018555   0.003677   0.000618  -0.000007   0.000000   0.000005
     5  N   -0.084122   0.004713  -0.000110   0.000001   0.000000   0.000001
     6  O    0.250676  -0.037666   0.003151  -0.000061   0.000002   0.000293
     7  C    4.767548   0.340104  -0.041735   0.006376   0.000884   0.004734
     8  C    0.340104   4.781902   0.535979  -0.009688  -0.033770  -0.008685
     9  C   -0.041735   0.535979   5.011357   0.520280  -0.039285  -0.041665
    10  C    0.006376  -0.009688   0.520280   4.870248   0.542960  -0.024920
    11  C    0.000884  -0.033770  -0.039285   0.542960   4.862219   0.541399
    12  C    0.004734  -0.008685  -0.041665  -0.024920   0.541399   4.881894
    13  C   -0.040478   0.475657  -0.082772  -0.042232  -0.037062   0.506084
    14  C    0.484928  -0.058538  -0.021287   0.000241   0.000015  -0.000238
    15  C   -0.000224   0.000001   0.000000   0.000000   0.000000   0.000000
    16  O    0.000565  -0.000004   0.000003   0.000000   0.000000   0.000000
    17  H    0.000261   0.000001   0.000000   0.000000   0.000000   0.000000
    18  H   -0.012982  -0.037861   0.355082  -0.041869   0.004536   0.000198
    19  H   -0.000206   0.003218  -0.037561   0.361497  -0.040992   0.004401
    20  H    0.000003   0.000519   0.004849  -0.041861   0.363180  -0.041806
    21  H   -0.000177   0.003182   0.000823   0.004431  -0.041167   0.362139
    22  H   -0.013249  -0.041339   0.005445   0.000229   0.004506  -0.041803
    23  H   -0.030343  -0.002819   0.000858   0.000075   0.000000   0.000001
    24  H    0.000002   0.000000   0.000000   0.000000   0.000000   0.000000
    25  H    0.000126  -0.000002   0.000000   0.000000   0.000000   0.000000
    26  H    0.000000   0.000000   0.000000   0.000000   0.000000   0.000000
              13         14         15         16         17         18
     1  O    0.000000  -0.000042  -0.058444  -0.041226   0.000855   0.000000
     2  S    0.000000  -0.001053   0.228632   0.422267  -0.004824  -0.000004
     3  N   -0.000001  -0.055372  -0.063545  -0.049633   0.290094   0.000000
     4  C   -0.000378   0.443146   0.000924  -0.005780  -0.022722   0.000082
     5  N    0.000168  -0.049796   0.000021   0.000080   0.003708  -0.000005
     6  O   -0.006733  -0.090843   0.000007   0.000000  -0.000185   0.000029
     7  C   -0.040478   0.484928  -0.000224   0.000565   0.000261  -0.012982
     8  C    0.475657  -0.058538   0.000001  -0.000004   0.000001  -0.037861
     9  C   -0.082772  -0.021287   0.000000   0.000003   0.000000   0.355082
    10  C   -0.042232   0.000241   0.000000   0.000000   0.000000  -0.041869
    11  C   -0.037062   0.000015   0.000000   0.000000   0.000000   0.004536
    12  C    0.506084  -0.000238   0.000000   0.000000   0.000000   0.000198
    13  C    5.051578   0.011967   0.000000   0.000000   0.000000   0.005747
    14  C    0.011967   5.258982  -0.001735   0.000152   0.004510   0.006721
    15  C    0.000000  -0.001735   5.540386  -0.058457   0.000346   0.000000
    16  O    0.000000   0.000152  -0.058457   8.261839   0.001314  -0.000014
    17  H    0.000000   0.004510   0.000346   0.001314   0.330311   0.000000
    18  H    0.005747   0.006721   0.000000  -0.000014   0.000000   0.568241
    19  H    0.000835  -0.000001   0.000000   0.000000   0.000000  -0.004952
    20  H    0.004688   0.000000   0.000000   0.000000   0.000000  -0.000161
    21  H   -0.037699   0.000001   0.000000   0.000000   0.000000   0.000015
    22  H    0.361439   0.000229   0.000000   0.000000   0.000000  -0.000145
    23  H   -0.000075   0.349172   0.000190   0.009756  -0.000152   0.002048
    24  H    0.000000   0.000010   0.342746   0.001864  -0.000021   0.000000
    25  H    0.000000   0.002261   0.340522  -0.000562   0.000075   0.000000
    26  H    0.000000  -0.000027   0.356825  -0.000095  -0.000015   0.000000
              19         20         21         22         23         24
     1  O    0.000000   0.000000   0.000000   0.000000   0.000017   0.000097
     2  S    0.000000   0.000000   0.000000   0.000000   0.001194  -0.007687
     3  N    0.000000   0.000000   0.000000   0.000000  -0.001509   0.000128
     4  C    0.000000   0.000000   0.000000   0.000058  -0.026291   0.000248
     5  N    0.000000   0.000000   0.000000  -0.000239   0.004951   0.000038
     6  O    0.000000   0.000000  -0.000003   0.009840   0.003128   0.000000
     7  C   -0.000206   0.000003  -0.000177  -0.013249  -0.030343   0.000002
     8  C    0.003218   0.000519   0.003182  -0.041339  -0.002819   0.000000
     9  C   -0.037561   0.004849   0.000823   0.005445   0.000858   0.000000
    10  C    0.361497  -0.041861   0.004431   0.000229   0.000075   0.000000
    11  C   -0.040992   0.363180  -0.041167   0.004506   0.000000   0.000000
    12  C    0.004401  -0.041806   0.362139  -0.041803   0.000001   0.000000
    13  C    0.000835   0.004688  -0.037699   0.361439  -0.000075   0.000000
    14  C   -0.000001   0.000000   0.000001   0.000229   0.349172   0.000010
    15  C    0.000000   0.000000   0.000000   0.000000   0.000190   0.342746
    16  O    0.000000   0.000000   0.000000   0.000000   0.009756   0.001864
    17  H    0.000000   0.000000   0.000000   0.000000  -0.000152  -0.000021
    18  H   -0.004952  -0.000161   0.000015  -0.000145   0.002048   0.000000
    19  H    0.566361  -0.005210  -0.000168   0.000015  -0.000002   0.000000
    20  H   -0.005210   0.569689  -0.005200  -0.000154   0.000000   0.000000
    21  H   -0.000168  -0.005200   0.566364  -0.004874   0.000000   0.000000
    22  H    0.000015  -0.000154  -0.004874   0.557115  -0.000008   0.000000
    23  H   -0.000002   0.000000   0.000000  -0.000008   0.491889  -0.000005
    24  H    0.000000   0.000000   0.000000   0.000000  -0.000005   0.477770
    25  H    0.000000   0.000000   0.000000   0.000000  -0.000001  -0.021747
    26  H    0.000000   0.000000   0.000000   0.000000   0.000000  -0.018154
              25         26
     1  O    0.001751  -0.000380
     2  S   -0.007286  -0.013892
     3  N   -0.002108   0.002362
     4  C    0.002013   0.000013
     5  N    0.000151  -0.000003
     6  O   -0.000034   0.000000
     7  C    0.000126   0.000000
     8  C   -0.000002   0.000000
     9  C    0.000000   0.000000
    10  C    0.000000   0.000000
    11  C    0.000000   0.000000
    12  C    0.000000   0.000000
    13  C    0.000000   0.000000
    14  C    0.002261  -0.000027
    15  C    0.340522   0.356825
    16  O   -0.000562  -0.000095
    17  H    0.000075  -0.000015
    18  H    0.000000   0.000000
    19  H    0.000000   0.000000
    20  H    0.000000   0.000000
    21  H    0.000000   0.000000
    22  H    0.000000   0.000000
    23  H   -0.000001   0.000000
    24  H   -0.021747  -0.018154
    25  H    0.482011  -0.019784
    26  H   -0.019784   0.457587
 Mulliken charges:
               1
     1  O   -0.530095
     2  S    1.176756
     3  N   -0.777863
     4  C    0.487252
     5  N   -0.255255
     6  O   -0.406967
     7  C    0.386075
     8  C    0.081636
     9  C   -0.174030
    10  C   -0.145703
    11  C   -0.127425
    12  C   -0.142032
    13  C   -0.170733
    14  C   -0.283403
    15  C   -0.628193
    16  O   -0.542067
    17  H    0.396443
    18  H    0.155294
    19  H    0.152764
    20  H    0.151463
    21  H    0.152332
    22  H    0.162934
    23  H    0.197925
    24  H    0.224711
    25  H    0.222615
    26  H    0.235564
 Sum of Mulliken charges =   0.00000
 Mulliken charges with hydrogens summed into heavy atoms:
               1
     1  O   -0.530095
     2  S    1.176756
     3  N   -0.381419
     4  C    0.487252
     5  N   -0.255255
     6  O   -0.406967
     7  C    0.386075
     8  C    0.081636
     9  C   -0.018736
    10  C    0.007062
    11  C    0.024038
    12  C    0.010300
    13  C   -0.007799
    14  C   -0.085478
    15  C    0.054697
    16  O   -0.542067
 Electronic spatial extent (au):  <R**2>=           5401.0689
 Charge=              0.0000 electrons
 Dipole moment (field-independent basis, Debye):
    X=              3.0268    Y=             -0.5599    Z=              3.8171  Tot=              4.9036
 Quadrupole moment (field-independent basis, Debye-Ang):
   XX=            -92.5922   YY=           -100.2468   ZZ=            -97.2957
   XY=             -9.3816   XZ=            -13.3276   YZ=             -2.0193
 Traceless Quadrupole moment (field-independent basis, Debye-Ang):
   XX=              4.1194   YY=             -3.5352   ZZ=             -0.5842
   XY=             -9.3816   XZ=            -13.3276   YZ=             -2.0193
 Octapole moment (field-independent basis, Debye-Ang**2):
  XXX=            122.1365  YYY=            -14.1686  ZZZ=              8.7136  XYY=              3.3036
  XXY=             17.7257  XXZ=             60.9440  XZZ=            -37.1970  YZZ=             -0.1146
  YYZ=              1.0243  XYZ=             13.9632
 Hexadecapole moment (field-independent basis, Debye-Ang**3):
 XXXX=          -5823.2659 YYYY=           -850.4201 ZZZZ=           -277.2424 XXXY=            -82.2233
 XXXZ=           -162.9658 YYYX=            -31.8215 YYYZ=             -1.3262 ZZZX=            -28.6027
 ZZZY=             -3.3170 XXYY=          -1021.6072 XXZZ=          -1046.1949 YYZZ=           -186.1833
 XXYZ=            -20.3110 YYXZ=             -9.6962 ZZXY=             21.0889
 N-N= 1.180716442055D+03 E-N=-4.988486409582D+03  KE= 1.112236048786D+03
 No NMR shielding tensors so no spin-rotation constants.
 Leave Link  601 at Thu Aug  6 22:09:14 2020, MaxMem=    33554432 cpu:         0.2
 (Enter /prod/apps/gaussian/g09d1/l9999.exe)
 1\1\GINC-PIRINEUS9\SP\RB3LYP\6-31G(d)\C10H10N2O3S1\UBAFAR01\06-Aug-202
 0\0\\#p b3lyp/6-31G(d) scrf=(iefpcm,read,solvent=n-Octanol) geom=allch
 eck guess=read\\SM41.n.7.pdb.xyz\\0,1\O,0,4.264,-0.925,0.329\S,0,3.769
 ,0.393,-0.063\N,0,3.33,1.137,1.392\C,0,2.77,2.416,1.445\N,0,3.071,3.20
 3,2.46\O,0,2.297,4.353,2.256\C,0,1.578,4.223,1.115\C,0,0.715,5.336,0.7
 35\C,0,-0.048,5.264,-0.441\C,0,-0.872,6.324,-0.806\C,0,-0.945,7.465,-0
 .004\C,0,-0.188,7.542,1.167\C,0,0.639,6.485,1.537\C,0,1.834,3.002,0.55
 3\C,0,5.136,1.358,-0.717\O,0,2.632,0.54,-0.972\H,0,3.956,0.907,2.161\H
 ,0,0.006,4.379,-1.065\H,0,-1.459,6.26,-1.716\H,0,-1.588,8.29,-0.29\H,0
 ,-0.241,8.426,1.792\H,0,1.228,6.538,2.444\H,0,1.43,2.56,-0.342\H,0,5.9
 7,1.31,-0.018\H,0,4.806,2.386,-0.863\H,0,5.415,0.913,-1.673\\Version=A
 M64L-G09RevD.01\State=1-A\HF=-1120.3598944\RMSD=6.151e-09\Dipole=0.388
 371,1.7410063,-0.7347882\Quadrupole=10.5746862,-9.1397176,-1.4349685,-
 6.9044129,-0.8250734,-3.2039978\PG=C01 [X(C10H10N2O3S1)]\\@


      LET US REMEMBER, PLEASE, THAT THE SEARCH FOR THE CONSTITUTION
      OF THE WORLD IS ONE OF THE GREATEST AND NOBLEST PROBLEMS PRESENTED 
      BY NATURE.

                                                  -- GALILEO
 Job cpu time:       0 days  0 hours  1 minutes 54.8 seconds.
 File lengths (MBytes):  RWF=    126 Int=      0 D2E=      0 Chk=      5 Scr=      1
 Normal termination of Gaussian 09 at Thu Aug  6 22:09:14 2020.
