 Entering Gaussian System, Link 0=g09
 Initial command:
 /prod/apps/gaussian/g09d1/l1.exe "/tmp/ubafar01/1448589/Gau-8177.inp" -scrdir="/tmp/ubafar01/1448589/"
 Entering Link 1 = /prod/apps/gaussian/g09d1/l1.exe PID=      8178.
  
 Copyright (c) 1988,1990,1992,1993,1995,1998,2003,2009,2013,
            Gaussian, Inc.  All Rights Reserved.
  
 This is part of the Gaussian(R) 09 program.  It is based on
 the Gaussian(R) 03 system (copyright 2003, Gaussian, Inc.),
 the Gaussian(R) 98 system (copyright 1998, Gaussian, Inc.),
 the Gaussian(R) 94 system (copyright 1995, Gaussian, Inc.),
 the Gaussian 92(TM) system (copyright 1992, Gaussian, Inc.),
 the Gaussian 90(TM) system (copyright 1990, Gaussian, Inc.),
 the Gaussian 88(TM) system (copyright 1988, Gaussian, Inc.),
 the Gaussian 86(TM) system (copyright 1986, Carnegie Mellon
 University), and the Gaussian 82(TM) system (copyright 1983,
 Carnegie Mellon University). Gaussian is a federally registered
 trademark of Gaussian, Inc.
  
 This software contains proprietary and confidential information,
 including trade secrets, belonging to Gaussian, Inc.
  
 This software is provided under written license and may be
 used, copied, transmitted, or stored only in accord with that
 written license.
  
 The following legend is applicable only to US Government
 contracts under FAR:
  
                    RESTRICTED RIGHTS LEGEND
  
 Use, reproduction and disclosure by the US Government is
 subject to restrictions as set forth in subparagraphs (a)
 and (c) of the Commercial Computer Software - Restricted
 Rights clause in FAR 52.227-19.
  
 Gaussian, Inc.
 340 Quinnipiac St., Bldg. 40, Wallingford CT 06492
  
  
 ---------------------------------------------------------------
 Warning -- This program may not be used in any manner that
 competes with the business of Gaussian, Inc. or will provide
 assistance to any competitor of Gaussian, Inc.  The licensee
 of this program is prohibited from giving any competitor of
 Gaussian, Inc. access to this program.  By using this program,
 the user acknowledges that Gaussian, Inc. is engaged in the
 business of creating and licensing software in the field of
 computational chemistry and represents and warrants to the
 licensee that it is not a competitor of Gaussian, Inc. and that
 it will not use this program in any manner prohibited above.
 ---------------------------------------------------------------
  

 Cite this work as:
 Gaussian 09, Revision D.01,
 M. J. Frisch, G. W. Trucks, H. B. Schlegel, G. E. Scuseria, 
 M. A. Robb, J. R. Cheeseman, G. Scalmani, V. Barone, B. Mennucci, 
 G. A. Petersson, H. Nakatsuji, M. Caricato, X. Li, H. P. Hratchian, 
 A. F. Izmaylov, J. Bloino, G. Zheng, J. L. Sonnenberg, M. Hada, 
 M. Ehara, K. Toyota, R. Fukuda, J. Hasegawa, M. Ishida, T. Nakajima, 
 Y. Honda, O. Kitao, H. Nakai, T. Vreven, J. A. Montgomery, Jr., 
 J. E. Peralta, F. Ogliaro, M. Bearpark, J. J. Heyd, E. Brothers, 
 K. N. Kudin, V. N. Staroverov, T. Keith, R. Kobayashi, J. Normand, 
 K. Raghavachari, A. Rendell, J. C. Burant, S. S. Iyengar, J. Tomasi, 
 M. Cossi, N. Rega, J. M. Millam, M. Klene, J. E. Knox, J. B. Cross, 
 V. Bakken, C. Adamo, J. Jaramillo, R. Gomperts, R. E. Stratmann, 
 O. Yazyev, A. J. Austin, R. Cammi, C. Pomelli, J. W. Ochterski, 
 R. L. Martin, K. Morokuma, V. G. Zakrzewski, G. A. Voth, 
 P. Salvador, J. J. Dannenberg, S. Dapprich, A. D. Daniels, 
 O. Farkas, J. B. Foresman, J. V. Ortiz, J. Cioslowski, 
 and D. J. Fox, Gaussian, Inc., Wallingford CT, 2013.
 
 ******************************************
 Gaussian 09:  AM64L-G09RevD.01 24-Apr-2013
                 6-Aug-2020 
 ******************************************
 %nproc=1
 Will use up to    1 processors via shared memory.
 %Chk=SM41.n.7.pdb.xyz.mst.n.w.chk
 -----------------
 #p b3lyp/6-31G(d)
 -----------------
 1/38=1/1;
 2/12=2,17=6,18=5,40=1/2;
 3/5=1,6=6,7=1,11=2,16=1,25=1,30=1,74=-5/1,2,3;
 4//1;
 5/5=2,38=5/2;
 6/7=2,8=2,9=2,10=2,28=1/1;
 99/5=1,9=1/99;
 Leave Link    1 at Thu Aug  6 21:56:17 2020, MaxMem=           0 cpu:         0.0
 (Enter /prod/apps/gaussian/g09d1/l101.exe)
 ----------------
 SM41.n.7.pdb.xyz
 ----------------
 Symbolic Z-matrix:
 Charge =  0 Multiplicity = 1
 O                     4.237    -0.935     0.347 
 S                     3.773     0.396    -0.055 
 N                     3.335     1.148     1.394 
 C                     2.778     2.43      1.439 
 N                     3.085     3.222     2.45 
 O                     2.307     4.372     2.247 
 C                     1.579     4.235     1.113 
 C                     0.71      5.344     0.734 
 C                    -0.047     5.274    -0.447 
 C                    -0.878     6.33     -0.809 
 C                    -0.963     7.467     0. 
 C                    -0.212     7.542     1.175 
 C                     0.62      6.489     1.543 
 C                     1.833     3.012     0.554 
 C                     5.158     1.321    -0.721 
 O                     2.633     0.533    -0.967 
 H                     3.998     0.948     2.145 
 H                     0.017     4.395    -1.078 
 H                    -1.459     6.267    -1.723 
 H                    -1.612     8.289    -0.285 
 H                    -0.275     8.422     1.806 
 H                     1.203     6.544     2.454 
 H                     1.422     2.573    -0.338 
 H                     5.976     1.288    -0.003 
 H                     4.84      2.346    -0.908 
 H                     5.446     0.835    -1.654 
 
 NAtoms=     26 NQM=       26 NQMF=       0 NMMI=      0 NMMIF=      0
                NMic=       0 NMicF=      0.
                    Isotopes and Nuclear Properties:
 (Nuclear quadrupole moments (NQMom) in fm**2, nuclear magnetic moments (NMagM)
  in nuclear magnetons)

  Atom         1           2           3           4           5           6           7           8           9          10
 IAtWgt=          16          32          14          12          14          16          12          12          12          12
 AtmWgt=  15.9949146  31.9720718  14.0030740  12.0000000  14.0030740  15.9949146  12.0000000  12.0000000  12.0000000  12.0000000
 NucSpn=           0           0           2           0           2           0           0           0           0           0
 AtZEff=   0.0000000   0.0000000   0.0000000   0.0000000   0.0000000   0.0000000   0.0000000   0.0000000   0.0000000   0.0000000
 NQMom=    0.0000000   0.0000000   2.0440000   0.0000000   2.0440000   0.0000000   0.0000000   0.0000000   0.0000000   0.0000000
 NMagM=    0.0000000   0.0000000   0.4037610   0.0000000   0.4037610   0.0000000   0.0000000   0.0000000   0.0000000   0.0000000
 AtZNuc=   8.0000000  16.0000000   7.0000000   6.0000000   7.0000000   8.0000000   6.0000000   6.0000000   6.0000000   6.0000000

  Atom        11          12          13          14          15          16          17          18          19          20
 IAtWgt=          12          12          12          12          12          16           1           1           1           1
 AtmWgt=  12.0000000  12.0000000  12.0000000  12.0000000  12.0000000  15.9949146   1.0078250   1.0078250   1.0078250   1.0078250
 NucSpn=           0           0           0           0           0           0           1           1           1           1
 AtZEff=   0.0000000   0.0000000   0.0000000   0.0000000   0.0000000   0.0000000   0.0000000   0.0000000   0.0000000   0.0000000
 NQMom=    0.0000000   0.0000000   0.0000000   0.0000000   0.0000000   0.0000000   0.0000000   0.0000000   0.0000000   0.0000000
 NMagM=    0.0000000   0.0000000   0.0000000   0.0000000   0.0000000   0.0000000   2.7928460   2.7928460   2.7928460   2.7928460
 AtZNuc=   6.0000000   6.0000000   6.0000000   6.0000000   6.0000000   8.0000000   1.0000000   1.0000000   1.0000000   1.0000000

  Atom        21          22          23          24          25          26
 IAtWgt=           1           1           1           1           1           1
 AtmWgt=   1.0078250   1.0078250   1.0078250   1.0078250   1.0078250   1.0078250
 NucSpn=           1           1           1           1           1           1
 AtZEff=   0.0000000   0.0000000   0.0000000   0.0000000   0.0000000   0.0000000
 NQMom=    0.0000000   0.0000000   0.0000000   0.0000000   0.0000000   0.0000000
 NMagM=    2.7928460   2.7928460   2.7928460   2.7928460   2.7928460   2.7928460
 AtZNuc=   1.0000000   1.0000000   1.0000000   1.0000000   1.0000000   1.0000000
 Leave Link  101 at Thu Aug  6 21:56:17 2020, MaxMem=    33554432 cpu:         0.1
 (Enter /prod/apps/gaussian/g09d1/l202.exe)
                          Input orientation:                          
 ---------------------------------------------------------------------
 Center     Atomic      Atomic             Coordinates (Angstroms)
 Number     Number       Type             X           Y           Z
 ---------------------------------------------------------------------
      1          8           0        4.237000   -0.935000    0.347000
      2         16           0        3.773000    0.396000   -0.055000
      3          7           0        3.335000    1.148000    1.394000
      4          6           0        2.778000    2.430000    1.439000
      5          7           0        3.085000    3.222000    2.450000
      6          8           0        2.307000    4.372000    2.247000
      7          6           0        1.579000    4.235000    1.113000
      8          6           0        0.710000    5.344000    0.734000
      9          6           0       -0.047000    5.274000   -0.447000
     10          6           0       -0.878000    6.330000   -0.809000
     11          6           0       -0.963000    7.467000    0.000000
     12          6           0       -0.212000    7.542000    1.175000
     13          6           0        0.620000    6.489000    1.543000
     14          6           0        1.833000    3.012000    0.554000
     15          6           0        5.158000    1.321000   -0.721000
     16          8           0        2.633000    0.533000   -0.967000
     17          1           0        3.998000    0.948000    2.145000
     18          1           0        0.017000    4.395000   -1.078000
     19          1           0       -1.459000    6.267000   -1.723000
     20          1           0       -1.612000    8.289000   -0.285000
     21          1           0       -0.275000    8.422000    1.806000
     22          1           0        1.203000    6.544000    2.454000
     23          1           0        1.422000    2.573000   -0.338000
     24          1           0        5.976000    1.288000   -0.003000
     25          1           0        4.840000    2.346000   -0.908000
     26          1           0        5.446000    0.835000   -1.654000
 ---------------------------------------------------------------------
                    Distance matrix (angstroms):
                    1          2          3          4          5
     1  O    0.000000
     2  S    1.465763   0.000000
     3  N    2.499740   1.690251   0.000000
     4  C    3.826796   2.712788   1.398498   0.000000
     5  N    4.798996   3.838573   2.340750   1.320467   0.000000
     6  O    5.958116   4.822545   3.489781   2.155474   1.403208
     7  C    5.863499   4.573377   3.562593   2.191324   2.254279
     8  C    7.212166   5.872580   4.993260   3.642121   3.617757
     9  C    7.585168   6.208136   5.643676   4.430119   4.734209
    10  C    8.959899   7.577115   7.032475   5.799124   5.998843
    11  C    9.887063   8.510685   7.768256   6.437171   6.356794
    12  C    9.609304   8.273962   7.315217   5.928098   5.581956
    13  C    8.344392   7.044123   5.993305   4.598180   4.191916
    14  C    4.626108   3.313297   2.536947   1.419498   2.281758
    15  C    2.660526   1.793713   2.797585   3.399982   4.238676
    16  O    2.540558   1.466326   2.538769   3.067323   4.371603
    17  H    2.614501   2.279326   1.021553   2.045277   2.469346
    18  H    6.946073   5.580866   5.259555   4.221331   4.820305
    19  H    9.412657   8.038948   7.674782   6.532456   6.879963
    20  H   10.940402   9.557749   8.847922   7.521446   7.430782
    21  H   10.490008   9.179668   8.130985   6.734951   6.224495
    22  H    8.341465   7.120245   5.897952   4.520602   3.818065
    23  H    4.549672   3.216616   2.947884   2.239847   3.310546
    24  H    2.844002   2.377305   2.991002   3.689273   4.256224
    25  H    3.564210   2.380882   2.999905   3.125269   3.888903
    26  H    2.932334   2.355515   3.720832   4.385077   5.302349
                    6          7          8          9         10
     6  O    0.000000
     7  C    1.354514   0.000000
     8  C    2.405070   1.459001   0.000000
     9  C    3.689520   2.481330   1.404532   0.000000
    10  C    4.828781   3.757653   2.423796   1.391668   0.000000
    11  C    5.031991   4.259854   2.800860   2.418287   1.398025
    12  C    4.188490   3.761353   2.423999   2.793194   2.418420
    13  C    2.797012   2.486986   1.404851   2.425121   2.793061
    14  C    2.222729   1.368476   2.594562   3.106935   4.496267
    15  C    5.123068   4.966306   6.171406   6.541660   7.844178
    16  O    5.017369   4.375171   5.453169   5.470821   6.779181
    17  H    3.820165   4.209626   5.668040   6.464887   7.840116
    18  H    4.037357   2.695538   2.159675   1.083927   2.148863
    19  H    5.790914   4.626161   3.404899   2.146618   1.084862
    20  H    6.092001   5.345260   3.886267   3.400837   2.156621
    21  H    4.823246   4.631256   3.404922   3.877873   3.402690
    22  H    2.445250   2.696505   2.154402   3.404585   3.876019
    23  H    3.271368   2.211853   3.055253   3.076564   4.430225
    24  H    5.294820   5.409609   6.687680   7.236150   8.546854
    25  H    4.524908   4.276317   5.361070   5.715634   6.969762
    26  H    6.130374   5.845509   6.961560   7.164818   8.420334
                   11         12         13         14         15
    11  C    0.000000
    12  C    1.396514   0.000000
    13  C    2.417276   1.391566   0.000000
    14  C    5.288814   5.008849   3.813007   0.000000
    15  C    8.704010   8.434012   7.240674   3.942173   0.000000
    16  O    7.870620   7.861824   6.769506   3.016435   2.656517
    17  H    8.468170   7.883263   6.517359   3.388009   3.114271
    18  H    3.399951   3.877120   3.408531   2.806059   6.000567
    19  H    2.157486   3.402799   3.877922   5.159168   8.321755
    20  H    1.085408   2.156295   3.400501   6.357568   9.725020
    21  H    2.155691   1.084680   2.146318   5.939635   9.291255
    22  H    3.400824   2.152689   1.082975   4.059794   7.280273
    23  H    5.454696   5.445189   4.417739   1.075782   3.958774
    24  H    9.291382   8.876460   7.624123   4.521822   1.088916
    25  H    7.792555   7.540558   6.401582   3.409259   1.089366
    26  H    9.369868   9.219547   8.091897   4.761130   1.090701
                   16         17         18         19         20
    16  O    0.000000
    17  H    3.423448   0.000000
    18  H    4.665921   6.173969   0.000000
    19  H    7.084826   8.545878   2.469612   0.000000
    20  H    8.867958   9.553391   4.294849   2.485908   0.000000
    21  H    8.853379   8.615923   4.961799   4.301130   2.485466
    22  H    7.062596   6.262805   4.301142   4.960877   4.297833
    23  H    2.454335   3.929592   2.416880   4.885082   6.471524
    24  H    3.560192   2.939726   6.805788   9.111974  10.328178
    25  H    2.856799   3.461817   5.242960   7.464306   8.794071
    26  H    2.911381   4.067170   6.517624   8.785807  10.356237
                   21         22         23         24         25
    21  H    0.000000
    22  H    2.476141   0.000000
    23  H    6.456574   4.859225   0.000000
    24  H    9.656161   7.512916   4.743666   0.000000
    25  H    8.393259   6.492612   3.472629   1.796910   0.000000
    26  H   10.112567   8.214097   4.576579   1.792180   1.790774
                   26
    26  H    0.000000
 Stoichiometry    C10H10N2O3S
 Framework group  C1[X(C10H10N2O3S)]
 Deg. of freedom    72
 Full point group                 C1      NOp   1
 Largest Abelian subgroup         C1      NOp   1
 Largest concise Abelian subgroup C1      NOp   1
                         Standard orientation:                         
 ---------------------------------------------------------------------
 Center     Atomic      Atomic             Coordinates (Angstroms)
 Number     Number       Type             X           Y           Z
 ---------------------------------------------------------------------
      1          8           0       -4.692582   -0.178808   -0.555053
      2         16           0       -3.352057   -0.470339   -0.038850
      3          7           0       -2.406609    0.832640   -0.553944
      4          6           0       -1.030983    0.906816   -0.313214
      5          7           0       -0.489750    2.087131   -0.073303
      6          8           0        0.885710    1.830354    0.032376
      7          6           0        1.115206    0.505069   -0.127818
      8          6           0        2.497694    0.046960   -0.040951
      9          6           0        2.796360   -1.319501   -0.168602
     10          6           0        4.114678   -1.758014   -0.088080
     11          6           0        5.149029   -0.841176    0.121689
     12          6           0        4.857521    0.518542    0.249903
     13          6           0        3.541460    0.963451    0.169293
     14          6           0       -0.070891   -0.137820   -0.357149
     15          6           0       -3.389643   -0.406930    1.753347
     16          8           0       -2.654386   -1.691966   -0.452364
     17          1           0       -2.900309    1.722611   -0.465728
     18          1           0        1.997367   -2.034008   -0.329809
     19          1           0        4.335800   -2.815402   -0.187888
     20          1           0        6.176236   -1.186234    0.184061
     21          1           0        5.656788    1.233596    0.412384
     22          1           0        3.312427    2.017356    0.267590
     23          1           0       -0.255016   -1.182396   -0.536774
     24          1           0       -3.832633    0.539727    2.058861
     25          1           0       -2.372539   -0.505174    2.130926
     26          1           0       -4.003217   -1.244070    2.088539
 ---------------------------------------------------------------------
 Rotational constants (GHZ):      1.3756435      0.2081182      0.1900250
 Leave Link  202 at Thu Aug  6 21:56:17 2020, MaxMem=    33554432 cpu:         0.0
 (Enter /prod/apps/gaussian/g09d1/l301.exe)
 Standard basis: 6-31G(d) (6D, 7F)
 Ernie: Thresh=  0.10000D-02 Tol=  0.10000D-05 Strict=F.
 There are   264 symmetry adapted cartesian basis functions of A   symmetry.
 There are   264 symmetry adapted basis functions of A   symmetry.
   264 basis functions,   512 primitive gaussians,   264 cartesian basis functions
    62 alpha electrons       62 beta electrons
       nuclear repulsion energy      1179.4569476971 Hartrees.
 IExCor=  402 DFT=T Ex+Corr=B3LYP ExCW=0 ScaHFX=  0.200000
 ScaDFX=  0.800000  0.720000  1.000000  0.810000 ScalE2=  1.000000  1.000000
 IRadAn=      0 IRanWt=     -1 IRanGd=            0 ICorTp=0 IEmpDi=  4
 NAtoms=   26 NActive=   26 NUniq=   26 SFac= 1.00D+00 NAtFMM=   60 NAOKFM=F Big=F
 Integral buffers will be    131072 words long.
 Raffenetti 2 integral format.
 Two-electron integral symmetry is turned on.
 Leave Link  301 at Thu Aug  6 21:56:17 2020, MaxMem=    33554432 cpu:         0.0
 (Enter /prod/apps/gaussian/g09d1/l302.exe)
 NPDir=0 NMtPBC=     1 NCelOv=     1 NCel=       1 NClECP=     1 NCelD=      1
         NCelK=      1 NCelE2=     1 NClLst=     1 CellRange=     0.0.
 One-electron integrals computed using PRISM.
 NBasis=   264 RedAO= T EigKep=  4.57D-04  NBF=   264
 NBsUse=   264 1.00D-06 EigRej= -1.00D+00 NBFU=   264
 Precomputing XC quadrature grid using
 IXCGrd= 4 IRadAn=           0 IRanWt=          -1 IRanGd=           0 AccXCQ= 0.00D+00.
 Generated NRdTot=       0 NPtTot=           0 NUsed=           0 NTot=          32
 NSgBfM=   263   263   263   263   263 MxSgAt=    26 MxSgA2=    26.
 Leave Link  302 at Thu Aug  6 21:56:18 2020, MaxMem=    33554432 cpu:         0.7
 (Enter /prod/apps/gaussian/g09d1/l303.exe)
 DipDrv:  MaxL=1.
 Leave Link  303 at Thu Aug  6 21:56:18 2020, MaxMem=    33554432 cpu:         0.0
 (Enter /prod/apps/gaussian/g09d1/l401.exe)
 ExpMin= 1.17D-01 ExpMax= 2.19D+04 ExpMxC= 3.30D+03 IAcc=1 IRadAn=         1 AccDes= 0.00D+00
 Harris functional with IExCor=  402 and IRadAn=       1 diagonalized for initial guess.
 HarFok:  IExCor=  402 AccDes= 0.00D+00 IRadAn=         1 IDoV= 1 UseB2=F ITyADJ=14
 ICtDFT=  3500011 ScaDFX=  1.000000  1.000000  1.000000  1.000000
 FoFCou: FMM=F IPFlag=           0 FMFlag=      100000 FMFlg1=           0
         NFxFlg=           0 DoJE=T BraDBF=F KetDBF=T FulRan=T
         wScrn=  0.000000 ICntrl=     500 IOpCl=  0 I1Cent=   200000004 NGrid=           0
         NMat0=    1 NMatS0=      1 NMatT0=    0 NMatD0=    1 NMtDS0=    0 NMtDT0=    0
 Petite list used in FoFCou.
 Harris En= -1120.38108925188    
 JPrj=0 DoOrth=F DoCkMO=F.
 Leave Link  401 at Thu Aug  6 21:56:20 2020, MaxMem=    33554432 cpu:         2.0
 (Enter /prod/apps/gaussian/g09d1/l502.exe)
 Closed shell SCF:
 Using DIIS extrapolation, IDIIS=  1040.
 Integral symmetry usage will be decided dynamically.
 IVT=      231207 IEndB=      231207 NGot=    33554432 MDV=    33409826
 LenX=    33409826 LenY=    33339689
 Requested convergence on RMS density matrix=1.00D-08 within 128 cycles.
 Requested convergence on MAX density matrix=1.00D-06.
 Requested convergence on             energy=1.00D-06.
 No special actions if energy rises.
 Fock matrices will be formed incrementally for  20 cycles.
 Integral accuracy reduced to 1.0D-05 until final iterations.

 Cycle   1  Pass 0  IDiag  1:
 FoFJK:  IHMeth= 1 ICntrl=       0 DoSepK=F KAlg= 0 I1Cent=   0 FoldK=F
 IRaf= 760000000 NMat=   1 IRICut=       1 DoRegI=T DoRafI=F ISym2E= 0.
 FoFCou: FMM=F IPFlag=           0 FMFlag=      100000 FMFlg1=           0
         NFxFlg=           0 DoJE=F BraDBF=F KetDBF=F FulRan=T
         wScrn=  0.000000 ICntrl=       0 IOpCl=  0 I1Cent=           0 NGrid=           0
         NMat0=    1 NMatS0=      1 NMatT0=    0 NMatD0=    1 NMtDS0=    0 NMtDT0=    0
 Symmetry not used in FoFCou.
 E= -1119.83728797734    
 DIIS: error= 4.17D-02 at cycle   1 NSaved=   1.
 NSaved= 1 IEnMin= 1 EnMin= -1119.83728797734     IErMin= 1 ErrMin= 4.17D-02
 ErrMax= 4.17D-02  0.00D+00 EMaxC= 1.00D-01 BMatC= 5.79D-01 BMatP= 5.79D-01
 IDIUse=3 WtCom= 5.83D-01 WtEn= 4.17D-01
 Coeff-Com:  0.100D+01
 Coeff-En:   0.100D+01
 Coeff:      0.100D+01
 Gap=     0.283 Goal=   None    Shift=    0.000
 GapD=    0.283 DampG=1.000 DampE=0.500 DampFc=0.5000 IDamp=-1.
 Damping current iteration by 5.00D-01
 RMSDP=7.49D-03 MaxDP=5.82D-01              OVMax= 3.03D-01

 Cycle   2  Pass 0  IDiag  1:
 RMSU=  3.74D-03    CP:  9.93D-01
 E= -1119.94850175144     Delta-E=       -0.111213774097 Rises=F Damp=T
 DIIS: error= 1.97D-02 at cycle   2 NSaved=   2.
 NSaved= 2 IEnMin= 2 EnMin= -1119.94850175144     IErMin= 2 ErrMin= 1.97D-02
 ErrMax= 1.97D-02  0.00D+00 EMaxC= 1.00D-01 BMatC= 9.89D-02 BMatP= 5.79D-01
 IDIUse=3 WtCom= 8.03D-01 WtEn= 1.97D-01
 Coeff-Com:  0.240D+00 0.760D+00
 Coeff-En:   0.384D+00 0.616D+00
 Coeff:      0.268D+00 0.732D+00
 Gap=     0.230 Goal=   None    Shift=    0.000
 RMSDP=2.26D-03 MaxDP=1.30D-01 DE=-1.11D-01 OVMax= 2.35D-01

 Cycle   3  Pass 0  IDiag  1:
 RMSU=  1.83D-03    CP:  9.80D-01  6.55D-01
 E= -1120.29167389527     Delta-E=       -0.343172143836 Rises=F Damp=F
 DIIS: error= 1.46D-02 at cycle   3 NSaved=   3.
 NSaved= 3 IEnMin= 3 EnMin= -1120.29167389527     IErMin= 3 ErrMin= 1.46D-02
 ErrMax= 1.46D-02  0.00D+00 EMaxC= 1.00D-01 BMatC= 5.15D-02 BMatP= 9.89D-02
 IDIUse=3 WtCom= 8.54D-01 WtEn= 1.46D-01
 Coeff-Com:  0.835D-01 0.418D+00 0.498D+00
 Coeff-En:   0.000D+00 0.000D+00 0.100D+01
 Coeff:      0.714D-01 0.357D+00 0.571D+00
 Gap=     0.183 Goal=   None    Shift=    0.000
 RMSDP=1.21D-03 MaxDP=4.07D-02 DE=-3.43D-01 OVMax= 6.28D-02

 Cycle   4  Pass 0  IDiag  1:
 RMSU=  7.77D-04    CP:  9.86D-01  7.41D-01  5.28D-01
 E= -1120.32976694146     Delta-E=       -0.038093046187 Rises=F Damp=F
 DIIS: error= 5.37D-03 at cycle   4 NSaved=   4.
 NSaved= 4 IEnMin= 4 EnMin= -1120.32976694146     IErMin= 4 ErrMin= 5.37D-03
 ErrMax= 5.37D-03  0.00D+00 EMaxC= 1.00D-01 BMatC= 9.58D-03 BMatP= 5.15D-02
 IDIUse=3 WtCom= 9.46D-01 WtEn= 5.37D-02
 Coeff-Com:  0.112D-01 0.780D-01 0.314D+00 0.597D+00
 Coeff-En:   0.000D+00 0.000D+00 0.154D+00 0.846D+00
 Coeff:      0.106D-01 0.738D-01 0.306D+00 0.610D+00
 Gap=     0.182 Goal=   None    Shift=    0.000
 RMSDP=4.18D-04 MaxDP=1.70D-02 DE=-3.81D-02 OVMax= 1.97D-02

 Cycle   5  Pass 0  IDiag  1:
 RMSU=  2.28D-04    CP:  9.85D-01  7.19D-01  6.45D-01  6.59D-01
 E= -1120.33701236765     Delta-E=       -0.007245426189 Rises=F Damp=F
 DIIS: error= 1.59D-03 at cycle   5 NSaved=   5.
 NSaved= 5 IEnMin= 5 EnMin= -1120.33701236765     IErMin= 5 ErrMin= 1.59D-03
 ErrMax= 1.59D-03  0.00D+00 EMaxC= 1.00D-01 BMatC= 9.65D-04 BMatP= 9.58D-03
 IDIUse=3 WtCom= 9.84D-01 WtEn= 1.59D-02
 Coeff-Com:  0.616D-03 0.183D-01 0.148D+00 0.368D+00 0.465D+00
 Coeff-En:   0.000D+00 0.000D+00 0.000D+00 0.172D-01 0.983D+00
 Coeff:      0.606D-03 0.180D-01 0.145D+00 0.363D+00 0.473D+00
 Gap=     0.182 Goal=   None    Shift=    0.000
 RMSDP=1.54D-04 MaxDP=6.71D-03 DE=-7.25D-03 OVMax= 1.19D-02

 Cycle   6  Pass 0  IDiag  1:
 RMSU=  8.20D-05    CP:  9.85D-01  7.23D-01  6.45D-01  6.97D-01  4.44D-01
 E= -1120.33775145551     Delta-E=       -0.000739087866 Rises=F Damp=F
 DIIS: error= 8.10D-04 at cycle   6 NSaved=   6.
 NSaved= 6 IEnMin= 6 EnMin= -1120.33775145551     IErMin= 6 ErrMin= 8.10D-04
 ErrMax= 8.10D-04  0.00D+00 EMaxC= 1.00D-01 BMatC= 1.43D-04 BMatP= 9.65D-04
 IDIUse=3 WtCom= 9.92D-01 WtEn= 8.10D-03
 Coeff-Com: -0.881D-03 0.278D-02 0.519D-01 0.149D+00 0.312D+00 0.486D+00
 Coeff-En:   0.000D+00 0.000D+00 0.000D+00 0.000D+00 0.139D+00 0.861D+00
 Coeff:     -0.874D-03 0.275D-02 0.515D-01 0.148D+00 0.310D+00 0.489D+00
 Gap=     0.182 Goal=   None    Shift=    0.000
 RMSDP=5.03D-05 MaxDP=2.33D-03 DE=-7.39D-04 OVMax= 4.01D-03

 Cycle   7  Pass 0  IDiag  1:
 RMSU=  2.59D-05    CP:  9.85D-01  7.23D-01  6.46D-01  6.99D-01  5.42D-01
                    CP:  5.54D-01
 E= -1120.33787557044     Delta-E=       -0.000124114921 Rises=F Damp=F
 DIIS: error= 1.16D-04 at cycle   7 NSaved=   7.
 NSaved= 7 IEnMin= 7 EnMin= -1120.33787557044     IErMin= 7 ErrMin= 1.16D-04
 ErrMax= 1.16D-04  0.00D+00 EMaxC= 1.00D-01 BMatC= 8.19D-06 BMatP= 1.43D-04
 IDIUse=3 WtCom= 9.99D-01 WtEn= 1.16D-03
 Coeff-Com: -0.599D-03-0.217D-03 0.165D-01 0.518D-01 0.135D+00 0.280D+00
 Coeff-Com:  0.518D+00
 Coeff-En:   0.000D+00 0.000D+00 0.000D+00 0.000D+00 0.000D+00 0.000D+00
 Coeff-En:   0.100D+01
 Coeff:     -0.598D-03-0.217D-03 0.165D-01 0.517D-01 0.135D+00 0.280D+00
 Coeff:      0.518D+00
 Gap=     0.182 Goal=   None    Shift=    0.000
 RMSDP=1.25D-05 MaxDP=3.94D-04 DE=-1.24D-04 OVMax= 8.08D-04

 Cycle   8  Pass 0  IDiag  1:
 RMSU=  8.00D-06    CP:  9.85D-01  7.23D-01  6.47D-01  7.01D-01  5.45D-01
                    CP:  5.81D-01  6.48D-01
 E= -1120.33788231927     Delta-E=       -0.000006748830 Rises=F Damp=F
 DIIS: error= 4.32D-05 at cycle   8 NSaved=   8.
 NSaved= 8 IEnMin= 8 EnMin= -1120.33788231927     IErMin= 8 ErrMin= 4.32D-05
 ErrMax= 4.32D-05  0.00D+00 EMaxC= 1.00D-01 BMatC= 7.36D-07 BMatP= 8.19D-06
 IDIUse=1 WtCom= 1.00D+00 WtEn= 0.00D+00
 Coeff-Com: -0.234D-03-0.437D-03 0.378D-02 0.133D-01 0.432D-01 0.111D+00
 Coeff-Com:  0.288D+00 0.542D+00
 Coeff:     -0.234D-03-0.437D-03 0.378D-02 0.133D-01 0.432D-01 0.111D+00
 Coeff:      0.288D+00 0.542D+00
 Gap=     0.182 Goal=   None    Shift=    0.000
 RMSDP=4.49D-06 MaxDP=1.25D-04 DE=-6.75D-06 OVMax= 2.85D-04

 Initial convergence to 1.0D-05 achieved.  Increase integral accuracy.
 Cycle   9  Pass 1  IDiag  1:
 E= -1120.33782934924     Delta-E=        0.000052970026 Rises=F Damp=F
 DIIS: error= 4.50D-05 at cycle   1 NSaved=   1.
 NSaved= 1 IEnMin= 1 EnMin= -1120.33782934924     IErMin= 1 ErrMin= 4.50D-05
 ErrMax= 4.50D-05  0.00D+00 EMaxC= 1.00D-01 BMatC= 3.89D-07 BMatP= 3.89D-07
 IDIUse=1 WtCom= 1.00D+00 WtEn= 0.00D+00
 Coeff-Com:  0.100D+01
 Coeff:      0.100D+01
 Gap=     0.182 Goal=   None    Shift=    0.000
 RMSDP=4.49D-06 MaxDP=1.25D-04 DE= 5.30D-05 OVMax= 2.37D-04

 Cycle  10  Pass 1  IDiag  1:
 RMSU=  2.70D-05    CP:  1.00D+00
 E= -1120.33782937299     Delta-E=       -0.000000023749 Rises=F Damp=F
 DIIS: error= 3.17D-05 at cycle   2 NSaved=   2.
 NSaved= 2 IEnMin= 2 EnMin= -1120.33782937299     IErMin= 2 ErrMin= 3.17D-05
 ErrMax= 3.17D-05  0.00D+00 EMaxC= 1.00D-01 BMatC= 3.79D-07 BMatP= 3.89D-07
 IDIUse=1 WtCom= 1.00D+00 WtEn= 0.00D+00
 Coeff-Com:  0.496D+00 0.504D+00
 Coeff:      0.496D+00 0.504D+00
 Gap=     0.182 Goal=   None    Shift=    0.000
 RMSDP=3.75D-06 MaxDP=1.14D-04 DE=-2.37D-08 OVMax= 2.46D-04

 Cycle  11  Pass 1  IDiag  1:
 RMSU=  3.75D-06    CP:  1.00D+00  9.92D-01
 E= -1120.33782959131     Delta-E=       -0.000000218320 Rises=F Damp=F
 DIIS: error= 2.11D-05 at cycle   3 NSaved=   3.
 NSaved= 3 IEnMin= 3 EnMin= -1120.33782959131     IErMin= 3 ErrMin= 2.11D-05
 ErrMax= 2.11D-05  0.00D+00 EMaxC= 1.00D-01 BMatC= 1.49D-07 BMatP= 3.79D-07
 IDIUse=1 WtCom= 1.00D+00 WtEn= 0.00D+00
 Coeff-Com:  0.156D-01 0.383D+00 0.602D+00
 Coeff:      0.156D-01 0.383D+00 0.602D+00
 Gap=     0.182 Goal=   None    Shift=    0.000
 RMSDP=1.55D-06 MaxDP=5.35D-05 DE=-2.18D-07 OVMax= 9.68D-05

 Cycle  12  Pass 1  IDiag  1:
 RMSU=  5.77D-07    CP:  1.00D+00  1.00D+00  6.26D-01
 E= -1120.33782972142     Delta-E=       -0.000000130111 Rises=F Damp=F
 DIIS: error= 3.24D-06 at cycle   4 NSaved=   4.
 NSaved= 4 IEnMin= 4 EnMin= -1120.33782972142     IErMin= 4 ErrMin= 3.24D-06
 ErrMax= 3.24D-06  0.00D+00 EMaxC= 1.00D-01 BMatC= 6.37D-09 BMatP= 1.49D-07
 IDIUse=1 WtCom= 1.00D+00 WtEn= 0.00D+00
 Coeff-Com: -0.472D-02 0.219D+00 0.368D+00 0.418D+00
 Coeff:     -0.472D-02 0.219D+00 0.368D+00 0.418D+00
 Gap=     0.182 Goal=   None    Shift=    0.000
 RMSDP=3.50D-07 MaxDP=1.39D-05 DE=-1.30D-07 OVMax= 2.67D-05

 Cycle  13  Pass 1  IDiag  1:
 RMSU=  1.78D-07    CP:  1.00D+00  1.00D+00  6.28D-01  4.79D-01
 E= -1120.33782972723     Delta-E=       -0.000000005813 Rises=F Damp=F
 DIIS: error= 9.56D-07 at cycle   5 NSaved=   5.
 NSaved= 5 IEnMin= 5 EnMin= -1120.33782972723     IErMin= 5 ErrMin= 9.56D-07
 ErrMax= 9.56D-07  0.00D+00 EMaxC= 1.00D-01 BMatC= 3.62D-10 BMatP= 6.37D-09
 IDIUse=1 WtCom= 1.00D+00 WtEn= 0.00D+00
 Coeff-Com: -0.390D-02 0.104D+00 0.178D+00 0.252D+00 0.470D+00
 Coeff:     -0.390D-02 0.104D+00 0.178D+00 0.252D+00 0.470D+00
 Gap=     0.182 Goal=   None    Shift=    0.000
 RMSDP=8.97D-08 MaxDP=3.89D-06 DE=-5.81D-09 OVMax= 6.80D-06

 Cycle  14  Pass 1  IDiag  1:
 RMSU=  5.93D-08    CP:  1.00D+00  1.00D+00  6.31D-01  5.03D-01  6.34D-01
 E= -1120.33782972757     Delta-E=       -0.000000000336 Rises=F Damp=F
 DIIS: error= 1.41D-07 at cycle   6 NSaved=   6.
 NSaved= 6 IEnMin= 6 EnMin= -1120.33782972757     IErMin= 6 ErrMin= 1.41D-07
 ErrMax= 1.41D-07  0.00D+00 EMaxC= 1.00D-01 BMatC= 1.59D-11 BMatP= 3.62D-10
 IDIUse=1 WtCom= 1.00D+00 WtEn= 0.00D+00
 Coeff-Com: -0.151D-02 0.335D-01 0.584D-01 0.903D-01 0.233D+00 0.586D+00
 Coeff:     -0.151D-02 0.335D-01 0.584D-01 0.903D-01 0.233D+00 0.586D+00
 Gap=     0.182 Goal=   None    Shift=    0.000
 RMSDP=2.23D-08 MaxDP=8.93D-07 DE=-3.36D-10 OVMax= 1.38D-06

 Cycle  15  Pass 1  IDiag  1:
 RMSU=  1.76D-08    CP:  1.00D+00  1.00D+00  6.31D-01  5.09D-01  6.80D-01
                    CP:  8.23D-01
 E= -1120.33782972762     Delta-E=       -0.000000000053 Rises=F Damp=F
 DIIS: error= 1.02D-07 at cycle   7 NSaved=   7.
 NSaved= 7 IEnMin= 7 EnMin= -1120.33782972762     IErMin= 7 ErrMin= 1.02D-07
 ErrMax= 1.02D-07  0.00D+00 EMaxC= 1.00D-01 BMatC= 4.04D-12 BMatP= 1.59D-11
 IDIUse=1 WtCom= 1.00D+00 WtEn= 0.00D+00
 Coeff-Com: -0.385D-03 0.580D-02 0.105D-01 0.197D-01 0.778D-01 0.370D+00
 Coeff-Com:  0.517D+00
 Coeff:     -0.385D-03 0.580D-02 0.105D-01 0.197D-01 0.778D-01 0.370D+00
 Coeff:      0.517D+00
 Gap=     0.182 Goal=   None    Shift=    0.000
 RMSDP=9.40D-09 MaxDP=3.22D-07 DE=-5.28D-11 OVMax= 5.20D-07

 SCF Done:  E(RB3LYP) =  -1120.33782973     A.U. after   15 cycles
            NFock= 15  Conv=0.94D-08     -V/T= 2.0073
 KE= 1.112197283534D+03 PE=-4.985697503684D+03 EE= 1.573705442726D+03
 Leave Link  502 at Thu Aug  6 21:58:47 2020, MaxMem=    33554432 cpu:       146.8
 (Enter /prod/apps/gaussian/g09d1/l601.exe)
 Copying SCF densities to generalized density rwf, IOpCl= 0 IROHF=0.

 **********************************************************************

            Population analysis using the SCF density.

 **********************************************************************

 Orbital symmetries:
       Occupied  (A) (A) (A) (A) (A) (A) (A) (A) (A) (A) (A) (A)
                 (A) (A) (A) (A) (A) (A) (A) (A) (A) (A) (A) (A)
                 (A) (A) (A) (A) (A) (A) (A) (A) (A) (A) (A) (A)
                 (A) (A) (A) (A) (A) (A) (A) (A) (A) (A) (A) (A)
                 (A) (A) (A) (A) (A) (A) (A) (A) (A) (A) (A) (A)
                 (A) (A)
       Virtual   (A) (A) (A) (A) (A) (A) (A) (A) (A) (A) (A) (A)
                 (A) (A) (A) (A) (A) (A) (A) (A) (A) (A) (A) (A)
                 (A) (A) (A) (A) (A) (A) (A) (A) (A) (A) (A) (A)
                 (A) (A) (A) (A) (A) (A) (A) (A) (A) (A) (A) (A)
                 (A) (A) (A) (A) (A) (A) (A) (A) (A) (A) (A) (A)
                 (A) (A) (A) (A) (A) (A) (A) (A) (A) (A) (A) (A)
                 (A) (A) (A) (A) (A) (A) (A) (A) (A) (A) (A) (A)
                 (A) (A) (A) (A) (A) (A) (A) (A) (A) (A) (A) (A)
                 (A) (A) (A) (A) (A) (A) (A) (A) (A) (A) (A) (A)
                 (A) (A) (A) (A) (A) (A) (A) (A) (A) (A) (A) (A)
                 (A) (A) (A) (A) (A) (A) (A) (A) (A) (A) (A) (A)
                 (A) (A) (A) (A) (A) (A) (A) (A) (A) (A) (A) (A)
                 (A) (A) (A) (A) (A) (A) (A) (A) (A) (A) (A) (A)
                 (A) (A) (A) (A) (A) (A) (A) (A) (A) (A) (A) (A)
                 (A) (A) (A) (A) (A) (A) (A) (A) (A) (A) (A) (A)
                 (A) (A) (A) (A) (A) (A) (A) (A) (A) (A) (A) (A)
                 (A) (A) (A) (A) (A) (A) (A) (A) (A) (A)
 The electronic state is 1-A.
 Alpha  occ. eigenvalues --  -89.13084 -19.24090 -19.15538 -19.15359 -14.39869
 Alpha  occ. eigenvalues --  -14.38369 -10.27828 -10.27115 -10.24397 -10.22073
 Alpha  occ. eigenvalues --  -10.20867 -10.20576 -10.20531 -10.20497 -10.20388
 Alpha  occ. eigenvalues --  -10.20354  -8.15607  -6.12146  -6.11992  -6.11897
 Alpha  occ. eigenvalues --   -1.14607  -1.12455  -1.01180  -0.96958  -0.87877
 Alpha  occ. eigenvalues --   -0.85623  -0.81311  -0.79072  -0.76049  -0.75686
 Alpha  occ. eigenvalues --   -0.67105  -0.64790  -0.62557  -0.60443  -0.59797
 Alpha  occ. eigenvalues --   -0.55406  -0.54400  -0.50771  -0.50209  -0.49065
 Alpha  occ. eigenvalues --   -0.48174  -0.47704  -0.47028  -0.45834  -0.45364
 Alpha  occ. eigenvalues --   -0.43930  -0.43773  -0.43005  -0.39978  -0.38874
 Alpha  occ. eigenvalues --   -0.37314  -0.36769  -0.35709  -0.34874  -0.32713
 Alpha  occ. eigenvalues --   -0.32066  -0.31744  -0.31136  -0.30147  -0.26922
 Alpha  occ. eigenvalues --   -0.26448  -0.23748
 Alpha virt. eigenvalues --   -0.05518  -0.01455   0.01184   0.04164   0.05724
 Alpha virt. eigenvalues --    0.06753   0.07637   0.08530   0.09007   0.09673
 Alpha virt. eigenvalues --    0.11369   0.11751   0.13119   0.13841   0.13944
 Alpha virt. eigenvalues --    0.14402   0.16058   0.16515   0.17237   0.18372
 Alpha virt. eigenvalues --    0.23110   0.23936   0.26736   0.27888   0.29204
 Alpha virt. eigenvalues --    0.31091   0.32562   0.34826   0.35752   0.37021
 Alpha virt. eigenvalues --    0.40133   0.41545   0.43706   0.44580   0.46854
 Alpha virt. eigenvalues --    0.49715   0.50479   0.51270   0.51753   0.52927
 Alpha virt. eigenvalues --    0.53172   0.54026   0.55335   0.57223   0.57881
 Alpha virt. eigenvalues --    0.58165   0.58915   0.59736   0.60336   0.60854
 Alpha virt. eigenvalues --    0.61978   0.63409   0.63876   0.64365   0.66327
 Alpha virt. eigenvalues --    0.68623   0.69055   0.70311   0.71062   0.74759
 Alpha virt. eigenvalues --    0.75469   0.76636   0.78177   0.79615   0.80847
 Alpha virt. eigenvalues --    0.81426   0.81640   0.82595   0.83333   0.83742
 Alpha virt. eigenvalues --    0.84630   0.85044   0.85972   0.88008   0.88569
 Alpha virt. eigenvalues --    0.89209   0.90225   0.91814   0.94078   0.94856
 Alpha virt. eigenvalues --    0.95605   0.96836   0.97550   0.99157   1.01437
 Alpha virt. eigenvalues --    1.03083   1.03583   1.05934   1.09197   1.10068
 Alpha virt. eigenvalues --    1.12495   1.14806   1.14985   1.17010   1.18141
 Alpha virt. eigenvalues --    1.20262   1.20437   1.23603   1.24081   1.24384
 Alpha virt. eigenvalues --    1.28927   1.30580   1.31102   1.34564   1.35538
 Alpha virt. eigenvalues --    1.37596   1.40027   1.41160   1.41775   1.42836
 Alpha virt. eigenvalues --    1.46276   1.46682   1.47711   1.48654   1.49585
 Alpha virt. eigenvalues --    1.51741   1.54284   1.57269   1.60443   1.63554
 Alpha virt. eigenvalues --    1.68498   1.73437   1.73668   1.76719   1.78193
 Alpha virt. eigenvalues --    1.78425   1.80249   1.80553   1.81515   1.84895
 Alpha virt. eigenvalues --    1.85735   1.86897   1.88385   1.90090   1.91786
 Alpha virt. eigenvalues --    1.94452   1.96326   1.97530   2.00168   2.01675
 Alpha virt. eigenvalues --    2.03919   2.05909   2.06183   2.09888   2.10262
 Alpha virt. eigenvalues --    2.12072   2.12809   2.13366   2.14226   2.15349
 Alpha virt. eigenvalues --    2.17693   2.18554   2.19773   2.22005   2.23576
 Alpha virt. eigenvalues --    2.25130   2.27800   2.29434   2.29826   2.30297
 Alpha virt. eigenvalues --    2.32306   2.33423   2.43464   2.50256   2.52440
 Alpha virt. eigenvalues --    2.53719   2.56454   2.57616   2.59261   2.61920
 Alpha virt. eigenvalues --    2.65604   2.66316   2.68909   2.73217   2.73897
 Alpha virt. eigenvalues --    2.74075   2.76149   2.80574   2.84536   2.89745
 Alpha virt. eigenvalues --    2.90363   3.00957   3.04720   3.13308   3.26741
 Alpha virt. eigenvalues --    3.42274   3.76133   3.78721   3.88527   3.97217
 Alpha virt. eigenvalues --    4.03859   4.06724   4.08240   4.10360   4.12385
 Alpha virt. eigenvalues --    4.20548   4.23908   4.31007   4.37598   4.39082
 Alpha virt. eigenvalues --    4.54766   4.73661
          Condensed to atoms (all electrons):
               1          2          3          4          5          6
     1  O    8.205539   0.457702  -0.052776   0.001568  -0.000014   0.000000
     2  S    0.457702  13.681720   0.107923  -0.010210  -0.002380   0.000121
     3  N   -0.052776   0.107923   7.436547   0.218600  -0.078319   0.005551
     4  C    0.001568  -0.010210   0.218600   4.562387   0.421537  -0.040508
     5  N   -0.000014  -0.002380  -0.078319   0.421537   6.880007   0.135561
     6  O    0.000000   0.000121   0.005551  -0.040508   0.135561   8.169498
     7  C   -0.000001   0.000379  -0.000403  -0.020318  -0.082161   0.250917
     8  C    0.000000  -0.000013  -0.000195   0.004069   0.004695  -0.037844
     9  C    0.000000  -0.000002   0.000003   0.000607  -0.000108   0.003157
    10  C    0.000000   0.000000   0.000000  -0.000007   0.000001  -0.000060
    11  C    0.000000   0.000000   0.000000   0.000000   0.000000   0.000001
    12  C    0.000000   0.000000   0.000000   0.000005   0.000001   0.000304
    13  C    0.000000   0.000000  -0.000001  -0.000384   0.000158  -0.006367
    14  C   -0.000043  -0.000903  -0.055682   0.437167  -0.048860  -0.091817
    15  C   -0.057328   0.200811  -0.061406   0.001100  -0.000003   0.000006
    16  O   -0.044517   0.422105  -0.049142  -0.005993   0.000082   0.000000
    17  H    0.000936  -0.004169   0.287049  -0.026302   0.004525  -0.000203
    18  H    0.000000  -0.000004   0.000000   0.000070  -0.000004   0.000028
    19  H    0.000000   0.000000   0.000000   0.000000   0.000000   0.000000
    20  H    0.000000   0.000000   0.000000   0.000000   0.000000   0.000000
    21  H    0.000000   0.000000   0.000000   0.000000   0.000000  -0.000002
    22  H    0.000000   0.000000   0.000000   0.000059  -0.000235   0.009678
    23  H    0.000018   0.001303  -0.001509  -0.025312   0.004850   0.003130
    24  H    0.000139  -0.006747   0.000145   0.000317   0.000037   0.000000
    25  H    0.001788  -0.007075  -0.001693   0.001726   0.000144  -0.000029
    26  H   -0.000474  -0.013985   0.002300   0.000005  -0.000003   0.000000
               7          8          9         10         11         12
     1  O   -0.000001   0.000000   0.000000   0.000000   0.000000   0.000000
     2  S    0.000379  -0.000013  -0.000002   0.000000   0.000000   0.000000
     3  N   -0.000403  -0.000195   0.000003   0.000000   0.000000   0.000000
     4  C   -0.020318   0.004069   0.000607  -0.000007   0.000000   0.000005
     5  N   -0.082161   0.004695  -0.000108   0.000001   0.000000   0.000001
     6  O    0.250917  -0.037844   0.003157  -0.000060   0.000001   0.000304
     7  C    4.774329   0.338282  -0.041311   0.006355   0.000918   0.004720
     8  C    0.338282   4.773145   0.536625  -0.008385  -0.033664  -0.008177
     9  C   -0.041311   0.536625   5.005528   0.521089  -0.038248  -0.041480
    10  C    0.006355  -0.008385   0.521089   4.862154   0.545014  -0.023922
    11  C    0.000918  -0.033664  -0.038248   0.545014   4.852908   0.543691
    12  C    0.004720  -0.008177  -0.041480  -0.023922   0.543691   4.873916
    13  C   -0.039601   0.478366  -0.083508  -0.042236  -0.036116   0.505928
    14  C    0.479383  -0.059310  -0.021576   0.000248   0.000013  -0.000237
    15  C   -0.000201   0.000000   0.000000   0.000000   0.000000   0.000000
    16  O    0.000570  -0.000004   0.000002   0.000000   0.000000   0.000000
    17  H    0.000273   0.000001   0.000000   0.000000   0.000000   0.000000
    18  H   -0.013355  -0.037188   0.352809  -0.043739   0.004608   0.000220
    19  H   -0.000210   0.003273  -0.038371   0.359295  -0.041805   0.004468
    20  H    0.000003   0.000540   0.004898  -0.042675   0.360865  -0.042544
    21  H   -0.000183   0.003170   0.000866   0.004491  -0.042166   0.360009
    22  H   -0.013248  -0.038545   0.005472   0.000268   0.004470  -0.043048
    23  H   -0.031664  -0.002726   0.000787   0.000076   0.000000   0.000000
    24  H    0.000001   0.000000   0.000000   0.000000   0.000000   0.000000
    25  H    0.000127  -0.000002   0.000000   0.000000   0.000000   0.000000
    26  H    0.000000   0.000000   0.000000   0.000000   0.000000   0.000000
              13         14         15         16         17         18
     1  O    0.000000  -0.000043  -0.057328  -0.044517   0.000936   0.000000
     2  S    0.000000  -0.000903   0.200811   0.422105  -0.004169  -0.000004
     3  N   -0.000001  -0.055682  -0.061406  -0.049142   0.287049   0.000000
     4  C   -0.000384   0.437167   0.001100  -0.005993  -0.026302   0.000070
     5  N    0.000158  -0.048860  -0.000003   0.000082   0.004525  -0.000004
     6  O   -0.006367  -0.091817   0.000006   0.000000  -0.000203   0.000028
     7  C   -0.039601   0.479383  -0.000201   0.000570   0.000273  -0.013355
     8  C    0.478366  -0.059310   0.000000  -0.000004   0.000001  -0.037188
     9  C   -0.083508  -0.021576   0.000000   0.000002   0.000000   0.352809
    10  C   -0.042236   0.000248   0.000000   0.000000   0.000000  -0.043739
    11  C   -0.036116   0.000013   0.000000   0.000000   0.000000   0.004608
    12  C    0.505928  -0.000237   0.000000   0.000000   0.000000   0.000220
    13  C    5.042582   0.011938   0.000000   0.000000   0.000000   0.005911
    14  C    0.011938   5.269791  -0.001444   0.000595   0.004982   0.006888
    15  C    0.000000  -0.001444   5.563104  -0.056741   0.000494   0.000000
    16  O    0.000000   0.000595  -0.056741   8.248450   0.001485  -0.000014
    17  H    0.000000   0.004982   0.000494   0.001485   0.360406   0.000000
    18  H    0.005911   0.006888   0.000000  -0.000014   0.000000   0.582339
    19  H    0.000867  -0.000001   0.000000   0.000000   0.000000  -0.005154
    20  H    0.004737   0.000000   0.000000   0.000000   0.000000  -0.000168
    21  H   -0.038122   0.000001   0.000000   0.000000   0.000000   0.000016
    22  H    0.360163   0.000216   0.000000   0.000000   0.000000  -0.000148
    23  H   -0.000076   0.349321   0.000172   0.009716  -0.000164   0.002243
    24  H    0.000000   0.000000   0.339594   0.001875   0.000013   0.000000
    25  H    0.000000   0.002133   0.338208  -0.000324   0.000084   0.000000
    26  H    0.000000  -0.000027   0.358427  -0.000281  -0.000018   0.000000
              19         20         21         22         23         24
     1  O    0.000000   0.000000   0.000000   0.000000   0.000018   0.000139
     2  S    0.000000   0.000000   0.000000   0.000000   0.001303  -0.006747
     3  N    0.000000   0.000000   0.000000   0.000000  -0.001509   0.000145
     4  C    0.000000   0.000000   0.000000   0.000059  -0.025312   0.000317
     5  N    0.000000   0.000000   0.000000  -0.000235   0.004850   0.000037
     6  O    0.000000   0.000000  -0.000002   0.009678   0.003130   0.000000
     7  C   -0.000210   0.000003  -0.000183  -0.013248  -0.031664   0.000001
     8  C    0.003273   0.000540   0.003170  -0.038545  -0.002726   0.000000
     9  C   -0.038371   0.004898   0.000866   0.005472   0.000787   0.000000
    10  C    0.359295  -0.042675   0.004491   0.000268   0.000076   0.000000
    11  C   -0.041805   0.360865  -0.042166   0.004470   0.000000   0.000000
    12  C    0.004468  -0.042544   0.360009  -0.043048   0.000000   0.000000
    13  C    0.000867   0.004737  -0.038122   0.360163  -0.000076   0.000000
    14  C   -0.000001   0.000000   0.000001   0.000216   0.349321   0.000000
    15  C    0.000000   0.000000   0.000000   0.000000   0.000172   0.339594
    16  O    0.000000   0.000000   0.000000   0.000000   0.009716   0.001875
    17  H    0.000000   0.000000   0.000000   0.000000  -0.000164   0.000013
    18  H   -0.005154  -0.000168   0.000016  -0.000148   0.002243   0.000000
    19  H    0.582728  -0.005386  -0.000176   0.000016  -0.000002   0.000000
    20  H   -0.005386   0.586372  -0.005386  -0.000159   0.000000   0.000000
    21  H   -0.000176  -0.005386   0.581515  -0.004933   0.000000   0.000000
    22  H    0.000016  -0.000159  -0.004933   0.556967  -0.000007   0.000000
    23  H   -0.000002   0.000000   0.000000  -0.000007   0.494557  -0.000006
    24  H    0.000000   0.000000   0.000000   0.000000  -0.000006   0.498862
    25  H    0.000000   0.000000   0.000000   0.000000   0.000002  -0.023654
    26  H    0.000000   0.000000   0.000000   0.000000   0.000001  -0.019312
              25         26
     1  O    0.001788  -0.000474
     2  S   -0.007075  -0.013985
     3  N   -0.001693   0.002300
     4  C    0.001726   0.000005
     5  N    0.000144  -0.000003
     6  O   -0.000029   0.000000
     7  C    0.000127   0.000000
     8  C   -0.000002   0.000000
     9  C    0.000000   0.000000
    10  C    0.000000   0.000000
    11  C    0.000000   0.000000
    12  C    0.000000   0.000000
    13  C    0.000000   0.000000
    14  C    0.002133  -0.000027
    15  C    0.338208   0.358427
    16  O   -0.000324  -0.000281
    17  H    0.000084  -0.000018
    18  H    0.000000   0.000000
    19  H    0.000000   0.000000
    20  H    0.000000   0.000000
    21  H    0.000000   0.000000
    22  H    0.000000   0.000000
    23  H    0.000002   0.000001
    24  H   -0.023654  -0.019312
    25  H    0.494927  -0.020792
    26  H   -0.020792   0.465272
 Mulliken charges:
               1
     1  O   -0.512539
     2  S    1.173423
     3  N   -0.756991
     4  C    0.479814
     5  N   -0.239511
     6  O   -0.401120
     7  C    0.386398
     8  C    0.083889
     9  C   -0.167240
    10  C   -0.137968
    11  C   -0.120490
    12  C   -0.133853
    13  C   -0.164238
    14  C   -0.282777
    15  C   -0.624793
    16  O   -0.527865
    17  H    0.370606
    18  H    0.144642
    19  H    0.140458
    20  H    0.138904
    21  H    0.140899
    22  H    0.163015
    23  H    0.195289
    24  H    0.208735
    25  H    0.214429
    26  H    0.228886
 Sum of Mulliken charges =   0.00000
 Mulliken charges with hydrogens summed into heavy atoms:
               1
     1  O   -0.512539
     2  S    1.173423
     3  N   -0.386385
     4  C    0.479814
     5  N   -0.239511
     6  O   -0.401120
     7  C    0.386398
     8  C    0.083889
     9  C   -0.022599
    10  C    0.002490
    11  C    0.018414
    12  C    0.007046
    13  C   -0.001223
    14  C   -0.087489
    15  C    0.027256
    16  O   -0.527865
 Electronic spatial extent (au):  <R**2>=           5422.6024
 Charge=              0.0000 electrons
 Dipole moment (field-independent basis, Debye):
    X=              2.7455    Y=             -0.4226    Z=              3.4837  Tot=              4.4556
 Quadrupole moment (field-independent basis, Debye-Ang):
   XX=            -93.8183   YY=           -100.2071   ZZ=            -97.9807
   XY=             -7.9675   XZ=            -12.7066   YZ=             -1.8809
 Traceless Quadrupole moment (field-independent basis, Debye-Ang):
   XX=              3.5171   YY=             -2.8717   ZZ=             -0.6453
   XY=             -7.9675   XZ=            -12.7066   YZ=             -1.8809
 Octapole moment (field-independent basis, Debye-Ang**2):
  XXX=            103.9847  YYY=            -12.3335  ZZZ=              6.4809  XYY=              1.9011
  XXY=             17.2348  XXZ=             57.3327  XZZ=            -35.3275  YZZ=             -0.1172
  YYZ=              0.7531  XYZ=             12.4302
 Hexadecapole moment (field-independent basis, Debye-Ang**3):
 XXXX=          -5896.2347 YYYY=           -849.8486 ZZZZ=           -281.1203 XXXY=            -57.4548
 XXXZ=           -159.7460 YYYX=            -24.0193 YYYZ=             -0.9319 ZZZX=            -21.1921
 ZZZY=             -2.3439 XXYY=          -1036.4626 XXZZ=          -1059.7321 YYZZ=           -186.9747
 XXYZ=            -19.5349 YYXZ=             -8.6872 ZZXY=             22.0513
 N-N= 1.179456947697D+03 E-N=-4.985697516106D+03  KE= 1.112197283534D+03
 No NMR shielding tensors so no spin-rotation constants.
 Leave Link  601 at Thu Aug  6 21:58:47 2020, MaxMem=    33554432 cpu:         0.2
 (Enter /prod/apps/gaussian/g09d1/l9999.exe)
 1\1\GINC-PIRINEUS11\SP\RB3LYP\6-31G(d)\C10H10N2O3S1\UBAFAR01\06-Aug-20
 20\0\\#p b3lyp/6-31G(d)\\SM41.n.7.pdb.xyz\\0,1\O,0,4.237,-0.935,0.347\
 S,0,3.773,0.396,-0.055\N,0,3.335,1.148,1.394\C,0,2.778,2.43,1.439\N,0,
 3.085,3.222,2.45\O,0,2.307,4.372,2.247\C,0,1.579,4.235,1.113\C,0,0.71,
 5.344,0.734\C,0,-0.047,5.274,-0.447\C,0,-0.878,6.33,-0.809\C,0,-0.963,
 7.467,0.\C,0,-0.212,7.542,1.175\C,0,0.62,6.489,1.543\C,0,1.833,3.012,0
 .554\C,0,5.158,1.321,-0.721\O,0,2.633,0.533,-0.967\H,0,3.998,0.948,2.1
 45\H,0,0.017,4.395,-1.078\H,0,-1.459,6.267,-1.723\H,0,-1.612,8.289,-0.
 285\H,0,-0.275,8.422,1.806\H,0,1.203,6.544,2.454\H,0,1.422,2.573,-0.33
 8\H,0,5.976,1.288,-0.003\H,0,4.84,2.346,-0.908\H,0,5.446,0.835,-1.654\
 \Version=AM64L-G09RevD.01\State=1-A\HF=-1120.3378297\RMSD=9.403e-09\Di
 pole=0.3654051,1.5882205,-0.6457337\Quadrupole=9.737486,-8.7408015,-0.
 9966845,-6.275994,-0.9976126,-2.36964\PG=C01 [X(C10H10N2O3S1)]\\@


      TO SUSPECT YOUR OWN MORTALITY IS TO KNOW THE BEGINNING OF TERROR.
      TO LEARN IRREFUTABLY THAT YOU ARE MORTAL IS TO KNOW THE END
      OF TERROR.

                                                  -- JESSICA
                                                     CHILDREN OF DUNE
                                                     BY FRANK HERBERT
 Job cpu time:       0 days  0 hours  2 minutes 30.0 seconds.
 File lengths (MBytes):  RWF=     40 Int=      0 D2E=      0 Chk=      4 Scr=      1
 Normal termination of Gaussian 09 at Thu Aug  6 21:58:47 2020.
 Initial command:
 /prod/apps/gaussian/g09d1/l1.exe "/tmp/ubafar01/1448589/Gau-8177.inp" -scrdir="/tmp/ubafar01/1448589/"
 Entering Link 1 = /prod/apps/gaussian/g09d1/l1.exe PID=      8451.
  
 Copyright (c) 1988,1990,1992,1993,1995,1998,2003,2009,2013,
            Gaussian, Inc.  All Rights Reserved.
  
 This is part of the Gaussian(R) 09 program.  It is based on
 the Gaussian(R) 03 system (copyright 2003, Gaussian, Inc.),
 the Gaussian(R) 98 system (copyright 1998, Gaussian, Inc.),
 the Gaussian(R) 94 system (copyright 1995, Gaussian, Inc.),
 the Gaussian 92(TM) system (copyright 1992, Gaussian, Inc.),
 the Gaussian 90(TM) system (copyright 1990, Gaussian, Inc.),
 the Gaussian 88(TM) system (copyright 1988, Gaussian, Inc.),
 the Gaussian 86(TM) system (copyright 1986, Carnegie Mellon
 University), and the Gaussian 82(TM) system (copyright 1983,
 Carnegie Mellon University). Gaussian is a federally registered
 trademark of Gaussian, Inc.
  
 This software contains proprietary and confidential information,
 including trade secrets, belonging to Gaussian, Inc.
  
 This software is provided under written license and may be
 used, copied, transmitted, or stored only in accord with that
 written license.
  
 The following legend is applicable only to US Government
 contracts under FAR:
  
                    RESTRICTED RIGHTS LEGEND
  
 Use, reproduction and disclosure by the US Government is
 subject to restrictions as set forth in subparagraphs (a)
 and (c) of the Commercial Computer Software - Restricted
 Rights clause in FAR 52.227-19.
  
 Gaussian, Inc.
 340 Quinnipiac St., Bldg. 40, Wallingford CT 06492
  
  
 ---------------------------------------------------------------
 Warning -- This program may not be used in any manner that
 competes with the business of Gaussian, Inc. or will provide
 assistance to any competitor of Gaussian, Inc.  The licensee
 of this program is prohibited from giving any competitor of
 Gaussian, Inc. access to this program.  By using this program,
 the user acknowledges that Gaussian, Inc. is engaged in the
 business of creating and licensing software in the field of
 computational chemistry and represents and warrants to the
 licensee that it is not a competitor of Gaussian, Inc. and that
 it will not use this program in any manner prohibited above.
 ---------------------------------------------------------------
  

 Cite this work as:
 Gaussian 09, Revision D.01,
 M. J. Frisch, G. W. Trucks, H. B. Schlegel, G. E. Scuseria, 
 M. A. Robb, J. R. Cheeseman, G. Scalmani, V. Barone, B. Mennucci, 
 G. A. Petersson, H. Nakatsuji, M. Caricato, X. Li, H. P. Hratchian, 
 A. F. Izmaylov, J. Bloino, G. Zheng, J. L. Sonnenberg, M. Hada, 
 M. Ehara, K. Toyota, R. Fukuda, J. Hasegawa, M. Ishida, T. Nakajima, 
 Y. Honda, O. Kitao, H. Nakai, T. Vreven, J. A. Montgomery, Jr., 
 J. E. Peralta, F. Ogliaro, M. Bearpark, J. J. Heyd, E. Brothers, 
 K. N. Kudin, V. N. Staroverov, T. Keith, R. Kobayashi, J. Normand, 
 K. Raghavachari, A. Rendell, J. C. Burant, S. S. Iyengar, J. Tomasi, 
 M. Cossi, N. Rega, J. M. Millam, M. Klene, J. E. Knox, J. B. Cross, 
 V. Bakken, C. Adamo, J. Jaramillo, R. Gomperts, R. E. Stratmann, 
 O. Yazyev, A. J. Austin, R. Cammi, C. Pomelli, J. W. Ochterski, 
 R. L. Martin, K. Morokuma, V. G. Zakrzewski, G. A. Voth, 
 P. Salvador, J. J. Dannenberg, S. Dapprich, A. D. Daniels, 
 O. Farkas, J. B. Foresman, J. V. Ortiz, J. Cioslowski, 
 and D. J. Fox, Gaussian, Inc., Wallingford CT, 2013.
 
 ******************************************
 Gaussian 09:  AM64L-G09RevD.01 24-Apr-2013
                 6-Aug-2020 
 ******************************************
 %nproc=1
 Will use up to    1 processors via shared memory.
 %Chk=SM41.n.7.pdb.xyz.mst.n.w.chk
 %subst l502 /dades/curu/work_g09D01_MST_AddSphPartition_ReadGammas/exe-dir/
 ----------------------------------------------------------------------
 #p b3lyp/6-31G(d) scrf=(iefpcm,read,solvent=Water) geom=allcheck guess
 =read
 ----------------------------------------------------------------------
 1/29=7,38=1,40=2/1;
 2/12=2,40=1/2;
 3/5=1,6=6,7=1,11=2,14=-4,16=1,25=1,30=1,70=2203,72=1,74=-5,116=-2/1,2,3;
 4/5=1/1;
 5/5=2,38=6,53=1/2;
 6/7=2,8=2,9=2,10=2,28=1/1;
 99/5=1,9=1/99;
 Leave Link    1 at Thu Aug  6 21:58:47 2020, MaxMem=           0 cpu:         0.0
 (Enter /prod/apps/gaussian/g09d1/l101.exe)
 Structure from the checkpoint file:  "SM41.n.7.pdb.xyz.mst.n.w.chk"
 ----------------
 SM41.n.7.pdb.xyz
 ----------------
 Charge =  0 Multiplicity = 1
 Z-Matrix found in file.
 O,0,4.237,-0.935,0.347
 S,0,3.773,0.396,-0.055
 N,0,3.335,1.148,1.394
 C,0,2.778,2.43,1.439
 N,0,3.085,3.222,2.45
 O,0,2.307,4.372,2.247
 C,0,1.579,4.235,1.113
 C,0,0.71,5.344,0.734
 C,0,-0.047,5.274,-0.447
 C,0,-0.878,6.33,-0.809
 C,0,-0.963,7.467,0.
 C,0,-0.212,7.542,1.175
 C,0,0.62,6.489,1.543
 C,0,1.833,3.012,0.554
 C,0,5.158,1.321,-0.721
 O,0,2.633,0.533,-0.967
 H,0,3.998,0.948,2.145
 H,0,0.017,4.395,-1.078
 H,0,-1.459,6.267,-1.723
 H,0,-1.612,8.289,-0.285
 H,0,-0.275,8.422,1.806
 H,0,1.203,6.544,2.454
 H,0,1.422,2.573,-0.338
 H,0,5.976,1.288,-0.003
 H,0,4.84,2.346,-0.908
 H,0,5.446,0.835,-1.654
 Recover connectivity data from disk.
 NAtoms=     26 NQM=       26 NQMF=       0 NMMI=      0 NMMIF=      0
                NMic=       0 NMicF=      0.
                    Isotopes and Nuclear Properties:
 (Nuclear quadrupole moments (NQMom) in fm**2, nuclear magnetic moments (NMagM)
  in nuclear magnetons)

  Atom         1           2           3           4           5           6           7           8           9          10
 IAtWgt=          16          32          14          12          14          16          12          12          12          12
 AtmWgt=  15.9949146  31.9720718  14.0030740  12.0000000  14.0030740  15.9949146  12.0000000  12.0000000  12.0000000  12.0000000
 NucSpn=           0           0           2           0           2           0           0           0           0           0
 AtZEff=  -5.6000000 -13.6000000  -4.5500000  -3.6000000  -4.5500000  -5.6000000  -3.6000000  -3.6000000  -3.6000000  -3.6000000
 NQMom=    0.0000000   0.0000000   2.0440000   0.0000000   2.0440000   0.0000000   0.0000000   0.0000000   0.0000000   0.0000000
 NMagM=    0.0000000   0.0000000   0.4037610   0.0000000   0.4037610   0.0000000   0.0000000   0.0000000   0.0000000   0.0000000
 AtZNuc=   8.0000000  16.0000000   7.0000000   6.0000000   7.0000000   8.0000000   6.0000000   6.0000000   6.0000000   6.0000000

  Atom        11          12          13          14          15          16          17          18          19          20
 IAtWgt=          12          12          12          12          12          16           1           1           1           1
 AtmWgt=  12.0000000  12.0000000  12.0000000  12.0000000  12.0000000  15.9949146   1.0078250   1.0078250   1.0078250   1.0078250
 NucSpn=           0           0           0           0           0           0           1           1           1           1
 AtZEff=  -3.6000000  -3.6000000  -3.6000000  -3.6000000  -3.6000000  -5.6000000  -1.0000000  -1.0000000  -1.0000000  -1.0000000
 NQMom=    0.0000000   0.0000000   0.0000000   0.0000000   0.0000000   0.0000000   0.0000000   0.0000000   0.0000000   0.0000000
 NMagM=    0.0000000   0.0000000   0.0000000   0.0000000   0.0000000   0.0000000   2.7928460   2.7928460   2.7928460   2.7928460
 AtZNuc=   6.0000000   6.0000000   6.0000000   6.0000000   6.0000000   8.0000000   1.0000000   1.0000000   1.0000000   1.0000000

  Atom        21          22          23          24          25          26
 IAtWgt=           1           1           1           1           1           1
 AtmWgt=   1.0078250   1.0078250   1.0078250   1.0078250   1.0078250   1.0078250
 NucSpn=           1           1           1           1           1           1
 AtZEff=  -1.0000000  -1.0000000  -1.0000000  -1.0000000  -1.0000000  -1.0000000
 NQMom=    0.0000000   0.0000000   0.0000000   0.0000000   0.0000000   0.0000000
 NMagM=    2.7928460   2.7928460   2.7928460   2.7928460   2.7928460   2.7928460
 AtZNuc=   1.0000000   1.0000000   1.0000000   1.0000000   1.0000000   1.0000000
 Leave Link  101 at Thu Aug  6 21:58:47 2020, MaxMem=    33554432 cpu:         0.0
 (Enter /prod/apps/gaussian/g09d1/l202.exe)
                          Input orientation:                          
 ---------------------------------------------------------------------
 Center     Atomic      Atomic             Coordinates (Angstroms)
 Number     Number       Type             X           Y           Z
 ---------------------------------------------------------------------
      1          8           0        4.237000   -0.935000    0.347000
      2         16           0        3.773000    0.396000   -0.055000
      3          7           0        3.335000    1.148000    1.394000
      4          6           0        2.778000    2.430000    1.439000
      5          7           0        3.085000    3.222000    2.450000
      6          8           0        2.307000    4.372000    2.247000
      7          6           0        1.579000    4.235000    1.113000
      8          6           0        0.710000    5.344000    0.734000
      9          6           0       -0.047000    5.274000   -0.447000
     10          6           0       -0.878000    6.330000   -0.809000
     11          6           0       -0.963000    7.467000    0.000000
     12          6           0       -0.212000    7.542000    1.175000
     13          6           0        0.620000    6.489000    1.543000
     14          6           0        1.833000    3.012000    0.554000
     15          6           0        5.158000    1.321000   -0.721000
     16          8           0        2.633000    0.533000   -0.967000
     17          1           0        3.998000    0.948000    2.145000
     18          1           0        0.017000    4.395000   -1.078000
     19          1           0       -1.459000    6.267000   -1.723000
     20          1           0       -1.612000    8.289000   -0.285000
     21          1           0       -0.275000    8.422000    1.806000
     22          1           0        1.203000    6.544000    2.454000
     23          1           0        1.422000    2.573000   -0.338000
     24          1           0        5.976000    1.288000   -0.003000
     25          1           0        4.840000    2.346000   -0.908000
     26          1           0        5.446000    0.835000   -1.654000
 ---------------------------------------------------------------------
                    Distance matrix (angstroms):
                    1          2          3          4          5
     1  O    0.000000
     2  S    1.465763   0.000000
     3  N    2.499740   1.690251   0.000000
     4  C    3.826796   2.712788   1.398498   0.000000
     5  N    4.798996   3.838573   2.340750   1.320467   0.000000
     6  O    5.958116   4.822545   3.489781   2.155474   1.403208
     7  C    5.863499   4.573377   3.562593   2.191324   2.254279
     8  C    7.212166   5.872580   4.993260   3.642121   3.617757
     9  C    7.585168   6.208136   5.643676   4.430119   4.734209
    10  C    8.959899   7.577115   7.032475   5.799124   5.998843
    11  C    9.887063   8.510685   7.768256   6.437171   6.356794
    12  C    9.609304   8.273962   7.315217   5.928098   5.581956
    13  C    8.344392   7.044123   5.993305   4.598180   4.191916
    14  C    4.626108   3.313297   2.536947   1.419498   2.281758
    15  C    2.660526   1.793713   2.797585   3.399982   4.238676
    16  O    2.540558   1.466326   2.538769   3.067323   4.371603
    17  H    2.614501   2.279326   1.021553   2.045277   2.469346
    18  H    6.946073   5.580866   5.259555   4.221331   4.820305
    19  H    9.412657   8.038948   7.674782   6.532456   6.879963
    20  H   10.940402   9.557749   8.847922   7.521446   7.430782
    21  H   10.490008   9.179668   8.130985   6.734951   6.224495
    22  H    8.341465   7.120245   5.897952   4.520602   3.818065
    23  H    4.549672   3.216616   2.947884   2.239847   3.310546
    24  H    2.844002   2.377305   2.991002   3.689273   4.256224
    25  H    3.564210   2.380882   2.999905   3.125269   3.888903
    26  H    2.932334   2.355515   3.720832   4.385077   5.302349
                    6          7          8          9         10
     6  O    0.000000
     7  C    1.354514   0.000000
     8  C    2.405070   1.459001   0.000000
     9  C    3.689520   2.481330   1.404532   0.000000
    10  C    4.828781   3.757653   2.423796   1.391668   0.000000
    11  C    5.031991   4.259854   2.800860   2.418287   1.398025
    12  C    4.188490   3.761353   2.423999   2.793194   2.418420
    13  C    2.797012   2.486986   1.404851   2.425121   2.793061
    14  C    2.222729   1.368476   2.594562   3.106935   4.496267
    15  C    5.123068   4.966306   6.171406   6.541660   7.844178
    16  O    5.017369   4.375171   5.453169   5.470821   6.779181
    17  H    3.820165   4.209626   5.668040   6.464887   7.840116
    18  H    4.037357   2.695538   2.159675   1.083927   2.148863
    19  H    5.790914   4.626161   3.404899   2.146618   1.084862
    20  H    6.092001   5.345260   3.886267   3.400837   2.156621
    21  H    4.823246   4.631256   3.404922   3.877873   3.402690
    22  H    2.445250   2.696505   2.154402   3.404585   3.876019
    23  H    3.271368   2.211853   3.055253   3.076564   4.430225
    24  H    5.294820   5.409609   6.687680   7.236150   8.546854
    25  H    4.524908   4.276317   5.361070   5.715634   6.969762
    26  H    6.130374   5.845509   6.961560   7.164818   8.420334
                   11         12         13         14         15
    11  C    0.000000
    12  C    1.396514   0.000000
    13  C    2.417276   1.391566   0.000000
    14  C    5.288814   5.008849   3.813007   0.000000
    15  C    8.704010   8.434012   7.240674   3.942173   0.000000
    16  O    7.870620   7.861824   6.769506   3.016435   2.656517
    17  H    8.468170   7.883263   6.517359   3.388009   3.114271
    18  H    3.399951   3.877120   3.408531   2.806059   6.000567
    19  H    2.157486   3.402799   3.877922   5.159168   8.321755
    20  H    1.085408   2.156295   3.400501   6.357568   9.725020
    21  H    2.155691   1.084680   2.146318   5.939635   9.291255
    22  H    3.400824   2.152689   1.082975   4.059794   7.280273
    23  H    5.454696   5.445189   4.417739   1.075782   3.958774
    24  H    9.291382   8.876460   7.624123   4.521822   1.088916
    25  H    7.792555   7.540558   6.401582   3.409259   1.089366
    26  H    9.369868   9.219547   8.091897   4.761130   1.090701
                   16         17         18         19         20
    16  O    0.000000
    17  H    3.423448   0.000000
    18  H    4.665921   6.173969   0.000000
    19  H    7.084826   8.545878   2.469612   0.000000
    20  H    8.867958   9.553391   4.294849   2.485908   0.000000
    21  H    8.853379   8.615923   4.961799   4.301130   2.485466
    22  H    7.062596   6.262805   4.301142   4.960877   4.297833
    23  H    2.454335   3.929592   2.416880   4.885082   6.471524
    24  H    3.560192   2.939726   6.805788   9.111974  10.328178
    25  H    2.856799   3.461817   5.242960   7.464306   8.794071
    26  H    2.911381   4.067170   6.517624   8.785807  10.356237
                   21         22         23         24         25
    21  H    0.000000
    22  H    2.476141   0.000000
    23  H    6.456574   4.859225   0.000000
    24  H    9.656161   7.512916   4.743666   0.000000
    25  H    8.393259   6.492612   3.472629   1.796910   0.000000
    26  H   10.112567   8.214097   4.576579   1.792180   1.790774
                   26
    26  H    0.000000
 Stoichiometry    C10H10N2O3S
 Framework group  C1[X(C10H10N2O3S)]
 Deg. of freedom    72
 Full point group                 C1      NOp   1
 RotChk:  IX=0 Diff= 3.05D-16
 Largest Abelian subgroup         C1      NOp   1
 Largest concise Abelian subgroup C1      NOp   1
                         Standard orientation:                         
 ---------------------------------------------------------------------
 Center     Atomic      Atomic             Coordinates (Angstroms)
 Number     Number       Type             X           Y           Z
 ---------------------------------------------------------------------
      1          8           0       -4.692582   -0.178808   -0.555053
      2         16           0       -3.352057   -0.470339   -0.038850
      3          7           0       -2.406609    0.832640   -0.553944
      4          6           0       -1.030983    0.906816   -0.313214
      5          7           0       -0.489750    2.087131   -0.073303
      6          8           0        0.885710    1.830354    0.032376
      7          6           0        1.115206    0.505069   -0.127818
      8          6           0        2.497694    0.046960   -0.040951
      9          6           0        2.796360   -1.319501   -0.168602
     10          6           0        4.114678   -1.758014   -0.088080
     11          6           0        5.149029   -0.841176    0.121689
     12          6           0        4.857521    0.518542    0.249903
     13          6           0        3.541460    0.963451    0.169293
     14          6           0       -0.070891   -0.137820   -0.357149
     15          6           0       -3.389643   -0.406930    1.753347
     16          8           0       -2.654386   -1.691966   -0.452364
     17          1           0       -2.900309    1.722611   -0.465728
     18          1           0        1.997367   -2.034008   -0.329809
     19          1           0        4.335800   -2.815402   -0.187888
     20          1           0        6.176236   -1.186234    0.184061
     21          1           0        5.656788    1.233596    0.412384
     22          1           0        3.312427    2.017356    0.267590
     23          1           0       -0.255016   -1.182396   -0.536774
     24          1           0       -3.832633    0.539727    2.058861
     25          1           0       -2.372539   -0.505174    2.130926
     26          1           0       -4.003217   -1.244070    2.088539
 ---------------------------------------------------------------------
 Rotational constants (GHZ):      1.3756435      0.2081182      0.1900250
 Leave Link  202 at Thu Aug  6 21:58:47 2020, MaxMem=    33554432 cpu:         0.0
 (Enter /prod/apps/gaussian/g09d1/l301.exe)
 Standard basis: 6-31G(d) (6D, 7F)
 Ernie: Thresh=  0.10000D-02 Tol=  0.10000D-05 Strict=F.
 There are   264 symmetry adapted cartesian basis functions of A   symmetry.
 There are   264 symmetry adapted basis functions of A   symmetry.
   264 basis functions,   512 primitive gaussians,   264 cartesian basis functions
    62 alpha electrons       62 beta electrons
       nuclear repulsion energy      1179.4569476971 Hartrees.
 IExCor=  402 DFT=T Ex+Corr=B3LYP ExCW=0 ScaHFX=  0.200000
 ScaDFX=  0.800000  0.720000  1.000000  0.810000 ScalE2=  1.000000  1.000000
 IRadAn=      0 IRanWt=     -1 IRanGd=            0 ICorTp=0 IEmpDi=  4
 NAtoms=   26 NActive=   26 NUniq=   26 SFac= 1.00D+00 NAtFMM=   60 NAOKFM=F Big=F
 Integral buffers will be    131072 words long.
 Raffenetti 2 integral format.
 Two-electron integral symmetry is turned on.
 Using the following non-standard input for PCM:
 MSTModel=DFT cav g03defaults OFac=0.8 Rmin=0.3
 Warning! Using old PCM defaults because the g03defaults keyword was found.
 These settings can be overridden by following keywords.
 --- end of non-standard input.
 MST model for solvation energy: B3LYP parametrization.
 MST cavity parameters:
 ISph   IAn     Re0     Alpha   Atom Type   QCorr
 ------------------------------------------------
   1      8     1.40     1.25      O          F
   2     16     1.75     1.25      S          F
   3      7     1.50     1.25      NH         F
   4      6     1.50     1.25      C          F
   5      7     1.40     1.25      N          F
   6      8     1.40     1.25      O          F
   7      6     1.50     1.25      C          F
   8      6     1.50     1.25      C          F
   9      6     1.50     1.25      CH         F
  10      6     1.50     1.25      CH         F
  11      6     1.50     1.25      CH         F
  12      6     1.50     1.25      CH         F
  13      6     1.50     1.25      CH         F
  14      6     1.50     1.25      CH         F
  15      6     1.50     1.25      CH3        F
  16      8     1.40     1.25      O          F
  17      1     0.90     1.25      NH         F
  18      1     1.20     1.25      CH         F
  19      1     1.20     1.25      CH         F
  20      1     1.20     1.25      CH         F
  21      1     1.20     1.25      CH         F
  22      1     1.20     1.25      CH         F
  23      1     1.20     1.25      CH         F
  24      1     1.20     1.25      CH3        F
  25      1     1.20     1.25      CH3        F
  26      1     1.20     1.25      CH3        F
 ------------------------------------------------------------------------------
 Polarizable Continuum Model (PCM)
 =================================
 Model                : PCM (using non-symmetric T matrix).
 Atomic radii         : MST.
 Polarization charges : Total charges.
 Charge compensation  : None.
 Solution method      : On-the-fly selection.
 Cavity type          : Scaled SES (Solvent Excluding Surface) (Alpha=1.250).
 Cavity algorithm     : GePol (RMin=0.300 OFac=0.800).
                        Default sphere list used, NSphG=   26.
                        Tesserae with average area of 0.200 Ang**2.
                        Smoothing algorithm: None.
                        Polarization charges: point-like.
                        Self-potential: constant (ISelfS= 1).
                        Self-field    : global E.n sum rule (ISelfD= 3).
 Solvent              : Water, Eps=  78.355300 Eps(inf)=   1.777849
                        RSolv=   1.385000 Ang.
 ------------------------------------------------------------------------------
 GePol: Number of generator spheres                  =      26
 GePol: Total number of spheres                      =      58
 GePol: Number of exposed spheres                    =      53 ( 91.38%)
 GePol: Number of tesserae                           =    2125
 GePol: Average area of tesserae                     =       0.12 Ang**2
 GePol: Minimum area of tessera                      =   0.10D-02 Ang**2
 GePol: Maximum area of tessera                      =    0.30575 Ang**2
 GePol: Number of small tesserae                     =       6
 GePol: Fraction of small tesserae (<1% of avg)      =       0.28%
 GePol: Total count of vertices                      =    7409
 GePol: Maximum number of vertices in a tessera      =       7
 GePol: Cavity surface area                          =    264.971 Ang**2
 GePol: Cavity volume                                =    259.005 Ang**3
 PCM non-electrostatic energy =         0.0028224496 Hartrees.
 Nuclear repulsion after PCM non-electrostatic terms =     1179.4597701467 Hartrees.
 Leave Link  301 at Thu Aug  6 21:58:47 2020, MaxMem=    33554432 cpu:         0.1
 (Enter /prod/apps/gaussian/g09d1/l302.exe)
 NPDir=0 NMtPBC=     1 NCelOv=     1 NCel=       1 NClECP=     1 NCelD=      1
         NCelK=      1 NCelE2=     1 NClLst=     1 CellRange=     0.0.
 One-electron integrals computed using PRISM.
 NBasis=   264 RedAO= T EigKep=  4.57D-04  NBF=   264
 NBsUse=   264 1.00D-06 EigRej= -1.00D+00 NBFU=   264
 Precomputing XC quadrature grid using
 IXCGrd= 4 IRadAn=           0 IRanWt=          -1 IRanGd=           0 AccXCQ= 0.00D+00.
 Generated NRdTot=       0 NPtTot=           0 NUsed=           0 NTot=          32
 NSgBfM=   263   263   263   263   263 MxSgAt=    26 MxSgA2=    26.
 Leave Link  302 at Thu Aug  6 21:58:48 2020, MaxMem=    33554432 cpu:         0.7
 (Enter /prod/apps/gaussian/g09d1/l303.exe)
 DipDrv:  MaxL=1.
 Leave Link  303 at Thu Aug  6 21:58:48 2020, MaxMem=    33554432 cpu:         0.0
 (Enter /prod/apps/gaussian/g09d1/l401.exe)
 Initial guess from the checkpoint file:  "SM41.n.7.pdb.xyz.mst.n.w.chk"
 B after Tr=     0.000000    0.000000    0.000000
         Rot=    1.000000    0.000000    0.000000    0.000000 Ang=   0.00 deg.
 Guess basis will be translated and rotated to current coordinates.
 JPrj=2 DoOrth=T DoCkMO=T.
 Leave Link  401 at Thu Aug  6 21:58:48 2020, MaxMem=    33554432 cpu:         0.2
 (Enter /dades/curu/work_g09D01_MST_AddSphPartition_ReadGammas/exe-dir/l502.exe)
 Closed shell SCF:
 Using DIIS extrapolation, IDIIS=  1040.
 Integral symmetry usage will be decided dynamically.
 IVT=      231207 IEndB=      231207 NGot=    33554432 MDV=    33409826
 LenX=    33409826 LenY=    33339689
 Requested convergence on RMS density matrix=1.00D-08 within 128 cycles.
 Requested convergence on MAX density matrix=1.00D-06.
 Requested convergence on             energy=1.00D-06.
 No special actions if energy rises.
 Fock matrices will be formed incrementally for  20 cycles.

 Cycle   1  Pass 1  IDiag  1:
 FoFJK:  IHMeth= 1 ICntrl=       0 DoSepK=F KAlg= 0 I1Cent=   0 FoldK=F
 IRaf= 760000000 NMat=   1 IRICut=       1 DoRegI=T DoRafI=F ISym2E= 0.
 FoFCou: FMM=F IPFlag=           0 FMFlag=      100000 FMFlg1=           0
         NFxFlg=           0 DoJE=F BraDBF=F KetDBF=F FulRan=T
         wScrn=  0.000000 ICntrl=       0 IOpCl=  0 I1Cent=           0 NGrid=           0
         NMat0=    1 NMatS0=      1 NMatT0=    0 NMatD0=    1 NMtDS0=    0 NMtDT0=    0
 Symmetry not used in FoFCou.
 Inv3:  Mode=1 IEnd=    13546875.
 Iteration    1 A*A^-1 deviation from unit magnitude is 6.44D-15 for   2113.
 Iteration    1 A*A^-1 deviation from orthogonality  is 2.12D-15 for    772    768.
 Iteration    1 A^-1*A deviation from unit magnitude is 7.11D-15 for   2113.
 Iteration    1 A^-1*A deviation from orthogonality  is 2.25D-15 for    772    768.
 E= -1120.35532520834    
 DIIS: error= 3.03D-03 at cycle   1 NSaved=   1.
 NSaved= 1 IEnMin= 1 EnMin= -1120.35532520834     IErMin= 1 ErrMin= 3.03D-03
 ErrMax= 3.03D-03  0.00D+00 EMaxC= 1.00D-01 BMatC= 1.33D-03 BMatP= 1.33D-03
 IDIUse=3 WtCom= 9.70D-01 WtEn= 3.03D-02
 Coeff-Com:  0.100D+01
 Coeff-En:   0.100D+01
 Coeff:      0.100D+01
 Gap=     0.183 Goal=   None    Shift=    0.000
 GapD=    0.183 DampG=1.000 DampE=1.000 DampFc=1.0000 IDamp=-1.
 RMSDP=6.74D-04 MaxDP=1.64D-02              OVMax= 2.12D-02

 Cycle   2  Pass 1  IDiag  1:
 RMSU=  6.70D-04    CP:  9.97D-01
 E= -1120.35736816318     Delta-E=       -0.002042954843 Rises=F Damp=F
 DIIS: error= 2.04D-03 at cycle   2 NSaved=   2.
 NSaved= 2 IEnMin= 2 EnMin= -1120.35736816318     IErMin= 2 ErrMin= 2.04D-03
 ErrMax= 2.04D-03  0.00D+00 EMaxC= 1.00D-01 BMatC= 1.47D-03 BMatP= 1.33D-03
 IDIUse=3 WtCom= 1.81D-01 WtEn= 8.19D-01
 Coeff-Com:  0.518D+00 0.482D+00
 Coeff-En:   0.000D+00 0.100D+01
 Coeff:      0.939D-01 0.906D+00
 Gap=     0.183 Goal=   None    Shift=    0.000
 RMSDP=3.59D-04 MaxDP=1.44D-02 DE=-2.04D-03 OVMax= 2.14D-02

 Cycle   3  Pass 1  IDiag  1:
 RMSU=  3.14D-04    CP:  9.98D-01  7.42D-01
 E= -1120.35534036211     Delta-E=        0.002027801067 Rises=F Damp=F
 DIIS: error= 3.33D-03 at cycle   3 NSaved=   3.
 NSaved= 3 IEnMin= 2 EnMin= -1120.35736816318     IErMin= 2 ErrMin= 2.04D-03
 ErrMax= 3.33D-03  0.00D+00 EMaxC= 1.00D-01 BMatC= 4.04D-03 BMatP= 1.33D-03
 IDIUse=3 WtCom= 1.48D-01 WtEn= 8.52D-01
 Coeff-Com:  0.707D-01 0.590D+00 0.339D+00
 Coeff-En:   0.000D+00 0.686D+00 0.314D+00
 Coeff:      0.104D-01 0.672D+00 0.317D+00
 Gap=     0.183 Goal=   None    Shift=    0.000
 RMSDP=1.87D-04 MaxDP=8.27D-03 DE= 2.03D-03 OVMax= 1.29D-02

 Cycle   4  Pass 1  IDiag  1:
 RMSU=  4.82D-05    CP:  9.97D-01  8.82D-01  5.12D-01
[...]
   20      H20     12.15  -0.040   -0.29
   21      H21     12.12  -0.040   -0.27
   22      H22      9.58  -0.033   -0.11
   23      H23      7.00  -0.032   -0.18
   24      H24     11.15  -0.066   -0.92
   25      H25      9.62  -0.056   -0.68
   26      H26     12.84  -0.078   -0.70
 Added spheres:    24.28  -0.080    0.00
 --------------------------------------------------------------------
 After PCM corrections, the energy is  -1120.35858798     a.u.
 --------------------------------------------------------------------
 Leave Link  502 at Thu Aug  6 22:00:53 2020, MaxMem=    33554432 cpu:       124.4
 (Enter /prod/apps/gaussian/g09d1/l601.exe)
 Copying SCF densities to generalized density rwf, IOpCl= 0 IROHF=0.

 **********************************************************************

            Population analysis using the SCF density.

 **********************************************************************

 Orbital symmetries:
       Occupied  (A) (A) (A) (A) (A) (A) (A) (A) (A) (A) (A) (A)
                 (A) (A) (A) (A) (A) (A) (A) (A) (A) (A) (A) (A)
                 (A) (A) (A) (A) (A) (A) (A) (A) (A) (A) (A) (A)
                 (A) (A) (A) (A) (A) (A) (A) (A) (A) (A) (A) (A)
                 (A) (A) (A) (A) (A) (A) (A) (A) (A) (A) (A) (A)
                 (A) (A)
       Virtual   (A) (A) (A) (A) (A) (A) (A) (A) (A) (A) (A) (A)
                 (A) (A) (A) (A) (A) (A) (A) (A) (A) (A) (A) (A)
                 (A) (A) (A) (A) (A) (A) (A) (A) (A) (A) (A) (A)
                 (A) (A) (A) (A) (A) (A) (A) (A) (A) (A) (A) (A)
                 (A) (A) (A) (A) (A) (A) (A) (A) (A) (A) (A) (A)
                 (A) (A) (A) (A) (A) (A) (A) (A) (A) (A) (A) (A)
                 (A) (A) (A) (A) (A) (A) (A) (A) (A) (A) (A) (A)
                 (A) (A) (A) (A) (A) (A) (A) (A) (A) (A) (A) (A)
                 (A) (A) (A) (A) (A) (A) (A) (A) (A) (A) (A) (A)
                 (A) (A) (A) (A) (A) (A) (A) (A) (A) (A) (A) (A)
                 (A) (A) (A) (A) (A) (A) (A) (A) (A) (A) (A) (A)
                 (A) (A) (A) (A) (A) (A) (A) (A) (A) (A) (A) (A)
                 (A) (A) (A) (A) (A) (A) (A) (A) (A) (A) (A) (A)
                 (A) (A) (A) (A) (A) (A) (A) (A) (A) (A) (A) (A)
                 (A) (A) (A) (A) (A) (A) (A) (A) (A) (A) (A) (A)
                 (A) (A) (A) (A) (A) (A) (A) (A) (A) (A) (A) (A)
                 (A) (A) (A) (A) (A) (A) (A) (A) (A) (A)
 The electronic state is 1-A.
 Alpha  occ. eigenvalues --  -89.13490 -19.24392 -19.16309 -19.16211 -14.39378
 Alpha  occ. eigenvalues --  -14.38666 -10.28066 -10.27264 -10.22903 -10.21780
 Alpha  occ. eigenvalues --  -10.20362 -10.20305 -10.20194 -10.19995 -10.19887
 Alpha  occ. eigenvalues --  -10.19843  -8.16018  -6.12549  -6.12439  -6.12277
 Alpha  occ. eigenvalues --   -1.14941  -1.13142  -1.02083  -0.96740  -0.87705
 Alpha  occ. eigenvalues --   -0.85598  -0.81269  -0.78063  -0.75593  -0.75413
 Alpha  occ. eigenvalues --   -0.66967  -0.64556  -0.62138  -0.59987  -0.59573
 Alpha  occ. eigenvalues --   -0.55106  -0.54052  -0.50561  -0.50225  -0.49101
 Alpha  occ. eigenvalues --   -0.48127  -0.47681  -0.46418  -0.44958  -0.44448
 Alpha  occ. eigenvalues --   -0.43825  -0.43353  -0.42596  -0.40139  -0.38756
 Alpha  occ. eigenvalues --   -0.37314  -0.36257  -0.35720  -0.35139  -0.33728
 Alpha  occ. eigenvalues --   -0.32746  -0.32376  -0.32113  -0.30112  -0.26874
 Alpha  occ. eigenvalues --   -0.26184  -0.23739
 Alpha virt. eigenvalues --   -0.05460  -0.01090   0.01212   0.04663   0.06259
 Alpha virt. eigenvalues --    0.07076   0.08120   0.09440   0.10180   0.10745
 Alpha virt. eigenvalues --    0.11764   0.13252   0.13561   0.15233   0.15389
 Alpha virt. eigenvalues --    0.15803   0.16820   0.16959   0.17710   0.19349
 Alpha virt. eigenvalues --    0.23680   0.24148   0.26750   0.28328   0.29921
 Alpha virt. eigenvalues --    0.31009   0.32948   0.34010   0.35385   0.37125
 Alpha virt. eigenvalues --    0.40785   0.41816   0.43891   0.44605   0.47159
 Alpha virt. eigenvalues --    0.49848   0.50766   0.51619   0.52595   0.53291
 Alpha virt. eigenvalues --    0.54239   0.54530   0.55601   0.57689   0.58050
 Alpha virt. eigenvalues --    0.58691   0.59033   0.60004   0.60800   0.61267
 Alpha virt. eigenvalues --    0.62113   0.63575   0.64041   0.64631   0.66490
 Alpha virt. eigenvalues --    0.67630   0.69213   0.70399   0.70911   0.74706
 Alpha virt. eigenvalues --    0.75349   0.76297   0.78334   0.79127   0.80553
 Alpha virt. eigenvalues --    0.81090   0.82003   0.83122   0.83677   0.84459
 Alpha virt. eigenvalues --    0.85299   0.86402   0.86952   0.88642   0.89396
 Alpha virt. eigenvalues --    0.89896   0.90883   0.92302   0.94489   0.95362
 Alpha virt. eigenvalues --    0.95764   0.96571   0.97768   0.98753   1.01103
 Alpha virt. eigenvalues --    1.02798   1.03126   1.05917   1.09169   1.10245
 Alpha virt. eigenvalues --    1.12014   1.14292   1.15074   1.17242   1.17669
 Alpha virt. eigenvalues --    1.19644   1.20217   1.23457   1.23989   1.24578
 Alpha virt. eigenvalues --    1.29236   1.30660   1.31191   1.34505   1.35362
 Alpha virt. eigenvalues --    1.37522   1.39785   1.41318   1.42180   1.42928
 Alpha virt. eigenvalues --    1.46510   1.47024   1.48162   1.48821   1.50006
 Alpha virt. eigenvalues --    1.51562   1.53946   1.57132   1.60386   1.63681
 Alpha virt. eigenvalues --    1.68675   1.73551   1.73686   1.76801   1.78132
 Alpha virt. eigenvalues --    1.78423   1.79316   1.79480   1.81292   1.84050
 Alpha virt. eigenvalues --    1.85529   1.86695   1.88722   1.89770   1.92134
 Alpha virt. eigenvalues --    1.94398   1.96767   1.97663   2.00047   2.01492
 Alpha virt. eigenvalues --    2.04080   2.05342   2.05872   2.10023   2.10414
 Alpha virt. eigenvalues --    2.12349   2.13174   2.13765   2.14583   2.15670
 Alpha virt. eigenvalues --    2.18195   2.18865   2.20646   2.22086   2.24321
 Alpha virt. eigenvalues --    2.25511   2.27686   2.29522   2.29978   2.30391
 Alpha virt. eigenvalues --    2.32415   2.33494   2.43557   2.50127   2.52610
 Alpha virt. eigenvalues --    2.53769   2.56331   2.58004   2.59335   2.61886
 Alpha virt. eigenvalues --    2.65902   2.66580   2.69058   2.72470   2.73937
 Alpha virt. eigenvalues --    2.74502   2.76092   2.79969   2.83870   2.89874
 Alpha virt. eigenvalues --    2.90322   3.00974   3.04458   3.13376   3.26733
 Alpha virt. eigenvalues --    3.42689   3.75504   3.78096   3.87518   3.96967
 Alpha virt. eigenvalues --    4.03925   4.06880   4.08612   4.10787   4.12650
 Alpha virt. eigenvalues --    4.21247   4.24291   4.31416   4.37483   4.39214
 Alpha virt. eigenvalues --    4.54839   4.73923
          Condensed to atoms (all electrons):
               1          2          3          4          5          6
     1  O    8.250088   0.455172  -0.052260   0.001457  -0.000015   0.000000
     2  S    0.455172  13.630812   0.127244  -0.009901  -0.002271   0.000109
     3  N   -0.052260   0.127244   7.425191   0.228952  -0.074016   0.005367
     4  C    0.001457  -0.009901   0.228952   4.505188   0.436869  -0.048281
     5  N   -0.000015  -0.002271  -0.074016   0.436869   6.918406   0.129637
     6  O    0.000000   0.000109   0.005367  -0.048281   0.129637   8.191975
     7  C   -0.000001   0.000283  -0.000571  -0.015007  -0.086837   0.250412
     8  C    0.000000  -0.000016  -0.000199   0.003234   0.004661  -0.037492
     9  C    0.000000  -0.000001   0.000002   0.000612  -0.000110   0.003127
    10  C    0.000000   0.000000   0.000000  -0.000007   0.000001  -0.000061
    11  C    0.000000   0.000000   0.000000   0.000000   0.000000   0.000002
    12  C    0.000000   0.000000   0.000000   0.000004   0.000001   0.000287
    13  C    0.000000   0.000000  -0.000001  -0.000365   0.000164  -0.006810
    14  C   -0.000044  -0.001433  -0.054667   0.452947  -0.050977  -0.087386
    15  C   -0.058276   0.237672  -0.062701   0.000426   0.000044   0.000005
    16  O   -0.042993   0.421906  -0.049810  -0.005478   0.000079   0.000000
    17  H    0.000562  -0.004588   0.287939  -0.021013   0.003189  -0.000175
    18  H    0.000000  -0.000004   0.000000   0.000084  -0.000006   0.000027
    19  H    0.000000   0.000000   0.000000   0.000000   0.000000   0.000000
    20  H    0.000000   0.000000   0.000000   0.000000   0.000000   0.000000
    21  H    0.000000   0.000000   0.000000   0.000000   0.000000  -0.000003
    22  H    0.000000   0.000000   0.000000   0.000052  -0.000234   0.009719
    23  H    0.000017   0.001438  -0.001526  -0.027788   0.005068   0.003180
    24  H    0.000005  -0.008092   0.000028   0.000194   0.000039   0.000000
    25  H    0.001731  -0.007204  -0.001794   0.001654   0.000119  -0.000025
    26  H   -0.000339  -0.013667   0.002246   0.000022  -0.000002   0.000000
               7          8          9         10         11         12
     1  O   -0.000001   0.000000   0.000000   0.000000   0.000000   0.000000
     2  S    0.000283  -0.000016  -0.000001   0.000000   0.000000   0.000000
     3  N   -0.000571  -0.000199   0.000002   0.000000   0.000000   0.000000
     4  C   -0.015007   0.003234   0.000612  -0.000007   0.000000   0.000004
     5  N   -0.086837   0.004661  -0.000110   0.000001   0.000000   0.000001
     6  O    0.250412  -0.037492   0.003127  -0.000061   0.000002   0.000287
     7  C    4.751146   0.343289  -0.041762   0.006323   0.000841   0.004681
     8  C    0.343289   4.788127   0.534940  -0.011052  -0.033889  -0.009653
     9  C   -0.041762   0.534940   5.016080   0.518334  -0.040049  -0.041361
    10  C    0.006323  -0.011052   0.518334   4.883003   0.539792  -0.026153
    11  C    0.000841  -0.033889  -0.040049   0.539792   4.874516   0.538889
    12  C    0.004681  -0.009653  -0.041361  -0.026153   0.538889   4.890301
    13  C   -0.041028   0.472490  -0.081654  -0.042131  -0.038084   0.506605
    14  C    0.489226  -0.057209  -0.020660   0.000235   0.000015  -0.000235
    15  C   -0.000200   0.000000   0.000000   0.000000   0.000000   0.000000
    16  O    0.000535  -0.000004   0.000002   0.000000   0.000000   0.000000
    17  H    0.000255   0.000001   0.000000   0.000000   0.000000   0.000000
    18  H   -0.012521  -0.037249   0.357131  -0.041087   0.004487   0.000167
    19  H   -0.000200   0.003213  -0.037244   0.363060  -0.040528   0.004362
    20  H    0.000003   0.000485   0.004795  -0.041402   0.364491  -0.041260
    21  H   -0.000171   0.003226   0.000764   0.004395  -0.040746   0.363627
    22  H   -0.012884  -0.042840   0.005323   0.000199   0.004559  -0.040792
    23  H   -0.029176  -0.003155   0.001021   0.000079  -0.000001   0.000001
    24  H    0.000001   0.000000   0.000000   0.000000   0.000000   0.000000
    25  H    0.000097  -0.000001   0.000000   0.000000   0.000000   0.000000
    26  H    0.000000   0.000000   0.000000   0.000000   0.000000   0.000000
              13         14         15         16         17         18
     1  O    0.000000  -0.000044  -0.058276  -0.042993   0.000562   0.000000
     2  S    0.000000  -0.001433   0.237672   0.421906  -0.004588  -0.000004
     3  N   -0.000001  -0.054667  -0.062701  -0.049810   0.287939   0.000000
     4  C   -0.000365   0.452947   0.000426  -0.005478  -0.021013   0.000084
     5  N    0.000164  -0.050977   0.000044   0.000079   0.003189  -0.000006
     6  O   -0.006810  -0.087386   0.000005   0.000000  -0.000175   0.000027
     7  C   -0.041028   0.489226  -0.000200   0.000535   0.000255  -0.012521
     8  C    0.472490  -0.057209   0.000000  -0.000004   0.000001  -0.037249
     9  C   -0.081654  -0.020660   0.000000   0.000002   0.000000   0.357131
    10  C   -0.042131   0.000235   0.000000   0.000000   0.000000  -0.041087
    11  C   -0.038084   0.000015   0.000000   0.000000   0.000000   0.004487
    12  C    0.506605  -0.000235   0.000000   0.000000   0.000000   0.000167
    13  C    5.058442   0.011746   0.000000   0.000000   0.000000   0.005591
    14  C    0.011746   5.238297  -0.001416   0.000390   0.004071   0.006425
    15  C    0.000000  -0.001416   5.523369  -0.057547   0.000100   0.000000
    16  O    0.000000   0.000390  -0.057547   8.282536   0.001184  -0.000013
    17  H    0.000000   0.004071   0.000100   0.001184   0.301672   0.000000
    18  H    0.005591   0.006425   0.000000  -0.000013   0.000000   0.554353
    19  H    0.000791  -0.000001   0.000000   0.000000   0.000000  -0.004829
    20  H    0.004675   0.000000   0.000000   0.000000   0.000000  -0.000154
    21  H   -0.037413   0.000001   0.000000   0.000000   0.000000   0.000015
    22  H    0.362841   0.000235   0.000000   0.000000   0.000000  -0.000138
    23  H   -0.000082   0.349770   0.000158   0.009788  -0.000133   0.001800
    24  H    0.000000   0.000009   0.344145   0.001783   0.000001   0.000000
    25  H    0.000000   0.001802   0.341463  -0.000453   0.000073   0.000000
    26  H    0.000000  -0.000024   0.356120  -0.000175  -0.000010   0.000000
              19         20         21         22         23         24
     1  O    0.000000   0.000000   0.000000   0.000000   0.000017   0.000005
     2  S    0.000000   0.000000   0.000000   0.000000   0.001438  -0.008092
     3  N    0.000000   0.000000   0.000000   0.000000  -0.001526   0.000028
     4  C    0.000000   0.000000   0.000000   0.000052  -0.027788   0.000194
     5  N    0.000000   0.000000   0.000000  -0.000234   0.005068   0.000039
     6  O    0.000000   0.000000  -0.000003   0.009719   0.003180   0.000000
     7  C   -0.000200   0.000003  -0.000171  -0.012884  -0.029176   0.000001
     8  C    0.003213   0.000485   0.003226  -0.042840  -0.003155   0.000000
     9  C   -0.037244   0.004795   0.000764   0.005323   0.001021   0.000000
    10  C    0.363060  -0.041402   0.004395   0.000199   0.000079   0.000000
    11  C   -0.040528   0.364491  -0.040746   0.004559  -0.000001   0.000000
    12  C    0.004362  -0.041260   0.363627  -0.040792   0.000001   0.000000
    13  C    0.000791   0.004675  -0.037413   0.362841  -0.000082   0.000000
    14  C   -0.000001   0.000000   0.000001   0.000235   0.349770   0.000009
    15  C    0.000000   0.000000   0.000000   0.000000   0.000158   0.344145
    16  O    0.000000   0.000000   0.000000   0.000000   0.009788   0.001783
    17  H    0.000000   0.000000   0.000000   0.000000  -0.000133   0.000001
    18  H   -0.004829  -0.000154   0.000015  -0.000138   0.001800   0.000000
    19  H    0.555837  -0.005070  -0.000161   0.000015  -0.000002   0.000000
    20  H   -0.005070   0.559090  -0.005073  -0.000150   0.000000   0.000000
    21  H   -0.000161  -0.005073   0.556202  -0.004895   0.000000   0.000000
    22  H    0.000015  -0.000150  -0.004895   0.553133  -0.000008   0.000000
    23  H   -0.000002   0.000000   0.000000  -0.000008   0.488300  -0.000005
    24  H    0.000000   0.000000   0.000000   0.000000  -0.000005   0.465220
    25  H    0.000000   0.000000   0.000000   0.000000   0.000005  -0.020424
    26  H    0.000000   0.000000   0.000000   0.000000   0.000000  -0.017321
              25         26
     1  O    0.001731  -0.000339
     2  S   -0.007204  -0.013667
     3  N   -0.001794   0.002246
     4  C    0.001654   0.000022
     5  N    0.000119  -0.000002
     6  O   -0.000025   0.000000
     7  C    0.000097   0.000000
     8  C   -0.000001   0.000000
     9  C    0.000000   0.000000
    10  C    0.000000   0.000000
    11  C    0.000000   0.000000
    12  C    0.000000   0.000000
    13  C    0.000000   0.000000
    14  C    0.001802  -0.000024
    15  C    0.341463   0.356120
    16  O   -0.000453  -0.000175
    17  H    0.000073  -0.000010
    18  H    0.000000   0.000000
    19  H    0.000000   0.000000
    20  H    0.000000   0.000000
    21  H    0.000000   0.000000
    22  H    0.000000   0.000000
    23  H    0.000005   0.000000
    24  H   -0.020424  -0.017321
    25  H    0.470659  -0.018696
    26  H   -0.018696   0.448253
 Mulliken charges:
               1
     1  O   -0.555105
     2  S    1.172542
     3  N   -0.779423
     4  C    0.496143
     5  N   -0.283809
     6  O   -0.413612
     7  C    0.393266
     8  C    0.079093
     9  C   -0.179290
    10  C   -0.153528
    11  C   -0.134294
    12  C   -0.149471
    13  C   -0.175779
    14  C   -0.281116
    15  C   -0.623361
    16  O   -0.561730
    17  H    0.426870
    18  H    0.165922
    19  H    0.160758
    20  H    0.159571
    21  H    0.160231
    22  H    0.165865
    23  H    0.201250
    24  H    0.234416
    25  H    0.230995
    26  H    0.243593
 Sum of Mulliken charges =   0.00000
 Mulliken charges with hydrogens summed into heavy atoms:
               1
     1  O   -0.555105
     2  S    1.172542
     3  N   -0.352553
     4  C    0.496143
     5  N   -0.283809
     6  O   -0.413612
     7  C    0.393266
     8  C    0.079093
     9  C   -0.013367
    10  C    0.007230
    11  C    0.025277
    12  C    0.010760
    13  C   -0.009914
    14  C   -0.079866
    15  C    0.085644
    16  O   -0.561730
 Electronic spatial extent (au):  <R**2>=           5421.0381
 Charge=              0.0000 electrons
 Dipole moment (field-independent basis, Debye):
    X=              3.1201    Y=             -0.5536    Z=              4.3647  Tot=              5.3937
 Quadrupole moment (field-independent basis, Debye-Ang):
   XX=            -92.1303   YY=           -100.6183   ZZ=            -97.1536
   XY=            -10.7191   XZ=            -15.4830   YZ=             -2.2417
 Traceless Quadrupole moment (field-independent basis, Debye-Ang):
   XX=              4.5038   YY=             -3.9842   ZZ=             -0.5196
   XY=            -10.7191   XZ=            -15.4830   YZ=             -2.2417
 Octapole moment (field-independent basis, Debye-Ang**2):
  XXX=            132.1551  YYY=            -15.5848  ZZZ=             10.5420  XYY=              4.7272
  XXY=             20.3956  XXZ=             69.5637  XZZ=            -38.2002  YZZ=             -0.3434
  YYZ=              1.5681  XYZ=             14.2265
 Hexadecapole moment (field-independent basis, Debye-Ang**3):
 XXXX=          -5832.1535 YYYY=           -853.6834 ZZZZ=           -272.7579 XXXY=            -95.6878
 XXXZ=           -200.2134 YYYX=            -38.9051 YYYZ=             -2.0017 ZZZX=            -34.7584
 ZZZY=             -3.6232 XXYY=          -1019.0948 XXZZ=          -1049.2021 YYZZ=           -186.5106
 XXYZ=            -23.4938 YYXZ=            -11.5455 ZZXY=             21.3453
 N-N= 1.179459770147D+03 E-N=-4.986008971744D+03  KE= 1.112202423430D+03
 No NMR shielding tensors so no spin-rotation constants.
 Leave Link  601 at Thu Aug  6 22:00:53 2020, MaxMem=    33554432 cpu:         0.2
 (Enter /prod/apps/gaussian/g09d1/l9999.exe)
 1\1\GINC-PIRINEUS11\SP\RB3LYP\6-31G(d)\C10H10N2O3S1\UBAFAR01\06-Aug-20
 20\0\\#p b3lyp/6-31G(d) scrf=(iefpcm,read,solvent=Water) geom=allcheck
  guess=read\\SM41.n.7.pdb.xyz\\0,1\O,0,4.237,-0.935,0.347\S,0,3.773,0.
 396,-0.055\N,0,3.335,1.148,1.394\C,0,2.778,2.43,1.439\N,0,3.085,3.222,
 2.45\O,0,2.307,4.372,2.247\C,0,1.579,4.235,1.113\C,0,0.71,5.344,0.734\
 C,0,-0.047,5.274,-0.447\C,0,-0.878,6.33,-0.809\C,0,-0.963,7.467,0.\C,0
 ,-0.212,7.542,1.175\C,0,0.62,6.489,1.543\C,0,1.833,3.012,0.554\C,0,5.1
 58,1.321,-0.721\O,0,2.633,0.533,-0.967\H,0,3.998,0.948,2.145\H,0,0.017
 ,4.395,-1.078\H,0,-1.459,6.267,-1.723\H,0,-1.612,8.289,-0.285\H,0,-0.2
 75,8.422,1.806\H,0,1.203,6.544,2.454\H,0,1.422,2.573,-0.338\H,0,5.976,
 1.288,-0.003\H,0,4.84,2.346,-0.908\H,0,5.446,0.835,-1.654\\Version=AM6
 4L-G09RevD.01\State=1-A\HF=-1120.358588\RMSD=2.543e-09\Dipole=0.524213
 3,1.8837179,-0.8244996\Quadrupole=12.3017416,-10.7174107,-1.5843309,-7
 .8052076,-1.0130658,-3.5446572\PG=C01 [X(C10H10N2O3S1)]\\@


 Change starts when someone sees the next step.
                            -- William Drayton
 Job cpu time:       0 days  0 hours  2 minutes  5.8 seconds.
 File lengths (MBytes):  RWF=    115 Int=      0 D2E=      0 Chk=      5 Scr=      1
 Normal termination of Gaussian 09 at Thu Aug  6 22:00:53 2020.
