 Entering Gaussian System, Link 0=g09
 Initial command:
 /prod/apps/gaussian/g09d1/l1.exe "/tmp/ubafar01/1448582/Gau-146443.inp" -scrdir="/tmp/ubafar01/1448582/"
 Entering Link 1 = /prod/apps/gaussian/g09d1/l1.exe PID=    146445.
  
 Copyright (c) 1988,1990,1992,1993,1995,1998,2003,2009,2013,
            Gaussian, Inc.  All Rights Reserved.
  
 This is part of the Gaussian(R) 09 program.  It is based on
 the Gaussian(R) 03 system (copyright 2003, Gaussian, Inc.),
 the Gaussian(R) 98 system (copyright 1998, Gaussian, Inc.),
 the Gaussian(R) 94 system (copyright 1995, Gaussian, Inc.),
 the Gaussian 92(TM) system (copyright 1992, Gaussian, Inc.),
 the Gaussian 90(TM) system (copyright 1990, Gaussian, Inc.),
 the Gaussian 88(TM) system (copyright 1988, Gaussian, Inc.),
 the Gaussian 86(TM) system (copyright 1986, Carnegie Mellon
 University), and the Gaussian 82(TM) system (copyright 1983,
 Carnegie Mellon University). Gaussian is a federally registered
 trademark of Gaussian, Inc.
  
 This software contains proprietary and confidential information,
 including trade secrets, belonging to Gaussian, Inc.
  
 This software is provided under written license and may be
 used, copied, transmitted, or stored only in accord with that
 written license.
  
 The following legend is applicable only to US Government
 contracts under FAR:
  
                    RESTRICTED RIGHTS LEGEND
  
 Use, reproduction and disclosure by the US Government is
 subject to restrictions as set forth in subparagraphs (a)
 and (c) of the Commercial Computer Software - Restricted
 Rights clause in FAR 52.227-19.
  
 Gaussian, Inc.
 340 Quinnipiac St., Bldg. 40, Wallingford CT 06492
  
  
 ---------------------------------------------------------------
 Warning -- This program may not be used in any manner that
 competes with the business of Gaussian, Inc. or will provide
 assistance to any competitor of Gaussian, Inc.  The licensee
 of this program is prohibited from giving any competitor of
 Gaussian, Inc. access to this program.  By using this program,
 the user acknowledges that Gaussian, Inc. is engaged in the
 business of creating and licensing software in the field of
 computational chemistry and represents and warrants to the
 licensee that it is not a competitor of Gaussian, Inc. and that
 it will not use this program in any manner prohibited above.
 ---------------------------------------------------------------
  

 Cite this work as:
 Gaussian 09, Revision D.01,
 M. J. Frisch, G. W. Trucks, H. B. Schlegel, G. E. Scuseria, 
 M. A. Robb, J. R. Cheeseman, G. Scalmani, V. Barone, B. Mennucci, 
 G. A. Petersson, H. Nakatsuji, M. Caricato, X. Li, H. P. Hratchian, 
 A. F. Izmaylov, J. Bloino, G. Zheng, J. L. Sonnenberg, M. Hada, 
 M. Ehara, K. Toyota, R. Fukuda, J. Hasegawa, M. Ishida, T. Nakajima, 
 Y. Honda, O. Kitao, H. Nakai, T. Vreven, J. A. Montgomery, Jr., 
 J. E. Peralta, F. Ogliaro, M. Bearpark, J. J. Heyd, E. Brothers, 
 K. N. Kudin, V. N. Staroverov, T. Keith, R. Kobayashi, J. Normand, 
 K. Raghavachari, A. Rendell, J. C. Burant, S. S. Iyengar, J. Tomasi, 
 M. Cossi, N. Rega, J. M. Millam, M. Klene, J. E. Knox, J. B. Cross, 
 V. Bakken, C. Adamo, J. Jaramillo, R. Gomperts, R. E. Stratmann, 
 O. Yazyev, A. J. Austin, R. Cammi, C. Pomelli, J. W. Ochterski, 
 R. L. Martin, K. Morokuma, V. G. Zakrzewski, G. A. Voth, 
 P. Salvador, J. J. Dannenberg, S. Dapprich, A. D. Daniels, 
 O. Farkas, J. B. Foresman, J. V. Ortiz, J. Cioslowski, 
 and D. J. Fox, Gaussian, Inc., Wallingford CT, 2013.
 
 ******************************************
 Gaussian 09:  AM64L-G09RevD.01 24-Apr-2013
                 6-Aug-2020 
 ******************************************
 %nproc=1
 Will use up to    1 processors via shared memory.
 %Chk=SM41.n.10.pdb.xyz.mst.n.w.chk
 -----------------
 #p b3lyp/6-31G(d)
 -----------------
 1/38=1/1;
 2/12=2,17=6,18=5,40=1/2;
 3/5=1,6=6,7=1,11=2,16=1,25=1,30=1,74=-5/1,2,3;
 4//1;
 5/5=2,38=5/2;
 6/7=2,8=2,9=2,10=2,28=1/1;
 99/5=1,9=1/99;
 Leave Link    1 at Thu Aug  6 21:56:18 2020, MaxMem=           0 cpu:         0.0
 (Enter /prod/apps/gaussian/g09d1/l101.exe)
 -----------------
 SM41.n.10.pdb.xyz
 -----------------
 Symbolic Z-matrix:
 Charge =  0 Multiplicity = 1
 O                     1.398     0.248     3.836 
 S                     2.527     0.1       2.908 
 N                     2.341     1.106     1.556 
 C                     1.843     2.403     1.628 
 N                     1.963     3.13      2.724 
 O                     1.395     4.37      2.391 
 C                     0.963     4.342     1.108 
 C                     0.34      5.551     0.58 
 C                    -0.105     5.586    -0.751 
 C                    -0.701     6.737    -1.259 
 C                    -0.858     7.864    -0.447 
 C                    -0.416     7.834     0.877 
 C                     0.18      6.686     1.392 
 C                     1.22      3.113     0.568 
 C                     3.991     0.768     3.683 
 O                     2.805    -1.219     2.329 
 H                     2.087     0.573     0.724 
 H                     0.017     4.714    -1.383 
 H                    -1.042     6.755    -2.289 
 H                    -1.323     8.759    -0.846 
 H                    -0.536     8.706     1.511 
 H                     0.524     6.659     2.419 
 H                     1.002     2.756    -0.425 
 H                     3.801     1.817     3.906 
 H                     4.829     0.654     2.996 
 H                     4.156     0.199     4.598 
 
 NAtoms=     26 NQM=       26 NQMF=       0 NMMI=      0 NMMIF=      0
                NMic=       0 NMicF=      0.
                    Isotopes and Nuclear Properties:
 (Nuclear quadrupole moments (NQMom) in fm**2, nuclear magnetic moments (NMagM)
  in nuclear magnetons)

  Atom         1           2           3           4           5           6           7           8           9          10
 IAtWgt=          16          32          14          12          14          16          12          12          12          12
 AtmWgt=  15.9949146  31.9720718  14.0030740  12.0000000  14.0030740  15.9949146  12.0000000  12.0000000  12.0000000  12.0000000
 NucSpn=           0           0           2           0           2           0           0           0           0           0
 AtZEff=   0.0000000   0.0000000   0.0000000   0.0000000   0.0000000   0.0000000   0.0000000   0.0000000   0.0000000   0.0000000
 NQMom=    0.0000000   0.0000000   2.0440000   0.0000000   2.0440000   0.0000000   0.0000000   0.0000000   0.0000000   0.0000000
 NMagM=    0.0000000   0.0000000   0.4037610   0.0000000   0.4037610   0.0000000   0.0000000   0.0000000   0.0000000   0.0000000
 AtZNuc=   8.0000000  16.0000000   7.0000000   6.0000000   7.0000000   8.0000000   6.0000000   6.0000000   6.0000000   6.0000000

  Atom        11          12          13          14          15          16          17          18          19          20
 IAtWgt=          12          12          12          12          12          16           1           1           1           1
 AtmWgt=  12.0000000  12.0000000  12.0000000  12.0000000  12.0000000  15.9949146   1.0078250   1.0078250   1.0078250   1.0078250
 NucSpn=           0           0           0           0           0           0           1           1           1           1
 AtZEff=   0.0000000   0.0000000   0.0000000   0.0000000   0.0000000   0.0000000   0.0000000   0.0000000   0.0000000   0.0000000
 NQMom=    0.0000000   0.0000000   0.0000000   0.0000000   0.0000000   0.0000000   0.0000000   0.0000000   0.0000000   0.0000000
 NMagM=    0.0000000   0.0000000   0.0000000   0.0000000   0.0000000   0.0000000   2.7928460   2.7928460   2.7928460   2.7928460
 AtZNuc=   6.0000000   6.0000000   6.0000000   6.0000000   6.0000000   8.0000000   1.0000000   1.0000000   1.0000000   1.0000000

  Atom        21          22          23          24          25          26
 IAtWgt=           1           1           1           1           1           1
 AtmWgt=   1.0078250   1.0078250   1.0078250   1.0078250   1.0078250   1.0078250
 NucSpn=           1           1           1           1           1           1
 AtZEff=   0.0000000   0.0000000   0.0000000   0.0000000   0.0000000   0.0000000
 NQMom=    0.0000000   0.0000000   0.0000000   0.0000000   0.0000000   0.0000000
 NMagM=    2.7928460   2.7928460   2.7928460   2.7928460   2.7928460   2.7928460
 AtZNuc=   1.0000000   1.0000000   1.0000000   1.0000000   1.0000000   1.0000000
 Leave Link  101 at Thu Aug  6 21:56:18 2020, MaxMem=    33554432 cpu:         0.1
 (Enter /prod/apps/gaussian/g09d1/l202.exe)
                          Input orientation:                          
 ---------------------------------------------------------------------
 Center     Atomic      Atomic             Coordinates (Angstroms)
 Number     Number       Type             X           Y           Z
 ---------------------------------------------------------------------
      1          8           0        1.398000    0.248000    3.836000
      2         16           0        2.527000    0.100000    2.908000
      3          7           0        2.341000    1.106000    1.556000
      4          6           0        1.843000    2.403000    1.628000
      5          7           0        1.963000    3.130000    2.724000
      6          8           0        1.395000    4.370000    2.391000
      7          6           0        0.963000    4.342000    1.108000
      8          6           0        0.340000    5.551000    0.580000
      9          6           0       -0.105000    5.586000   -0.751000
     10          6           0       -0.701000    6.737000   -1.259000
     11          6           0       -0.858000    7.864000   -0.447000
     12          6           0       -0.416000    7.834000    0.877000
     13          6           0        0.180000    6.686000    1.392000
     14          6           0        1.220000    3.113000    0.568000
     15          6           0        3.991000    0.768000    3.683000
     16          8           0        2.805000   -1.219000    2.329000
     17          1           0        2.087000    0.573000    0.724000
     18          1           0        0.017000    4.714000   -1.383000
     19          1           0       -1.042000    6.755000   -2.289000
     20          1           0       -1.323000    8.759000   -0.846000
     21          1           0       -0.536000    8.706000    1.511000
     22          1           0        0.524000    6.659000    2.419000
     23          1           0        1.002000    2.756000   -0.425000
     24          1           0        3.801000    1.817000    3.906000
     25          1           0        4.829000    0.654000    2.996000
     26          1           0        4.156000    0.199000    4.598000
 ---------------------------------------------------------------------
                    Distance matrix (angstroms):
                    1          2          3          4          5
     1  O    0.000000
     2  S    1.468921   0.000000
     3  N    2.612243   1.695446   0.000000
     4  C    3.117261   2.722143   1.391185   0.000000
     5  N    3.140333   3.087532   2.367210   1.320661   0.000000
     6  O    4.367942   4.447653   3.499405   2.156841   1.403963
     7  C    4.938830   4.866278   3.545601   2.191922   2.253974
     8  C    6.312108   6.317907   4.971378   3.642419   3.618302
     9  C    7.196792   7.100134   5.601390   4.425589   4.731193
    10  C    8.513046   8.475473   6.991863   5.795711   5.997636
    11  C    9.024250   9.110101   7.740554   6.436113   6.357990
    12  C    8.342282   8.520620   7.302607   5.929827   5.585577
    13  C    6.993176   7.154164   5.986085   4.600582   4.195051
    14  C    4.349682   4.032619   2.502166   1.419799   2.280499
    15  C    2.649049   1.786098   2.713093   3.392662   3.257531
    16  O    2.530373   1.467067   2.493682   3.812575   4.447335
    17  H    3.203887   2.277539   1.020210   2.055639   3.248634
    18  H    7.006445   6.782461   5.201573   4.212021   4.812839
    19  H    9.263384   9.167093   7.624953   6.527329   6.877559
    20  H   10.087720  10.192806   8.818328   7.519506   7.431577
    21  H    8.982413   9.241040   8.126448   6.738037   6.229618
    22  H    6.623646   6.875435   5.906104   4.525370   3.823295
    23  H    4.960141   4.526461   2.905130   2.246486   3.313548
    24  H    2.870726   2.359485   2.856505   3.060465   2.549380
    25  H    3.555587   2.369359   2.909991   3.721105   3.797172
    26  H    2.861749   2.349371   3.656588   4.362165   4.112406
                    6          7          8          9         10
     6  O    0.000000
     7  C    1.354067   0.000000
     8  C    2.405724   1.458970   0.000000
     9  C    3.687929   2.478718   1.403856   0.000000
    10  C    4.828913   3.756010   2.423262   1.392150   0.000000
    11  C    5.033715   4.258938   2.799982   2.418410   1.397899
    12  C    4.191803   3.761524   2.423187   2.792957   2.418084
    13  C    2.799657   2.487585   1.404695   2.425629   2.794023
    14  C    2.221262   1.366781   2.591985   3.100180   4.490161
    15  C    4.624163   5.345361   6.770192   7.723386   9.059094
    16  O    5.764448   5.984023   7.414049   8.016391   9.405515
    17  H    4.204160   3.951733   5.277616   5.666627   7.049832
    18  H    4.032406   2.690424   2.158302   1.083832   2.150216
    19  H    5.790474   4.624089   3.404512   2.147085   1.085129
    20  H    6.093358   5.343576   3.884625   3.400070   2.155444
    21  H    4.827428   4.631836   3.404139   3.877732   3.402512
    22  H    2.449275   2.698135   2.154864   3.405271   3.877421
    23  H    3.269450   2.206129   3.043073   3.056244   4.409549
    24  H    3.821239   4.717910   6.081410   7.151912   8.435143
    25  H    5.095786   5.666731   7.068860   7.918901   9.256825
    26  H    5.467286   6.288068   7.703901   8.705613  10.031966
                   11         12         13         14         15
    11  C    0.000000
    12  C    1.396152   0.000000
    13  C    2.418067   1.392245   0.000000
    14  C    5.283967   5.005978   3.811418   0.000000
    15  C    9.535351   8.787698   7.402373   4.783377   0.000000
    16  O   10.179619   9.718022   8.381982   4.937567   2.681060
    17  H    7.950028   7.681832   6.438295   2.688424   3.524049
    18  H    3.400621   3.876788   3.408222   2.795856   7.551685
    19  H    2.157939   3.402892   3.879150   5.152015   9.840734
    20  H    1.084643   2.155691   3.400733   6.351658  10.611622
    21  H    2.155554   1.084776   2.146443   5.937544   9.392718
    22  H    3.402338   2.154528   1.083418   4.060140   6.951379
    23  H    5.436152   5.430655   4.407048   1.077507   5.455449
    24  H    8.787554   7.947466   6.568028   4.414003   1.089142
    25  H    9.807156   9.140710   7.782740   4.996673   1.089591
    26  H   10.456789   9.645841   8.256402   5.775153   1.090051
                   16         17         18         19         20
    16  O    0.000000
    17  H    2.510540   0.000000
    18  H    7.533417   5.086475   0.000000
    19  H    9.985490   7.555523   2.471436   0.000000
    20  H   11.255287   9.005753   4.294880   2.485403   0.000000
    21  H   10.504143   8.581677   4.961563   4.301446   2.485483
    22  H    8.202070   6.508102   4.300614   4.962543   4.299027
    23  H    5.161003   2.694980   2.392019   4.862554   6.451269
    24  H    3.563178   3.822363   7.119325   9.285285   9.850292
    25  H    2.837181   3.561897   7.669067   9.981085  10.876539
    26  H    2.997380   4.407779   8.560894  10.836564  11.529535
                   21         22         23         24         25
    21  H    0.000000
    22  H    2.477554   0.000000
    23  H    6.443294   4.852858   0.000000
    24  H    8.485512   6.032815   5.241534   0.000000
    25  H    9.788930   7.411206   5.546853   1.799292   0.000000
    26  H   10.193796   7.724705   6.458831   1.795219   1.796207
                   26
    26  H    0.000000
 Stoichiometry    C10H10N2O3S
 Framework group  C1[X(C10H10N2O3S)]
 Deg. of freedom    72
 Full point group                 C1      NOp   1
 Largest Abelian subgroup         C1      NOp   1
 Largest concise Abelian subgroup C1      NOp   1
                         Standard orientation:                         
 ---------------------------------------------------------------------
 Center     Atomic      Atomic             Coordinates (Angstroms)
 Number     Number       Type             X           Y           Z
 ---------------------------------------------------------------------
      1          8           0       -3.397360   -0.543172    1.489228
      2         16           0       -3.610859    0.121400    0.196753
      3          7           0       -2.188492    0.865762   -0.348531
      4          6           0       -0.925663    0.297836   -0.213927
      5          7           0       -0.759231   -1.010680   -0.148883
      6          8           0        0.631308   -1.187852   -0.070625
      7          6           0        1.245353    0.018654   -0.098733
      8          6           0        2.702483    0.035206   -0.027382
      9          6           0        3.392595    1.256751   -0.076217
     10          6           0        4.782888    1.277670   -0.007446
     11          6           0        5.498738    0.082635    0.109047
     12          6           0        4.816590   -1.134583    0.156957
     13          6           0        3.426259   -1.162960    0.089728
     14          6           0        0.304608    1.006086   -0.188558
     15          6           0       -3.888260   -1.130227   -1.046879
     16          8           0       -4.621526    1.180266    0.098556
     17          1           0       -2.236743    1.880558   -0.255305
     18          1           0        2.839891    2.184530   -0.168065
     19          1           0        5.307949    2.226531   -0.045901
     20          1           0        6.581873    0.102650    0.162608
     21          1           0        5.367793   -2.064469    0.247660
     22          1           0        2.893530   -2.105626    0.126829
     23          1           0        0.451225    2.072854   -0.227690
     24          1           0       -3.008748   -1.771979   -1.075939
     25          1           0       -4.050912   -0.636607   -2.004529
     26          1           0       -4.770976   -1.692773   -0.742633
 ---------------------------------------------------------------------
 Rotational constants (GHZ):      1.8983409      0.1838149      0.1744880
 Leave Link  202 at Thu Aug  6 21:56:18 2020, MaxMem=    33554432 cpu:         0.0
 (Enter /prod/apps/gaussian/g09d1/l301.exe)
 Standard basis: 6-31G(d) (6D, 7F)
 Ernie: Thresh=  0.10000D-02 Tol=  0.10000D-05 Strict=F.
 There are   264 symmetry adapted cartesian basis functions of A   symmetry.
 There are   264 symmetry adapted basis functions of A   symmetry.
   264 basis functions,   512 primitive gaussians,   264 cartesian basis functions
    62 alpha electrons       62 beta electrons
       nuclear repulsion energy      1171.2645436709 Hartrees.
 IExCor=  402 DFT=T Ex+Corr=B3LYP ExCW=0 ScaHFX=  0.200000
 ScaDFX=  0.800000  0.720000  1.000000  0.810000 ScalE2=  1.000000  1.000000
 IRadAn=      0 IRanWt=     -1 IRanGd=            0 ICorTp=0 IEmpDi=  4
 NAtoms=   26 NActive=   26 NUniq=   26 SFac= 1.00D+00 NAtFMM=   60 NAOKFM=F Big=F
 Integral buffers will be    131072 words long.
 Raffenetti 2 integral format.
 Two-electron integral symmetry is turned on.
 Leave Link  301 at Thu Aug  6 21:56:18 2020, MaxMem=    33554432 cpu:         0.1
 (Enter /prod/apps/gaussian/g09d1/l302.exe)
 NPDir=0 NMtPBC=     1 NCelOv=     1 NCel=       1 NClECP=     1 NCelD=      1
         NCelK=      1 NCelE2=     1 NClLst=     1 CellRange=     0.0.
 One-electron integrals computed using PRISM.
 NBasis=   264 RedAO= T EigKep=  4.59D-04  NBF=   264
 NBsUse=   264 1.00D-06 EigRej= -1.00D+00 NBFU=   264
 Precomputing XC quadrature grid using
 IXCGrd= 4 IRadAn=           0 IRanWt=          -1 IRanGd=           0 AccXCQ= 0.00D+00.
 Generated NRdTot=       0 NPtTot=           0 NUsed=           0 NTot=          32
 NSgBfM=   261   261   261   261   261 MxSgAt=    26 MxSgA2=    26.
 Leave Link  302 at Thu Aug  6 21:56:19 2020, MaxMem=    33554432 cpu:         0.7
 (Enter /prod/apps/gaussian/g09d1/l303.exe)
 DipDrv:  MaxL=1.
 Leave Link  303 at Thu Aug  6 21:56:19 2020, MaxMem=    33554432 cpu:         0.1
 (Enter /prod/apps/gaussian/g09d1/l401.exe)
 ExpMin= 1.17D-01 ExpMax= 2.19D+04 ExpMxC= 3.30D+03 IAcc=1 IRadAn=         1 AccDes= 0.00D+00
 Harris functional with IExCor=  402 and IRadAn=       1 diagonalized for initial guess.
 HarFok:  IExCor=  402 AccDes= 0.00D+00 IRadAn=         1 IDoV= 1 UseB2=F ITyADJ=14
 ICtDFT=  3500011 ScaDFX=  1.000000  1.000000  1.000000  1.000000
 FoFCou: FMM=F IPFlag=           0 FMFlag=      100000 FMFlg1=           0
         NFxFlg=           0 DoJE=T BraDBF=F KetDBF=T FulRan=T
         wScrn=  0.000000 ICntrl=     500 IOpCl=  0 I1Cent=   200000004 NGrid=           0
         NMat0=    1 NMatS0=      1 NMatT0=    0 NMatD0=    1 NMtDS0=    0 NMtDT0=    0
 Petite list used in FoFCou.
 Harris En= -1120.38183809268    
 JPrj=0 DoOrth=F DoCkMO=F.
 Leave Link  401 at Thu Aug  6 21:56:21 2020, MaxMem=    33554432 cpu:         2.2
 (Enter /prod/apps/gaussian/g09d1/l502.exe)
 Closed shell SCF:
 Using DIIS extrapolation, IDIIS=  1040.
 Integral symmetry usage will be decided dynamically.
 IVT=      231207 IEndB=      231207 NGot=    33554432 MDV=    33409826
 LenX=    33409826 LenY=    33339689
 Requested convergence on RMS density matrix=1.00D-08 within 128 cycles.
 Requested convergence on MAX density matrix=1.00D-06.
 Requested convergence on             energy=1.00D-06.
 No special actions if energy rises.
 Fock matrices will be formed incrementally for  20 cycles.
 Integral accuracy reduced to 1.0D-05 until final iterations.

 Cycle   1  Pass 0  IDiag  1:
 FoFJK:  IHMeth= 1 ICntrl=       0 DoSepK=F KAlg= 0 I1Cent=   0 FoldK=F
 IRaf= 740000000 NMat=   1 IRICut=       1 DoRegI=T DoRafI=F ISym2E= 0.
 FoFCou: FMM=F IPFlag=           0 FMFlag=      100000 FMFlg1=           0
         NFxFlg=           0 DoJE=F BraDBF=F KetDBF=F FulRan=T
         wScrn=  0.000000 ICntrl=       0 IOpCl=  0 I1Cent=           0 NGrid=           0
         NMat0=    1 NMatS0=      1 NMatT0=    0 NMatD0=    1 NMtDS0=    0 NMtDT0=    0
 Symmetry not used in FoFCou.
 E= -1119.83468768662    
 DIIS: error= 3.74D-02 at cycle   1 NSaved=   1.
 NSaved= 1 IEnMin= 1 EnMin= -1119.83468768662     IErMin= 1 ErrMin= 3.74D-02
 ErrMax= 3.74D-02  0.00D+00 EMaxC= 1.00D-01 BMatC= 5.80D-01 BMatP= 5.80D-01
 IDIUse=3 WtCom= 6.26D-01 WtEn= 3.74D-01
 Coeff-Com:  0.100D+01
 Coeff-En:   0.100D+01
 Coeff:      0.100D+01
 Gap=     0.278 Goal=   None    Shift=    0.000
 GapD=    0.278 DampG=1.000 DampE=0.500 DampFc=0.5000 IDamp=-1.
 Damping current iteration by 5.00D-01
 RMSDP=7.43D-03 MaxDP=5.85D-01              OVMax= 2.48D-01

 Cycle   2  Pass 0  IDiag  1:
 RMSU=  3.71D-03    CP:  9.92D-01
 E= -1119.94878674330     Delta-E=       -0.114099056680 Rises=F Damp=T
 DIIS: error= 1.78D-02 at cycle   2 NSaved=   2.
 NSaved= 2 IEnMin= 2 EnMin= -1119.94878674330     IErMin= 2 ErrMin= 1.78D-02
 ErrMax= 1.78D-02  0.00D+00 EMaxC= 1.00D-01 BMatC= 9.84D-02 BMatP= 5.80D-01
 IDIUse=3 WtCom= 8.22D-01 WtEn= 1.78D-01
 Coeff-Com:  0.238D+00 0.762D+00
 Coeff-En:   0.381D+00 0.619D+00
 Coeff:      0.263D+00 0.737D+00
 Gap=     0.209 Goal=   None    Shift=    0.000
 RMSDP=2.26D-03 MaxDP=1.27D-01 DE=-1.14D-01 OVMax= 2.10D-01

 Cycle   3  Pass 0  IDiag  1:
 RMSU=  1.85D-03    CP:  9.80D-01  6.57D-01
 E= -1120.28600414490     Delta-E=       -0.337217401595 Rises=F Damp=F
 DIIS: error= 1.12D-02 at cycle   3 NSaved=   3.
 NSaved= 3 IEnMin= 3 EnMin= -1120.28600414490     IErMin= 3 ErrMin= 1.12D-02
 ErrMax= 1.12D-02  0.00D+00 EMaxC= 1.00D-01 BMatC= 5.59D-02 BMatP= 9.84D-02
 IDIUse=3 WtCom= 8.88D-01 WtEn= 1.12D-01
 Coeff-Com:  0.832D-01 0.428D+00 0.488D+00
 Coeff-En:   0.000D+00 0.000D+00 0.100D+01
 Coeff:      0.739D-01 0.381D+00 0.546D+00
 Gap=     0.184 Goal=   None    Shift=    0.000
 RMSDP=1.23D-03 MaxDP=4.32D-02 DE=-3.37D-01 OVMax= 5.29D-02

 Cycle   4  Pass 0  IDiag  1:
 RMSU=  7.78D-04    CP:  9.86D-01  7.44D-01  5.23D-01
 E= -1120.32837564151     Delta-E=       -0.042371496610 Rises=F Damp=F
 DIIS: error= 3.61D-03 at cycle   4 NSaved=   4.
 NSaved= 4 IEnMin= 4 EnMin= -1120.32837564151     IErMin= 4 ErrMin= 3.61D-03
 ErrMax= 3.61D-03  0.00D+00 EMaxC= 1.00D-01 BMatC= 8.72D-03 BMatP= 5.59D-02
 IDIUse=3 WtCom= 9.64D-01 WtEn= 3.61D-02
 Coeff-Com:  0.102D-01 0.928D-01 0.300D+00 0.597D+00
 Coeff-En:   0.000D+00 0.000D+00 0.124D+00 0.876D+00
 Coeff:      0.985D-02 0.894D-01 0.293D+00 0.607D+00
 Gap=     0.182 Goal=   None    Shift=    0.000
 RMSDP=4.16D-04 MaxDP=1.77D-02 DE=-4.24D-02 OVMax= 2.30D-02

 Cycle   5  Pass 0  IDiag  1:
 RMSU=  2.56D-04    CP:  9.85D-01  7.25D-01  6.25D-01  6.65D-01
 E= -1120.33454893318     Delta-E=       -0.006173291672 Rises=F Damp=F
 DIIS: error= 1.49D-03 at cycle   5 NSaved=   5.
 NSaved= 5 IEnMin= 5 EnMin= -1120.33454893318     IErMin= 5 ErrMin= 1.49D-03
 ErrMax= 1.49D-03  0.00D+00 EMaxC= 1.00D-01 BMatC= 1.31D-03 BMatP= 8.72D-03
 IDIUse=3 WtCom= 9.85D-01 WtEn= 1.49D-02
 Coeff-Com: -0.557D-03 0.237D-01 0.144D+00 0.388D+00 0.445D+00
 Coeff-En:   0.000D+00 0.000D+00 0.000D+00 0.930D-01 0.907D+00
 Coeff:     -0.548D-03 0.234D-01 0.142D+00 0.383D+00 0.452D+00
 Gap=     0.182 Goal=   None    Shift=    0.000
 RMSDP=1.74D-04 MaxDP=7.03D-03 DE=-6.17D-03 OVMax= 1.20D-02

 Cycle   6  Pass 0  IDiag  1:
 RMSU=  8.55D-05    CP:  9.85D-01  7.30D-01  6.28D-01  7.09D-01  4.28D-01
 E= -1120.33558506202     Delta-E=       -0.001036128838 Rises=F Damp=F
 DIIS: error= 5.80D-04 at cycle   6 NSaved=   6.
 NSaved= 6 IEnMin= 6 EnMin= -1120.33558506202     IErMin= 6 ErrMin= 5.80D-04
 ErrMax= 5.80D-04  0.00D+00 EMaxC= 1.00D-01 BMatC= 1.44D-04 BMatP= 1.31D-03
 IDIUse=3 WtCom= 9.94D-01 WtEn= 5.80D-03
 Coeff-Com: -0.149D-02 0.407D-02 0.487D-01 0.154D+00 0.287D+00 0.508D+00
 Coeff-En:   0.000D+00 0.000D+00 0.000D+00 0.000D+00 0.925D-01 0.908D+00
 Coeff:     -0.149D-02 0.405D-02 0.484D-01 0.153D+00 0.286D+00 0.511D+00
 Gap=     0.182 Goal=   None    Shift=    0.000
 RMSDP=4.99D-05 MaxDP=1.96D-03 DE=-1.04D-03 OVMax= 3.35D-03

 Cycle   7  Pass 0  IDiag  1:
 RMSU=  2.74D-05    CP:  9.85D-01  7.30D-01  6.29D-01  7.12D-01  5.14D-01
                    CP:  5.87D-01
 E= -1120.33570571533     Delta-E=       -0.000120653317 Rises=F Damp=F
 DIIS: error= 1.48D-04 at cycle   7 NSaved=   7.
 NSaved= 7 IEnMin= 7 EnMin= -1120.33570571533     IErMin= 7 ErrMin= 1.48D-04
 ErrMax= 1.48D-04  0.00D+00 EMaxC= 1.00D-01 BMatC= 8.14D-06 BMatP= 1.44D-04
 IDIUse=3 WtCom= 9.99D-01 WtEn= 1.48D-03
 Coeff-Com: -0.812D-03 0.176D-03 0.150D-01 0.517D-01 0.120D+00 0.284D+00
 Coeff-Com:  0.530D+00
 Coeff-En:   0.000D+00 0.000D+00 0.000D+00 0.000D+00 0.000D+00 0.000D+00
 Coeff-En:   0.100D+01
 Coeff:     -0.811D-03 0.175D-03 0.150D-01 0.516D-01 0.120D+00 0.283D+00
 Coeff:      0.531D+00
 Gap=     0.182 Goal=   None    Shift=    0.000
 RMSDP=1.29D-05 MaxDP=3.57D-04 DE=-1.21D-04 OVMax= 8.61D-04

 Cycle   8  Pass 0  IDiag  1:
 RMSU=  7.88D-06    CP:  9.85D-01  7.30D-01  6.29D-01  7.14D-01  5.17D-01
                    CP:  6.09D-01  6.43D-01
 E= -1120.33571258718     Delta-E=       -0.000006871847 Rises=F Damp=F
 DIIS: error= 4.05D-05 at cycle   8 NSaved=   8.
 NSaved= 8 IEnMin= 8 EnMin= -1120.33571258718     IErMin= 8 ErrMin= 4.05D-05
 ErrMax= 4.05D-05  0.00D+00 EMaxC= 1.00D-01 BMatC= 7.70D-07 BMatP= 8.14D-06
 IDIUse=1 WtCom= 1.00D+00 WtEn= 0.00D+00
 Coeff-Com: -0.314D-03-0.336D-03 0.371D-02 0.143D-01 0.407D-01 0.115D+00
 Coeff-Com:  0.294D+00 0.532D+00
 Coeff:     -0.314D-03-0.336D-03 0.371D-02 0.143D-01 0.407D-01 0.115D+00
 Coeff:      0.294D+00 0.532D+00
 Gap=     0.182 Goal=   None    Shift=    0.000
 RMSDP=4.69D-06 MaxDP=1.78D-04 DE=-6.87D-06 OVMax= 3.50D-04

 Initial convergence to 1.0D-05 achieved.  Increase integral accuracy.
 Cycle   9  Pass 1  IDiag  1:
 E= -1120.33567872058     Delta-E=        0.000033866602 Rises=F Damp=F
 DIIS: error= 5.74D-05 at cycle   1 NSaved=   1.
 NSaved= 1 IEnMin= 1 EnMin= -1120.33567872058     IErMin= 1 ErrMin= 5.74D-05
 ErrMax= 5.74D-05  0.00D+00 EMaxC= 1.00D-01 BMatC= 5.71D-07 BMatP= 5.71D-07
 IDIUse=1 WtCom= 1.00D+00 WtEn= 0.00D+00
 Coeff-Com:  0.100D+01
 Coeff:      0.100D+01
 Gap=     0.182 Goal=   None    Shift=    0.000
 RMSDP=4.69D-06 MaxDP=1.78D-04 DE= 3.39D-05 OVMax= 3.62D-04

 Cycle  10  Pass 1  IDiag  1:
 RMSU=  3.85D-05    CP:  1.00D+00
 E= -1120.33567878022     Delta-E=       -0.000000059639 Rises=F Damp=F
 DIIS: error= 3.64D-05 at cycle   2 NSaved=   2.
 NSaved= 2 IEnMin= 2 EnMin= -1120.33567878022     IErMin= 2 ErrMin= 3.64D-05
 ErrMax= 3.64D-05  0.00D+00 EMaxC= 1.00D-01 BMatC= 5.26D-07 BMatP= 5.71D-07
 IDIUse=1 WtCom= 1.00D+00 WtEn= 0.00D+00
 Coeff-Com:  0.485D+00 0.515D+00
 Coeff:      0.485D+00 0.515D+00
 Gap=     0.182 Goal=   None    Shift=    0.000
 RMSDP=4.66D-06 MaxDP=2.59D-04 DE=-5.96D-08 OVMax= 4.14D-04

 Cycle  11  Pass 1  IDiag  1:
 RMSU=  4.65D-06    CP:  1.00D+00  9.97D-01
 E= -1120.33567906200     Delta-E=       -0.000000281786 Rises=F Damp=F
 DIIS: error= 2.39D-05 at cycle   3 NSaved=   3.
 NSaved= 3 IEnMin= 3 EnMin= -1120.33567906200     IErMin= 3 ErrMin= 2.39D-05
 ErrMax= 2.39D-05  0.00D+00 EMaxC= 1.00D-01 BMatC= 2.43D-07 BMatP= 5.26D-07
 IDIUse=1 WtCom= 1.00D+00 WtEn= 0.00D+00
 Coeff-Com:  0.707D-02 0.403D+00 0.590D+00
 Coeff:      0.707D-02 0.403D+00 0.590D+00
 Gap=     0.182 Goal=   None    Shift=    0.000
 RMSDP=1.93D-06 MaxDP=1.19D-04 DE=-2.82D-07 OVMax= 1.75D-04

 Cycle  12  Pass 1  IDiag  1:
 RMSU=  5.81D-07    CP:  1.00D+00  1.01D+00  6.14D-01
 E= -1120.33567929244     Delta-E=       -0.000000230436 Rises=F Damp=F
 DIIS: error= 4.82D-06 at cycle   4 NSaved=   4.
 NSaved= 4 IEnMin= 4 EnMin= -1120.33567929244     IErMin= 4 ErrMin= 4.82D-06
 ErrMax= 4.82D-06  0.00D+00 EMaxC= 1.00D-01 BMatC= 6.17D-09 BMatP= 2.43D-07
 IDIUse=1 WtCom= 1.00D+00 WtEn= 0.00D+00
 Coeff-Com: -0.564D-02 0.224D+00 0.344D+00 0.437D+00
 Coeff:     -0.564D-02 0.224D+00 0.344D+00 0.437D+00
 Gap=     0.182 Goal=   None    Shift=    0.000
 RMSDP=3.55D-07 MaxDP=1.39D-05 DE=-2.30D-07 OVMax= 2.59D-05

 Cycle  13  Pass 1  IDiag  1:
 RMSU=  2.10D-07    CP:  1.00D+00  1.01D+00  6.14D-01  5.10D-01
 E= -1120.33567929793     Delta-E=       -0.000000005490 Rises=F Damp=F
 DIIS: error= 9.67D-07 at cycle   5 NSaved=   5.
 NSaved= 5 IEnMin= 5 EnMin= -1120.33567929793     IErMin= 5 ErrMin= 9.67D-07
 ErrMax= 9.67D-07  0.00D+00 EMaxC= 1.00D-01 BMatC= 5.25D-10 BMatP= 6.17D-09
 IDIUse=1 WtCom= 1.00D+00 WtEn= 0.00D+00
 Coeff-Com: -0.402D-02 0.108D+00 0.168D+00 0.277D+00 0.452D+00
 Coeff:     -0.402D-02 0.108D+00 0.168D+00 0.277D+00 0.452D+00
 Gap=     0.182 Goal=   None    Shift=    0.000
 RMSDP=1.05D-07 MaxDP=3.21D-06 DE=-5.49D-09 OVMax= 6.55D-06

 Cycle  14  Pass 1  IDiag  1:
 RMSU=  7.08D-08    CP:  1.00D+00  1.01D+00  6.15D-01  5.42D-01  6.42D-01
 E= -1120.33567929841     Delta-E=       -0.000000000476 Rises=F Damp=F
 DIIS: error= 1.75D-07 at cycle   6 NSaved=   6.
 NSaved= 6 IEnMin= 6 EnMin= -1120.33567929841     IErMin= 6 ErrMin= 1.75D-07
 ErrMax= 1.75D-07  0.00D+00 EMaxC= 1.00D-01 BMatC= 2.42D-11 BMatP= 5.25D-10
 IDIUse=1 WtCom= 1.00D+00 WtEn= 0.00D+00
 Coeff-Com: -0.149D-02 0.344D-01 0.537D-01 0.103D+00 0.231D+00 0.579D+00
 Coeff:     -0.149D-02 0.344D-01 0.537D-01 0.103D+00 0.231D+00 0.579D+00
 Gap=     0.182 Goal=   None    Shift=    0.000
 RMSDP=2.65D-08 MaxDP=8.68D-07 DE=-4.76D-10 OVMax= 1.32D-06

 Cycle  15  Pass 1  IDiag  1:
 RMSU=  2.13D-08    CP:  1.00D+00  1.01D+00  6.15D-01  5.47D-01  6.71D-01
                    CP:  8.02D-01
 E= -1120.33567929843     Delta-E=       -0.000000000024 Rises=F Damp=F
 DIIS: error= 1.68D-07 at cycle   7 NSaved=   7.
 NSaved= 7 IEnMin= 7 EnMin= -1120.33567929843     IErMin= 7 ErrMin= 1.68D-07
 ErrMax= 1.68D-07  0.00D+00 EMaxC= 1.00D-01 BMatC= 6.59D-12 BMatP= 2.42D-11
 IDIUse=1 WtCom= 1.00D+00 WtEn= 0.00D+00
 Coeff-Com: -0.380D-03 0.572D-02 0.893D-02 0.250D-01 0.783D-01 0.375D+00
 Coeff-Com:  0.508D+00
 Coeff:     -0.380D-03 0.572D-02 0.893D-02 0.250D-01 0.783D-01 0.375D+00
 Coeff:      0.508D+00
 Gap=     0.182 Goal=   None    Shift=    0.000
 RMSDP=1.17D-08 MaxDP=3.75D-07 DE=-2.41D-11 OVMax= 9.20D-07

 Cycle  16  Pass 1  IDiag  1:
 RMSU=  7.28D-09    CP:  1.00D+00  1.01D+00  6.15D-01  5.49D-01  6.82D-01
                    CP:  8.38D-01  6.08D-01
 E= -1120.33567929845     Delta-E=       -0.000000000022 Rises=F Damp=F
 DIIS: error= 5.17D-08 at cycle   8 NSaved=   8.
 NSaved= 8 IEnMin= 8 EnMin= -1120.33567929845     IErMin= 8 ErrMin= 5.17D-08
 ErrMax= 5.17D-08  0.00D+00 EMaxC= 1.00D-01 BMatC= 5.57D-13 BMatP= 6.59D-12
 IDIUse=1 WtCom= 1.00D+00 WtEn= 0.00D+00
 Coeff-Com:  0.420D-05-0.162D-02-0.256D-02-0.400D-03 0.106D-01 0.130D+00
 Coeff-Com:  0.282D+00 0.582D+00
 Coeff:      0.420D-05-0.162D-02-0.256D-02-0.400D-03 0.106D-01 0.130D+00
 Coeff:      0.282D+00 0.582D+00
 Gap=     0.182 Goal=   None    Shift=    0.000
 RMSDP=3.66D-09 MaxDP=1.09D-07 DE=-2.18D-11 OVMax= 2.59D-07

 SCF Done:  E(RB3LYP) =  -1120.33567930     A.U. after   16 cycles
            NFock= 16  Conv=0.37D-08     -V/T= 2.0073
 KE= 1.112197481341D+03 PE=-4.969594796121D+03 EE= 1.565797091811D+03
 Leave Link  502 at Thu Aug  6 21:59:16 2020, MaxMem=    33554432 cpu:       174.4
 (Enter /prod/apps/gaussian/g09d1/l601.exe)
 Copying SCF densities to generalized density rwf, IOpCl= 0 IROHF=0.

 **********************************************************************

            Population analysis using the SCF density.

 **********************************************************************

 Orbital symmetries:
       Occupied  (A) (A) (A) (A) (A) (A) (A) (A) (A) (A) (A) (A)
                 (A) (A) (A) (A) (A) (A) (A) (A) (A) (A) (A) (A)
                 (A) (A) (A) (A) (A) (A) (A) (A) (A) (A) (A) (A)
                 (A) (A) (A) (A) (A) (A) (A) (A) (A) (A) (A) (A)
                 (A) (A) (A) (A) (A) (A) (A) (A) (A) (A) (A) (A)
                 (A) (A)
       Virtual   (A) (A) (A) (A) (A) (A) (A) (A) (A) (A) (A) (A)
                 (A) (A) (A) (A) (A) (A) (A) (A) (A) (A) (A) (A)
                 (A) (A) (A) (A) (A) (A) (A) (A) (A) (A) (A) (A)
                 (A) (A) (A) (A) (A) (A) (A) (A) (A) (A) (A) (A)
                 (A) (A) (A) (A) (A) (A) (A) (A) (A) (A) (A) (A)
                 (A) (A) (A) (A) (A) (A) (A) (A) (A) (A) (A) (A)
                 (A) (A) (A) (A) (A) (A) (A) (A) (A) (A) (A) (A)
                 (A) (A) (A) (A) (A) (A) (A) (A) (A) (A) (A) (A)
                 (A) (A) (A) (A) (A) (A) (A) (A) (A) (A) (A) (A)
                 (A) (A) (A) (A) (A) (A) (A) (A) (A) (A) (A) (A)
                 (A) (A) (A) (A) (A) (A) (A) (A) (A) (A) (A) (A)
                 (A) (A) (A) (A) (A) (A) (A) (A) (A) (A) (A) (A)
                 (A) (A) (A) (A) (A) (A) (A) (A) (A) (A) (A) (A)
                 (A) (A) (A) (A) (A) (A) (A) (A) (A) (A) (A) (A)
                 (A) (A) (A) (A) (A) (A) (A) (A) (A) (A) (A) (A)
                 (A) (A) (A) (A) (A) (A) (A) (A) (A) (A) (A) (A)
                 (A) (A) (A) (A) (A) (A) (A) (A) (A) (A)
 The electronic state is 1-A.
 Alpha  occ. eigenvalues --  -89.12113 -19.24176 -19.14575 -19.14234 -14.39528
 Alpha  occ. eigenvalues --  -14.38226 -10.28017 -10.27471 -10.22770 -10.22333
 Alpha  occ. eigenvalues --  -10.21199 -10.21074 -10.20820 -10.20769 -10.20761
 Alpha  occ. eigenvalues --  -10.20609  -8.14653  -6.11218  -6.11027  -6.10919
 Alpha  occ. eigenvalues --   -1.14670  -1.11385  -0.99921  -0.96702  -0.88085
 Alpha  occ. eigenvalues --   -0.85596  -0.81708  -0.78238  -0.76298  -0.75930
 Alpha  occ. eigenvalues --   -0.66725  -0.65553  -0.62834  -0.61054  -0.58178
 Alpha  occ. eigenvalues --   -0.55992  -0.53240  -0.51286  -0.49421  -0.48799
 Alpha  occ. eigenvalues --   -0.47816  -0.47614  -0.46910  -0.45638  -0.44501
 Alpha  occ. eigenvalues --   -0.44038  -0.43494  -0.42827  -0.39970  -0.39197
 Alpha  occ. eigenvalues --   -0.37777  -0.37004  -0.35995  -0.34409  -0.31808
 Alpha  occ. eigenvalues --   -0.31581  -0.31065  -0.30434  -0.29619  -0.26879
 Alpha  occ. eigenvalues --   -0.26218  -0.23938
 Alpha virt. eigenvalues --   -0.05710  -0.01707   0.01843   0.04092   0.06373
 Alpha virt. eigenvalues --    0.07103   0.07550   0.07987   0.09592   0.10369
 Alpha virt. eigenvalues --    0.11140   0.12297   0.12398   0.13857   0.15387
 Alpha virt. eigenvalues --    0.15624   0.16183   0.16681   0.17689   0.18025
 Alpha virt. eigenvalues --    0.22111   0.24720   0.25143   0.28882   0.29076
 Alpha virt. eigenvalues --    0.31382   0.32262   0.35340   0.36580   0.38011
 Alpha virt. eigenvalues --    0.41028   0.43193   0.44025   0.44323   0.47365
 Alpha virt. eigenvalues --    0.49362   0.49832   0.51158   0.51332   0.52600
 Alpha virt. eigenvalues --    0.52962   0.53798   0.55047   0.56289   0.57248
 Alpha virt. eigenvalues --    0.57534   0.58012   0.59059   0.59877   0.60619
 Alpha virt. eigenvalues --    0.61434   0.62112   0.63831   0.64277   0.66318
 Alpha virt. eigenvalues --    0.68610   0.69519   0.71444   0.72061   0.75601
 Alpha virt. eigenvalues --    0.76391   0.77528   0.79228   0.80191   0.81327
 Alpha virt. eigenvalues --    0.82380   0.82449   0.83154   0.83841   0.84478
 Alpha virt. eigenvalues --    0.85655   0.86312   0.87326   0.87926   0.88469
 Alpha virt. eigenvalues --    0.89795   0.90881   0.92403   0.93900   0.95629
 Alpha virt. eigenvalues --    0.96236   0.98038   0.98912   1.00263   1.02058
 Alpha virt. eigenvalues --    1.02950   1.04452   1.05842   1.06909   1.08818
 Alpha virt. eigenvalues --    1.10291   1.13836   1.14728   1.16670   1.16828
 Alpha virt. eigenvalues --    1.17327   1.20661   1.22534   1.23492   1.25819
 Alpha virt. eigenvalues --    1.29588   1.30824   1.33491   1.34107   1.36480
 Alpha virt. eigenvalues --    1.37632   1.41453   1.41571   1.42478   1.44746
 Alpha virt. eigenvalues --    1.46301   1.46749   1.47450   1.49313   1.49574
 Alpha virt. eigenvalues --    1.51336   1.53929   1.57702   1.58670   1.66475
 Alpha virt. eigenvalues --    1.69319   1.72071   1.75890   1.76721   1.78115
 Alpha virt. eigenvalues --    1.78902   1.80928   1.81315   1.82657   1.84072
 Alpha virt. eigenvalues --    1.86208   1.87133   1.88183   1.91534   1.93014
 Alpha virt. eigenvalues --    1.94469   1.95904   1.97934   1.99561   1.99972
 Alpha virt. eigenvalues --    2.03986   2.06893   2.08105   2.09653   2.10241
 Alpha virt. eigenvalues --    2.11286   2.12597   2.13750   2.15928   2.16987
 Alpha virt. eigenvalues --    2.18906   2.20615   2.21986   2.23295   2.24796
 Alpha virt. eigenvalues --    2.25128   2.26148   2.28108   2.29237   2.29515
 Alpha virt. eigenvalues --    2.32443   2.34899   2.42936   2.50429   2.52316
 Alpha virt. eigenvalues --    2.53082   2.56610   2.57408   2.59880   2.61837
 Alpha virt. eigenvalues --    2.65436   2.65798   2.70700   2.72998   2.73506
 Alpha virt. eigenvalues --    2.74533   2.76450   2.82377   2.87028   2.88857
 Alpha virt. eigenvalues --    2.91064   3.02176   3.05311   3.12831   3.26493
 Alpha virt. eigenvalues --    3.42032   3.77386   3.80520   3.93765   3.98623
 Alpha virt. eigenvalues --    4.06446   4.07840   4.10084   4.10644   4.15043
 Alpha virt. eigenvalues --    4.22484   4.22828   4.30801   4.36526   4.39878
 Alpha virt. eigenvalues --    4.56383   4.73503
          Condensed to atoms (all electrons):
               1          2          3          4          5          6
     1  O    8.207589   0.448354  -0.054745   0.005479  -0.002153   0.000008
     2  S    0.448354  13.663208   0.068257   0.000144   0.001504  -0.000283
     3  N   -0.054745   0.068257   7.510624   0.213130  -0.074002   0.005573
     4  C    0.005479   0.000144   0.213130   4.510339   0.387899  -0.026899
     5  N   -0.002153   0.001504  -0.074002   0.387899   6.904761   0.115165
     6  O    0.000008  -0.000283   0.005573  -0.026899   0.115165   8.185708
     7  C   -0.000001   0.000278  -0.000406  -0.023303  -0.076892   0.249567
     8  C    0.000000  -0.000009  -0.000202   0.003207   0.004150  -0.038090
     9  C    0.000000   0.000000   0.000003   0.000623  -0.000097   0.003196
    10  C    0.000000   0.000000   0.000000  -0.000006   0.000001  -0.000059
    11  C    0.000000   0.000000   0.000000   0.000000   0.000000   0.000001
    12  C    0.000000   0.000000   0.000000   0.000005   0.000000   0.000299
    13  C    0.000000   0.000000  -0.000001  -0.000334   0.000115  -0.006286
    14  C    0.000130   0.001595  -0.057392   0.435753  -0.039259  -0.095894
    15  C   -0.055723   0.204188  -0.049466  -0.007817  -0.007223   0.000123
    16  O   -0.046457   0.457619  -0.050671   0.001512  -0.000022   0.000000
    17  H   -0.000085  -0.013127   0.304672  -0.019298   0.003036  -0.000068
    18  H    0.000000   0.000000  -0.000001   0.000083  -0.000005   0.000021
    19  H    0.000000   0.000000   0.000000   0.000000   0.000000   0.000000
    20  H    0.000000   0.000000   0.000000   0.000000   0.000000   0.000000
    21  H    0.000000   0.000000   0.000000   0.000000   0.000000  -0.000002
    22  H    0.000000   0.000000   0.000000   0.000066  -0.000257   0.009558
    23  H    0.000002  -0.000121  -0.001829  -0.031166   0.004813   0.003547
    24  H   -0.001372  -0.001387  -0.002761  -0.000300   0.016937  -0.000359
    25  H    0.001913  -0.006661   0.001260   0.000315   0.000056  -0.000001
    26  H   -0.000069  -0.018258   0.002378   0.000112   0.000156  -0.000001
               7          8          9         10         11         12
     1  O   -0.000001   0.000000   0.000000   0.000000   0.000000   0.000000
     2  S    0.000278  -0.000009   0.000000   0.000000   0.000000   0.000000
     3  N   -0.000406  -0.000202   0.000003   0.000000   0.000000   0.000000
     4  C   -0.023303   0.003207   0.000623  -0.000006   0.000000   0.000005
     5  N   -0.076892   0.004150  -0.000097   0.000001   0.000000   0.000000
     6  O    0.249567  -0.038090   0.003196  -0.000059   0.000001   0.000299
     7  C    4.721158   0.346089  -0.041506   0.006398   0.000940   0.004768
     8  C    0.346089   4.768751   0.536951  -0.008142  -0.033745  -0.008030
     9  C   -0.041506   0.536951   5.004040   0.522330  -0.038460  -0.041156
    10  C    0.006398  -0.008142   0.522330   4.861315   0.545232  -0.023806
    11  C    0.000940  -0.033745  -0.038460   0.545232   4.851452   0.543565
    12  C    0.004768  -0.008030  -0.041156  -0.023806   0.543565   4.874049
    13  C   -0.039654   0.477157  -0.084707  -0.042410  -0.035906   0.504695
    14  C    0.506345  -0.060057  -0.021800   0.000205   0.000014  -0.000242
    15  C   -0.000024   0.000000   0.000000   0.000000   0.000000   0.000000
    16  O    0.000000   0.000000   0.000000   0.000000   0.000000   0.000000
    17  H    0.000004  -0.000002   0.000000   0.000000   0.000000   0.000000
    18  H   -0.013798  -0.038005   0.351532  -0.044361   0.004693   0.000202
    19  H   -0.000213   0.003308  -0.038701   0.359097  -0.041555   0.004475
    20  H    0.000003   0.000549   0.004892  -0.042656   0.361128  -0.042354
    21  H   -0.000184   0.003136   0.000883   0.004476  -0.042005   0.360054
    22  H   -0.012985  -0.038467   0.005372   0.000277   0.004416  -0.042594
    23  H   -0.024246  -0.003781   0.001365   0.000093  -0.000001   0.000002
    24  H    0.000049   0.000000   0.000000   0.000000   0.000000   0.000000
    25  H    0.000001   0.000000   0.000000   0.000000   0.000000   0.000000
    26  H    0.000000   0.000000   0.000000   0.000000   0.000000   0.000000
              13         14         15         16         17         18
     1  O    0.000000   0.000130  -0.055723  -0.046457  -0.000085   0.000000
     2  S    0.000000   0.001595   0.204188   0.457619  -0.013127   0.000000
     3  N   -0.000001  -0.057392  -0.049466  -0.050671   0.304672  -0.000001
     4  C   -0.000334   0.435753  -0.007817   0.001512  -0.019298   0.000083
     5  N    0.000115  -0.039259  -0.007223  -0.000022   0.003036  -0.000005
     6  O   -0.006286  -0.095894   0.000123   0.000000  -0.000068   0.000021
     7  C   -0.039654   0.506345  -0.000024   0.000000   0.000004  -0.013798
     8  C    0.477157  -0.060057   0.000000   0.000000  -0.000002  -0.038005
     9  C   -0.084707  -0.021800   0.000000   0.000000   0.000000   0.351532
    10  C   -0.042410   0.000205   0.000000   0.000000   0.000000  -0.044361
    11  C   -0.035906   0.000014   0.000000   0.000000   0.000000   0.004693
    12  C    0.504695  -0.000242   0.000000   0.000000   0.000000   0.000202
    13  C    5.043399   0.012474   0.000000   0.000000   0.000000   0.006075
    14  C    0.012474   5.271749  -0.000338  -0.000058  -0.005431   0.006343
    15  C    0.000000  -0.000338   5.594153  -0.058303   0.003093   0.000000
    16  O    0.000000  -0.000058  -0.058303   8.218809   0.005374   0.000000
    17  H    0.000000  -0.005431   0.003093   0.005374   0.346501   0.000000
    18  H    0.006075   0.006343   0.000000   0.000000   0.000000   0.594423
    19  H    0.000860   0.000000   0.000000   0.000000   0.000000  -0.005258
    20  H    0.004701   0.000000   0.000000   0.000000   0.000000  -0.000171
    21  H   -0.037768   0.000001   0.000000   0.000000   0.000000   0.000016
    22  H    0.360543   0.000259   0.000000   0.000000   0.000000  -0.000149
    23  H   -0.000123   0.346895   0.000001  -0.000001   0.001994   0.002272
    24  H    0.000000   0.000232   0.326174   0.001525  -0.000105   0.000000
    25  H    0.000000  -0.000004   0.337062   0.000008  -0.000042   0.000000
    26  H    0.000000   0.000002   0.359097  -0.000526  -0.000056   0.000000
              19         20         21         22         23         24
     1  O    0.000000   0.000000   0.000000   0.000000   0.000002  -0.001372
     2  S    0.000000   0.000000   0.000000   0.000000  -0.000121  -0.001387
     3  N    0.000000   0.000000   0.000000   0.000000  -0.001829  -0.002761
     4  C    0.000000   0.000000   0.000000   0.000066  -0.031166  -0.000300
     5  N    0.000000   0.000000   0.000000  -0.000257   0.004813   0.016937
     6  O    0.000000   0.000000  -0.000002   0.009558   0.003547  -0.000359
     7  C   -0.000213   0.000003  -0.000184  -0.012985  -0.024246   0.000049
     8  C    0.003308   0.000549   0.003136  -0.038467  -0.003781   0.000000
     9  C   -0.038701   0.004892   0.000883   0.005372   0.001365   0.000000
    10  C    0.359097  -0.042656   0.004476   0.000277   0.000093   0.000000
    11  C   -0.041555   0.361128  -0.042005   0.004416  -0.000001   0.000000
    12  C    0.004475  -0.042354   0.360054  -0.042594   0.000002   0.000000
    13  C    0.000860   0.004701  -0.037768   0.360543  -0.000123   0.000000
    14  C    0.000000   0.000000   0.000001   0.000259   0.346895   0.000232
    15  C    0.000000   0.000000   0.000000   0.000000   0.000001   0.326174
    16  O    0.000000   0.000000   0.000000   0.000000  -0.000001   0.001525
    17  H    0.000000   0.000000   0.000000   0.000000   0.001994  -0.000105
    18  H   -0.005258  -0.000171   0.000016  -0.000149   0.002272   0.000000
    19  H    0.583666  -0.005385  -0.000175   0.000015  -0.000003   0.000000
    20  H   -0.005385   0.584780  -0.005361  -0.000157   0.000000   0.000000
    21  H   -0.000175  -0.005361   0.579230  -0.004857   0.000000   0.000000
    22  H    0.000015  -0.000157  -0.004857   0.553176  -0.000009   0.000000
    23  H   -0.000003   0.000000   0.000000  -0.000009   0.543342  -0.000003
    24  H    0.000000   0.000000   0.000000   0.000000  -0.000003   0.455257
    25  H    0.000000   0.000000   0.000000   0.000000   0.000000  -0.021789
    26  H    0.000000   0.000000   0.000000   0.000000   0.000000  -0.015513
              25         26
     1  O    0.001913  -0.000069
     2  S   -0.006661  -0.018258
     3  N    0.001260   0.002378
     4  C    0.000315   0.000112
     5  N    0.000056   0.000156
     6  O   -0.000001  -0.000001
     7  C    0.000001   0.000000
     8  C    0.000000   0.000000
     9  C    0.000000   0.000000
    10  C    0.000000   0.000000
    11  C    0.000000   0.000000
    12  C    0.000000   0.000000
    13  C    0.000000   0.000000
    14  C   -0.000004   0.000002
    15  C    0.337062   0.359097
    16  O    0.000008  -0.000526
    17  H   -0.000042  -0.000056
    18  H    0.000000   0.000000
    19  H    0.000000   0.000000
    20  H    0.000000   0.000000
    21  H    0.000000   0.000000
    22  H    0.000000   0.000000
    23  H    0.000000   0.000000
    24  H   -0.021789  -0.015513
    25  H    0.498738  -0.019406
    26  H   -0.019406   0.471477
 Mulliken charges:
               1
     1  O   -0.502869
     2  S    1.194700
     3  N   -0.814421
     4  C    0.550457
     5  N   -0.238682
     6  O   -0.404827
     7  C    0.397613
     8  C    0.085233
     9  C   -0.164761
    10  C   -0.137983
    11  C   -0.119768
    12  C   -0.133932
    13  C   -0.162830
    14  C   -0.301524
    15  C   -0.644996
    16  O   -0.528810
    17  H    0.373540
    18  H    0.136087
    19  H    0.139869
    20  H    0.140031
    21  H    0.142556
    22  H    0.165791
    23  H    0.156957
    24  H    0.243414
    25  H    0.208551
    26  H    0.220606
 Sum of Mulliken charges =   0.00000
 Mulliken charges with hydrogens summed into heavy atoms:
               1
     1  O   -0.502869
     2  S    1.194700
     3  N   -0.440881
     4  C    0.550457
     5  N   -0.238682
     6  O   -0.404827
     7  C    0.397613
     8  C    0.085233
     9  C   -0.028674
    10  C    0.001886
    11  C    0.020263
    12  C    0.008623
    13  C    0.002961
    14  C   -0.144567
    15  C    0.027575
    16  O   -0.528810
 Electronic spatial extent (au):  <R**2>=           5864.9412
 Charge=              0.0000 electrons
 Dipole moment (field-independent basis, Debye):
    X=              4.4235    Y=              1.4659    Z=             -3.0187  Tot=              5.5524
 Quadrupole moment (field-independent basis, Debye-Ang):
   XX=            -95.1031   YY=            -90.6450   ZZ=           -103.7865
   XY=              7.1280   XZ=             12.1335   YZ=              1.8153
 Traceless Quadrupole moment (field-independent basis, Debye-Ang):
   XX=              1.4085   YY=              5.8665   ZZ=             -7.2749
   XY=              7.1280   XZ=             12.1335   YZ=              1.8153
 Octapole moment (field-independent basis, Debye-Ang**2):
  XXX=            109.8459  YYY=              9.9619  ZZZ=             -3.5556  XYY=              1.5762
  XXY=            -51.2006  XXZ=            -37.6784  XZZ=            -20.9995  YZZ=             -1.0954
  YYZ=             -1.5863  XYZ=            -11.4254
 Hexadecapole moment (field-independent basis, Debye-Ang**3):
 XXXX=          -6529.0371 YYYY=           -582.2400 ZZZZ=           -245.1302 XXXY=            247.8162
 XXXZ=            172.6600 YYYX=            -11.5902 YYYZ=             -5.3454 ZZZX=             12.4910
 ZZZY=              3.7444 XXYY=          -1162.7543 XXZZ=          -1258.1775 YYZZ=           -153.1254
 XXYZ=             21.7424 YYXZ=              5.8438 ZZXY=            -10.8121
 N-N= 1.171264543671D+03 E-N=-4.969594794222D+03  KE= 1.112197481341D+03
 No NMR shielding tensors so no spin-rotation constants.
 Leave Link  601 at Thu Aug  6 21:59:16 2020, MaxMem=    33554432 cpu:         0.2
 (Enter /prod/apps/gaussian/g09d1/l9999.exe)
 1\1\GINC-PIRINEUS7\SP\RB3LYP\6-31G(d)\C10H10N2O3S1\UBAFAR01\06-Aug-202
 0\0\\#p b3lyp/6-31G(d)\\SM41.n.10.pdb.xyz\\0,1\O,0,1.398,0.248,3.836\S
 ,0,2.527,0.1,2.908\N,0,2.341,1.106,1.556\C,0,1.843,2.403,1.628\N,0,1.9
 63,3.13,2.724\O,0,1.395,4.37,2.391\C,0,0.963,4.342,1.108\C,0,0.34,5.55
 1,0.58\C,0,-0.105,5.586,-0.751\C,0,-0.701,6.737,-1.259\C,0,-0.858,7.86
 4,-0.447\C,0,-0.416,7.834,0.877\C,0,0.18,6.686,1.392\C,0,1.22,3.113,0.
 568\C,0,3.991,0.768,3.683\O,0,2.805,-1.219,2.329\H,0,2.087,0.573,0.724
 \H,0,0.017,4.714,-1.383\H,0,-1.042,6.755,-2.289\H,0,-1.323,8.759,-0.84
 6\H,0,-0.536,8.706,1.511\H,0,0.524,6.659,2.419\H,0,1.002,2.756,-0.425\
 H,0,3.801,1.817,3.906\H,0,4.829,0.654,2.996\H,0,4.156,0.199,4.598\\Ver
 sion=AM64L-G09RevD.01\State=1-A\HF=-1120.3356793\RMSD=3.665e-09\Dipole
 =0.3057156,1.5214246,-1.5374471\Quadrupole=3.2928657,-6.5228569,3.2299
 912,-6.5496554,7.4406314,2.4079081\PG=C01 [X(C10H10N2O3S1)]\\@


 HEAVEN'S NET CASTS WIDE.
 THOUGH ITS MESHES ARE COARSE, NOTHING SLIPS THROUGH.

                                          -- LAO-TSU
 Job cpu time:       0 days  0 hours  2 minutes 57.9 seconds.
 File lengths (MBytes):  RWF=     40 Int=      0 D2E=      0 Chk=      4 Scr=      1
 Normal termination of Gaussian 09 at Thu Aug  6 21:59:16 2020.
 Initial command:
 /prod/apps/gaussian/g09d1/l1.exe "/tmp/ubafar01/1448582/Gau-146443.inp" -scrdir="/tmp/ubafar01/1448582/"
 Entering Link 1 = /prod/apps/gaussian/g09d1/l1.exe PID=    146491.
  
 Copyright (c) 1988,1990,1992,1993,1995,1998,2003,2009,2013,
            Gaussian, Inc.  All Rights Reserved.
  
 This is part of the Gaussian(R) 09 program.  It is based on
 the Gaussian(R) 03 system (copyright 2003, Gaussian, Inc.),
 the Gaussian(R) 98 system (copyright 1998, Gaussian, Inc.),
 the Gaussian(R) 94 system (copyright 1995, Gaussian, Inc.),
 the Gaussian 92(TM) system (copyright 1992, Gaussian, Inc.),
 the Gaussian 90(TM) system (copyright 1990, Gaussian, Inc.),
 the Gaussian 88(TM) system (copyright 1988, Gaussian, Inc.),
 the Gaussian 86(TM) system (copyright 1986, Carnegie Mellon
 University), and the Gaussian 82(TM) system (copyright 1983,
 Carnegie Mellon University). Gaussian is a federally registered
 trademark of Gaussian, Inc.
  
 This software contains proprietary and confidential information,
 including trade secrets, belonging to Gaussian, Inc.
  
 This software is provided under written license and may be
 used, copied, transmitted, or stored only in accord with that
 written license.
  
 The following legend is applicable only to US Government
 contracts under FAR:
  
                    RESTRICTED RIGHTS LEGEND
  
 Use, reproduction and disclosure by the US Government is
 subject to restrictions as set forth in subparagraphs (a)
 and (c) of the Commercial Computer Software - Restricted
 Rights clause in FAR 52.227-19.
  
 Gaussian, Inc.
 340 Quinnipiac St., Bldg. 40, Wallingford CT 06492
  
  
 ---------------------------------------------------------------
 Warning -- This program may not be used in any manner that
 competes with the business of Gaussian, Inc. or will provide
 assistance to any competitor of Gaussian, Inc.  The licensee
 of this program is prohibited from giving any competitor of
 Gaussian, Inc. access to this program.  By using this program,
 the user acknowledges that Gaussian, Inc. is engaged in the
 business of creating and licensing software in the field of
 computational chemistry and represents and warrants to the
 licensee that it is not a competitor of Gaussian, Inc. and that
 it will not use this program in any manner prohibited above.
 ---------------------------------------------------------------
  

 Cite this work as:
 Gaussian 09, Revision D.01,
 M. J. Frisch, G. W. Trucks, H. B. Schlegel, G. E. Scuseria, 
 M. A. Robb, J. R. Cheeseman, G. Scalmani, V. Barone, B. Mennucci, 
 G. A. Petersson, H. Nakatsuji, M. Caricato, X. Li, H. P. Hratchian, 
 A. F. Izmaylov, J. Bloino, G. Zheng, J. L. Sonnenberg, M. Hada, 
 M. Ehara, K. Toyota, R. Fukuda, J. Hasegawa, M. Ishida, T. Nakajima, 
 Y. Honda, O. Kitao, H. Nakai, T. Vreven, J. A. Montgomery, Jr., 
 J. E. Peralta, F. Ogliaro, M. Bearpark, J. J. Heyd, E. Brothers, 
 K. N. Kudin, V. N. Staroverov, T. Keith, R. Kobayashi, J. Normand, 
 K. Raghavachari, A. Rendell, J. C. Burant, S. S. Iyengar, J. Tomasi, 
 M. Cossi, N. Rega, J. M. Millam, M. Klene, J. E. Knox, J. B. Cross, 
 V. Bakken, C. Adamo, J. Jaramillo, R. Gomperts, R. E. Stratmann, 
 O. Yazyev, A. J. Austin, R. Cammi, C. Pomelli, J. W. Ochterski, 
 R. L. Martin, K. Morokuma, V. G. Zakrzewski, G. A. Voth, 
 P. Salvador, J. J. Dannenberg, S. Dapprich, A. D. Daniels, 
 O. Farkas, J. B. Foresman, J. V. Ortiz, J. Cioslowski, 
 and D. J. Fox, Gaussian, Inc., Wallingford CT, 2013.
 
 ******************************************
 Gaussian 09:  AM64L-G09RevD.01 24-Apr-2013
                 6-Aug-2020 
 ******************************************
 %nproc=1
 Will use up to    1 processors via shared memory.
 %Chk=SM41.n.10.pdb.xyz.mst.n.w.chk
 %subst l502 /dades/curu/work_g09D01_MST_AddSphPartition_ReadGammas/exe-dir/
 ----------------------------------------------------------------------
 #p b3lyp/6-31G(d) scrf=(iefpcm,read,solvent=Water) geom=allcheck guess
 =read
 ----------------------------------------------------------------------
 1/29=7,38=1,40=2/1;
 2/12=2,40=1/2;
 3/5=1,6=6,7=1,11=2,14=-4,16=1,25=1,30=1,70=2203,72=1,74=-5,116=-2/1,2,3;
 4/5=1/1;
 5/5=2,38=6,53=1/2;
 6/7=2,8=2,9=2,10=2,28=1/1;
 99/5=1,9=1/99;
 Leave Link    1 at Thu Aug  6 21:59:16 2020, MaxMem=           0 cpu:         0.0
 (Enter /prod/apps/gaussian/g09d1/l101.exe)
 Structure from the checkpoint file:  "SM41.n.10.pdb.xyz.mst.n.w.chk"
 -----------------
 SM41.n.10.pdb.xyz
 -----------------
 Charge =  0 Multiplicity = 1
 Z-Matrix found in file.
 O,0,1.398,0.248,3.836
 S,0,2.527,0.1,2.908
 N,0,2.341,1.106,1.556
 C,0,1.843,2.403,1.628
 N,0,1.963,3.13,2.724
 O,0,1.395,4.37,2.391
 C,0,0.963,4.342,1.108
 C,0,0.34,5.551,0.58
 C,0,-0.105,5.586,-0.751
 C,0,-0.701,6.737,-1.259
 C,0,-0.858,7.864,-0.447
 C,0,-0.416,7.834,0.877
 C,0,0.18,6.686,1.392
 C,0,1.22,3.113,0.568
 C,0,3.991,0.768,3.683
 O,0,2.805,-1.219,2.329
 H,0,2.087,0.573,0.724
 H,0,0.017,4.714,-1.383
 H,0,-1.042,6.755,-2.289
 H,0,-1.323,8.759,-0.846
 H,0,-0.536,8.706,1.511
 H,0,0.524,6.659,2.419
 H,0,1.002,2.756,-0.425
 H,0,3.801,1.817,3.906
 H,0,4.829,0.654,2.996
 H,0,4.156,0.199,4.598
 Recover connectivity data from disk.
 NAtoms=     26 NQM=       26 NQMF=       0 NMMI=      0 NMMIF=      0
                NMic=       0 NMicF=      0.
                    Isotopes and Nuclear Properties:
 (Nuclear quadrupole moments (NQMom) in fm**2, nuclear magnetic moments (NMagM)
  in nuclear magnetons)

  Atom         1           2           3           4           5           6           7           8           9          10
 IAtWgt=          16          32          14          12          14          16          12          12          12          12
 AtmWgt=  15.9949146  31.9720718  14.0030740  12.0000000  14.0030740  15.9949146  12.0000000  12.0000000  12.0000000  12.0000000
 NucSpn=           0           0           2           0           2           0           0           0           0           0
 AtZEff=  -5.6000000 -13.6000000  -4.5500000  -3.6000000  -4.5500000  -5.6000000  -3.6000000  -3.6000000  -3.6000000  -3.6000000
 NQMom=    0.0000000   0.0000000   2.0440000   0.0000000   2.0440000   0.0000000   0.0000000   0.0000000   0.0000000   0.0000000
 NMagM=    0.0000000   0.0000000   0.4037610   0.0000000   0.4037610   0.0000000   0.0000000   0.0000000   0.0000000   0.0000000
 AtZNuc=   8.0000000  16.0000000   7.0000000   6.0000000   7.0000000   8.0000000   6.0000000   6.0000000   6.0000000   6.0000000

  Atom        11          12          13          14          15          16          17          18          19          20
 IAtWgt=          12          12          12          12          12          16           1           1           1           1
 AtmWgt=  12.0000000  12.0000000  12.0000000  12.0000000  12.0000000  15.9949146   1.0078250   1.0078250   1.0078250   1.0078250
 NucSpn=           0           0           0           0           0           0           1           1           1           1
 AtZEff=  -3.6000000  -3.6000000  -3.6000000  -3.6000000  -3.6000000  -5.6000000  -1.0000000  -1.0000000  -1.0000000  -1.0000000
 NQMom=    0.0000000   0.0000000   0.0000000   0.0000000   0.0000000   0.0000000   0.0000000   0.0000000   0.0000000   0.0000000
 NMagM=    0.0000000   0.0000000   0.0000000   0.0000000   0.0000000   0.0000000   2.7928460   2.7928460   2.7928460   2.7928460
 AtZNuc=   6.0000000   6.0000000   6.0000000   6.0000000   6.0000000   8.0000000   1.0000000   1.0000000   1.0000000   1.0000000

  Atom        21          22          23          24          25          26
 IAtWgt=           1           1           1           1           1           1
 AtmWgt=   1.0078250   1.0078250   1.0078250   1.0078250   1.0078250   1.0078250
 NucSpn=           1           1           1           1           1           1
 AtZEff=  -1.0000000  -1.0000000  -1.0000000  -1.0000000  -1.0000000  -1.0000000
 NQMom=    0.0000000   0.0000000   0.0000000   0.0000000   0.0000000   0.0000000
 NMagM=    2.7928460   2.7928460   2.7928460   2.7928460   2.7928460   2.7928460
 AtZNuc=   1.0000000   1.0000000   1.0000000   1.0000000   1.0000000   1.0000000
 Leave Link  101 at Thu Aug  6 21:59:16 2020, MaxMem=    33554432 cpu:         0.1
 (Enter /prod/apps/gaussian/g09d1/l202.exe)
                          Input orientation:                          
 ---------------------------------------------------------------------
 Center     Atomic      Atomic             Coordinates (Angstroms)
 Number     Number       Type             X           Y           Z
 ---------------------------------------------------------------------
      1          8           0        1.398000    0.248000    3.836000
      2         16           0        2.527000    0.100000    2.908000
      3          7           0        2.341000    1.106000    1.556000
      4          6           0        1.843000    2.403000    1.628000
      5          7           0        1.963000    3.130000    2.724000
      6          8           0        1.395000    4.370000    2.391000
      7          6           0        0.963000    4.342000    1.108000
      8          6           0        0.340000    5.551000    0.580000
      9          6           0       -0.105000    5.586000   -0.751000
     10          6           0       -0.701000    6.737000   -1.259000
     11          6           0       -0.858000    7.864000   -0.447000
     12          6           0       -0.416000    7.834000    0.877000
     13          6           0        0.180000    6.686000    1.392000
     14          6           0        1.220000    3.113000    0.568000
     15          6           0        3.991000    0.768000    3.683000
     16          8           0        2.805000   -1.219000    2.329000
     17          1           0        2.087000    0.573000    0.724000
     18          1           0        0.017000    4.714000   -1.383000
     19          1           0       -1.042000    6.755000   -2.289000
     20          1           0       -1.323000    8.759000   -0.846000
     21          1           0       -0.536000    8.706000    1.511000
     22          1           0        0.524000    6.659000    2.419000
     23          1           0        1.002000    2.756000   -0.425000
     24          1           0        3.801000    1.817000    3.906000
     25          1           0        4.829000    0.654000    2.996000
     26          1           0        4.156000    0.199000    4.598000
 ---------------------------------------------------------------------
                    Distance matrix (angstroms):
                    1          2          3          4          5
     1  O    0.000000
     2  S    1.468921   0.000000
     3  N    2.612243   1.695446   0.000000
     4  C    3.117261   2.722143   1.391185   0.000000
     5  N    3.140333   3.087532   2.367210   1.320661   0.000000
     6  O    4.367942   4.447653   3.499405   2.156841   1.403963
     7  C    4.938830   4.866278   3.545601   2.191922   2.253974
     8  C    6.312108   6.317907   4.971378   3.642419   3.618302
     9  C    7.196792   7.100134   5.601390   4.425589   4.731193
    10  C    8.513046   8.475473   6.991863   5.795711   5.997636
    11  C    9.024250   9.110101   7.740554   6.436113   6.357990
    12  C    8.342282   8.520620   7.302607   5.929827   5.585577
    13  C    6.993176   7.154164   5.986085   4.600582   4.195051
    14  C    4.349682   4.032619   2.502166   1.419799   2.280499
    15  C    2.649049   1.786098   2.713093   3.392662   3.257531
    16  O    2.530373   1.467067   2.493682   3.812575   4.447335
    17  H    3.203887   2.277539   1.020210   2.055639   3.248634
    18  H    7.006445   6.782461   5.201573   4.212021   4.812839
    19  H    9.263384   9.167093   7.624953   6.527329   6.877559
    20  H   10.087720  10.192806   8.818328   7.519506   7.431577
    21  H    8.982413   9.241040   8.126448   6.738037   6.229618
    22  H    6.623646   6.875435   5.906104   4.525370   3.823295
    23  H    4.960141   4.526461   2.905130   2.246486   3.313548
    24  H    2.870726   2.359485   2.856505   3.060465   2.549380
    25  H    3.555587   2.369359   2.909991   3.721105   3.797172
    26  H    2.861749   2.349371   3.656588   4.362165   4.112406
                    6          7          8          9         10
     6  O    0.000000
     7  C    1.354067   0.000000
     8  C    2.405724   1.458970   0.000000
     9  C    3.687929   2.478718   1.403856   0.000000
    10  C    4.828913   3.756010   2.423262   1.392150   0.000000
    11  C    5.033715   4.258938   2.799982   2.418410   1.397899
    12  C    4.191803   3.761524   2.423187   2.792957   2.418084
    13  C    2.799657   2.487585   1.404695   2.425629   2.794023
    14  C    2.221262   1.366781   2.591985   3.100180   4.490161
    15  C    4.624163   5.345361   6.770192   7.723386   9.059094
    16  O    5.764448   5.984023   7.414049   8.016391   9.405515
    17  H    4.204160   3.951733   5.277616   5.666627   7.049832
    18  H    4.032406   2.690424   2.158302   1.083832   2.150216
    19  H    5.790474   4.624089   3.404512   2.147085   1.085129
    20  H    6.093358   5.343576   3.884625   3.400070   2.155444
    21  H    4.827428   4.631836   3.404139   3.877732   3.402512
    22  H    2.449275   2.698135   2.154864   3.405271   3.877421
    23  H    3.269450   2.206129   3.043073   3.056244   4.409549
    24  H    3.821239   4.717910   6.081410   7.151912   8.435143
    25  H    5.095786   5.666731   7.068860   7.918901   9.256825
    26  H    5.467286   6.288068   7.703901   8.705613  10.031966
                   11         12         13         14         15
    11  C    0.000000
    12  C    1.396152   0.000000
    13  C    2.418067   1.392245   0.000000
    14  C    5.283967   5.005978   3.811418   0.000000
    15  C    9.535351   8.787698   7.402373   4.783377   0.000000
    16  O   10.179619   9.718022   8.381982   4.937567   2.681060
    17  H    7.950028   7.681832   6.438295   2.688424   3.524049
    18  H    3.400621   3.876788   3.408222   2.795856   7.551685
    19  H    2.157939   3.402892   3.879150   5.152015   9.840734
    20  H    1.084643   2.155691   3.400733   6.351658  10.611622
    21  H    2.155554   1.084776   2.146443   5.937544   9.392718
    22  H    3.402338   2.154528   1.083418   4.060140   6.951379
    23  H    5.436152   5.430655   4.407048   1.077507   5.455449
    24  H    8.787554   7.947466   6.568028   4.414003   1.089142
    25  H    9.807156   9.140710   7.782740   4.996673   1.089591
    26  H   10.456789   9.645841   8.256402   5.775153   1.090051
                   16         17         18         19         20
    16  O    0.000000
    17  H    2.510540   0.000000
    18  H    7.533417   5.086475   0.000000
    19  H    9.985490   7.555523   2.471436   0.000000
    20  H   11.255287   9.005753   4.294880   2.485403   0.000000
    21  H   10.504143   8.581677   4.961563   4.301446   2.485483
    22  H    8.202070   6.508102   4.300614   4.962543   4.299027
    23  H    5.161003   2.694980   2.392019   4.862554   6.451269
    24  H    3.563178   3.822363   7.119325   9.285285   9.850292
    25  H    2.837181   3.561897   7.669067   9.981085  10.876539
    26  H    2.997380   4.407779   8.560894  10.836564  11.529535
                   21         22         23         24         25
    21  H    0.000000
    22  H    2.477554   0.000000
    23  H    6.443294   4.852858   0.000000
    24  H    8.485512   6.032815   5.241534   0.000000
    25  H    9.788930   7.411206   5.546853   1.799292   0.000000
    26  H   10.193796   7.724705   6.458831   1.795219   1.796207
                   26
    26  H    0.000000
 Stoichiometry    C10H10N2O3S
 Framework group  C1[X(C10H10N2O3S)]
 Deg. of freedom    72
 Full point group                 C1      NOp   1
 RotChk:  IX=0 Diff= 3.34D-15
 Largest Abelian subgroup         C1      NOp   1
 Largest concise Abelian subgroup C1      NOp   1
                         Standard orientation:                         
 ---------------------------------------------------------------------
 Center     Atomic      Atomic             Coordinates (Angstroms)
 Number     Number       Type             X           Y           Z
 ---------------------------------------------------------------------
      1          8           0       -3.397360   -0.543172    1.489228
      2         16           0       -3.610859    0.121400    0.196753
      3          7           0       -2.188492    0.865762   -0.348531
      4          6           0       -0.925663    0.297836   -0.213927
      5          7           0       -0.759231   -1.010680   -0.148883
      6          8           0        0.631308   -1.187852   -0.070625
      7          6           0        1.245353    0.018654   -0.098733
      8          6           0        2.702483    0.035206   -0.027382
      9          6           0        3.392595    1.256751   -0.076217
     10          6           0        4.782888    1.277670   -0.007446
     11          6           0        5.498738    0.082635    0.109047
     12          6           0        4.816590   -1.134583    0.156957
     13          6           0        3.426259   -1.162960    0.089728
     14          6           0        0.304608    1.006086   -0.188558
     15          6           0       -3.888260   -1.130227   -1.046879
     16          8           0       -4.621526    1.180266    0.098556
     17          1           0       -2.236743    1.880558   -0.255305
     18          1           0        2.839891    2.184530   -0.168065
     19          1           0        5.307949    2.226531   -0.045901
     20          1           0        6.581873    0.102650    0.162608
     21          1           0        5.367793   -2.064469    0.247660
     22          1           0        2.893530   -2.105626    0.126829
     23          1           0        0.451225    2.072854   -0.227690
     24          1           0       -3.008748   -1.771979   -1.075939
     25          1           0       -4.050912   -0.636607   -2.004529
     26          1           0       -4.770976   -1.692773   -0.742633
 ---------------------------------------------------------------------
 Rotational constants (GHZ):      1.8983409      0.1838149      0.1744880
 Leave Link  202 at Thu Aug  6 21:59:16 2020, MaxMem=    33554432 cpu:         0.0
 (Enter /prod/apps/gaussian/g09d1/l301.exe)
 Standard basis: 6-31G(d) (6D, 7F)
 Ernie: Thresh=  0.10000D-02 Tol=  0.10000D-05 Strict=F.
 There are   264 symmetry adapted cartesian basis functions of A   symmetry.
 There are   264 symmetry adapted basis functions of A   symmetry.
   264 basis functions,   512 primitive gaussians,   264 cartesian basis functions
    62 alpha electrons       62 beta electrons
       nuclear repulsion energy      1171.2645436709 Hartrees.
 IExCor=  402 DFT=T Ex+Corr=B3LYP ExCW=0 ScaHFX=  0.200000
 ScaDFX=  0.800000  0.720000  1.000000  0.810000 ScalE2=  1.000000  1.000000
 IRadAn=      0 IRanWt=     -1 IRanGd=            0 ICorTp=0 IEmpDi=  4
 NAtoms=   26 NActive=   26 NUniq=   26 SFac= 1.00D+00 NAtFMM=   60 NAOKFM=F Big=F
 Integral buffers will be    131072 words long.
 Raffenetti 2 integral format.
 Two-electron integral symmetry is turned on.
 Using the following non-standard input for PCM:
 MSTModel=DFT cav g03defaults OFac=0.8 Rmin=0.3
 Warning! Using old PCM defaults because the g03defaults keyword was found.
 These settings can be overridden by following keywords.
 --- end of non-standard input.
 MST model for solvation energy: B3LYP parametrization.
 MST cavity parameters:
 ISph   IAn     Re0     Alpha   Atom Type   QCorr
 ------------------------------------------------
   1      8     1.40     1.25      O          F
   2     16     1.75     1.25      S          F
   3      7     1.50     1.25      NH         F
   4      6     1.50     1.25      C          F
   5      7     1.40     1.25      N          F
   6      8     1.40     1.25      O          F
   7      6     1.50     1.25      C          F
   8      6     1.50     1.25      C          F
   9      6     1.50     1.25      CH         F
  10      6     1.50     1.25      CH         F
  11      6     1.50     1.25      CH         F
  12      6     1.50     1.25      CH         F
  13      6     1.50     1.25      CH         F
  14      6     1.50     1.25      CH         F
  15      6     1.50     1.25      CH3        F
  16      8     1.40     1.25      O          F
  17      1     0.90     1.25      NH         F
  18      1     1.20     1.25      CH         F
  19      1     1.20     1.25      CH         F
  20      1     1.20     1.25      CH         F
  21      1     1.20     1.25      CH         F
  22      1     1.20     1.25      CH         F
  23      1     1.20     1.25      CH         F
  24      1     1.20     1.25      CH3        F
  25      1     1.20     1.25      CH3        F
  26      1     1.20     1.25      CH3        F
 ------------------------------------------------------------------------------
 Polarizable Continuum Model (PCM)
 =================================
 Model                : PCM (using non-symmetric T matrix).
 Atomic radii         : MST.
 Polarization charges : Total charges.
 Charge compensation  : None.
 Solution method      : On-the-fly selection.
 Cavity type          : Scaled SES (Solvent Excluding Surface) (Alpha=1.250).
 Cavity algorithm     : GePol (RMin=0.300 OFac=0.800).
                        Default sphere list used, NSphG=   26.
                        Tesserae with average area of 0.200 Ang**2.
                        Smoothing algorithm: None.
                        Polarization charges: point-like.
                        Self-potential: constant (ISelfS= 1).
                        Self-field    : global E.n sum rule (ISelfD= 3).
 Solvent              : Water, Eps=  78.355300 Eps(inf)=   1.777849
                        RSolv=   1.385000 Ang.
 ------------------------------------------------------------------------------
 GePol: Number of generator spheres                  =      26
 GePol: Total number of spheres                      =      57
 GePol: Number of exposed spheres                    =      53 ( 92.98%)
 GePol: Number of tesserae                           =    2198
 GePol: Average area of tesserae                     =       0.12 Ang**2
 GePol: Minimum area of tessera                      =   0.10D-02 Ang**2
 GePol: Maximum area of tessera                      =    0.30575 Ang**2
 GePol: Number of small tesserae                     =      14
 GePol: Fraction of small tesserae (<1% of avg)      =       0.64%
 GePol: Total count of vertices                      =    7663
 GePol: Maximum number of vertices in a tessera      =       8
 GePol: Cavity surface area                          =    266.449 Ang**2
 GePol: Cavity volume                                =    258.880 Ang**3
 PCM non-electrostatic energy =         0.0028151326 Hartrees.
 Nuclear repulsion after PCM non-electrostatic terms =     1171.2673588036 Hartrees.
 Leave Link  301 at Thu Aug  6 21:59:16 2020, MaxMem=    33554432 cpu:         0.1
 (Enter /prod/apps/gaussian/g09d1/l302.exe)
 NPDir=0 NMtPBC=     1 NCelOv=     1 NCel=       1 NClECP=     1 NCelD=      1
         NCelK=      1 NCelE2=     1 NClLst=     1 CellRange=     0.0.
 One-electron integrals computed using PRISM.
 NBasis=   264 RedAO= T EigKep=  4.59D-04  NBF=   264
 NBsUse=   264 1.00D-06 EigRej= -1.00D+00 NBFU=   264
 Precomputing XC quadrature grid using
 IXCGrd= 4 IRadAn=           0 IRanWt=          -1 IRanGd=           0 AccXCQ= 0.00D+00.
 Generated NRdTot=       0 NPtTot=           0 NUsed=           0 NTot=          32
 NSgBfM=   260   260   260   261   261 MxSgAt=    26 MxSgA2=    26.
 Leave Link  302 at Thu Aug  6 21:59:17 2020, MaxMem=    33554432 cpu:         0.8
 (Enter /prod/apps/gaussian/g09d1/l303.exe)
 DipDrv:  MaxL=1.
 Leave Link  303 at Thu Aug  6 21:59:17 2020, MaxMem=    33554432 cpu:         0.0
 (Enter /prod/apps/gaussian/g09d1/l401.exe)
 Initial guess from the checkpoint file:  "SM41.n.10.pdb.xyz.mst.n.w.chk"
 B after Tr=     0.000000    0.000000    0.000000
         Rot=    1.000000    0.000000    0.000000    0.000000 Ang=   0.00 deg.
 Guess basis will be translated and rotated to current coordinates.
 JPrj=2 DoOrth=T DoCkMO=T.
 Leave Link  401 at Thu Aug  6 21:59:17 2020, MaxMem=    33554432 cpu:         0.2
 (Enter /dades/curu/work_g09D01_MST_AddSphPartition_ReadGammas/exe-dir/l502.exe)
 Closed shell SCF:
 Using DIIS extrapolation, IDIIS=  1040.
 Integral symmetry usage will be decided dynamically.
 IVT=      231207 IEndB=      231207 NGot=    33554432 MDV=    33409826
 LenX=    33409826 LenY=    33339689
 Requested convergence on RMS density matrix=1.00D-08 within 128 cycles.
 Requested convergence on MAX density matrix=1.00D-06.
 Requested convergence on             energy=1.00D-06.
 No special actions if energy rises.
 Fock matrices will be formed incrementally for  20 cycles.

 Cycle   1  Pass 1  IDiag  1:
 FoFJK:  IHMeth= 1 ICntrl=       0 DoSepK=F KAlg= 0 I1Cent=   0 FoldK=F
 IRaf= 740000000 NMat=   1 IRICut=       1 DoRegI=T DoRafI=F ISym2E= 0.
 FoFCou: FMM=F IPFlag=           0 FMFlag=      100000 FMFlg1=           0
         NFxFlg=           0 DoJE=F BraDBF=F KetDBF=F FulRan=T
         wScrn=  0.000000 ICntrl=       0 IOpCl=  0 I1Cent=           0 NGrid=           0
         NMat0=    1 NMatS0=      1 NMatT0=    0 NMatD0=    1 NMtDS0=    0 NMtDT0=    0
 Symmetry not used in FoFCou.
 Inv3:  Mode=1 IEnd=    14493612.
 Iteration    1 A*A^-1 deviation from unit magnitude is 6.00D-15 for   2194.
 Iteration    1 A*A^-1 deviation from orthogonality  is 2.44D-15 for   2181   1788.
 Iteration    1 A^-1*A deviation from unit magnitude is 6.22D-15 for   2194.
 Iteration    1 A^-1*A deviation from orthogonality  is 1.81D-15 for   2172   2161.
 E= -1120.35368911370    
 DIIS: error= 2.00D-03 at cycle   1 NSaved=   1.
 NSaved= 1 IEnMin= 1 EnMin= -1120.35368911370     IErMin= 1 ErrMin= 2.00D-03
 ErrMax= 2.00D-03  0.00D+00 EMaxC= 1.00D-01 BMatC= 1.50D-03 BMatP= 1.50D-03
 IDIUse=3 WtCom= 9.80D-01 WtEn= 2.00D-02
 Coeff-Com:  0.100D+01
 Coeff-En:   0.100D+01
 Coeff:      0.100D+01
 Gap=     0.185 Goal=   None    Shift=    0.000
 GapD=    0.185 DampG=1.000 DampE=1.000 DampFc=1.0000 IDamp=-1.
 RMSDP=6.90D-04 MaxDP=1.74D-02              OVMax= 2.36D-02

 Cycle   2  Pass 1  IDiag  1:
 RMSU=  6.86D-04    CP:  9.97D-01
 E= -1120.35560374964     Delta-E=       -0.001914635940 Rises=F Damp=F
 DIIS: error= 2.20D-03 at cycle   2 NSaved=   2.
 NSaved= 2 IEnMin= 2 EnMin= -1120.35560374964     IErMin= 1 ErrMin= 2.00D-03
 ErrMax= 2.20D-03  0.00D+00 EMaxC= 1.00D-01 BMatC= 2.21D-03 BMatP= 1.50D-03
 IDIUse=3 WtCom= 1.76D-01 WtEn= 8.24D-01
 Coeff-Com:  0.569D+00 0.431D+00
 Coeff-En:   0.176D+00 0.824D+00
 Coeff:      0.245D+00 0.755D+00
 Gap=     0.184 Goal=   None    Shift=    0.000
 RMSDP=3.90D-04 MaxDP=1.93D-02 DE=-1.91D-03 OVMax= 2.48D-02

 Cycle   3  Pass 1  IDiag  1:
 RMSU=  3.20D-04    CP:  9.98D-01  6.78D-01
 E= -1120.35459235072     Delta-E=        0.001011398916 Rises=F Damp=F
[...]
   23      H23      9.78  -0.055   -0.91
   24      H24      9.23  -0.040   -0.15
   25      H25     11.91  -0.066   -0.46
   26      H26     12.82  -0.075   -0.42
 Added spheres:    25.24  -0.064    0.00
 --------------------------------------------------------------------
 After PCM corrections, the energy is  -1120.35753758     a.u.
 --------------------------------------------------------------------
 Leave Link  502 at Thu Aug  6 22:01:36 2020, MaxMem=    33554432 cpu:       139.2
 (Enter /prod/apps/gaussian/g09d1/l601.exe)
 Copying SCF densities to generalized density rwf, IOpCl= 0 IROHF=0.

 **********************************************************************

            Population analysis using the SCF density.

 **********************************************************************

 Orbital symmetries:
       Occupied  (A) (A) (A) (A) (A) (A) (A) (A) (A) (A) (A) (A)
                 (A) (A) (A) (A) (A) (A) (A) (A) (A) (A) (A) (A)
                 (A) (A) (A) (A) (A) (A) (A) (A) (A) (A) (A) (A)
                 (A) (A) (A) (A) (A) (A) (A) (A) (A) (A) (A) (A)
                 (A) (A) (A) (A) (A) (A) (A) (A) (A) (A) (A) (A)
                 (A) (A)
       Virtual   (A) (A) (A) (A) (A) (A) (A) (A) (A) (A) (A) (A)
                 (A) (A) (A) (A) (A) (A) (A) (A) (A) (A) (A) (A)
                 (A) (A) (A) (A) (A) (A) (A) (A) (A) (A) (A) (A)
                 (A) (A) (A) (A) (A) (A) (A) (A) (A) (A) (A) (A)
                 (A) (A) (A) (A) (A) (A) (A) (A) (A) (A) (A) (A)
                 (A) (A) (A) (A) (A) (A) (A) (A) (A) (A) (A) (A)
                 (A) (A) (A) (A) (A) (A) (A) (A) (A) (A) (A) (A)
                 (A) (A) (A) (A) (A) (A) (A) (A) (A) (A) (A) (A)
                 (A) (A) (A) (A) (A) (A) (A) (A) (A) (A) (A) (A)
                 (A) (A) (A) (A) (A) (A) (A) (A) (A) (A) (A) (A)
                 (A) (A) (A) (A) (A) (A) (A) (A) (A) (A) (A) (A)
                 (A) (A) (A) (A) (A) (A) (A) (A) (A) (A) (A) (A)
                 (A) (A) (A) (A) (A) (A) (A) (A) (A) (A) (A) (A)
                 (A) (A) (A) (A) (A) (A) (A) (A) (A) (A) (A) (A)
                 (A) (A) (A) (A) (A) (A) (A) (A) (A) (A) (A) (A)
                 (A) (A) (A) (A) (A) (A) (A) (A) (A) (A) (A) (A)
                 (A) (A) (A) (A) (A) (A) (A) (A) (A) (A)
 The electronic state is 1-A.
 Alpha  occ. eigenvalues --  -89.13276 -19.24303 -19.16052 -19.15939 -14.39187
 Alpha  occ. eigenvalues --  -14.38482 -10.28119 -10.27268 -10.22498 -10.21785
 Alpha  occ. eigenvalues --  -10.20465 -10.20369 -10.20211 -10.19992 -10.19901
 Alpha  occ. eigenvalues --  -10.19852  -8.15810  -6.12357  -6.12225  -6.12057
 Alpha  occ. eigenvalues --   -1.14878  -1.12777  -1.01621  -0.96636  -0.87695
 Alpha  occ. eigenvalues --   -0.85517  -0.81399  -0.78253  -0.75598  -0.75391
 Alpha  occ. eigenvalues --   -0.66773  -0.65147  -0.62321  -0.60416  -0.57919
 Alpha  occ. eigenvalues --   -0.55436  -0.53399  -0.50877  -0.49750  -0.48701
 Alpha  occ. eigenvalues --   -0.48245  -0.47678  -0.46783  -0.44995  -0.44094
 Alpha  occ. eigenvalues --   -0.43546  -0.43424  -0.42770  -0.39913  -0.39073
 Alpha  occ. eigenvalues --   -0.37682  -0.36385  -0.35787  -0.35158  -0.33270
 Alpha  occ. eigenvalues --   -0.32787  -0.32118  -0.31484  -0.30115  -0.26476
 Alpha  occ. eigenvalues --   -0.26058  -0.23750
 Alpha virt. eigenvalues --   -0.05407  -0.01097   0.01791   0.04917   0.06641
 Alpha virt. eigenvalues --    0.06811   0.07718   0.08597   0.09923   0.11462
 Alpha virt. eigenvalues --    0.11726   0.12697   0.13439   0.15206   0.15821
 Alpha virt. eigenvalues --    0.16765   0.16865   0.16973   0.18517   0.19268
 Alpha virt. eigenvalues --    0.23212   0.25438   0.25663   0.29456   0.29883
 Alpha virt. eigenvalues --    0.31844   0.32927   0.33989   0.36311   0.38179
 Alpha virt. eigenvalues --    0.40862   0.43190   0.43845   0.44472   0.47859
 Alpha virt. eigenvalues --    0.49220   0.50017   0.51222   0.51845   0.53217
 Alpha virt. eigenvalues --    0.53404   0.54240   0.55565   0.56676   0.57815
 Alpha virt. eigenvalues --    0.58080   0.58743   0.59544   0.60588   0.61283
 Alpha virt. eigenvalues --    0.61806   0.62403   0.64128   0.64690   0.66506
 Alpha virt. eigenvalues --    0.67937   0.69425   0.70986   0.71824   0.75733
 Alpha virt. eigenvalues --    0.76186   0.78182   0.78801   0.79128   0.80413
 Alpha virt. eigenvalues --    0.81600   0.83529   0.83971   0.84481   0.84906
 Alpha virt. eigenvalues --    0.86464   0.86772   0.87839   0.88512   0.89061
 Alpha virt. eigenvalues --    0.90720   0.91336   0.92609   0.94487   0.95044
 Alpha virt. eigenvalues --    0.96747   0.97530   0.98587   1.00298   1.01122
 Alpha virt. eigenvalues --    1.02231   1.04021   1.04663   1.06417   1.09301
 Alpha virt. eigenvalues --    1.10510   1.13544   1.14541   1.15816   1.16839
 Alpha virt. eigenvalues --    1.17533   1.19379   1.22064   1.24100   1.26124
 Alpha virt. eigenvalues --    1.29656   1.30997   1.33136   1.33721   1.36448
 Alpha virt. eigenvalues --    1.37803   1.41865   1.42023   1.42543   1.44850
 Alpha virt. eigenvalues --    1.46350   1.47038   1.48144   1.49897   1.50040
 Alpha virt. eigenvalues --    1.51132   1.53732   1.57556   1.58741   1.66362
 Alpha virt. eigenvalues --    1.68984   1.71988   1.74862   1.76480   1.78462
 Alpha virt. eigenvalues --    1.78727   1.79425   1.80290   1.81191   1.83470
 Alpha virt. eigenvalues --    1.84792   1.87036   1.88718   1.91905   1.93146
 Alpha virt. eigenvalues --    1.94443   1.96522   1.98133   1.99335   1.99881
 Alpha virt. eigenvalues --    2.04522   2.05744   2.06804   2.09941   2.10420
 Alpha virt. eigenvalues --    2.11674   2.13192   2.14247   2.15969   2.17160
 Alpha virt. eigenvalues --    2.18696   2.20631   2.22245   2.23509   2.24789
 Alpha virt. eigenvalues --    2.25549   2.26312   2.28324   2.28852   2.29921
 Alpha virt. eigenvalues --    2.32713   2.35002   2.43092   2.50358   2.52747
 Alpha virt. eigenvalues --    2.53341   2.56710   2.58079   2.60006   2.62142
 Alpha virt. eigenvalues --    2.65969   2.66309   2.71064   2.72097   2.73892
 Alpha virt. eigenvalues --    2.74629   2.76662   2.80397   2.87044   2.89056
 Alpha virt. eigenvalues --    2.91270   3.02300   3.05096   3.13217   3.26723
 Alpha virt. eigenvalues --    3.42713   3.76105   3.79750   3.92480   3.97729
 Alpha virt. eigenvalues --    4.06746   4.08338   4.10766   4.10932   4.14739
 Alpha virt. eigenvalues --    4.22648   4.23023   4.31463   4.36801   4.40188
 Alpha virt. eigenvalues --    4.56609   4.74034
          Condensed to atoms (all electrons):
               1          2          3          4          5          6
     1  O    8.266352   0.441095  -0.054846   0.005545  -0.002083   0.000008
     2  S    0.441095  13.609601   0.099215  -0.001647   0.002429  -0.000330
     3  N   -0.054846   0.099215   7.472744   0.227670  -0.074928   0.005521
     4  C    0.005545  -0.001647   0.227670   4.463721   0.402350  -0.035672
     5  N   -0.002083   0.002429  -0.074928   0.402350   6.953854   0.111276
     6  O    0.000008  -0.000330   0.005521  -0.035672   0.111276   8.212058
     7  C    0.000001   0.000249  -0.000676  -0.017784  -0.081937   0.245573
     8  C    0.000000  -0.000009  -0.000207   0.002719   0.004224  -0.037677
     9  C    0.000000   0.000000   0.000003   0.000642  -0.000099   0.003131
    10  C    0.000000   0.000000   0.000000  -0.000007   0.000001  -0.000061
    11  C    0.000000   0.000000   0.000000   0.000000   0.000000   0.000002
    12  C    0.000000   0.000000   0.000000   0.000005   0.000000   0.000280
    13  C    0.000000   0.000000  -0.000001  -0.000348   0.000126  -0.006623
    14  C    0.000110   0.001475  -0.052830   0.454403  -0.044194  -0.090930
    15  C   -0.056492   0.232393  -0.051530  -0.007564  -0.007538   0.000131
    16  O   -0.045383   0.460132  -0.050786   0.001309  -0.000023   0.000000
    17  H   -0.000199  -0.011704   0.300015  -0.014313   0.002646  -0.000055
    18  H    0.000000   0.000000  -0.000001   0.000089  -0.000006   0.000024
    19  H    0.000000   0.000000   0.000000   0.000000   0.000000   0.000000
    20  H    0.000000   0.000000   0.000000   0.000000   0.000000   0.000000
    21  H    0.000000   0.000000   0.000000   0.000000   0.000000  -0.000003
    22  H    0.000000   0.000000   0.000000   0.000054  -0.000255   0.009672
    23  H    0.000002  -0.000125  -0.001886  -0.027788   0.004784   0.003304
    24  H   -0.001280  -0.002622  -0.002803  -0.000309   0.017021  -0.000350
    25  H    0.001835  -0.007254   0.000905   0.000254   0.000047  -0.000001
    26  H    0.000097  -0.017240   0.002402   0.000109   0.000139  -0.000001
               7          8          9         10         11         12
     1  O    0.000001   0.000000   0.000000   0.000000   0.000000   0.000000
     2  S    0.000249  -0.000009   0.000000   0.000000   0.000000   0.000000
     3  N   -0.000676  -0.000207   0.000003   0.000000   0.000000   0.000000
     4  C   -0.017784   0.002719   0.000642  -0.000007   0.000000   0.000005
     5  N   -0.081937   0.004224  -0.000099   0.000001   0.000000   0.000000
     6  O    0.245573  -0.037677   0.003131  -0.000061   0.000002   0.000280
     7  C    4.722133   0.348810  -0.042392   0.006360   0.000865   0.004766
     8  C    0.348810   4.782077   0.536403  -0.011218  -0.033823  -0.009723
     9  C   -0.042392   0.536403   5.013942   0.518576  -0.040199  -0.041336
    10  C    0.006360  -0.011218   0.518576   4.883245   0.539867  -0.026041
    11  C    0.000865  -0.033823  -0.040199   0.539867   4.873725   0.539095
    12  C    0.004766  -0.009723  -0.041336  -0.026041   0.539095   4.890733
    13  C   -0.041566   0.472677  -0.082044  -0.042116  -0.038157   0.506159
    14  C    0.508563  -0.057375  -0.019930   0.000226   0.000015  -0.000229
    15  C   -0.000026   0.000000   0.000000   0.000000   0.000000   0.000000
    16  O    0.000000   0.000000   0.000000   0.000000   0.000000   0.000000
    17  H    0.000021  -0.000001   0.000000   0.000000   0.000000   0.000000
    18  H   -0.012592  -0.037116   0.357133  -0.041035   0.004474   0.000165
    19  H   -0.000204   0.003216  -0.037225   0.362938  -0.040499   0.004363
    20  H    0.000003   0.000483   0.004807  -0.041470   0.364662  -0.041297
    21  H   -0.000173   0.003218   0.000770   0.004397  -0.040729   0.363521
    22  H   -0.012782  -0.042940   0.005280   0.000199   0.004532  -0.040627
    23  H   -0.026298  -0.003426   0.001186   0.000091  -0.000001   0.000002
    24  H    0.000052   0.000000   0.000000   0.000000   0.000000   0.000000
    25  H    0.000000   0.000000   0.000000   0.000000   0.000000   0.000000
    26  H    0.000000   0.000000   0.000000   0.000000   0.000000   0.000000
              13         14         15         16         17         18
     1  O    0.000000   0.000110  -0.056492  -0.045383  -0.000199   0.000000
     2  S    0.000000   0.001475   0.232393   0.460132  -0.011704   0.000000
     3  N   -0.000001  -0.052830  -0.051530  -0.050786   0.300015  -0.000001
     4  C   -0.000348   0.454403  -0.007564   0.001309  -0.014313   0.000089
     5  N    0.000126  -0.044194  -0.007538  -0.000023   0.002646  -0.000006
     6  O   -0.006623  -0.090930   0.000131   0.000000  -0.000055   0.000024
     7  C   -0.041566   0.508563  -0.000026   0.000000   0.000021  -0.012592
     8  C    0.472677  -0.057375   0.000000   0.000000  -0.000001  -0.037116
     9  C   -0.082044  -0.019930   0.000000   0.000000   0.000000   0.357133
    10  C   -0.042116   0.000226   0.000000   0.000000   0.000000  -0.041035
    11  C   -0.038157   0.000015   0.000000   0.000000   0.000000   0.004474
    12  C    0.506159  -0.000229   0.000000   0.000000   0.000000   0.000165
    13  C    5.059061   0.011818   0.000000   0.000000   0.000000   0.005612
    14  C    0.011818   5.229538  -0.000323  -0.000055  -0.004778   0.006070
    15  C    0.000000  -0.000323   5.557779  -0.057623   0.002362   0.000000
    16  O    0.000000  -0.000055  -0.057623   8.251187   0.004050   0.000000
    17  H    0.000000  -0.004778   0.002362   0.004050   0.289339   0.000000
    18  H    0.005612   0.006070   0.000000   0.000000   0.000000   0.554706
    19  H    0.000792  -0.000001   0.000000   0.000000   0.000000  -0.004805
    20  H    0.004671   0.000000   0.000000   0.000000   0.000000  -0.000154
    21  H   -0.037375   0.000001   0.000000   0.000000   0.000000   0.000015
    22  H    0.362931   0.000261   0.000000   0.000000   0.000000  -0.000138
    23  H   -0.000104   0.354236   0.000001  -0.000001   0.001543   0.001917
    24  H    0.000000   0.000191   0.326579   0.001584  -0.000075   0.000000
    25  H    0.000000  -0.000002   0.342292  -0.000113  -0.000041   0.000000
    26  H    0.000000   0.000002   0.356400  -0.000446  -0.000041   0.000000
              19         20         21         22         23         24
     1  O    0.000000   0.000000   0.000000   0.000000   0.000002  -0.001280
     2  S    0.000000   0.000000   0.000000   0.000000  -0.000125  -0.002622
     3  N    0.000000   0.000000   0.000000   0.000000  -0.001886  -0.002803
     4  C    0.000000   0.000000   0.000000   0.000054  -0.027788  -0.000309
     5  N    0.000000   0.000000   0.000000  -0.000255   0.004784   0.017021
     6  O    0.000000   0.000000  -0.000003   0.009672   0.003304  -0.000350
     7  C   -0.000204   0.000003  -0.000173  -0.012782  -0.026298   0.000052
     8  C    0.003216   0.000483   0.003218  -0.042940  -0.003426   0.000000
     9  C   -0.037225   0.004807   0.000770   0.005280   0.001186   0.000000
    10  C    0.362938  -0.041470   0.004397   0.000199   0.000091   0.000000
    11  C   -0.040499   0.364662  -0.040729   0.004532  -0.000001   0.000000
    12  C    0.004363  -0.041297   0.363521  -0.040627   0.000002   0.000000
    13  C    0.000792   0.004671  -0.037375   0.362931  -0.000104   0.000000
    14  C   -0.000001   0.000000   0.000001   0.000261   0.354236   0.000191
    15  C    0.000000   0.000000   0.000000   0.000000   0.000001   0.326579
    16  O    0.000000   0.000000   0.000000   0.000000  -0.000001   0.001584
    17  H    0.000000   0.000000   0.000000   0.000000   0.001543  -0.000075
    18  H   -0.004805  -0.000154   0.000015  -0.000138   0.001917   0.000000
    19  H    0.555921  -0.005076  -0.000161   0.000015  -0.000002   0.000000
    20  H   -0.005076   0.558984  -0.005082  -0.000149   0.000000   0.000000
    21  H   -0.000161  -0.005082   0.556234  -0.004863   0.000000   0.000000
    22  H    0.000015  -0.000149  -0.004863   0.552606  -0.000008   0.000000
    23  H   -0.000002   0.000000   0.000000  -0.000008   0.495552  -0.000003
    24  H    0.000000   0.000000   0.000000   0.000000  -0.000003   0.457912
    25  H    0.000000   0.000000   0.000000   0.000000   0.000000  -0.019656
    26  H    0.000000   0.000000   0.000000   0.000000   0.000000  -0.014995
              25         26
     1  O    0.001835   0.000097
     2  S   -0.007254  -0.017240
     3  N    0.000905   0.002402
     4  C    0.000254   0.000109
     5  N    0.000047   0.000139
     6  O   -0.000001  -0.000001
     7  C    0.000000   0.000000
     8  C    0.000000   0.000000
     9  C    0.000000   0.000000
    10  C    0.000000   0.000000
    11  C    0.000000   0.000000
    12  C    0.000000   0.000000
    13  C    0.000000   0.000000
    14  C   -0.000002   0.000002
    15  C    0.342292   0.356400
    16  O   -0.000113  -0.000446
    17  H   -0.000041  -0.000041
    18  H    0.000000   0.000000
    19  H    0.000000   0.000000
    20  H    0.000000   0.000000
    21  H    0.000000   0.000000
    22  H    0.000000   0.000000
    23  H    0.000000   0.000000
    24  H   -0.019656  -0.014995
    25  H    0.466674  -0.016751
    26  H   -0.016751   0.452624
 Mulliken charges:
               1
     1  O   -0.554761
     2  S    1.194342
     3  N   -0.817982
     4  C    0.546560
     5  N   -0.287835
     6  O   -0.419279
     7  C    0.399032
     8  C    0.079686
     9  C   -0.178647
    10  C   -0.153950
    11  C   -0.133829
    12  C   -0.149836
    13  C   -0.175515
    14  C   -0.296264
    15  C   -0.636841
    16  O   -0.563832
    17  H    0.431230
    18  H    0.165640
    19  H    0.160728
    20  H    0.159619
    21  H    0.160230
    22  H    0.166212
    23  H    0.197023
    24  H    0.238755
    25  H    0.231812
    26  H    0.237702
 Sum of Mulliken charges =   0.00000
 Mulliken charges with hydrogens summed into heavy atoms:
               1
     1  O   -0.554761
     2  S    1.194342
     3  N   -0.386752
     4  C    0.546560
     5  N   -0.287835
     6  O   -0.419279
     7  C    0.399032
     8  C    0.079686
     9  C   -0.013007
    10  C    0.006777
    11  C    0.025791
    12  C    0.010395
    13  C   -0.009303
    14  C   -0.099241
    15  C    0.071427
    16  O   -0.563832
 Electronic spatial extent (au):  <R**2>=           5863.0528
 Charge=              0.0000 electrons
 Dipole moment (field-independent basis, Debye):
    X=              5.2125    Y=              2.6421    Z=             -3.8918  Tot=              7.0212
 Quadrupole moment (field-independent basis, Debye-Ang):
   XX=            -93.9952   YY=            -89.0198   ZZ=           -103.9797
   XY=              8.1982   XZ=             14.9565   YZ=              2.0369
 Traceless Quadrupole moment (field-independent basis, Debye-Ang):
   XX=              1.6697   YY=              6.6451   ZZ=             -8.3148
   XY=              8.1982   XZ=             14.9565   YZ=              2.0369
 Octapole moment (field-independent basis, Debye-Ang**2):
  XXX=            140.0184  YYY=             15.3547  ZZZ=             -6.8174  XYY=              4.2717
  XXY=            -52.5842  XXZ=            -48.5768  XZZ=            -20.6256  YZZ=             -0.5800
  YYZ=             -2.9606  XYZ=            -13.2358
 Hexadecapole moment (field-independent basis, Debye-Ang**3):
 XXXX=          -6437.4310 YYYY=           -568.3732 ZZZZ=           -245.4539 XXXY=            289.8389
 XXXZ=            219.7023 YYYX=             -5.6885 YYYZ=             -5.5295 ZZZX=             23.9216
 ZZZY=              5.5273 XXYY=          -1142.7347 XXZZ=          -1258.2105 YYZZ=           -152.1400
 XXYZ=             26.9653 YYXZ=              9.9352 ZZXY=             -9.6810
 N-N= 1.171267358804D+03 E-N=-4.970044209577D+03  KE= 1.112207148447D+03
 No NMR shielding tensors so no spin-rotation constants.
 Leave Link  601 at Thu Aug  6 22:01:37 2020, MaxMem=    33554432 cpu:         0.2
 (Enter /prod/apps/gaussian/g09d1/l9999.exe)
 1\1\GINC-PIRINEUS7\SP\RB3LYP\6-31G(d)\C10H10N2O3S1\UBAFAR01\06-Aug-202
 0\0\\#p b3lyp/6-31G(d) scrf=(iefpcm,read,solvent=Water) geom=allcheck 
 guess=read\\SM41.n.10.pdb.xyz\\0,1\O,0,1.398,0.248,3.836\S,0,2.527,0.1
 ,2.908\N,0,2.341,1.106,1.556\C,0,1.843,2.403,1.628\N,0,1.963,3.13,2.72
 4\O,0,1.395,4.37,2.391\C,0,0.963,4.342,1.108\C,0,0.34,5.551,0.58\C,0,-
 0.105,5.586,-0.751\C,0,-0.701,6.737,-1.259\C,0,-0.858,7.864,-0.447\C,0
 ,-0.416,7.834,0.877\C,0,0.18,6.686,1.392\C,0,1.22,3.113,0.568\C,0,3.99
 1,0.768,3.683\O,0,2.805,-1.219,2.329\H,0,2.087,0.573,0.724\H,0,0.017,4
 .714,-1.383\H,0,-1.042,6.755,-2.289\H,0,-1.323,8.759,-0.846\H,0,-0.536
 ,8.706,1.511\H,0,0.524,6.659,2.419\H,0,1.002,2.756,-0.425\H,0,3.801,1.
 817,3.906\H,0,4.829,0.654,2.996\H,0,4.156,0.199,4.598\\Version=AM64L-G
 09RevD.01\State=1-A\HF=-1120.3575376\RMSD=9.978e-09\Dipole=0.4128549,1
 .6615316,-2.1678317\Quadrupole=4.3232671,-7.8295835,3.5063164,-8.05711
 1,8.6658611,3.0032468\PG=C01 [X(C10H10N2O3S1)]\\@


 ADVERTISING--  HE WHO HAS SOMETHING TO SELL AND GOES AND WHISPERS
                IN A WELL, IS NOT SO APT TO GET THE DOLLARS AS HE
                WHO CLIMBS A TREE AND HOLLERS.

                   -- FROM THE BACK OF A SUGAR PACKET
 Job cpu time:       0 days  0 hours  2 minutes 20.8 seconds.
 File lengths (MBytes):  RWF=    120 Int=      0 D2E=      0 Chk=      5 Scr=      1
 Normal termination of Gaussian 09 at Thu Aug  6 22:01:37 2020.
