 Entering Gaussian System, Link 0=g09
 Initial command:
 /prod/apps/gaussian/g09d1/l1.exe "/tmp/ubafar01/1448585/Gau-8183.inp" -scrdir="/tmp/ubafar01/1448585/"
 Entering Link 1 = /prod/apps/gaussian/g09d1/l1.exe PID=      8184.
  
 Copyright (c) 1988,1990,1992,1993,1995,1998,2003,2009,2013,
            Gaussian, Inc.  All Rights Reserved.
  
 This is part of the Gaussian(R) 09 program.  It is based on
 the Gaussian(R) 03 system (copyright 2003, Gaussian, Inc.),
 the Gaussian(R) 98 system (copyright 1998, Gaussian, Inc.),
 the Gaussian(R) 94 system (copyright 1995, Gaussian, Inc.),
 the Gaussian 92(TM) system (copyright 1992, Gaussian, Inc.),
 the Gaussian 90(TM) system (copyright 1990, Gaussian, Inc.),
 the Gaussian 88(TM) system (copyright 1988, Gaussian, Inc.),
 the Gaussian 86(TM) system (copyright 1986, Carnegie Mellon
 University), and the Gaussian 82(TM) system (copyright 1983,
 Carnegie Mellon University). Gaussian is a federally registered
 trademark of Gaussian, Inc.
  
 This software contains proprietary and confidential information,
 including trade secrets, belonging to Gaussian, Inc.
  
 This software is provided under written license and may be
 used, copied, transmitted, or stored only in accord with that
 written license.
  
 The following legend is applicable only to US Government
 contracts under FAR:
  
                    RESTRICTED RIGHTS LEGEND
  
 Use, reproduction and disclosure by the US Government is
 subject to restrictions as set forth in subparagraphs (a)
 and (c) of the Commercial Computer Software - Restricted
 Rights clause in FAR 52.227-19.
  
 Gaussian, Inc.
 340 Quinnipiac St., Bldg. 40, Wallingford CT 06492
  
  
 ---------------------------------------------------------------
 Warning -- This program may not be used in any manner that
 competes with the business of Gaussian, Inc. or will provide
 assistance to any competitor of Gaussian, Inc.  The licensee
 of this program is prohibited from giving any competitor of
 Gaussian, Inc. access to this program.  By using this program,
 the user acknowledges that Gaussian, Inc. is engaged in the
 business of creating and licensing software in the field of
 computational chemistry and represents and warrants to the
 licensee that it is not a competitor of Gaussian, Inc. and that
 it will not use this program in any manner prohibited above.
 ---------------------------------------------------------------
  

 Cite this work as:
 Gaussian 09, Revision D.01,
 M. J. Frisch, G. W. Trucks, H. B. Schlegel, G. E. Scuseria, 
 M. A. Robb, J. R. Cheeseman, G. Scalmani, V. Barone, B. Mennucci, 
 G. A. Petersson, H. Nakatsuji, M. Caricato, X. Li, H. P. Hratchian, 
 A. F. Izmaylov, J. Bloino, G. Zheng, J. L. Sonnenberg, M. Hada, 
 M. Ehara, K. Toyota, R. Fukuda, J. Hasegawa, M. Ishida, T. Nakajima, 
 Y. Honda, O. Kitao, H. Nakai, T. Vreven, J. A. Montgomery, Jr., 
 J. E. Peralta, F. Ogliaro, M. Bearpark, J. J. Heyd, E. Brothers, 
 K. N. Kudin, V. N. Staroverov, T. Keith, R. Kobayashi, J. Normand, 
 K. Raghavachari, A. Rendell, J. C. Burant, S. S. Iyengar, J. Tomasi, 
 M. Cossi, N. Rega, J. M. Millam, M. Klene, J. E. Knox, J. B. Cross, 
 V. Bakken, C. Adamo, J. Jaramillo, R. Gomperts, R. E. Stratmann, 
 O. Yazyev, A. J. Austin, R. Cammi, C. Pomelli, J. W. Ochterski, 
 R. L. Martin, K. Morokuma, V. G. Zakrzewski, G. A. Voth, 
 P. Salvador, J. J. Dannenberg, S. Dapprich, A. D. Daniels, 
 O. Farkas, J. B. Foresman, J. V. Ortiz, J. Cioslowski, 
 and D. J. Fox, Gaussian, Inc., Wallingford CT, 2013.
 
 ******************************************
 Gaussian 09:  AM64L-G09RevD.01 24-Apr-2013
                 6-Aug-2020 
 ******************************************
 %nproc=1
 Will use up to    1 processors via shared memory.
 %Chk=SM41.n.3.pdb.xyz.mst.n.w.chk
 -----------------
 #p b3lyp/6-31G(d)
 -----------------
 1/38=1/1;
 2/12=2,17=6,18=5,40=1/2;
 3/5=1,6=6,7=1,11=2,16=1,25=1,30=1,74=-5/1,2,3;
 4//1;
 5/5=2,38=5/2;
 6/7=2,8=2,9=2,10=2,28=1/1;
 99/5=1,9=1/99;
 Leave Link    1 at Thu Aug  6 21:56:17 2020, MaxMem=           0 cpu:         0.0
 (Enter /prod/apps/gaussian/g09d1/l101.exe)
 ----------------
 SM41.n.3.pdb.xyz
 ----------------
 Symbolic Z-matrix:
 Charge =  0 Multiplicity = 1
 O                     3.154    -1.377     1.409 
 S                     2.968    -0.111     2.126 
 N                     2.395     0.949     0.94 
 C                     1.961     2.248     1.188 
 N                     2.188     2.865     2.333 
 O                     1.617     4.14      2.166 
 C                     1.073     4.236     0.929 
 C                     0.433     5.496     0.572 
 C                    -0.165     5.646    -0.691 
 C                    -0.778     6.847    -1.036 
 C                    -0.802     7.91     -0.129 
 C                    -0.209     7.766     1.127 
 C                     0.405     6.567     1.479 
 C                     1.259     3.06      0.258 
 C                     1.638    -0.28      3.315 
 O                     4.111     0.523     2.788 
 H                     1.937     0.466     0.168 
 H                    -0.148     4.823    -1.396 
 H                    -1.237     6.954    -2.013 
 H                    -1.28      8.845    -0.401 
 H                    -0.225     8.588     1.835 
 H                     0.866     6.452     2.453 
 H                     0.953     2.799    -0.742 
 H                     0.782    -0.733     2.816 
 H                     1.395     0.71      3.698 
 H                     2.004    -0.923     4.116 
 
 NAtoms=     26 NQM=       26 NQMF=       0 NMMI=      0 NMMIF=      0
                NMic=       0 NMicF=      0.
                    Isotopes and Nuclear Properties:
 (Nuclear quadrupole moments (NQMom) in fm**2, nuclear magnetic moments (NMagM)
  in nuclear magnetons)

  Atom         1           2           3           4           5           6           7           8           9          10
 IAtWgt=          16          32          14          12          14          16          12          12          12          12
 AtmWgt=  15.9949146  31.9720718  14.0030740  12.0000000  14.0030740  15.9949146  12.0000000  12.0000000  12.0000000  12.0000000
 NucSpn=           0           0           2           0           2           0           0           0           0           0
 AtZEff=   0.0000000   0.0000000   0.0000000   0.0000000   0.0000000   0.0000000   0.0000000   0.0000000   0.0000000   0.0000000
 NQMom=    0.0000000   0.0000000   2.0440000   0.0000000   2.0440000   0.0000000   0.0000000   0.0000000   0.0000000   0.0000000
 NMagM=    0.0000000   0.0000000   0.4037610   0.0000000   0.4037610   0.0000000   0.0000000   0.0000000   0.0000000   0.0000000
 AtZNuc=   8.0000000  16.0000000   7.0000000   6.0000000   7.0000000   8.0000000   6.0000000   6.0000000   6.0000000   6.0000000

  Atom        11          12          13          14          15          16          17          18          19          20
 IAtWgt=          12          12          12          12          12          16           1           1           1           1
 AtmWgt=  12.0000000  12.0000000  12.0000000  12.0000000  12.0000000  15.9949146   1.0078250   1.0078250   1.0078250   1.0078250
 NucSpn=           0           0           0           0           0           0           1           1           1           1
 AtZEff=   0.0000000   0.0000000   0.0000000   0.0000000   0.0000000   0.0000000   0.0000000   0.0000000   0.0000000   0.0000000
 NQMom=    0.0000000   0.0000000   0.0000000   0.0000000   0.0000000   0.0000000   0.0000000   0.0000000   0.0000000   0.0000000
 NMagM=    0.0000000   0.0000000   0.0000000   0.0000000   0.0000000   0.0000000   2.7928460   2.7928460   2.7928460   2.7928460
 AtZNuc=   6.0000000   6.0000000   6.0000000   6.0000000   6.0000000   8.0000000   1.0000000   1.0000000   1.0000000   1.0000000

  Atom        21          22          23          24          25          26
 IAtWgt=           1           1           1           1           1           1
 AtmWgt=   1.0078250   1.0078250   1.0078250   1.0078250   1.0078250   1.0078250
 NucSpn=           1           1           1           1           1           1
 AtZEff=   0.0000000   0.0000000   0.0000000   0.0000000   0.0000000   0.0000000
 NQMom=    0.0000000   0.0000000   0.0000000   0.0000000   0.0000000   0.0000000
 NMagM=    2.7928460   2.7928460   2.7928460   2.7928460   2.7928460   2.7928460
 AtZNuc=   1.0000000   1.0000000   1.0000000   1.0000000   1.0000000   1.0000000
 Leave Link  101 at Thu Aug  6 21:56:17 2020, MaxMem=    33554432 cpu:         0.1
 (Enter /prod/apps/gaussian/g09d1/l202.exe)
                          Input orientation:                          
 ---------------------------------------------------------------------
 Center     Atomic      Atomic             Coordinates (Angstroms)
 Number     Number       Type             X           Y           Z
 ---------------------------------------------------------------------
      1          8           0        3.154000   -1.377000    1.409000
      2         16           0        2.968000   -0.111000    2.126000
      3          7           0        2.395000    0.949000    0.940000
      4          6           0        1.961000    2.248000    1.188000
      5          7           0        2.188000    2.865000    2.333000
      6          8           0        1.617000    4.140000    2.166000
      7          6           0        1.073000    4.236000    0.929000
      8          6           0        0.433000    5.496000    0.572000
      9          6           0       -0.165000    5.646000   -0.691000
     10          6           0       -0.778000    6.847000   -1.036000
     11          6           0       -0.802000    7.910000   -0.129000
     12          6           0       -0.209000    7.766000    1.127000
     13          6           0        0.405000    6.567000    1.479000
     14          6           0        1.259000    3.060000    0.258000
     15          6           0        1.638000   -0.280000    3.315000
     16          8           0        4.111000    0.523000    2.788000
     17          1           0        1.937000    0.466000    0.168000
     18          1           0       -0.148000    4.823000   -1.396000
     19          1           0       -1.237000    6.954000   -2.013000
     20          1           0       -1.280000    8.845000   -0.401000
     21          1           0       -0.225000    8.588000    1.835000
     22          1           0        0.866000    6.452000    2.453000
     23          1           0        0.953000    2.799000   -0.742000
     24          1           0        0.782000   -0.733000    2.816000
     25          1           0        1.395000    0.710000    3.698000
     26          1           0        2.004000   -0.923000    4.116000
 ---------------------------------------------------------------------
                    Distance matrix (angstroms):
                    1          2          3          4          5
     1  O    0.000000
     2  S    1.466779   0.000000
     3  N    2.491248   1.690717   0.000000
     4  C    3.822658   2.731076   1.391855   0.000000
     5  N    4.447639   3.083476   2.377889   1.320319   0.000000
     6  O    5.776912   4.460695   3.505830   2.157425   1.406967
     7  C    6.005558   4.890833   3.542905   2.192663   2.257007
     8  C    7.439257   6.346620   4.965891   3.641942   3.619849
     9  C    8.046632   7.134019   5.592457   4.426841   4.734464
    10  C    9.437840   8.511435   6.982758   5.796473   6.000303
    11  C   10.210962   9.145183   7.734280   6.436373   6.360312
    12  C    9.745960   8.552103   7.299813   5.929667   5.587472
    13  C    8.406488   7.182149   5.984358   4.599954   4.196809
    14  C    4.960120   4.057751   2.492377   1.420228   2.281817
    15  C    2.671049   1.791977   2.779229   3.319524   3.340337
    16  O    2.535249   1.465145   2.557584   3.187181   3.064297
    17  H    2.533341   2.286844   1.019332   2.053412   3.241208
    18  H    7.563810   6.816032   5.189568   4.213735   4.816233
    19  H   10.019807   9.204758   7.613912   6.528403   6.880281
    20  H   11.288301  10.229427   8.811965   7.519934   7.433854
    21  H   10.530923   9.271059   8.125254   6.737418   6.230835
    22  H    8.223024   6.899152   5.908470   4.524695   3.824742
    23  H    5.187502   4.555628   2.886345   2.246011   3.314394
    24  H    2.832096   2.375201   2.991700   3.595384   3.893036
    25  H    3.562186   2.370560   2.943414   2.997649   2.671348
    26  H    2.975981   2.355576   3.707323   4.316280   4.190691
                    6          7          8          9         10
     6  O    0.000000
     7  C    1.354740   0.000000
     8  C    2.404460   1.457618   0.000000
     9  C    3.688632   2.478940   1.405444   0.000000
    10  C    4.828735   3.755629   2.424332   1.391832   0.000000
    11  C    5.033039   4.258317   2.800718   2.418121   1.397567
    12  C    4.190665   3.760802   2.423446   2.793109   2.418035
    13  C    2.798436   2.486420   1.403736   2.425292   2.793405
    14  C    2.221492   1.366680   2.591326   3.100931   4.490565
    15  C    4.566951   5.138723   6.506785   7.376742   8.692663
    16  O    4.437297   5.145065   6.570317   7.525473   8.861054
    17  H    4.194363   3.941893   5.265561   5.655854   7.038324
    18  H    4.033554   2.690917   2.159517   1.083809   2.150134
    19  H    5.790333   4.623742   3.405421   2.146563   1.084739
    20  H    6.092547   5.343069   3.885473   3.400136   2.155744
    21  H    4.825684   4.630933   3.404203   3.878097   3.402871
    22  H    2.447798   2.697421   2.153970   3.405486   3.877097
    23  H    3.270419   2.207172   3.044800   3.059074   4.412380
    24  H    4.986567   5.323196   6.630066   7.340811   8.644530
    25  H    3.763138   4.494855   5.796819   6.786827   8.049562
    26  H    5.439323   6.135064   7.498769   8.423988   9.729107
                   11         12         13         14         15
    11  C    0.000000
    12  C    1.396396   0.000000
    13  C    2.417884   1.392301   0.000000
    14  C    5.283937   5.005659   3.810408   0.000000
    15  C    9.213622   8.540308   7.195318   4.543621   0.000000
    16  O    9.338856   8.595485   7.209567   4.579429   2.652973
    17  H    7.937472   7.669094   6.425570   2.682652   3.248003
    18  H    3.400379   3.876919   3.407781   2.797058   7.171048
    19  H    2.156993   3.402312   3.878143   5.152736   9.433131
    20  H    1.084755   2.155473   3.400428   6.351931  10.275651
    21  H    2.156365   1.084990   2.146643   5.937000   9.181644
    22  H    3.402163   2.154181   1.083708   4.059327   6.830729
    23  H    5.438577   5.432724   4.408057   1.077848   5.138941
    24  H    9.267337   8.721686   7.430996   4.599755   1.089471
    25  H    8.444687   7.679192   6.341018   4.168285   1.088962
    26  H   10.193898   9.451466   8.100041   5.594951   1.090416
                   16         17         18         19         20
    16  O    0.000000
    17  H    3.404985   0.000000
    18  H    7.357645   5.077083   0.000000
    19  H    9.644090   7.544878   2.471390   0.000000
    20  H   10.415771   8.993358   4.295106   2.485211   0.000000
    21  H    9.206157   8.568548   4.961906   4.301303   2.485713
    22  H    6.767222   6.496188   4.300772   4.961831   4.298498
    23  H    5.254906   2.690585   2.395098   4.865754   6.454199
    24  H    3.558168   3.127863   7.033845   9.299762  10.312081
    25  H    2.870492   3.579693   6.726548   8.861743   9.493980
    26  H    2.879922   4.185751   8.248016  10.493610  11.251745
                   21         22         23         24         25
    21  H    0.000000
    22  H    2.476833   0.000000
    23  H    6.445241   4.853865   0.000000
    24  H    9.426423   7.194654   5.016336   0.000000
    25  H    8.255789   5.899189   4.926752   1.798872   0.000000
    26  H   10.031477   7.645341   6.209513   1.794264   1.792287
                   26
    26  H    0.000000
 Stoichiometry    C10H10N2O3S
 Framework group  C1[X(C10H10N2O3S)]
 Deg. of freedom    72
 Full point group                 C1      NOp   1
 Largest Abelian subgroup         C1      NOp   1
 Largest concise Abelian subgroup C1      NOp   1
                         Standard orientation:                         
 ---------------------------------------------------------------------
 Center     Atomic      Atomic             Coordinates (Angstroms)
 Number     Number       Type             X           Y           Z
 ---------------------------------------------------------------------
      1          8           0       -4.655559    1.131207   -0.070295
      2         16           0       -3.643488    0.069551   -0.063878
      3          7           0       -2.182384    0.897804   -0.258034
      4          6           0       -0.925420    0.303918   -0.190188
      5          7           0       -0.757479   -1.005418   -0.216246
      6          8           0        0.636646   -1.183675   -0.151479
      7          6           0        1.247060    0.024231   -0.090828
      8          6           0        2.702911    0.038967   -0.020614
      9          6           0        3.388887    1.262752    0.063410
     10          6           0        4.778923    1.281716    0.131481
     11          6           0        5.499906    0.084574    0.116360
     12          6           0        4.822965   -1.133899    0.032719
     13          6           0        3.432542   -1.160165   -0.034618
     14          6           0        0.302974    1.012228   -0.110226
     15          6           0       -3.567387   -0.682570    1.560839
     16          8           0       -3.700273   -0.993534   -1.070493
     17          1           0       -2.234585    1.867027    0.053284
     18          1           0        2.832007    2.192471    0.075641
     19          1           0        5.300165    2.230819    0.196051
     20          1           0        6.583235    0.102611    0.168949
     21          1           0        5.377812   -2.066213    0.020863
     22          1           0        2.904195   -2.104127   -0.099476
     23          1           0        0.444391    2.080230   -0.076624
     24          1           0       -3.504775    0.108856    2.306944
     25          1           0       -2.692811   -1.330415    1.596201
     26          1           0       -4.481471   -1.263269    1.688297
 ---------------------------------------------------------------------
 Rotational constants (GHZ):      1.9058658      0.1830346      0.1740618
 Leave Link  202 at Thu Aug  6 21:56:17 2020, MaxMem=    33554432 cpu:         0.0
 (Enter /prod/apps/gaussian/g09d1/l301.exe)
 Standard basis: 6-31G(d) (6D, 7F)
 Ernie: Thresh=  0.10000D-02 Tol=  0.10000D-05 Strict=F.
 There are   264 symmetry adapted cartesian basis functions of A   symmetry.
 There are   264 symmetry adapted basis functions of A   symmetry.
   264 basis functions,   512 primitive gaussians,   264 cartesian basis functions
    62 alpha electrons       62 beta electrons
       nuclear repulsion energy      1170.8695050442 Hartrees.
 IExCor=  402 DFT=T Ex+Corr=B3LYP ExCW=0 ScaHFX=  0.200000
 ScaDFX=  0.800000  0.720000  1.000000  0.810000 ScalE2=  1.000000  1.000000
 IRadAn=      0 IRanWt=     -1 IRanGd=            0 ICorTp=0 IEmpDi=  4
 NAtoms=   26 NActive=   26 NUniq=   26 SFac= 1.00D+00 NAtFMM=   60 NAOKFM=F Big=F
 Integral buffers will be    131072 words long.
 Raffenetti 2 integral format.
 Two-electron integral symmetry is turned on.
 Leave Link  301 at Thu Aug  6 21:56:17 2020, MaxMem=    33554432 cpu:         0.0
 (Enter /prod/apps/gaussian/g09d1/l302.exe)
 NPDir=0 NMtPBC=     1 NCelOv=     1 NCel=       1 NClECP=     1 NCelD=      1
         NCelK=      1 NCelE2=     1 NClLst=     1 CellRange=     0.0.
 One-electron integrals computed using PRISM.
 NBasis=   264 RedAO= T EigKep=  4.58D-04  NBF=   264
 NBsUse=   264 1.00D-06 EigRej= -1.00D+00 NBFU=   264
 Precomputing XC quadrature grid using
 IXCGrd= 4 IRadAn=           0 IRanWt=          -1 IRanGd=           0 AccXCQ= 0.00D+00.
 Generated NRdTot=       0 NPtTot=           0 NUsed=           0 NTot=          32
 NSgBfM=   260   260   260   260   260 MxSgAt=    26 MxSgA2=    26.
 Leave Link  302 at Thu Aug  6 21:56:18 2020, MaxMem=    33554432 cpu:         0.7
 (Enter /prod/apps/gaussian/g09d1/l303.exe)
 DipDrv:  MaxL=1.
 Leave Link  303 at Thu Aug  6 21:56:18 2020, MaxMem=    33554432 cpu:         0.0
 (Enter /prod/apps/gaussian/g09d1/l401.exe)
 ExpMin= 1.17D-01 ExpMax= 2.19D+04 ExpMxC= 3.30D+03 IAcc=1 IRadAn=         1 AccDes= 0.00D+00
 Harris functional with IExCor=  402 and IRadAn=       1 diagonalized for initial guess.
 HarFok:  IExCor=  402 AccDes= 0.00D+00 IRadAn=         1 IDoV= 1 UseB2=F ITyADJ=14
 ICtDFT=  3500011 ScaDFX=  1.000000  1.000000  1.000000  1.000000
 FoFCou: FMM=F IPFlag=           0 FMFlag=      100000 FMFlg1=           0
         NFxFlg=           0 DoJE=T BraDBF=F KetDBF=T FulRan=T
         wScrn=  0.000000 ICntrl=     500 IOpCl=  0 I1Cent=   200000004 NGrid=           0
         NMat0=    1 NMatS0=      1 NMatT0=    0 NMatD0=    1 NMtDS0=    0 NMtDT0=    0
 Petite list used in FoFCou.
 Harris En= -1120.38230638851    
 JPrj=0 DoOrth=F DoCkMO=F.
 Leave Link  401 at Thu Aug  6 21:56:20 2020, MaxMem=    33554432 cpu:         2.0
 (Enter /prod/apps/gaussian/g09d1/l502.exe)
 Closed shell SCF:
 Using DIIS extrapolation, IDIIS=  1040.
 Integral symmetry usage will be decided dynamically.
 IVT=      231207 IEndB=      231207 NGot=    33554432 MDV=    33409826
 LenX=    33409826 LenY=    33339689
 Requested convergence on RMS density matrix=1.00D-08 within 128 cycles.
 Requested convergence on MAX density matrix=1.00D-06.
 Requested convergence on             energy=1.00D-06.
 No special actions if energy rises.
 Fock matrices will be formed incrementally for  20 cycles.
 Integral accuracy reduced to 1.0D-05 until final iterations.

 Cycle   1  Pass 0  IDiag  1:
 FoFJK:  IHMeth= 1 ICntrl=       0 DoSepK=F KAlg= 0 I1Cent=   0 FoldK=F
 IRaf= 750000000 NMat=   1 IRICut=       1 DoRegI=T DoRafI=F ISym2E= 0.
 FoFCou: FMM=F IPFlag=           0 FMFlag=      100000 FMFlg1=           0
         NFxFlg=           0 DoJE=F BraDBF=F KetDBF=F FulRan=T
         wScrn=  0.000000 ICntrl=       0 IOpCl=  0 I1Cent=           0 NGrid=           0
         NMat0=    1 NMatS0=      1 NMatT0=    0 NMatD0=    1 NMtDS0=    0 NMtDT0=    0
 Symmetry not used in FoFCou.
 E= -1119.82910496087    
 DIIS: error= 3.61D-02 at cycle   1 NSaved=   1.
 NSaved= 1 IEnMin= 1 EnMin= -1119.82910496087     IErMin= 1 ErrMin= 3.61D-02
 ErrMax= 3.61D-02  0.00D+00 EMaxC= 1.00D-01 BMatC= 5.82D-01 BMatP= 5.82D-01
 IDIUse=3 WtCom= 6.39D-01 WtEn= 3.61D-01
 Coeff-Com:  0.100D+01
 Coeff-En:   0.100D+01
 Coeff:      0.100D+01
 Gap=     0.279 Goal=   None    Shift=    0.000
 GapD=    0.279 DampG=1.000 DampE=0.500 DampFc=0.5000 IDamp=-1.
 Damping current iteration by 5.00D-01
 RMSDP=7.53D-03 MaxDP=5.90D-01              OVMax= 2.79D-01

 Cycle   2  Pass 0  IDiag  1:
 RMSU=  3.76D-03    CP:  9.93D-01
 E= -1119.93847962832     Delta-E=       -0.109374667455 Rises=F Damp=T
 DIIS: error= 1.80D-02 at cycle   2 NSaved=   2.
 NSaved= 2 IEnMin= 2 EnMin= -1119.93847962832     IErMin= 2 ErrMin= 1.80D-02
 ErrMax= 1.80D-02  0.00D+00 EMaxC= 1.00D-01 BMatC= 1.02D-01 BMatP= 5.82D-01
 IDIUse=3 WtCom= 8.20D-01 WtEn= 1.80D-01
 Coeff-Com:  0.243D+00 0.757D+00
 Coeff-En:   0.388D+00 0.612D+00
 Coeff:      0.269D+00 0.731D+00
 Gap=     0.225 Goal=   None    Shift=    0.000
 RMSDP=2.29D-03 MaxDP=1.34D-01 DE=-1.09D-01 OVMax= 2.20D-01

 Cycle   3  Pass 0  IDiag  1:
 RMSU=  1.85D-03    CP:  9.80D-01  6.50D-01
 E= -1120.28369775231     Delta-E=       -0.345218123990 Rises=F Damp=F
 DIIS: error= 1.16D-02 at cycle   3 NSaved=   3.
 NSaved= 3 IEnMin= 3 EnMin= -1120.28369775231     IErMin= 3 ErrMin= 1.16D-02
 ErrMax= 1.16D-02  0.00D+00 EMaxC= 1.00D-01 BMatC= 5.52D-02 BMatP= 1.02D-01
 IDIUse=3 WtCom= 8.84D-01 WtEn= 1.16D-01
 Coeff-Com:  0.842D-01 0.423D+00 0.493D+00
 Coeff-En:   0.000D+00 0.000D+00 0.100D+01
 Coeff:      0.744D-01 0.374D+00 0.552D+00
 Gap=     0.184 Goal=   None    Shift=    0.000
 RMSDP=1.20D-03 MaxDP=4.14D-02 DE=-3.45D-01 OVMax= 6.01D-02

 Cycle   4  Pass 0  IDiag  1:
 RMSU=  7.68D-04    CP:  9.86D-01  7.34D-01  5.40D-01
 E= -1120.32550262102     Delta-E=       -0.041804868706 Rises=F Damp=F
 DIIS: error= 4.25D-03 at cycle   4 NSaved=   4.
 NSaved= 4 IEnMin= 4 EnMin= -1120.32550262102     IErMin= 4 ErrMin= 4.25D-03
 ErrMax= 4.25D-03  0.00D+00 EMaxC= 1.00D-01 BMatC= 8.53D-03 BMatP= 5.52D-02
 IDIUse=3 WtCom= 9.58D-01 WtEn= 4.25D-02
 Coeff-Com:  0.102D-01 0.913D-01 0.299D+00 0.599D+00
 Coeff-En:   0.000D+00 0.000D+00 0.120D+00 0.880D+00
 Coeff:      0.976D-02 0.875D-01 0.292D+00 0.611D+00
 Gap=     0.182 Goal=   None    Shift=    0.000
 RMSDP=4.19D-04 MaxDP=1.60D-02 DE=-4.18D-02 OVMax= 2.35D-02

 Cycle   5  Pass 0  IDiag  1:
 RMSU=  2.66D-04    CP:  9.85D-01  7.16D-01  6.36D-01  6.59D-01
 E= -1120.33141393147     Delta-E=       -0.005911310458 Rises=F Damp=F
 DIIS: error= 1.81D-03 at cycle   5 NSaved=   5.
 NSaved= 5 IEnMin= 5 EnMin= -1120.33141393147     IErMin= 5 ErrMin= 1.81D-03
 ErrMax= 1.81D-03  0.00D+00 EMaxC= 1.00D-01 BMatC= 1.46D-03 BMatP= 8.53D-03
 IDIUse=3 WtCom= 9.82D-01 WtEn= 1.81D-02
 Coeff-Com: -0.623D-03 0.243D-01 0.146D+00 0.398D+00 0.432D+00
 Coeff-En:   0.000D+00 0.000D+00 0.000D+00 0.119D+00 0.881D+00
 Coeff:     -0.612D-03 0.238D-01 0.144D+00 0.393D+00 0.440D+00
 Gap=     0.182 Goal=   None    Shift=    0.000
 RMSDP=1.81D-04 MaxDP=7.46D-03 DE=-5.91D-03 OVMax= 1.29D-02

 Cycle   6  Pass 0  IDiag  1:
 RMSU=  8.42D-05    CP:  9.85D-01  7.21D-01  6.40D-01  7.09D-01  4.22D-01
 E= -1120.33258461535     Delta-E=       -0.001170683878 Rises=F Damp=F
 DIIS: error= 6.68D-04 at cycle   6 NSaved=   6.
 NSaved= 6 IEnMin= 6 EnMin= -1120.33258461535     IErMin= 6 ErrMin= 6.68D-04
 ErrMax= 6.68D-04  0.00D+00 EMaxC= 1.00D-01 BMatC= 1.40D-04 BMatP= 1.46D-03
 IDIUse=3 WtCom= 9.93D-01 WtEn= 6.68D-03
 Coeff-Com: -0.159D-02 0.407D-02 0.478D-01 0.155D+00 0.276D+00 0.518D+00
 Coeff-En:   0.000D+00 0.000D+00 0.000D+00 0.000D+00 0.787D-01 0.921D+00
 Coeff:     -0.158D-02 0.404D-02 0.475D-01 0.154D+00 0.275D+00 0.521D+00
 Gap=     0.182 Goal=   None    Shift=    0.000
 RMSDP=4.94D-05 MaxDP=1.92D-03 DE=-1.17D-03 OVMax= 3.38D-03

 Cycle   7  Pass 0  IDiag  1:
 RMSU=  2.72D-05    CP:  9.85D-01  7.21D-01  6.40D-01  7.11D-01  5.04D-01
                    CP:  5.88D-01
 E= -1120.33270368358     Delta-E=       -0.000119068232 Rises=F Damp=F
 DIIS: error= 1.49D-04 at cycle   7 NSaved=   7.
 NSaved= 7 IEnMin= 7 EnMin= -1120.33270368358     IErMin= 7 ErrMin= 1.49D-04
 ErrMax= 1.49D-04  0.00D+00 EMaxC= 1.00D-01 BMatC= 7.70D-06 BMatP= 1.40D-04
 IDIUse=3 WtCom= 9.99D-01 WtEn= 1.49D-03
 Coeff-Com: -0.844D-03 0.235D-03 0.145D-01 0.521D-01 0.114D+00 0.286D+00
 Coeff-Com:  0.534D+00
 Coeff-En:   0.000D+00 0.000D+00 0.000D+00 0.000D+00 0.000D+00 0.000D+00
 Coeff-En:   0.100D+01
 Coeff:     -0.843D-03 0.235D-03 0.145D-01 0.520D-01 0.114D+00 0.285D+00
 Coeff:      0.535D+00
 Gap=     0.182 Goal=   None    Shift=    0.000
 RMSDP=1.28D-05 MaxDP=3.80D-04 DE=-1.19D-04 OVMax= 8.72D-04

 Cycle   8  Pass 0  IDiag  1:
 RMSU=  7.75D-06    CP:  9.85D-01  7.21D-01  6.40D-01  7.13D-01  5.08D-01
                    CP:  6.12D-01  6.43D-01
 E= -1120.33271023825     Delta-E=       -0.000006554666 Rises=F Damp=F
 DIIS: error= 4.13D-05 at cycle   8 NSaved=   8.
 NSaved= 8 IEnMin= 8 EnMin= -1120.33271023825     IErMin= 8 ErrMin= 4.13D-05
 ErrMax= 4.13D-05  0.00D+00 EMaxC= 1.00D-01 BMatC= 7.86D-07 BMatP= 7.70D-06
 IDIUse=1 WtCom= 1.00D+00 WtEn= 0.00D+00
 Coeff-Com: -0.325D-03-0.321D-03 0.355D-02 0.145D-01 0.386D-01 0.116D+00
 Coeff-Com:  0.300D+00 0.528D+00
 Coeff:     -0.325D-03-0.321D-03 0.355D-02 0.145D-01 0.386D-01 0.116D+00
 Coeff:      0.300D+00 0.528D+00
 Gap=     0.182 Goal=   None    Shift=    0.000
 RMSDP=4.68D-06 MaxDP=1.42D-04 DE=-6.55D-06 OVMax= 3.24D-04

 Initial convergence to 1.0D-05 achieved.  Increase integral accuracy.
 Cycle   9  Pass 1  IDiag  1:
 E= -1120.33256206878     Delta-E=        0.000148169468 Rises=F Damp=F
 DIIS: error= 7.86D-05 at cycle   1 NSaved=   1.
 NSaved= 1 IEnMin= 1 EnMin= -1120.33256206878     IErMin= 1 ErrMin= 7.86D-05
 ErrMax= 7.86D-05  0.00D+00 EMaxC= 1.00D-01 BMatC= 6.74D-07 BMatP= 6.74D-07
 IDIUse=1 WtCom= 1.00D+00 WtEn= 0.00D+00
 Coeff-Com:  0.100D+01
 Coeff:      0.100D+01
 Gap=     0.182 Goal=   None    Shift=    0.000
 RMSDP=4.68D-06 MaxDP=1.42D-04 DE= 1.48D-04 OVMax= 3.09D-04

 Cycle  10  Pass 1  IDiag  1:
 RMSU=  4.37D-05    CP:  1.00D+00
 E= -1120.33256229985     Delta-E=       -0.000000231067 Rises=F Damp=F
 DIIS: error= 4.25D-05 at cycle   2 NSaved=   2.
 NSaved= 2 IEnMin= 2 EnMin= -1120.33256229985     IErMin= 2 ErrMin= 4.25D-05
 ErrMax= 4.25D-05  0.00D+00 EMaxC= 1.00D-01 BMatC= 4.63D-07 BMatP= 6.74D-07
 IDIUse=1 WtCom= 1.00D+00 WtEn= 0.00D+00
 Coeff-Com:  0.432D+00 0.568D+00
 Coeff:      0.432D+00 0.568D+00
 Gap=     0.182 Goal=   None    Shift=    0.000
 RMSDP=4.78D-06 MaxDP=2.32D-04 DE=-2.31D-07 OVMax= 3.94D-04

 Cycle  11  Pass 1  IDiag  1:
 RMSU=  4.78D-06    CP:  1.00D+00  1.00D+00
 E= -1120.33256244541     Delta-E=       -0.000000145562 Rises=F Damp=F
 DIIS: error= 3.40D-05 at cycle   3 NSaved=   3.
 NSaved= 3 IEnMin= 3 EnMin= -1120.33256244541     IErMin= 3 ErrMin= 3.40D-05
 ErrMax= 3.40D-05  0.00D+00 EMaxC= 1.00D-01 BMatC= 3.17D-07 BMatP= 4.63D-07
 IDIUse=1 WtCom= 1.00D+00 WtEn= 0.00D+00
 Coeff-Com:  0.471D-02 0.451D+00 0.544D+00
 Coeff:      0.471D-02 0.451D+00 0.544D+00
 Gap=     0.182 Goal=   None    Shift=    0.000
 RMSDP=2.22D-06 MaxDP=1.21D-04 DE=-1.46D-07 OVMax= 1.86D-04

 Cycle  12  Pass 1  IDiag  1:
 RMSU=  6.09D-07    CP:  1.00D+00  1.01D+00  5.60D-01
 E= -1120.33256274662     Delta-E=       -0.000000301211 Rises=F Damp=F
 DIIS: error= 4.47D-06 at cycle   4 NSaved=   4.
 NSaved= 4 IEnMin= 4 EnMin= -1120.33256274662     IErMin= 4 ErrMin= 4.47D-06
 ErrMax= 4.47D-06  0.00D+00 EMaxC= 1.00D-01 BMatC= 6.20D-09 BMatP= 3.17D-07
 IDIUse=1 WtCom= 1.00D+00 WtEn= 0.00D+00
 Coeff-Com: -0.505D-02 0.252D+00 0.316D+00 0.437D+00
 Coeff:     -0.505D-02 0.252D+00 0.316D+00 0.437D+00
 Gap=     0.182 Goal=   None    Shift=    0.000
 RMSDP=3.53D-07 MaxDP=1.47D-05 DE=-3.01D-07 OVMax= 2.71D-05

 Cycle  13  Pass 1  IDiag  1:
 RMSU=  2.15D-07    CP:  1.00D+00  1.01D+00  5.61D-01  5.43D-01
 E= -1120.33256275206     Delta-E=       -0.000000005435 Rises=F Damp=F
 DIIS: error= 9.86D-07 at cycle   5 NSaved=   5.
 NSaved= 5 IEnMin= 5 EnMin= -1120.33256275206     IErMin= 5 ErrMin= 9.86D-07
 ErrMax= 9.86D-07  0.00D+00 EMaxC= 1.00D-01 BMatC= 5.32D-10 BMatP= 6.20D-09
 IDIUse=1 WtCom= 1.00D+00 WtEn= 0.00D+00
 Coeff-Com: -0.353D-02 0.120D+00 0.153D+00 0.276D+00 0.455D+00
 Coeff:     -0.353D-02 0.120D+00 0.153D+00 0.276D+00 0.455D+00
 Gap=     0.182 Goal=   None    Shift=    0.000
 RMSDP=1.09D-07 MaxDP=3.76D-06 DE=-5.43D-09 OVMax= 7.60D-06

 Cycle  14  Pass 1  IDiag  1:
 RMSU=  7.45D-08    CP:  1.00D+00  1.01D+00  5.62D-01  5.66D-01  6.36D-01
 E= -1120.33256275256     Delta-E=       -0.000000000502 Rises=F Damp=F
 DIIS: error= 2.51D-07 at cycle   6 NSaved=   6.
 NSaved= 6 IEnMin= 6 EnMin= -1120.33256275256     IErMin= 6 ErrMin= 2.51D-07
 ErrMax= 2.51D-07  0.00D+00 EMaxC= 1.00D-01 BMatC= 3.12D-11 BMatP= 5.32D-10
 IDIUse=1 WtCom= 1.00D+00 WtEn= 0.00D+00
 Coeff-Com: -0.128D-02 0.380D-01 0.485D-01 0.103D+00 0.242D+00 0.569D+00
 Coeff:     -0.128D-02 0.380D-01 0.485D-01 0.103D+00 0.242D+00 0.569D+00
 Gap=     0.182 Goal=   None    Shift=    0.000
 RMSDP=2.95D-08 MaxDP=9.76D-07 DE=-5.02D-10 OVMax= 1.67D-06

 Cycle  15  Pass 1  IDiag  1:
 RMSU=  2.24D-08    CP:  1.00D+00  1.01D+00  5.62D-01  5.73D-01  6.72D-01
                    CP:  7.75D-01
 E= -1120.33256275255     Delta-E=        0.000000000005 Rises=F Damp=F
 DIIS: error= 1.76D-07 at cycle   7 NSaved=   7.
 NSaved= 7 IEnMin= 6 EnMin= -1120.33256275256     IErMin= 7 ErrMin= 1.76D-07
 ErrMax= 1.76D-07  0.00D+00 EMaxC= 1.00D-01 BMatC= 6.34D-12 BMatP= 3.12D-11
 IDIUse=1 WtCom= 1.00D+00 WtEn= 0.00D+00
 Coeff-Com: -0.359D-03 0.777D-02 0.984D-02 0.282D-01 0.880D-01 0.352D+00
 Coeff-Com:  0.515D+00
 Coeff:     -0.359D-03 0.777D-02 0.984D-02 0.282D-01 0.880D-01 0.352D+00
 Coeff:      0.515D+00
 Gap=     0.182 Goal=   None    Shift=    0.000
 RMSDP=1.18D-08 MaxDP=3.62D-07 DE= 5.00D-12 OVMax= 9.38D-07

 Cycle  16  Pass 1  IDiag  1:
 RMSU=  8.03D-09    CP:  1.00D+00  1.01D+00  5.62D-01  5.74D-01  6.81D-01
                    CP:  8.10D-01  6.51D-01
 E= -1120.33256275259     Delta-E=       -0.000000000033 Rises=F Damp=F
 DIIS: error= 6.28D-08 at cycle   8 NSaved=   8.
 NSaved= 8 IEnMin= 8 EnMin= -1120.33256275259     IErMin= 8 ErrMin= 6.28D-08
 ErrMax= 6.28D-08  0.00D+00 EMaxC= 1.00D-01 BMatC= 7.16D-13 BMatP= 6.34D-12
 IDIUse=1 WtCom= 1.00D+00 WtEn= 0.00D+00
 Coeff-Com:  0.636D-06-0.161D-02-0.215D-02-0.246D-03 0.111D-01 0.115D+00
 Coeff-Com:  0.301D+00 0.576D+00
 Coeff:      0.636D-06-0.161D-02-0.215D-02-0.246D-03 0.111D-01 0.115D+00
 Coeff:      0.301D+00 0.576D+00
 Gap=     0.182 Goal=   None    Shift=    0.000
 RMSDP=4.16D-09 MaxDP=1.22D-07 DE=-3.27D-11 OVMax= 2.97D-07

 SCF Done:  E(RB3LYP) =  -1120.33256275     A.U. after   16 cycles
            NFock= 16  Conv=0.42D-08     -V/T= 2.0073
 KE= 1.112193130298D+03 PE=-4.968679963890D+03 EE= 1.565284765795D+03
 Leave Link  502 at Thu Aug  6 21:58:56 2020, MaxMem=    33554432 cpu:       155.7
 (Enter /prod/apps/gaussian/g09d1/l601.exe)
 Copying SCF densities to generalized density rwf, IOpCl= 0 IROHF=0.

 **********************************************************************

            Population analysis using the SCF density.

 **********************************************************************

 Orbital symmetries:
       Occupied  (A) (A) (A) (A) (A) (A) (A) (A) (A) (A) (A) (A)
                 (A) (A) (A) (A) (A) (A) (A) (A) (A) (A) (A) (A)
                 (A) (A) (A) (A) (A) (A) (A) (A) (A) (A) (A) (A)
                 (A) (A) (A) (A) (A) (A) (A) (A) (A) (A) (A) (A)
                 (A) (A) (A) (A) (A) (A) (A) (A) (A) (A) (A) (A)
                 (A) (A)
       Virtual   (A) (A) (A) (A) (A) (A) (A) (A) (A) (A) (A) (A)
                 (A) (A) (A) (A) (A) (A) (A) (A) (A) (A) (A) (A)
                 (A) (A) (A) (A) (A) (A) (A) (A) (A) (A) (A) (A)
                 (A) (A) (A) (A) (A) (A) (A) (A) (A) (A) (A) (A)
                 (A) (A) (A) (A) (A) (A) (A) (A) (A) (A) (A) (A)
                 (A) (A) (A) (A) (A) (A) (A) (A) (A) (A) (A) (A)
                 (A) (A) (A) (A) (A) (A) (A) (A) (A) (A) (A) (A)
                 (A) (A) (A) (A) (A) (A) (A) (A) (A) (A) (A) (A)
                 (A) (A) (A) (A) (A) (A) (A) (A) (A) (A) (A) (A)
                 (A) (A) (A) (A) (A) (A) (A) (A) (A) (A) (A) (A)
                 (A) (A) (A) (A) (A) (A) (A) (A) (A) (A) (A) (A)
                 (A) (A) (A) (A) (A) (A) (A) (A) (A) (A) (A) (A)
                 (A) (A) (A) (A) (A) (A) (A) (A) (A) (A) (A) (A)
                 (A) (A) (A) (A) (A) (A) (A) (A) (A) (A) (A) (A)
                 (A) (A) (A) (A) (A) (A) (A) (A) (A) (A) (A) (A)
                 (A) (A) (A) (A) (A) (A) (A) (A) (A) (A) (A) (A)
                 (A) (A) (A) (A) (A) (A) (A) (A) (A) (A)
 The electronic state is 1-A.
 Alpha  occ. eigenvalues --  -89.12198 -19.24187 -19.14542 -19.14105 -14.39744
 Alpha  occ. eigenvalues --  -14.38269 -10.28210 -10.27587 -10.23193 -10.22436
 Alpha  occ. eigenvalues --  -10.21328 -10.21197 -10.20928 -10.20875 -10.20863
 Alpha  occ. eigenvalues --  -10.20717  -8.14701  -6.11266  -6.11074  -6.10979
 Alpha  occ. eigenvalues --   -1.14622  -1.11429  -0.99980  -0.96850  -0.88202
 Alpha  occ. eigenvalues --   -0.85733  -0.81789  -0.78249  -0.76412  -0.76056
 Alpha  occ. eigenvalues --   -0.67061  -0.65605  -0.62922  -0.61124  -0.58259
 Alpha  occ. eigenvalues --   -0.56067  -0.53844  -0.51376  -0.49624  -0.49086
 Alpha  occ. eigenvalues --   -0.47895  -0.47640  -0.47013  -0.45764  -0.44854
 Alpha  occ. eigenvalues --   -0.44156  -0.43528  -0.42837  -0.40049  -0.39182
 Alpha  occ. eigenvalues --   -0.37541  -0.37189  -0.36092  -0.34344  -0.31934
 Alpha  occ. eigenvalues --   -0.31538  -0.30693  -0.30513  -0.29570  -0.27025
 Alpha  occ. eigenvalues --   -0.26484  -0.24074
 Alpha virt. eigenvalues --   -0.05839  -0.01815   0.01742   0.04111   0.05989
 Alpha virt. eigenvalues --    0.07169   0.07229   0.07973   0.09521   0.10224
 Alpha virt. eigenvalues --    0.10705   0.11719   0.12374   0.13758   0.15132
 Alpha virt. eigenvalues --    0.15532   0.16073   0.16350   0.17222   0.17928
 Alpha virt. eigenvalues --    0.22006   0.24515   0.24931   0.28780   0.28895
 Alpha virt. eigenvalues --    0.30988   0.32143   0.34638   0.36864   0.37393
 Alpha virt. eigenvalues --    0.41654   0.42586   0.43871   0.44158   0.47171
 Alpha virt. eigenvalues --    0.49260   0.50444   0.51063   0.51343   0.52529
 Alpha virt. eigenvalues --    0.53296   0.53985   0.54988   0.56232   0.57224
 Alpha virt. eigenvalues --    0.57395   0.58117   0.58843   0.59751   0.60510
 Alpha virt. eigenvalues --    0.61416   0.62404   0.63600   0.64255   0.66677
 Alpha virt. eigenvalues --    0.68146   0.69189   0.70612   0.72666   0.75085
 Alpha virt. eigenvalues --    0.76772   0.77472   0.77895   0.80229   0.81652
 Alpha virt. eigenvalues --    0.82180   0.82406   0.83004   0.83571   0.85240
 Alpha virt. eigenvalues --    0.85563   0.86309   0.86705   0.87866   0.88208
 Alpha virt. eigenvalues --    0.89489   0.90599   0.91154   0.93912   0.95380
 Alpha virt. eigenvalues --    0.95778   0.96616   0.98522   1.00563   1.01366
 Alpha virt. eigenvalues --    1.03578   1.04752   1.06231   1.07874   1.09852
 Alpha virt. eigenvalues --    1.10801   1.13696   1.15763   1.16837   1.17775
 Alpha virt. eigenvalues --    1.18646   1.19387   1.22300   1.23404   1.24332
 Alpha virt. eigenvalues --    1.27075   1.30229   1.32331   1.33711   1.35906
 Alpha virt. eigenvalues --    1.37974   1.40714   1.41389   1.42511   1.43425
 Alpha virt. eigenvalues --    1.45398   1.46409   1.47347   1.49223   1.49867
 Alpha virt. eigenvalues --    1.52145   1.54281   1.57791   1.59289   1.66109
 Alpha virt. eigenvalues --    1.67914   1.73703   1.76569   1.77790   1.78126
 Alpha virt. eigenvalues --    1.79307   1.80853   1.81399   1.84147   1.84549
 Alpha virt. eigenvalues --    1.86510   1.87514   1.88658   1.91079   1.91789
 Alpha virt. eigenvalues --    1.93627   1.95687   1.96464   1.99122   2.01423
 Alpha virt. eigenvalues --    2.03487   2.05383   2.07547   2.09659   2.10805
 Alpha virt. eigenvalues --    2.11138   2.12504   2.13663   2.15799   2.16530
 Alpha virt. eigenvalues --    2.18133   2.19647   2.21245   2.22946   2.23794
 Alpha virt. eigenvalues --    2.25341   2.27103   2.27441   2.29131   2.31215
 Alpha virt. eigenvalues --    2.31880   2.34706   2.44036   2.50200   2.51855
 Alpha virt. eigenvalues --    2.53066   2.56379   2.57310   2.59784   2.62045
 Alpha virt. eigenvalues --    2.65315   2.65578   2.71180   2.72986   2.73676
 Alpha virt. eigenvalues --    2.74242   2.76605   2.83063   2.86690   2.89157
 Alpha virt. eigenvalues --    2.90287   3.02235   3.04904   3.12813   3.26498
 Alpha virt. eigenvalues --    3.41927   3.77175   3.80850   3.93657   3.98876
 Alpha virt. eigenvalues --    4.06457   4.08029   4.09964   4.11034   4.11761
 Alpha virt. eigenvalues --    4.22314   4.24117   4.30653   4.35930   4.39918
 Alpha virt. eigenvalues --    4.55980   4.73304
          Condensed to atoms (all electrons):
               1          2          3          4          5          6
     1  O    8.223523   0.450906  -0.050501   0.001477   0.000000   0.000000
     2  S    0.450906  13.656834   0.078150  -0.011414   0.009200  -0.000236
     3  N   -0.050501   0.078150   7.483931   0.218589  -0.079790   0.005835
     4  C    0.001477  -0.011414   0.218589   4.544056   0.388615  -0.024622
     5  N    0.000000   0.009200  -0.079790   0.388615   6.904797   0.103733
     6  O    0.000000  -0.000236   0.005835  -0.024622   0.103733   8.199128
     7  C    0.000000   0.000306  -0.000934  -0.024538  -0.073122   0.246980
     8  C    0.000000  -0.000007  -0.000208   0.003543   0.004041  -0.038260
     9  C    0.000000   0.000000   0.000003   0.000598  -0.000095   0.003193
    10  C    0.000000   0.000000   0.000000  -0.000006   0.000001  -0.000059
    11  C    0.000000   0.000000   0.000000   0.000000   0.000000   0.000001
    12  C    0.000000   0.000000   0.000000   0.000005   0.000000   0.000300
    13  C    0.000000   0.000000  -0.000001  -0.000331   0.000115  -0.006319
    14  C   -0.000060   0.001206  -0.056475   0.425579  -0.041068  -0.096396
    15  C   -0.056763   0.205409  -0.058621   0.002116  -0.008540   0.000077
    16  O   -0.045631   0.443471  -0.047311  -0.004176   0.000343   0.000039
    17  H    0.003118  -0.004717   0.297098  -0.022229   0.003031  -0.000061
    18  H    0.000000   0.000000  -0.000001   0.000083  -0.000004   0.000021
    19  H    0.000000   0.000000   0.000000   0.000000   0.000000   0.000000
    20  H    0.000000   0.000000   0.000000   0.000000   0.000000   0.000000
    21  H    0.000000   0.000000   0.000000   0.000000   0.000000  -0.000002
    22  H    0.000000   0.000000   0.000000   0.000065  -0.000254   0.009552
    23  H   -0.000001  -0.000143  -0.001906  -0.031157   0.004783   0.003561
    24  H    0.000305  -0.006104   0.000813   0.000211   0.000115  -0.000001
    25  H    0.001640  -0.003966  -0.003242   0.001123   0.013276  -0.000390
    26  H   -0.000535  -0.015736   0.002323   0.000053   0.000045   0.000000
               7          8          9         10         11         12
     1  O    0.000000   0.000000   0.000000   0.000000   0.000000   0.000000
     2  S    0.000306  -0.000007   0.000000   0.000000   0.000000   0.000000
     3  N   -0.000934  -0.000208   0.000003   0.000000   0.000000   0.000000
     4  C   -0.024538   0.003543   0.000598  -0.000006   0.000000   0.000005
     5  N   -0.073122   0.004041  -0.000095   0.000001   0.000000   0.000000
     6  O    0.246980  -0.038260   0.003193  -0.000059   0.000001   0.000300
     7  C    4.719517   0.346137  -0.041691   0.006424   0.000940   0.004766
     8  C    0.346137   4.771079   0.536288  -0.008239  -0.033706  -0.008063
     9  C   -0.041691   0.536288   5.004414   0.522727  -0.038430  -0.041197
    10  C    0.006424  -0.008239   0.522727   4.860955   0.545098  -0.023856
    11  C    0.000940  -0.033706  -0.038430   0.545098   4.851477   0.543553
    12  C    0.004766  -0.008063  -0.041197  -0.023856   0.543553   4.874207
    13  C   -0.039842   0.477372  -0.084588  -0.042437  -0.035886   0.504388
    14  C    0.506587  -0.060968  -0.021781   0.000203   0.000015  -0.000243
    15  C   -0.000019   0.000000   0.000000   0.000000   0.000000   0.000000
    16  O   -0.000012   0.000000   0.000000   0.000000   0.000000   0.000000
    17  H    0.000000  -0.000001   0.000000   0.000000   0.000000   0.000000
    18  H   -0.013824  -0.038052   0.351522  -0.044381   0.004698   0.000203
    19  H   -0.000214   0.003309  -0.038761   0.359202  -0.041572   0.004481
    20  H    0.000003   0.000550   0.004890  -0.042622   0.361136  -0.042304
    21  H   -0.000184   0.003124   0.000882   0.004464  -0.041916   0.360116
    22  H   -0.013043  -0.038390   0.005368   0.000277   0.004416  -0.042530
    23  H   -0.023699  -0.003712   0.001360   0.000092  -0.000001   0.000002
    24  H    0.000002   0.000000   0.000000   0.000000   0.000000   0.000000
    25  H    0.000044  -0.000001   0.000000   0.000000   0.000000   0.000000
    26  H    0.000000   0.000000   0.000000   0.000000   0.000000   0.000000
              13         14         15         16         17         18
     1  O    0.000000  -0.000060  -0.056763  -0.045631   0.003118   0.000000
     2  S    0.000000   0.001206   0.205409   0.443471  -0.004717   0.000000
     3  N   -0.000001  -0.056475  -0.058621  -0.047311   0.297098  -0.000001
     4  C   -0.000331   0.425579   0.002116  -0.004176  -0.022229   0.000083
     5  N    0.000115  -0.041068  -0.008540   0.000343   0.003031  -0.000004
     6  O   -0.006319  -0.096396   0.000077   0.000039  -0.000061   0.000021
     7  C   -0.039842   0.506587  -0.000019  -0.000012   0.000000  -0.013824
     8  C    0.477372  -0.060968   0.000000   0.000000  -0.000001  -0.038052
     9  C   -0.084588  -0.021781   0.000000   0.000000   0.000000   0.351522
    10  C   -0.042437   0.000203   0.000000   0.000000   0.000000  -0.044381
    11  C   -0.035886   0.000015   0.000000   0.000000   0.000000   0.004698
    12  C    0.504388  -0.000243   0.000000   0.000000   0.000000   0.000203
    13  C    5.044020   0.012500   0.000000   0.000000   0.000000   0.006083
    14  C    0.012500   5.287725  -0.000199   0.000009  -0.005741   0.006343
    15  C    0.000000  -0.000199   5.587188  -0.055881   0.000794   0.000000
    16  O    0.000000   0.000009  -0.055881   8.211088   0.001515   0.000000
    17  H    0.000000  -0.005741   0.000794   0.001515   0.358992   0.000000
    18  H    0.006083   0.006343   0.000000   0.000000   0.000000   0.594860
    19  H    0.000857   0.000000   0.000000   0.000000   0.000000  -0.005268
    20  H    0.004700   0.000000   0.000000   0.000000   0.000000  -0.000171
    21  H   -0.037654   0.000001   0.000000   0.000000   0.000000   0.000016
    22  H    0.360578   0.000257   0.000000   0.000000   0.000000  -0.000149
    23  H   -0.000125   0.346390   0.000007   0.000001   0.002055   0.002288
    24  H    0.000000  -0.000020   0.334035   0.001956  -0.000020   0.000000
    25  H    0.000000   0.000258   0.330372  -0.001263  -0.000105   0.000000
    26  H    0.000000   0.000000   0.360513  -0.000116  -0.000039   0.000000
              19         20         21         22         23         24
     1  O    0.000000   0.000000   0.000000   0.000000  -0.000001   0.000305
     2  S    0.000000   0.000000   0.000000   0.000000  -0.000143  -0.006104
     3  N    0.000000   0.000000   0.000000   0.000000  -0.001906   0.000813
     4  C    0.000000   0.000000   0.000000   0.000065  -0.031157   0.000211
     5  N    0.000000   0.000000   0.000000  -0.000254   0.004783   0.000115
     6  O    0.000000   0.000000  -0.000002   0.009552   0.003561  -0.000001
     7  C   -0.000214   0.000003  -0.000184  -0.013043  -0.023699   0.000002
     8  C    0.003309   0.000550   0.003124  -0.038390  -0.003712   0.000000
     9  C   -0.038761   0.004890   0.000882   0.005368   0.001360   0.000000
    10  C    0.359202  -0.042622   0.004464   0.000277   0.000092   0.000000
    11  C   -0.041572   0.361136  -0.041916   0.004416  -0.000001   0.000000
    12  C    0.004481  -0.042304   0.360116  -0.042530   0.000002   0.000000
    13  C    0.000857   0.004700  -0.037654   0.360578  -0.000125   0.000000
    14  C    0.000000   0.000000   0.000001   0.000257   0.346390  -0.000020
    15  C    0.000000   0.000000   0.000000   0.000000   0.000007   0.334035
    16  O    0.000000   0.000000   0.000000   0.000000   0.000001   0.001956
    17  H    0.000000   0.000000   0.000000   0.000000   0.002055  -0.000020
    18  H   -0.005268  -0.000171   0.000016  -0.000149   0.002288   0.000000
    19  H    0.583499  -0.005393  -0.000175   0.000015  -0.000003   0.000000
    20  H   -0.005393   0.584298  -0.005337  -0.000157   0.000000   0.000000
    21  H   -0.000175  -0.005337   0.578386  -0.004850   0.000000   0.000000
    22  H    0.000015  -0.000157  -0.004850   0.552228  -0.000009   0.000000
    23  H   -0.000003   0.000000   0.000000  -0.000009   0.543585  -0.000001
    24  H    0.000000   0.000000   0.000000   0.000000  -0.000001   0.514522
    25  H    0.000000   0.000000   0.000000   0.000000  -0.000006  -0.023339
    26  H    0.000000   0.000000   0.000000   0.000000   0.000000  -0.019687
              25         26
     1  O    0.001640  -0.000535
     2  S   -0.003966  -0.015736
     3  N   -0.003242   0.002323
     4  C    0.001123   0.000053
     5  N    0.013276   0.000045
     6  O   -0.000390   0.000000
     7  C    0.000044   0.000000
     8  C   -0.000001   0.000000
     9  C    0.000000   0.000000
    10  C    0.000000   0.000000
    11  C    0.000000   0.000000
    12  C    0.000000   0.000000
    13  C    0.000000   0.000000
    14  C    0.000258   0.000000
    15  C    0.330372   0.360513
    16  O   -0.001263  -0.000116
    17  H   -0.000105  -0.000039
    18  H    0.000000   0.000000
    19  H    0.000000   0.000000
    20  H    0.000000   0.000000
    21  H    0.000000   0.000000
    22  H    0.000000   0.000000
    23  H   -0.000006   0.000000
    24  H   -0.023339  -0.019687
    25  H    0.469521  -0.017836
    26  H   -0.017836   0.464995
 Mulliken charges:
               1
     1  O   -0.527480
     2  S    1.196842
     3  N   -0.787751
     4  C    0.532359
     5  N   -0.229222
     6  O   -0.406074
     7  C    0.399416
     8  C    0.084163
     9  C   -0.164699
    10  C   -0.137842
    11  C   -0.119823
    12  C   -0.133827
    13  C   -0.163432
    14  C   -0.304120
    15  C   -0.640489
    16  O   -0.504031
    17  H    0.366310
    18  H    0.135735
    19  H    0.140023
    20  H    0.140406
    21  H    0.143130
    22  H    0.166624
    23  H    0.156638
    24  H    0.197213
    25  H    0.233913
    26  H    0.226019
 Sum of Mulliken charges =   0.00000
 Mulliken charges with hydrogens summed into heavy atoms:
               1
     1  O   -0.527480
     2  S    1.196842
     3  N   -0.421442
     4  C    0.532359
     5  N   -0.229222
     6  O   -0.406074
     7  C    0.399416
     8  C    0.084163
     9  C   -0.028965
    10  C    0.002180
    11  C    0.020583
    12  C    0.009302
    13  C    0.003193
    14  C   -0.147482
    15  C    0.016656
    16  O   -0.504031
 Electronic spatial extent (au):  <R**2>=           5872.8916
 Charge=              0.0000 electrons
 Dipole moment (field-independent basis, Debye):
    X=              5.2318    Y=              2.5442    Z=              4.0525  Tot=              7.0899
 Quadrupole moment (field-independent basis, Debye-Ang):
   XX=           -101.1351   YY=            -93.0404   ZZ=           -100.2659
   XY=              2.0056   XZ=            -13.8199   YZ=             -2.4944
 Traceless Quadrupole moment (field-independent basis, Debye-Ang):
   XX=             -2.9879   YY=              5.1067   ZZ=             -2.1188
   XY=              2.0056   XZ=            -13.8199   YZ=             -2.4944
 Octapole moment (field-independent basis, Debye-Ang**2):
  XXX=            145.4336  YYY=             11.3710  ZZZ=              3.7814  XYY=             10.2656
  XXY=            -30.4342  XXZ=             53.9360  XZZ=            -32.5577  YZZ=             -2.1984
  YYZ=              4.8577  XYZ=             11.7187
 Hexadecapole moment (field-independent basis, Debye-Ang**3):
 XXXX=          -6695.0103 YYYY=           -571.9760 ZZZZ=           -257.3711 XXXY=            158.1988
 XXXZ=           -162.9956 YYYX=            -19.2656 YYYZ=              1.8404 ZZZX=            -19.5624
 ZZZY=              1.5054 XXYY=          -1191.8277 XXZZ=          -1224.5651 YYZZ=           -152.5827
 XXYZ=            -35.0676 YYXZ=            -13.1771 ZZXY=             -6.2066
 N-N= 1.170869505044D+03 E-N=-4.968679962956D+03  KE= 1.112193130298D+03
 No NMR shielding tensors so no spin-rotation constants.
 Leave Link  601 at Thu Aug  6 21:58:56 2020, MaxMem=    33554432 cpu:         0.2
 (Enter /prod/apps/gaussian/g09d1/l9999.exe)
 1\1\GINC-PIRINEUS11\SP\RB3LYP\6-31G(d)\C10H10N2O3S1\UBAFAR01\06-Aug-20
 20\0\\#p b3lyp/6-31G(d)\\SM41.n.3.pdb.xyz\\0,1\O,0,3.154,-1.377,1.409\
 S,0,2.968,-0.111,2.126\N,0,2.395,0.949,0.94\C,0,1.961,2.248,1.188\N,0,
 2.188,2.865,2.333\O,0,1.617,4.14,2.166\C,0,1.073,4.236,0.929\C,0,0.433
 ,5.496,0.572\C,0,-0.165,5.646,-0.691\C,0,-0.778,6.847,-1.036\C,0,-0.80
 2,7.91,-0.129\C,0,-0.209,7.766,1.127\C,0,0.405,6.567,1.479\C,0,1.259,3
 .06,0.258\C,0,1.638,-0.28,3.315\O,0,4.111,0.523,2.788\H,0,1.937,0.466,
 0.168\H,0,-0.148,4.823,-1.396\H,0,-1.237,6.954,-2.013\H,0,-1.28,8.845,
 -0.401\H,0,-0.225,8.588,1.835\H,0,0.866,6.452,2.453\H,0,0.953,2.799,-0
 .742\H,0,0.782,-0.733,2.816\H,0,1.395,0.71,3.698\H,0,2.004,-0.923,4.11
 6\\Version=AM64L-G09RevD.01\State=1-A\HF=-1120.3325628\RMSD=4.155e-09\
 Dipole=-2.4458276,0.9758566,-0.9199893\Quadrupole=-9.1466628,2.8539607
 ,6.2927021,6.7322515,-0.8462643,-3.2259889\PG=C01 [X(C10H10N2O3S1)]\\@


 Some scientists claim that hydrogen, because it is so
 plentiful, is the basic building block of the universe. 
 I dispute that. I say that stupidity is far more
 abundant than hydrogen, and THAT is the basic building 
 block of the universe.
                   --Frank Zappa
 Job cpu time:       0 days  0 hours  2 minutes 38.9 seconds.
 File lengths (MBytes):  RWF=     40 Int=      0 D2E=      0 Chk=      4 Scr=      1
 Normal termination of Gaussian 09 at Thu Aug  6 21:58:56 2020.
 Initial command:
 /prod/apps/gaussian/g09d1/l1.exe "/tmp/ubafar01/1448585/Gau-8183.inp" -scrdir="/tmp/ubafar01/1448585/"
 Entering Link 1 = /prod/apps/gaussian/g09d1/l1.exe PID=      8466.
  
 Copyright (c) 1988,1990,1992,1993,1995,1998,2003,2009,2013,
            Gaussian, Inc.  All Rights Reserved.
  
 This is part of the Gaussian(R) 09 program.  It is based on
 the Gaussian(R) 03 system (copyright 2003, Gaussian, Inc.),
 the Gaussian(R) 98 system (copyright 1998, Gaussian, Inc.),
 the Gaussian(R) 94 system (copyright 1995, Gaussian, Inc.),
 the Gaussian 92(TM) system (copyright 1992, Gaussian, Inc.),
 the Gaussian 90(TM) system (copyright 1990, Gaussian, Inc.),
 the Gaussian 88(TM) system (copyright 1988, Gaussian, Inc.),
 the Gaussian 86(TM) system (copyright 1986, Carnegie Mellon
 University), and the Gaussian 82(TM) system (copyright 1983,
 Carnegie Mellon University). Gaussian is a federally registered
 trademark of Gaussian, Inc.
  
 This software contains proprietary and confidential information,
 including trade secrets, belonging to Gaussian, Inc.
  
 This software is provided under written license and may be
 used, copied, transmitted, or stored only in accord with that
 written license.
  
 The following legend is applicable only to US Government
 contracts under FAR:
  
                    RESTRICTED RIGHTS LEGEND
  
 Use, reproduction and disclosure by the US Government is
 subject to restrictions as set forth in subparagraphs (a)
 and (c) of the Commercial Computer Software - Restricted
 Rights clause in FAR 52.227-19.
  
 Gaussian, Inc.
 340 Quinnipiac St., Bldg. 40, Wallingford CT 06492
  
  
 ---------------------------------------------------------------
 Warning -- This program may not be used in any manner that
 competes with the business of Gaussian, Inc. or will provide
 assistance to any competitor of Gaussian, Inc.  The licensee
 of this program is prohibited from giving any competitor of
 Gaussian, Inc. access to this program.  By using this program,
 the user acknowledges that Gaussian, Inc. is engaged in the
 business of creating and licensing software in the field of
 computational chemistry and represents and warrants to the
 licensee that it is not a competitor of Gaussian, Inc. and that
 it will not use this program in any manner prohibited above.
 ---------------------------------------------------------------
  

 Cite this work as:
 Gaussian 09, Revision D.01,
 M. J. Frisch, G. W. Trucks, H. B. Schlegel, G. E. Scuseria, 
 M. A. Robb, J. R. Cheeseman, G. Scalmani, V. Barone, B. Mennucci, 
 G. A. Petersson, H. Nakatsuji, M. Caricato, X. Li, H. P. Hratchian, 
 A. F. Izmaylov, J. Bloino, G. Zheng, J. L. Sonnenberg, M. Hada, 
 M. Ehara, K. Toyota, R. Fukuda, J. Hasegawa, M. Ishida, T. Nakajima, 
 Y. Honda, O. Kitao, H. Nakai, T. Vreven, J. A. Montgomery, Jr., 
 J. E. Peralta, F. Ogliaro, M. Bearpark, J. J. Heyd, E. Brothers, 
 K. N. Kudin, V. N. Staroverov, T. Keith, R. Kobayashi, J. Normand, 
 K. Raghavachari, A. Rendell, J. C. Burant, S. S. Iyengar, J. Tomasi, 
 M. Cossi, N. Rega, J. M. Millam, M. Klene, J. E. Knox, J. B. Cross, 
 V. Bakken, C. Adamo, J. Jaramillo, R. Gomperts, R. E. Stratmann, 
 O. Yazyev, A. J. Austin, R. Cammi, C. Pomelli, J. W. Ochterski, 
 R. L. Martin, K. Morokuma, V. G. Zakrzewski, G. A. Voth, 
 P. Salvador, J. J. Dannenberg, S. Dapprich, A. D. Daniels, 
 O. Farkas, J. B. Foresman, J. V. Ortiz, J. Cioslowski, 
 and D. J. Fox, Gaussian, Inc., Wallingford CT, 2013.
 
 ******************************************
 Gaussian 09:  AM64L-G09RevD.01 24-Apr-2013
                 6-Aug-2020 
 ******************************************
 %nproc=1
 Will use up to    1 processors via shared memory.
 %Chk=SM41.n.3.pdb.xyz.mst.n.w.chk
 %subst l502 /dades/curu/work_g09D01_MST_AddSphPartition_ReadGammas/exe-dir/
 ----------------------------------------------------------------------
 #p b3lyp/6-31G(d) scrf=(iefpcm,read,solvent=Water) geom=allcheck guess
 =read
 ----------------------------------------------------------------------
 1/29=7,38=1,40=2/1;
 2/12=2,40=1/2;
 3/5=1,6=6,7=1,11=2,14=-4,16=1,25=1,30=1,70=2203,72=1,74=-5,116=-2/1,2,3;
 4/5=1/1;
 5/5=2,38=6,53=1/2;
 6/7=2,8=2,9=2,10=2,28=1/1;
 99/5=1,9=1/99;
 Leave Link    1 at Thu Aug  6 21:58:56 2020, MaxMem=           0 cpu:         0.0
 (Enter /prod/apps/gaussian/g09d1/l101.exe)
 Structure from the checkpoint file:  "SM41.n.3.pdb.xyz.mst.n.w.chk"
 ----------------
 SM41.n.3.pdb.xyz
 ----------------
 Charge =  0 Multiplicity = 1
 Z-Matrix found in file.
 O,0,3.154,-1.377,1.409
 S,0,2.968,-0.111,2.126
 N,0,2.395,0.949,0.94
 C,0,1.961,2.248,1.188
 N,0,2.188,2.865,2.333
 O,0,1.617,4.14,2.166
 C,0,1.073,4.236,0.929
 C,0,0.433,5.496,0.572
 C,0,-0.165,5.646,-0.691
 C,0,-0.778,6.847,-1.036
 C,0,-0.802,7.91,-0.129
 C,0,-0.209,7.766,1.127
 C,0,0.405,6.567,1.479
 C,0,1.259,3.06,0.258
 C,0,1.638,-0.28,3.315
 O,0,4.111,0.523,2.788
 H,0,1.937,0.466,0.168
 H,0,-0.148,4.823,-1.396
 H,0,-1.237,6.954,-2.013
 H,0,-1.28,8.845,-0.401
 H,0,-0.225,8.588,1.835
 H,0,0.866,6.452,2.453
 H,0,0.953,2.799,-0.742
 H,0,0.782,-0.733,2.816
 H,0,1.395,0.71,3.698
 H,0,2.004,-0.923,4.116
 Recover connectivity data from disk.
 NAtoms=     26 NQM=       26 NQMF=       0 NMMI=      0 NMMIF=      0
                NMic=       0 NMicF=      0.
                    Isotopes and Nuclear Properties:
 (Nuclear quadrupole moments (NQMom) in fm**2, nuclear magnetic moments (NMagM)
  in nuclear magnetons)

  Atom         1           2           3           4           5           6           7           8           9          10
 IAtWgt=          16          32          14          12          14          16          12          12          12          12
 AtmWgt=  15.9949146  31.9720718  14.0030740  12.0000000  14.0030740  15.9949146  12.0000000  12.0000000  12.0000000  12.0000000
 NucSpn=           0           0           2           0           2           0           0           0           0           0
 AtZEff=  -5.6000000 -13.6000000  -4.5500000  -3.6000000  -4.5500000  -5.6000000  -3.6000000  -3.6000000  -3.6000000  -3.6000000
 NQMom=    0.0000000   0.0000000   2.0440000   0.0000000   2.0440000   0.0000000   0.0000000   0.0000000   0.0000000   0.0000000
 NMagM=    0.0000000   0.0000000   0.4037610   0.0000000   0.4037610   0.0000000   0.0000000   0.0000000   0.0000000   0.0000000
 AtZNuc=   8.0000000  16.0000000   7.0000000   6.0000000   7.0000000   8.0000000   6.0000000   6.0000000   6.0000000   6.0000000

  Atom        11          12          13          14          15          16          17          18          19          20
 IAtWgt=          12          12          12          12          12          16           1           1           1           1
 AtmWgt=  12.0000000  12.0000000  12.0000000  12.0000000  12.0000000  15.9949146   1.0078250   1.0078250   1.0078250   1.0078250
 NucSpn=           0           0           0           0           0           0           1           1           1           1
 AtZEff=  -3.6000000  -3.6000000  -3.6000000  -3.6000000  -3.6000000  -5.6000000  -1.0000000  -1.0000000  -1.0000000  -1.0000000
 NQMom=    0.0000000   0.0000000   0.0000000   0.0000000   0.0000000   0.0000000   0.0000000   0.0000000   0.0000000   0.0000000
 NMagM=    0.0000000   0.0000000   0.0000000   0.0000000   0.0000000   0.0000000   2.7928460   2.7928460   2.7928460   2.7928460
 AtZNuc=   6.0000000   6.0000000   6.0000000   6.0000000   6.0000000   8.0000000   1.0000000   1.0000000   1.0000000   1.0000000

  Atom        21          22          23          24          25          26
 IAtWgt=           1           1           1           1           1           1
 AtmWgt=   1.0078250   1.0078250   1.0078250   1.0078250   1.0078250   1.0078250
 NucSpn=           1           1           1           1           1           1
 AtZEff=  -1.0000000  -1.0000000  -1.0000000  -1.0000000  -1.0000000  -1.0000000
 NQMom=    0.0000000   0.0000000   0.0000000   0.0000000   0.0000000   0.0000000
 NMagM=    2.7928460   2.7928460   2.7928460   2.7928460   2.7928460   2.7928460
 AtZNuc=   1.0000000   1.0000000   1.0000000   1.0000000   1.0000000   1.0000000
 Leave Link  101 at Thu Aug  6 21:58:56 2020, MaxMem=    33554432 cpu:         0.0
 (Enter /prod/apps/gaussian/g09d1/l202.exe)
                          Input orientation:                          
 ---------------------------------------------------------------------
 Center     Atomic      Atomic             Coordinates (Angstroms)
 Number     Number       Type             X           Y           Z
 ---------------------------------------------------------------------
      1          8           0        3.154000   -1.377000    1.409000
      2         16           0        2.968000   -0.111000    2.126000
      3          7           0        2.395000    0.949000    0.940000
      4          6           0        1.961000    2.248000    1.188000
      5          7           0        2.188000    2.865000    2.333000
      6          8           0        1.617000    4.140000    2.166000
      7          6           0        1.073000    4.236000    0.929000
      8          6           0        0.433000    5.496000    0.572000
      9          6           0       -0.165000    5.646000   -0.691000
     10          6           0       -0.778000    6.847000   -1.036000
     11          6           0       -0.802000    7.910000   -0.129000
     12          6           0       -0.209000    7.766000    1.127000
     13          6           0        0.405000    6.567000    1.479000
     14          6           0        1.259000    3.060000    0.258000
     15          6           0        1.638000   -0.280000    3.315000
     16          8           0        4.111000    0.523000    2.788000
     17          1           0        1.937000    0.466000    0.168000
     18          1           0       -0.148000    4.823000   -1.396000
     19          1           0       -1.237000    6.954000   -2.013000
     20          1           0       -1.280000    8.845000   -0.401000
     21          1           0       -0.225000    8.588000    1.835000
     22          1           0        0.866000    6.452000    2.453000
     23          1           0        0.953000    2.799000   -0.742000
     24          1           0        0.782000   -0.733000    2.816000
     25          1           0        1.395000    0.710000    3.698000
     26          1           0        2.004000   -0.923000    4.116000
 ---------------------------------------------------------------------
                    Distance matrix (angstroms):
                    1          2          3          4          5
     1  O    0.000000
     2  S    1.466779   0.000000
     3  N    2.491248   1.690717   0.000000
     4  C    3.822658   2.731076   1.391855   0.000000
     5  N    4.447639   3.083476   2.377889   1.320319   0.000000
     6  O    5.776912   4.460695   3.505830   2.157425   1.406967
     7  C    6.005558   4.890833   3.542905   2.192663   2.257007
     8  C    7.439257   6.346620   4.965891   3.641942   3.619849
     9  C    8.046632   7.134019   5.592457   4.426841   4.734464
    10  C    9.437840   8.511435   6.982758   5.796473   6.000303
    11  C   10.210962   9.145183   7.734280   6.436373   6.360312
    12  C    9.745960   8.552103   7.299813   5.929667   5.587472
    13  C    8.406488   7.182149   5.984358   4.599954   4.196809
    14  C    4.960120   4.057751   2.492377   1.420228   2.281817
    15  C    2.671049   1.791977   2.779229   3.319524   3.340337
    16  O    2.535249   1.465145   2.557584   3.187181   3.064297
    17  H    2.533341   2.286844   1.019332   2.053412   3.241208
    18  H    7.563810   6.816032   5.189568   4.213735   4.816233
    19  H   10.019807   9.204758   7.613912   6.528403   6.880281
    20  H   11.288301  10.229427   8.811965   7.519934   7.433854
    21  H   10.530923   9.271059   8.125254   6.737418   6.230835
    22  H    8.223024   6.899152   5.908470   4.524695   3.824742
    23  H    5.187502   4.555628   2.886345   2.246011   3.314394
    24  H    2.832096   2.375201   2.991700   3.595384   3.893036
    25  H    3.562186   2.370560   2.943414   2.997649   2.671348
    26  H    2.975981   2.355576   3.707323   4.316280   4.190691
                    6          7          8          9         10
     6  O    0.000000
     7  C    1.354740   0.000000
     8  C    2.404460   1.457618   0.000000
     9  C    3.688632   2.478940   1.405444   0.000000
    10  C    4.828735   3.755629   2.424332   1.391832   0.000000
    11  C    5.033039   4.258317   2.800718   2.418121   1.397567
    12  C    4.190665   3.760802   2.423446   2.793109   2.418035
    13  C    2.798436   2.486420   1.403736   2.425292   2.793405
    14  C    2.221492   1.366680   2.591326   3.100931   4.490565
    15  C    4.566951   5.138723   6.506785   7.376742   8.692663
    16  O    4.437297   5.145065   6.570317   7.525473   8.861054
    17  H    4.194363   3.941893   5.265561   5.655854   7.038324
    18  H    4.033554   2.690917   2.159517   1.083809   2.150134
    19  H    5.790333   4.623742   3.405421   2.146563   1.084739
    20  H    6.092547   5.343069   3.885473   3.400136   2.155744
    21  H    4.825684   4.630933   3.404203   3.878097   3.402871
    22  H    2.447798   2.697421   2.153970   3.405486   3.877097
    23  H    3.270419   2.207172   3.044800   3.059074   4.412380
    24  H    4.986567   5.323196   6.630066   7.340811   8.644530
    25  H    3.763138   4.494855   5.796819   6.786827   8.049562
    26  H    5.439323   6.135064   7.498769   8.423988   9.729107
                   11         12         13         14         15
    11  C    0.000000
    12  C    1.396396   0.000000
    13  C    2.417884   1.392301   0.000000
    14  C    5.283937   5.005659   3.810408   0.000000
    15  C    9.213622   8.540308   7.195318   4.543621   0.000000
    16  O    9.338856   8.595485   7.209567   4.579429   2.652973
    17  H    7.937472   7.669094   6.425570   2.682652   3.248003
    18  H    3.400379   3.876919   3.407781   2.797058   7.171048
    19  H    2.156993   3.402312   3.878143   5.152736   9.433131
    20  H    1.084755   2.155473   3.400428   6.351931  10.275651
    21  H    2.156365   1.084990   2.146643   5.937000   9.181644
    22  H    3.402163   2.154181   1.083708   4.059327   6.830729
    23  H    5.438577   5.432724   4.408057   1.077848   5.138941
    24  H    9.267337   8.721686   7.430996   4.599755   1.089471
    25  H    8.444687   7.679192   6.341018   4.168285   1.088962
    26  H   10.193898   9.451466   8.100041   5.594951   1.090416
                   16         17         18         19         20
    16  O    0.000000
    17  H    3.404985   0.000000
    18  H    7.357645   5.077083   0.000000
    19  H    9.644090   7.544878   2.471390   0.000000
    20  H   10.415771   8.993358   4.295106   2.485211   0.000000
    21  H    9.206157   8.568548   4.961906   4.301303   2.485713
    22  H    6.767222   6.496188   4.300772   4.961831   4.298498
    23  H    5.254906   2.690585   2.395098   4.865754   6.454199
    24  H    3.558168   3.127863   7.033845   9.299762  10.312081
    25  H    2.870492   3.579693   6.726548   8.861743   9.493980
    26  H    2.879922   4.185751   8.248016  10.493610  11.251745
                   21         22         23         24         25
    21  H    0.000000
    22  H    2.476833   0.000000
    23  H    6.445241   4.853865   0.000000
    24  H    9.426423   7.194654   5.016336   0.000000
    25  H    8.255789   5.899189   4.926752   1.798872   0.000000
    26  H   10.031477   7.645341   6.209513   1.794264   1.792287
                   26
    26  H    0.000000
 Stoichiometry    C10H10N2O3S
 Framework group  C1[X(C10H10N2O3S)]
 Deg. of freedom    72
 Full point group                 C1      NOp   1
 RotChk:  IX=0 Diff= 7.78D-15
 Largest Abelian subgroup         C1      NOp   1
 Largest concise Abelian subgroup C1      NOp   1
                         Standard orientation:                         
 ---------------------------------------------------------------------
 Center     Atomic      Atomic             Coordinates (Angstroms)
 Number     Number       Type             X           Y           Z
 ---------------------------------------------------------------------
      1          8           0       -4.655559    1.131207   -0.070295
      2         16           0       -3.643488    0.069551   -0.063878
      3          7           0       -2.182384    0.897804   -0.258034
      4          6           0       -0.925420    0.303918   -0.190188
      5          7           0       -0.757479   -1.005418   -0.216246
      6          8           0        0.636646   -1.183675   -0.151479
      7          6           0        1.247060    0.024231   -0.090828
      8          6           0        2.702911    0.038967   -0.020614
      9          6           0        3.388887    1.262752    0.063410
     10          6           0        4.778923    1.281716    0.131481
     11          6           0        5.499906    0.084574    0.116360
     12          6           0        4.822965   -1.133899    0.032719
     13          6           0        3.432542   -1.160165   -0.034618
     14          6           0        0.302974    1.012228   -0.110226
     15          6           0       -3.567387   -0.682570    1.560839
     16          8           0       -3.700273   -0.993534   -1.070493
     17          1           0       -2.234585    1.867027    0.053284
     18          1           0        2.832007    2.192471    0.075641
     19          1           0        5.300165    2.230819    0.196051
     20          1           0        6.583235    0.102611    0.168949
     21          1           0        5.377812   -2.066213    0.020863
     22          1           0        2.904195   -2.104127   -0.099476
     23          1           0        0.444391    2.080230   -0.076624
     24          1           0       -3.504775    0.108856    2.306944
     25          1           0       -2.692811   -1.330415    1.596201
     26          1           0       -4.481471   -1.263269    1.688297
 ---------------------------------------------------------------------
 Rotational constants (GHZ):      1.9058658      0.1830346      0.1740618
 Leave Link  202 at Thu Aug  6 21:58:56 2020, MaxMem=    33554432 cpu:         0.0
 (Enter /prod/apps/gaussian/g09d1/l301.exe)
 Standard basis: 6-31G(d) (6D, 7F)
 Ernie: Thresh=  0.10000D-02 Tol=  0.10000D-05 Strict=F.
 There are   264 symmetry adapted cartesian basis functions of A   symmetry.
 There are   264 symmetry adapted basis functions of A   symmetry.
   264 basis functions,   512 primitive gaussians,   264 cartesian basis functions
    62 alpha electrons       62 beta electrons
       nuclear repulsion energy      1170.8695050442 Hartrees.
 IExCor=  402 DFT=T Ex+Corr=B3LYP ExCW=0 ScaHFX=  0.200000
 ScaDFX=  0.800000  0.720000  1.000000  0.810000 ScalE2=  1.000000  1.000000
 IRadAn=      0 IRanWt=     -1 IRanGd=            0 ICorTp=0 IEmpDi=  4
 NAtoms=   26 NActive=   26 NUniq=   26 SFac= 1.00D+00 NAtFMM=   60 NAOKFM=F Big=F
 Integral buffers will be    131072 words long.
 Raffenetti 2 integral format.
 Two-electron integral symmetry is turned on.
 Using the following non-standard input for PCM:
 MSTModel=DFT cav g03defaults OFac=0.8 Rmin=0.3
 Warning! Using old PCM defaults because the g03defaults keyword was found.
 These settings can be overridden by following keywords.
 --- end of non-standard input.
 MST model for solvation energy: B3LYP parametrization.
 MST cavity parameters:
 ISph   IAn     Re0     Alpha   Atom Type   QCorr
 ------------------------------------------------
   1      8     1.40     1.25      O          F
   2     16     1.75     1.25      S          F
   3      7     1.50     1.25      NH         F
   4      6     1.50     1.25      C          F
   5      7     1.40     1.25      N          F
   6      8     1.40     1.25      O          F
   7      6     1.50     1.25      C          F
   8      6     1.50     1.25      C          F
   9      6     1.50     1.25      CH         F
  10      6     1.50     1.25      CH         F
  11      6     1.50     1.25      CH         F
  12      6     1.50     1.25      CH         F
  13      6     1.50     1.25      CH         F
  14      6     1.50     1.25      CH         F
  15      6     1.50     1.25      CH3        F
  16      8     1.40     1.25      O          F
  17      1     0.90     1.25      NH         F
  18      1     1.20     1.25      CH         F
  19      1     1.20     1.25      CH         F
  20      1     1.20     1.25      CH         F
  21      1     1.20     1.25      CH         F
  22      1     1.20     1.25      CH         F
  23      1     1.20     1.25      CH         F
  24      1     1.20     1.25      CH3        F
  25      1     1.20     1.25      CH3        F
  26      1     1.20     1.25      CH3        F
 ------------------------------------------------------------------------------
 Polarizable Continuum Model (PCM)
 =================================
 Model                : PCM (using non-symmetric T matrix).
 Atomic radii         : MST.
 Polarization charges : Total charges.
 Charge compensation  : None.
 Solution method      : On-the-fly selection.
 Cavity type          : Scaled SES (Solvent Excluding Surface) (Alpha=1.250).
 Cavity algorithm     : GePol (RMin=0.300 OFac=0.800).
                        Default sphere list used, NSphG=   26.
                        Tesserae with average area of 0.200 Ang**2.
                        Smoothing algorithm: None.
                        Polarization charges: point-like.
                        Self-potential: constant (ISelfS= 1).
                        Self-field    : global E.n sum rule (ISelfD= 3).
 Solvent              : Water, Eps=  78.355300 Eps(inf)=   1.777849
                        RSolv=   1.385000 Ang.
 ------------------------------------------------------------------------------
 GePol: Number of generator spheres                  =      26
 GePol: Total number of spheres                      =      60
 GePol: Number of exposed spheres                    =      57 ( 95.00%)
 GePol: Number of tesserae                           =    2194
 GePol: Average area of tesserae                     =       0.12 Ang**2
 GePol: Minimum area of tessera                      =   0.10D-02 Ang**2
 GePol: Maximum area of tessera                      =    0.30575 Ang**2
 GePol: Number of small tesserae                     =       9
 GePol: Fraction of small tesserae (<1% of avg)      =       0.41%
 GePol: Total count of vertices                      =    7680
 GePol: Maximum number of vertices in a tessera      =       8
 GePol: Cavity surface area                          =    266.905 Ang**2
 GePol: Cavity volume                                =    259.185 Ang**3
 PCM non-electrostatic energy =         0.0028458053 Hartrees.
 Nuclear repulsion after PCM non-electrostatic terms =     1170.8723508496 Hartrees.
 Leave Link  301 at Thu Aug  6 21:58:56 2020, MaxMem=    33554432 cpu:         0.1
 (Enter /prod/apps/gaussian/g09d1/l302.exe)
 NPDir=0 NMtPBC=     1 NCelOv=     1 NCel=       1 NClECP=     1 NCelD=      1
         NCelK=      1 NCelE2=     1 NClLst=     1 CellRange=     0.0.
 One-electron integrals computed using PRISM.
 NBasis=   264 RedAO= T EigKep=  4.58D-04  NBF=   264
 NBsUse=   264 1.00D-06 EigRej= -1.00D+00 NBFU=   264
 Precomputing XC quadrature grid using
 IXCGrd= 4 IRadAn=           0 IRanWt=          -1 IRanGd=           0 AccXCQ= 0.00D+00.
 Generated NRdTot=       0 NPtTot=           0 NUsed=           0 NTot=          32
 NSgBfM=   260   260   260   260   260 MxSgAt=    26 MxSgA2=    26.
 Leave Link  302 at Thu Aug  6 21:58:57 2020, MaxMem=    33554432 cpu:         0.7
 (Enter /prod/apps/gaussian/g09d1/l303.exe)
 DipDrv:  MaxL=1.
 Leave Link  303 at Thu Aug  6 21:58:57 2020, MaxMem=    33554432 cpu:         0.0
 (Enter /prod/apps/gaussian/g09d1/l401.exe)
 Initial guess from the checkpoint file:  "SM41.n.3.pdb.xyz.mst.n.w.chk"
 B after Tr=     0.000000    0.000000    0.000000
         Rot=    1.000000    0.000000    0.000000    0.000000 Ang=   0.00 deg.
 Guess basis will be translated and rotated to current coordinates.
 JPrj=2 DoOrth=T DoCkMO=T.
 Leave Link  401 at Thu Aug  6 21:58:57 2020, MaxMem=    33554432 cpu:         0.2
 (Enter /dades/curu/work_g09D01_MST_AddSphPartition_ReadGammas/exe-dir/l502.exe)
 Closed shell SCF:
 Using DIIS extrapolation, IDIIS=  1040.
 Integral symmetry usage will be decided dynamically.
 IVT=      231207 IEndB=      231207 NGot=    33554432 MDV=    33409826
 LenX=    33409826 LenY=    33339689
 Requested convergence on RMS density matrix=1.00D-08 within 128 cycles.
 Requested convergence on MAX density matrix=1.00D-06.
 Requested convergence on             energy=1.00D-06.
 No special actions if energy rises.
 Fock matrices will be formed incrementally for  20 cycles.

 Cycle   1  Pass 1  IDiag  1:
 FoFJK:  IHMeth= 1 ICntrl=       0 DoSepK=F KAlg= 0 I1Cent=   0 FoldK=F
 IRaf= 750000000 NMat=   1 IRICut=       1 DoRegI=T DoRafI=F ISym2E= 0.
 FoFCou: FMM=F IPFlag=           0 FMFlag=      100000 FMFlg1=           0
         NFxFlg=           0 DoJE=F BraDBF=F KetDBF=F FulRan=T
         wScrn=  0.000000 ICntrl=       0 IOpCl=  0 I1Cent=           0 NGrid=           0
         NMat0=    1 NMatS0=      1 NMatT0=    0 NMatD0=    1 NMtDS0=    0 NMtDT0=    0
 Symmetry not used in FoFCou.
 Inv3:  Mode=1 IEnd=    14440908.
 Iteration    1 A*A^-1 deviation from unit magnitude is 5.88D-15 for   2167.
 Iteration    1 A*A^-1 deviation from orthogonality  is 2.29D-15 for   2175   2167.
 Iteration    1 A^-1*A deviation from unit magnitude is 5.88D-15 for   2167.
 Iteration    1 A^-1*A deviation from orthogonality  is 1.90D-15 for   2189   2183.
 E= -1120.35256268453    
 DIIS: error= 2.36D-03 at cycle   1 NSaved=   1.
 NSaved= 1 IEnMin= 1 EnMin= -1120.35256268453     IErMin= 1 ErrMin= 2.36D-03
 ErrMax= 2.36D-03  0.00D+00 EMaxC= 1.00D-01 BMatC= 2.02D-03 BMatP= 2.02D-03
 IDIUse=3 WtCom= 9.76D-01 WtEn= 2.36D-02
 Coeff-Com:  0.100D+01
 Coeff-En:   0.100D+01
 Coeff:      0.100D+01
 Gap=     0.185 Goal=   None    Shift=    0.000
 GapD=    0.185 DampG=1.000 DampE=1.000 DampFc=1.0000 IDamp=-1.
 RMSDP=8.16D-04 MaxDP=2.03D-02              OVMax= 2.62D-02

 Cycle   2  Pass 1  IDiag  1:
 RMSU=  8.11D-04    CP:  9.96D-01
 E= -1120.35523647795     Delta-E=       -0.002673793417 Rises=F Damp=F
 DIIS: error= 2.22D-03 at cycle   2 NSaved=   2.
 NSaved= 2 IEnMin= 2 EnMin= -1120.35523647795     IErMin= 2 ErrMin= 2.22D-03
 ErrMax= 2.22D-03  0.00D+00 EMaxC= 1.00D-01 BMatC= 2.67D-03 BMatP= 2.02D-03
 IDIUse=3 WtCom= 1.75D-01 WtEn= 8.25D-01
 Coeff-Com:  0.550D+00 0.450D+00
 Coeff-En:   0.133D+00 0.867D+00
 Coeff:      0.206D+00 0.794D+00
 Gap=     0.184 Goal=   None    Shift=    0.000
 RMSDP=4.48D-04 MaxDP=2.24D-02 DE=-2.67D-03 OVMax= 2.95D-02

 Cycle   3  Pass 1  IDiag  1:
[...]
   22      H22      9.60  -0.033   -0.12
   23      H23      9.75  -0.055   -0.93
   24      H24     11.21  -0.064   -0.78
   25      H25      9.94  -0.046   -0.25
   26      H26     12.84  -0.076   -0.47
 Added spheres:    25.15  -0.058    0.00
 --------------------------------------------------------------------
 After PCM corrections, the energy is  -1120.35758032     a.u.
 --------------------------------------------------------------------
 Leave Link  502 at Thu Aug  6 22:01:01 2020, MaxMem=    33554432 cpu:       123.4
 (Enter /prod/apps/gaussian/g09d1/l601.exe)
 Copying SCF densities to generalized density rwf, IOpCl= 0 IROHF=0.

 **********************************************************************

            Population analysis using the SCF density.

 **********************************************************************

 Orbital symmetries:
       Occupied  (A) (A) (A) (A) (A) (A) (A) (A) (A) (A) (A) (A)
                 (A) (A) (A) (A) (A) (A) (A) (A) (A) (A) (A) (A)
                 (A) (A) (A) (A) (A) (A) (A) (A) (A) (A) (A) (A)
                 (A) (A) (A) (A) (A) (A) (A) (A) (A) (A) (A) (A)
                 (A) (A) (A) (A) (A) (A) (A) (A) (A) (A) (A) (A)
                 (A) (A)
       Virtual   (A) (A) (A) (A) (A) (A) (A) (A) (A) (A) (A) (A)
                 (A) (A) (A) (A) (A) (A) (A) (A) (A) (A) (A) (A)
                 (A) (A) (A) (A) (A) (A) (A) (A) (A) (A) (A) (A)
                 (A) (A) (A) (A) (A) (A) (A) (A) (A) (A) (A) (A)
                 (A) (A) (A) (A) (A) (A) (A) (A) (A) (A) (A) (A)
                 (A) (A) (A) (A) (A) (A) (A) (A) (A) (A) (A) (A)
                 (A) (A) (A) (A) (A) (A) (A) (A) (A) (A) (A) (A)
                 (A) (A) (A) (A) (A) (A) (A) (A) (A) (A) (A) (A)
                 (A) (A) (A) (A) (A) (A) (A) (A) (A) (A) (A) (A)
                 (A) (A) (A) (A) (A) (A) (A) (A) (A) (A) (A) (A)
                 (A) (A) (A) (A) (A) (A) (A) (A) (A) (A) (A) (A)
                 (A) (A) (A) (A) (A) (A) (A) (A) (A) (A) (A) (A)
                 (A) (A) (A) (A) (A) (A) (A) (A) (A) (A) (A) (A)
                 (A) (A) (A) (A) (A) (A) (A) (A) (A) (A) (A) (A)
                 (A) (A) (A) (A) (A) (A) (A) (A) (A) (A) (A) (A)
                 (A) (A) (A) (A) (A) (A) (A) (A) (A) (A) (A) (A)
                 (A) (A) (A) (A) (A) (A) (A) (A) (A) (A)
 The electronic state is 1-A.
 Alpha  occ. eigenvalues --  -89.13350 -19.24232 -19.16005 -19.15924 -14.39326
 Alpha  occ. eigenvalues --  -14.38498 -10.28251 -10.27280 -10.22583 -10.21785
 Alpha  occ. eigenvalues --  -10.20469 -10.20389 -10.20213 -10.20001 -10.19900
 Alpha  occ. eigenvalues --  -10.19861  -8.15854  -6.12398  -6.12271  -6.12110
 Alpha  occ. eigenvalues --   -1.14741  -1.12867  -1.01743  -0.96695  -0.87719
 Alpha  occ. eigenvalues --   -0.85558  -0.81362  -0.78012  -0.75615  -0.75405
 Alpha  occ. eigenvalues --   -0.67039  -0.65114  -0.62308  -0.60395  -0.57918
 Alpha  occ. eigenvalues --   -0.55418  -0.53793  -0.50821  -0.49960  -0.48788
 Alpha  occ. eigenvalues --   -0.48194  -0.47505  -0.46776  -0.45027  -0.44264
 Alpha  occ. eigenvalues --   -0.43610  -0.43377  -0.42718  -0.39917  -0.38813
 Alpha  occ. eigenvalues --   -0.37389  -0.36495  -0.35716  -0.35162  -0.33556
 Alpha  occ. eigenvalues --   -0.32808  -0.32129  -0.31282  -0.30134  -0.26576
 Alpha  occ. eigenvalues --   -0.26112  -0.23777
 Alpha virt. eigenvalues --   -0.05419  -0.01100   0.01900   0.05033   0.06368
 Alpha virt. eigenvalues --    0.07200   0.07462   0.08580   0.09893   0.11494
 Alpha virt. eigenvalues --    0.11952   0.12300   0.13576   0.15238   0.15662
 Alpha virt. eigenvalues --    0.16652   0.16835   0.16923   0.18440   0.19280
 Alpha virt. eigenvalues --    0.23161   0.25244   0.25592   0.29352   0.29872
 Alpha virt. eigenvalues --    0.30937   0.32900   0.33474   0.36186   0.37794
 Alpha virt. eigenvalues --    0.42020   0.42217   0.43889   0.44546   0.47765
 Alpha virt. eigenvalues --    0.49657   0.50562   0.51328   0.51958   0.53250
 Alpha virt. eigenvalues --    0.53814   0.54565   0.55624   0.56744   0.57823
 Alpha virt. eigenvalues --    0.58206   0.58956   0.59469   0.60578   0.61276
 Alpha virt. eigenvalues --    0.61942   0.62780   0.63971   0.64752   0.66626
 Alpha virt. eigenvalues --    0.67603   0.69117   0.70719   0.71929   0.75307
 Alpha virt. eigenvalues --    0.76340   0.77391   0.78460   0.79598   0.80319
 Alpha virt. eigenvalues --    0.82428   0.82988   0.83560   0.84797   0.85108
 Alpha virt. eigenvalues --    0.86563   0.87079   0.87467   0.88563   0.88958
 Alpha virt. eigenvalues --    0.90618   0.90925   0.91973   0.94148   0.94726
 Alpha virt. eigenvalues --    0.96031   0.97316   0.97695   1.00466   1.01111
 Alpha virt. eigenvalues --    1.03523   1.04157   1.05980   1.06730   1.10327
 Alpha virt. eigenvalues --    1.10921   1.13448   1.15891   1.16117   1.17438
 Alpha virt. eigenvalues --    1.17862   1.19087   1.21526   1.24099   1.24429
 Alpha virt. eigenvalues --    1.27290   1.30606   1.32231   1.33599   1.35884
 Alpha virt. eigenvalues --    1.38138   1.40901   1.42136   1.42777   1.42891
 Alpha virt. eigenvalues --    1.46036   1.47069   1.48143   1.49992   1.50377
 Alpha virt. eigenvalues --    1.51640   1.54129   1.57818   1.59432   1.65987
 Alpha virt. eigenvalues --    1.67885   1.73348   1.76408   1.77276   1.78448
 Alpha virt. eigenvalues --    1.78871   1.79428   1.79919   1.83338   1.83814
 Alpha virt. eigenvalues --    1.85728   1.87537   1.88927   1.90866   1.91930
 Alpha virt. eigenvalues --    1.93913   1.96120   1.96990   1.99557   2.00778
 Alpha virt. eigenvalues --    2.03769   2.04918   2.06563   2.10232   2.10845
 Alpha virt. eigenvalues --    2.11415   2.13196   2.14218   2.16026   2.16705
 Alpha virt. eigenvalues --    2.18169   2.19931   2.21578   2.23329   2.24175
 Alpha virt. eigenvalues --    2.25473   2.27381   2.27596   2.29878   2.30680
 Alpha virt. eigenvalues --    2.32252   2.35084   2.44228   2.50177   2.52417
 Alpha virt. eigenvalues --    2.53452   2.56566   2.58090   2.59935   2.62436
 Alpha virt. eigenvalues --    2.65958   2.66168   2.71646   2.72075   2.73957
 Alpha virt. eigenvalues --    2.74505   2.76578   2.81472   2.86532   2.89414
 Alpha virt. eigenvalues --    2.90664   3.02403   3.04711   3.13298   3.26803
 Alpha virt. eigenvalues --    3.42711   3.75846   3.80011   3.92113   3.97967
 Alpha virt. eigenvalues --    4.06935   4.08611   4.10739   4.11212   4.11936
 Alpha virt. eigenvalues --    4.22789   4.24337   4.31415   4.36339   4.40314
 Alpha virt. eigenvalues --    4.56304   4.73946
          Condensed to atoms (all electrons):
               1          2          3          4          5          6
     1  O    8.255160   0.454280  -0.050497   0.001272  -0.000001   0.000000
     2  S    0.454280  13.603146   0.109004  -0.011150   0.008717  -0.000283
     3  N   -0.050497   0.109004   7.454875   0.231070  -0.079457   0.005676
     4  C    0.001272  -0.011150   0.231070   4.472302   0.411301  -0.037054
     5  N   -0.000001   0.008717  -0.079457   0.411301   6.949717   0.107981
     6  O    0.000000  -0.000283   0.005676  -0.037054   0.107981   8.218939
     7  C    0.000000   0.000301  -0.001233  -0.016163  -0.080498   0.244420
     8  C    0.000000  -0.000007  -0.000218   0.002821   0.004308  -0.037930
     9  C    0.000000   0.000000   0.000003   0.000631  -0.000100   0.003132
    10  C    0.000000   0.000000   0.000000  -0.000007   0.000001  -0.000061
    11  C    0.000000   0.000000   0.000000   0.000000   0.000000   0.000002
    12  C    0.000000   0.000000   0.000000   0.000005   0.000000   0.000281
    13  C    0.000000   0.000000  -0.000001  -0.000354   0.000129  -0.006701
    14  C   -0.000058   0.001338  -0.050157   0.449898  -0.046975  -0.089603
    15  C   -0.056829   0.238526  -0.059676   0.001618  -0.008619   0.000078
    16  O   -0.044103   0.436461  -0.048494  -0.003519   0.000526   0.000040
    17  H    0.002102  -0.006343   0.296405  -0.015788   0.002538  -0.000048
    18  H    0.000000   0.000000  -0.000001   0.000088  -0.000005   0.000024
    19  H    0.000000   0.000000   0.000000   0.000000   0.000000   0.000000
    20  H    0.000000   0.000000   0.000000   0.000000   0.000000   0.000000
    21  H    0.000000   0.000000   0.000000   0.000000   0.000000  -0.000003
    22  H    0.000000   0.000000   0.000000   0.000051  -0.000249   0.009690
    23  H   -0.000001  -0.000135  -0.002014  -0.027995   0.004856   0.003304
    24  H    0.000114  -0.007977   0.000422   0.000099   0.000121  -0.000001
    25  H    0.001664  -0.004477  -0.003410   0.001027   0.012980  -0.000376
    26  H   -0.000417  -0.014654   0.002311   0.000054   0.000040   0.000000
               7          8          9         10         11         12
     1  O    0.000000   0.000000   0.000000   0.000000   0.000000   0.000000
     2  S    0.000301  -0.000007   0.000000   0.000000   0.000000   0.000000
     3  N   -0.001233  -0.000218   0.000003   0.000000   0.000000   0.000000
     4  C   -0.016163   0.002821   0.000631  -0.000007   0.000000   0.000005
     5  N   -0.080498   0.004308  -0.000100   0.000001   0.000000   0.000000
     6  O    0.244420  -0.037930   0.003132  -0.000061   0.000002   0.000281
     7  C    4.718433   0.348694  -0.042453   0.006384   0.000866   0.004765
     8  C    0.348694   4.784168   0.535724  -0.011284  -0.033795  -0.009649
     9  C   -0.042453   0.535724   5.013904   0.518906  -0.040147  -0.041380
    10  C    0.006384  -0.011284   0.518906   4.882818   0.539747  -0.026085
    11  C    0.000866  -0.033795  -0.040147   0.539747   4.873765   0.539120
    12  C    0.004765  -0.009649  -0.041380  -0.026085   0.539120   4.890850
    13  C   -0.041743   0.472735  -0.081979  -0.042118  -0.038116   0.505897
    14  C    0.508100  -0.057921  -0.019930   0.000225   0.000015  -0.000230
    15  C   -0.000027   0.000000   0.000000   0.000000   0.000000   0.000000
    16  O   -0.000011   0.000000   0.000000   0.000000   0.000000   0.000000
    17  H    0.000025   0.000000   0.000000   0.000000   0.000000   0.000000
    18  H   -0.012598  -0.037094   0.357144  -0.041040   0.004474   0.000168
    19  H   -0.000204   0.003213  -0.037249   0.363018  -0.040550   0.004369
    20  H    0.000003   0.000485   0.004804  -0.041444   0.364623  -0.041290
    21  H   -0.000173   0.003211   0.000769   0.004389  -0.040677   0.363513
    22  H   -0.012860  -0.042936   0.005288   0.000199   0.004542  -0.040674
    23  H   -0.025824  -0.003363   0.001184   0.000091  -0.000001   0.000002
    24  H    0.000001   0.000000   0.000000   0.000000   0.000000   0.000000
    25  H    0.000050   0.000000   0.000000   0.000000   0.000000   0.000000
    26  H    0.000000   0.000000   0.000000   0.000000   0.000000   0.000000
              13         14         15         16         17         18
     1  O    0.000000  -0.000058  -0.056829  -0.044103   0.002102   0.000000
     2  S    0.000000   0.001338   0.238526   0.436461  -0.006343   0.000000
     3  N   -0.000001  -0.050157  -0.059676  -0.048494   0.296405  -0.000001
     4  C   -0.000354   0.449898   0.001618  -0.003519  -0.015788   0.000088
     5  N    0.000129  -0.046975  -0.008619   0.000526   0.002538  -0.000005
     6  O   -0.006701  -0.089603   0.000078   0.000040  -0.000048   0.000024
     7  C   -0.041743   0.508100  -0.000027  -0.000011   0.000025  -0.012598
     8  C    0.472735  -0.057921   0.000000   0.000000   0.000000  -0.037094
     9  C   -0.081979  -0.019930   0.000000   0.000000   0.000000   0.357144
    10  C   -0.042118   0.000225   0.000000   0.000000   0.000000  -0.041040
    11  C   -0.038116   0.000015   0.000000   0.000000   0.000000   0.004474
    12  C    0.505897  -0.000230   0.000000   0.000000   0.000000   0.000168
    13  C    5.059465   0.011865   0.000000   0.000000   0.000000   0.005615
    14  C    0.011865   5.235391  -0.000149   0.000002  -0.004788   0.006070
    15  C    0.000000  -0.000149   5.546007  -0.057228   0.000390   0.000000
    16  O    0.000000   0.000002  -0.057228   8.275012   0.001115   0.000000
    17  H    0.000000  -0.004788   0.000390   0.001115   0.290535   0.000000
    18  H    0.005615   0.006070   0.000000   0.000000   0.000000   0.554763
    19  H    0.000792  -0.000001   0.000000   0.000000   0.000000  -0.004810
    20  H    0.004671   0.000000   0.000000   0.000000   0.000000  -0.000154
    21  H   -0.037311   0.000001   0.000000   0.000000   0.000000   0.000015
    22  H    0.362890   0.000260   0.000000   0.000000   0.000000  -0.000139
    23  H   -0.000105   0.353753   0.000006   0.000001   0.001564   0.001923
    24  H    0.000000  -0.000014   0.342826   0.001825  -0.000012   0.000000
    25  H    0.000000   0.000178   0.331415  -0.001229  -0.000070   0.000000
    26  H    0.000000   0.000001   0.356478   0.000041  -0.000027   0.000000
              19         20         21         22         23         24
     1  O    0.000000   0.000000   0.000000   0.000000  -0.000001   0.000114
     2  S    0.000000   0.000000   0.000000   0.000000  -0.000135  -0.007977
     3  N    0.000000   0.000000   0.000000   0.000000  -0.002014   0.000422
     4  C    0.000000   0.000000   0.000000   0.000051  -0.027995   0.000099
     5  N    0.000000   0.000000   0.000000  -0.000249   0.004856   0.000121
     6  O    0.000000   0.000000  -0.000003   0.009690   0.003304  -0.000001
     7  C   -0.000204   0.000003  -0.000173  -0.012860  -0.025824   0.000001
     8  C    0.003213   0.000485   0.003211  -0.042936  -0.003363   0.000000
     9  C   -0.037249   0.004804   0.000769   0.005288   0.001184   0.000000
    10  C    0.363018  -0.041444   0.004389   0.000199   0.000091   0.000000
    11  C   -0.040550   0.364623  -0.040677   0.004542  -0.000001   0.000000
    12  C    0.004369  -0.041290   0.363513  -0.040674   0.000002   0.000000
    13  C    0.000792   0.004671  -0.037311   0.362890  -0.000105   0.000000
    14  C   -0.000001   0.000000   0.000001   0.000260   0.353753  -0.000014
    15  C    0.000000   0.000000   0.000000   0.000000   0.000006   0.342826
    16  O    0.000000   0.000000   0.000000   0.000000   0.000001   0.001825
    17  H    0.000000   0.000000   0.000000   0.000000   0.001564  -0.000012
    18  H   -0.004810  -0.000154   0.000015  -0.000139   0.001923   0.000000
    19  H    0.555906  -0.005086  -0.000161   0.000015  -0.000002   0.000000
    20  H   -0.005086   0.558892  -0.005067  -0.000150   0.000000   0.000000
    21  H   -0.000161  -0.005067   0.556007  -0.004872   0.000000   0.000000
    22  H    0.000015  -0.000150  -0.004872   0.552783  -0.000008   0.000000
    23  H   -0.000002   0.000000   0.000000  -0.000008   0.495845  -0.000001
    24  H    0.000000   0.000000   0.000000   0.000000  -0.000001   0.469293
    25  H    0.000000   0.000000   0.000000   0.000000  -0.000006  -0.019999
    26  H    0.000000   0.000000   0.000000   0.000000   0.000000  -0.017199
              25         26
     1  O    0.001664  -0.000417
     2  S   -0.004477  -0.014654
     3  N   -0.003410   0.002311
     4  C    0.001027   0.000054
     5  N    0.012980   0.000040
     6  O   -0.000376   0.000000
     7  C    0.000050   0.000000
     8  C    0.000000   0.000000
     9  C    0.000000   0.000000
    10  C    0.000000   0.000000
    11  C    0.000000   0.000000
    12  C    0.000000   0.000000
    13  C    0.000000   0.000000
    14  C    0.000178   0.000001
    15  C    0.331415   0.356478
    16  O   -0.001229   0.000041
    17  H   -0.000070  -0.000027
    18  H    0.000000   0.000000
    19  H    0.000000   0.000000
    20  H    0.000000   0.000000
    21  H    0.000000   0.000000
    22  H    0.000000   0.000000
    23  H   -0.000006   0.000000
    24  H   -0.019999  -0.017199
    25  H    0.466040  -0.017429
    26  H   -0.017429   0.450659
 Mulliken charges:
               1
     1  O   -0.562685
     2  S    1.193252
     3  N   -0.804607
     4  C    0.539792
     5  N   -0.287310
     6  O   -0.421508
     7  C    0.401744
     8  C    0.078837
     9  C   -0.178250
    10  C   -0.153740
    11  C   -0.133868
    12  C   -0.149662
    13  C   -0.175631
    14  C   -0.297271
    15  C   -0.634817
    16  O   -0.560438
    17  H    0.432401
    18  H    0.165556
    19  H    0.160752
    20  H    0.159712
    21  H    0.160359
    22  H    0.166172
    23  H    0.196926
    24  H    0.230502
    25  H    0.233641
    26  H    0.240141
 Sum of Mulliken charges =   0.00000
 Mulliken charges with hydrogens summed into heavy atoms:
               1
     1  O   -0.562685
     2  S    1.193252
     3  N   -0.372206
     4  C    0.539792
     5  N   -0.287310
     6  O   -0.421508
     7  C    0.401744
     8  C    0.078837
     9  C   -0.012695
    10  C    0.007012
    11  C    0.025844
    12  C    0.010697
    13  C   -0.009459
    14  C   -0.100344
    15  C    0.069466
    16  O   -0.560438
 Electronic spatial extent (au):  <R**2>=           5872.0495
 Charge=              0.0000 electrons
 Dipole moment (field-independent basis, Debye):
    X=              6.2451    Y=              4.0906    Z=              5.2531  Tot=              9.1285
 Quadrupole moment (field-independent basis, Debye-Ang):
   XX=           -101.7577   YY=            -91.7457   ZZ=            -99.8053
   XY=              1.8210   XZ=            -17.2632   YZ=             -2.9799
 Traceless Quadrupole moment (field-independent basis, Debye-Ang):
   XX=             -3.9881   YY=              6.0239   ZZ=             -2.0358
   XY=              1.8210   XZ=            -17.2632   YZ=             -2.9799
 Octapole moment (field-independent basis, Debye-Ang**2):
  XXX=            184.7127  YYY=             18.2750  ZZZ=              8.2855  XYY=             14.4471
  XXY=            -26.2876  XXZ=             68.4485  XZZ=            -34.2613  YZZ=             -1.4123
  YYZ=              6.5520  XYZ=             13.4198
 Hexadecapole moment (field-independent basis, Debye-Ang**3):
 XXXX=          -6660.2057 YYYY=           -559.4937 ZZZZ=           -251.1430 XXXY=            177.1786
 XXXZ=           -211.0137 YYYX=            -18.2848 YYYZ=              0.7273 ZZZX=            -34.6488
 ZZZY=             -0.4693 XXYY=          -1179.1315 XXZZ=          -1218.6686 YYZZ=           -151.9252
 XXYZ=            -40.1528 YYXZ=            -17.5583 ZZXY=             -6.2488
 N-N= 1.170872350850D+03 E-N=-4.969115443295D+03  KE= 1.112194790633D+03
 No NMR shielding tensors so no spin-rotation constants.
 Leave Link  601 at Thu Aug  6 22:01:01 2020, MaxMem=    33554432 cpu:         0.2
 (Enter /prod/apps/gaussian/g09d1/l9999.exe)
 1\1\GINC-PIRINEUS11\SP\RB3LYP\6-31G(d)\C10H10N2O3S1\UBAFAR01\06-Aug-20
 20\0\\#p b3lyp/6-31G(d) scrf=(iefpcm,read,solvent=Water) geom=allcheck
  guess=read\\SM41.n.3.pdb.xyz\\0,1\O,0,3.154,-1.377,1.409\S,0,2.968,-0
 .111,2.126\N,0,2.395,0.949,0.94\C,0,1.961,2.248,1.188\N,0,2.188,2.865,
 2.333\O,0,1.617,4.14,2.166\C,0,1.073,4.236,0.929\C,0,0.433,5.496,0.572
 \C,0,-0.165,5.646,-0.691\C,0,-0.778,6.847,-1.036\C,0,-0.802,7.91,-0.12
 9\C,0,-0.209,7.766,1.127\C,0,0.405,6.567,1.479\C,0,1.259,3.06,0.258\C,
 0,1.638,-0.28,3.315\O,0,4.111,0.523,2.788\H,0,1.937,0.466,0.168\H,0,-0
 .148,4.823,-1.396\H,0,-1.237,6.954,-2.013\H,0,-1.28,8.845,-0.401\H,0,-
 0.225,8.588,1.835\H,0,0.866,6.452,2.453\H,0,0.953,2.799,-0.742\H,0,0.7
 82,-0.733,2.816\H,0,1.395,0.71,3.698\H,0,2.004,-0.923,4.116\\Version=A
 M64L-G09RevD.01\State=1-A\HF=-1120.3575803\RMSD=3.012e-09\Dipole=-3.15
 14818,0.9686392,-1.4241936\Quadrupole=-11.1475164,3.765328,7.3821884,8
 .6425731,-1.3898222,-3.7345668\PG=C01 [X(C10H10N2O3S1)]\\@


 BETTER TO HUNT IN FIELDS, FOR HEALTH UNBOUGHT
 THAN FEE THE DOCTOR FOR A NAUSEOUS DRAUGHT.
 THE WISE, FOR CURE, ON EXERCISE DEPEND;
 GOD NEVER MADE HIS WORK FOR MAN TO MEND.
     -- JOHN DRYDEN (1631-1700)
 Job cpu time:       0 days  0 hours  2 minutes  4.8 seconds.
 File lengths (MBytes):  RWF=    120 Int=      0 D2E=      0 Chk=      5 Scr=      1
 Normal termination of Gaussian 09 at Thu Aug  6 22:01:01 2020.
