 Entering Gaussian System, Link 0=g09
 Initial command:
 /prod/apps/gaussian/g09d1/l1.exe "/tmp/ubafar01/1448649/Gau-125818.inp" -scrdir="/tmp/ubafar01/1448649/"
 Entering Link 1 = /prod/apps/gaussian/g09d1/l1.exe PID=    125819.
  
 Copyright (c) 1988,1990,1992,1993,1995,1998,2003,2009,2013,
            Gaussian, Inc.  All Rights Reserved.
  
 This is part of the Gaussian(R) 09 program.  It is based on
 the Gaussian(R) 03 system (copyright 2003, Gaussian, Inc.),
 the Gaussian(R) 98 system (copyright 1998, Gaussian, Inc.),
 the Gaussian(R) 94 system (copyright 1995, Gaussian, Inc.),
 the Gaussian 92(TM) system (copyright 1992, Gaussian, Inc.),
 the Gaussian 90(TM) system (copyright 1990, Gaussian, Inc.),
 the Gaussian 88(TM) system (copyright 1988, Gaussian, Inc.),
 the Gaussian 86(TM) system (copyright 1986, Carnegie Mellon
 University), and the Gaussian 82(TM) system (copyright 1983,
 Carnegie Mellon University). Gaussian is a federally registered
 trademark of Gaussian, Inc.
  
 This software contains proprietary and confidential information,
 including trade secrets, belonging to Gaussian, Inc.
  
 This software is provided under written license and may be
 used, copied, transmitted, or stored only in accord with that
 written license.
  
 The following legend is applicable only to US Government
 contracts under FAR:
  
                    RESTRICTED RIGHTS LEGEND
  
 Use, reproduction and disclosure by the US Government is
 subject to restrictions as set forth in subparagraphs (a)
 and (c) of the Commercial Computer Software - Restricted
 Rights clause in FAR 52.227-19.
  
 Gaussian, Inc.
 340 Quinnipiac St., Bldg. 40, Wallingford CT 06492
  
  
 ---------------------------------------------------------------
 Warning -- This program may not be used in any manner that
 competes with the business of Gaussian, Inc. or will provide
 assistance to any competitor of Gaussian, Inc.  The licensee
 of this program is prohibited from giving any competitor of
 Gaussian, Inc. access to this program.  By using this program,
 the user acknowledges that Gaussian, Inc. is engaged in the
 business of creating and licensing software in the field of
 computational chemistry and represents and warrants to the
 licensee that it is not a competitor of Gaussian, Inc. and that
 it will not use this program in any manner prohibited above.
 ---------------------------------------------------------------
  

 Cite this work as:
 Gaussian 09, Revision D.01,
 M. J. Frisch, G. W. Trucks, H. B. Schlegel, G. E. Scuseria, 
 M. A. Robb, J. R. Cheeseman, G. Scalmani, V. Barone, B. Mennucci, 
 G. A. Petersson, H. Nakatsuji, M. Caricato, X. Li, H. P. Hratchian, 
 A. F. Izmaylov, J. Bloino, G. Zheng, J. L. Sonnenberg, M. Hada, 
 M. Ehara, K. Toyota, R. Fukuda, J. Hasegawa, M. Ishida, T. Nakajima, 
 Y. Honda, O. Kitao, H. Nakai, T. Vreven, J. A. Montgomery, Jr., 
 J. E. Peralta, F. Ogliaro, M. Bearpark, J. J. Heyd, E. Brothers, 
 K. N. Kudin, V. N. Staroverov, T. Keith, R. Kobayashi, J. Normand, 
 K. Raghavachari, A. Rendell, J. C. Burant, S. S. Iyengar, J. Tomasi, 
 M. Cossi, N. Rega, J. M. Millam, M. Klene, J. E. Knox, J. B. Cross, 
 V. Bakken, C. Adamo, J. Jaramillo, R. Gomperts, R. E. Stratmann, 
 O. Yazyev, A. J. Austin, R. Cammi, C. Pomelli, J. W. Ochterski, 
 R. L. Martin, K. Morokuma, V. G. Zakrzewski, G. A. Voth, 
 P. Salvador, J. J. Dannenberg, S. Dapprich, A. D. Daniels, 
 O. Farkas, J. B. Foresman, J. V. Ortiz, J. Cioslowski, 
 and D. J. Fox, Gaussian, Inc., Wallingford CT, 2013.
 
 ******************************************
 Gaussian 09:  AM64L-G09RevD.01 24-Apr-2013
                 6-Aug-2020 
 ******************************************
 %nproc=1
 Will use up to    1 processors via shared memory.
 %Chk=SM42.n.6.pdb.xyz.mst.n.o.chk
 -----------------
 #p b3lyp/6-31G(d)
 -----------------
 1/38=1/1;
 2/12=2,17=6,18=5,40=1/2;
 3/5=1,6=6,7=1,11=2,16=1,25=1,30=1,74=-5/1,2,3;
 4//1;
 5/5=2,38=5/2;
 6/7=2,8=2,9=2,10=2,28=1/1;
 99/5=1,9=1/99;
 Leave Link    1 at Thu Aug  6 22:08:15 2020, MaxMem=           0 cpu:         0.0
 (Enter /prod/apps/gaussian/g09d1/l101.exe)
 ----------------
 SM42.n.6.pdb.xyz
 ----------------
 Symbolic Z-matrix:
 Charge =  0 Multiplicity = 1
 O                     3.726     1.251     1.12 
 S                     3.509     0.322     0.011 
 N                     2.914     1.307    -1.239 
 C                     2.54      0.779    -2.479 
 N                     2.874     1.426    -3.578 
 O                     2.275     0.699    -4.612 
 C                     1.62     -0.372    -4.099 
 C                     0.939    -1.252    -5.041 
 C                     0.255    -2.388    -4.58 
 C                    -0.394    -3.227    -5.479 
 C                    -0.368    -2.945    -6.847 
 C                     0.311    -1.817    -7.312 
 C                     0.962    -0.974    -6.416 
 C                     1.749    -0.371    -2.737 
 C                     5.094    -0.309    -0.51 
 C                     6.241     0.43     -0.216 
 C                     7.477    -0.053    -0.639 
 C                     7.554    -1.256    -1.344 
 C                     6.398    -1.987    -1.626 
 C                     5.155    -1.518    -1.207 
 O                     2.579    -0.802     0.115 
 H                     3.419     2.19     -1.298 
 H                     0.232    -2.611    -3.519 
 H                    -0.92     -4.102    -5.113 
 H                    -0.875    -3.602    -7.547 
 H                     0.333    -1.594    -8.373 
 H                     1.49     -0.096    -6.771 
 H                     1.353    -1.058    -2.01 
 H                     6.158     1.353     0.346 
 H                     8.378     0.505    -0.413 
 H                     8.519    -1.628    -1.67 
 H                     6.464    -2.925    -2.165 
 H                     4.249    -2.079    -1.398 
 
 NAtoms=     33 NQM=       33 NQMF=       0 NMMI=      0 NMMIF=      0
                NMic=       0 NMicF=      0.
                    Isotopes and Nuclear Properties:
 (Nuclear quadrupole moments (NQMom) in fm**2, nuclear magnetic moments (NMagM)
  in nuclear magnetons)

  Atom         1           2           3           4           5           6           7           8           9          10
 IAtWgt=          16          32          14          12          14          16          12          12          12          12
 AtmWgt=  15.9949146  31.9720718  14.0030740  12.0000000  14.0030740  15.9949146  12.0000000  12.0000000  12.0000000  12.0000000
 NucSpn=           0           0           2           0           2           0           0           0           0           0
 AtZEff=   0.0000000   0.0000000   0.0000000   0.0000000   0.0000000   0.0000000   0.0000000   0.0000000   0.0000000   0.0000000
 NQMom=    0.0000000   0.0000000   2.0440000   0.0000000   2.0440000   0.0000000   0.0000000   0.0000000   0.0000000   0.0000000
 NMagM=    0.0000000   0.0000000   0.4037610   0.0000000   0.4037610   0.0000000   0.0000000   0.0000000   0.0000000   0.0000000
 AtZNuc=   8.0000000  16.0000000   7.0000000   6.0000000   7.0000000   8.0000000   6.0000000   6.0000000   6.0000000   6.0000000

  Atom        11          12          13          14          15          16          17          18          19          20
 IAtWgt=          12          12          12          12          12          12          12          12          12          12
 AtmWgt=  12.0000000  12.0000000  12.0000000  12.0000000  12.0000000  12.0000000  12.0000000  12.0000000  12.0000000  12.0000000
 NucSpn=           0           0           0           0           0           0           0           0           0           0
 AtZEff=   0.0000000   0.0000000   0.0000000   0.0000000   0.0000000   0.0000000   0.0000000   0.0000000   0.0000000   0.0000000
 NQMom=    0.0000000   0.0000000   0.0000000   0.0000000   0.0000000   0.0000000   0.0000000   0.0000000   0.0000000   0.0000000
 NMagM=    0.0000000   0.0000000   0.0000000   0.0000000   0.0000000   0.0000000   0.0000000   0.0000000   0.0000000   0.0000000
 AtZNuc=   6.0000000   6.0000000   6.0000000   6.0000000   6.0000000   6.0000000   6.0000000   6.0000000   6.0000000   6.0000000

  Atom        21          22          23          24          25          26          27          28          29          30
 IAtWgt=          16           1           1           1           1           1           1           1           1           1
 AtmWgt=  15.9949146   1.0078250   1.0078250   1.0078250   1.0078250   1.0078250   1.0078250   1.0078250   1.0078250   1.0078250
 NucSpn=           0           1           1           1           1           1           1           1           1           1
 AtZEff=   0.0000000   0.0000000   0.0000000   0.0000000   0.0000000   0.0000000   0.0000000   0.0000000   0.0000000   0.0000000
 NQMom=    0.0000000   0.0000000   0.0000000   0.0000000   0.0000000   0.0000000   0.0000000   0.0000000   0.0000000   0.0000000
 NMagM=    0.0000000   2.7928460   2.7928460   2.7928460   2.7928460   2.7928460   2.7928460   2.7928460   2.7928460   2.7928460
 AtZNuc=   8.0000000   1.0000000   1.0000000   1.0000000   1.0000000   1.0000000   1.0000000   1.0000000   1.0000000   1.0000000

  Atom        31          32          33
 IAtWgt=           1           1           1
 AtmWgt=   1.0078250   1.0078250   1.0078250
 NucSpn=           1           1           1
 AtZEff=   0.0000000   0.0000000   0.0000000
 NQMom=    0.0000000   0.0000000   0.0000000
 NMagM=    2.7928460   2.7928460   2.7928460
 AtZNuc=   1.0000000   1.0000000   1.0000000
 Leave Link  101 at Thu Aug  6 22:08:15 2020, MaxMem=    33554432 cpu:         0.1
 (Enter /prod/apps/gaussian/g09d1/l202.exe)
                          Input orientation:                          
 ---------------------------------------------------------------------
 Center     Atomic      Atomic             Coordinates (Angstroms)
 Number     Number       Type             X           Y           Z
 ---------------------------------------------------------------------
      1          8           0        3.726000    1.251000    1.120000
      2         16           0        3.509000    0.322000    0.011000
      3          7           0        2.914000    1.307000   -1.239000
      4          6           0        2.540000    0.779000   -2.479000
      5          7           0        2.874000    1.426000   -3.578000
      6          8           0        2.275000    0.699000   -4.612000
      7          6           0        1.620000   -0.372000   -4.099000
      8          6           0        0.939000   -1.252000   -5.041000
      9          6           0        0.255000   -2.388000   -4.580000
     10          6           0       -0.394000   -3.227000   -5.479000
     11          6           0       -0.368000   -2.945000   -6.847000
     12          6           0        0.311000   -1.817000   -7.312000
     13          6           0        0.962000   -0.974000   -6.416000
     14          6           0        1.749000   -0.371000   -2.737000
     15          6           0        5.094000   -0.309000   -0.510000
     16          6           0        6.241000    0.430000   -0.216000
     17          6           0        7.477000   -0.053000   -0.639000
     18          6           0        7.554000   -1.256000   -1.344000
     19          6           0        6.398000   -1.987000   -1.626000
     20          6           0        5.155000   -1.518000   -1.207000
     21          8           0        2.579000   -0.802000    0.115000
     22          1           0        3.419000    2.190000   -1.298000
     23          1           0        0.232000   -2.611000   -3.519000
     24          1           0       -0.920000   -4.102000   -5.113000
     25          1           0       -0.875000   -3.602000   -7.547000
     26          1           0        0.333000   -1.594000   -8.373000
     27          1           0        1.490000   -0.096000   -6.771000
     28          1           0        1.353000   -1.058000   -2.010000
     29          1           0        6.158000    1.353000    0.346000
     30          1           0        8.378000    0.505000   -0.413000
     31          1           0        8.519000   -1.628000   -1.670000
     32          1           0        6.464000   -2.925000   -2.165000
     33          1           0        4.249000   -2.079000   -1.398000
 ---------------------------------------------------------------------
                    Distance matrix (angstroms):
                    1          2          3          4          5
     1  O    0.000000
     2  S    1.462878   0.000000
     3  N    2.495468   1.699044   0.000000
     4  C    3.818662   2.710703   1.398664   0.000000
     5  N    4.777838   3.808275   2.342367   1.318319   0.000000
     6  O    5.938512   4.799689   3.486419   2.150887   1.398744
     7  C    5.857246   4.576249   3.559927   2.189886   2.253167
     8  C    7.210430   5.882608   4.990422   3.640330   3.613347
     9  C    7.601326   6.245790   5.646732   4.434559   4.733895
    10  C    8.976285   7.613732   7.034033   5.801413   5.995334
    11  C    9.891428   8.528574   7.765352   6.434599   6.348430
    12  C    9.600702   8.272173   7.308647   5.921617   5.570348
    13  C    8.329563   7.033716   5.984530   4.589451   4.179711
    14  C    4.627728   3.336068   2.533163   1.419417   2.280815
    15  C    2.638546   1.783768   2.809857   3.403472   4.165483
    16  C    2.963809   2.743541   3.589511   4.352054   4.861250
    17  C    4.343328   4.038335   4.799018   5.334022   5.657983
    18  C    5.197108   4.548421   5.301848   5.528982   5.838346
    19  C    5.016447   4.044449   4.810245   4.823124   5.279910
    20  C    3.889001   2.752897   3.606068   3.705728   4.414945
    21  O    2.557429   1.462564   2.528522   3.038078   4.323107
    22  H    2.612029   2.282763   1.018919   2.039197   2.465587
    23  H    6.974482   5.639337   5.267091   4.230906   4.825040
    24  H    9.438761   8.089697   7.678848   6.537103   6.878186
    25  H   10.947041   9.578131   8.845658   7.519309   7.422179
    26  H   10.474900   9.167851   8.122273   6.726159   6.210403
    27  H    8.311557   7.088484   5.882109   4.504374   3.798314
    28  H    4.556261   3.261469   2.936731   2.236850   3.307918
    29  H    2.554233   2.862235   3.610800   4.626016   5.117398
    30  H    4.954564   4.890851   5.583975   6.198845   6.415566
    31  H    6.248647   5.632793   6.341609   6.495889   6.695775
    32  H    5.977194   4.900001   5.600875   5.405182   5.815141
    33  H    4.207464   2.880570   3.643145   3.501058   4.350638
                    6          7          8          9         10
     6  O    0.000000
     7  C    1.356184   0.000000
     8  C    2.403193   1.457918   0.000000
     9  C    3.689308   2.481701   1.403878   0.000000
    10  C    4.825839   3.756544   2.422676   1.390440   0.000000
    11  C    5.025874   4.257226   2.799310   2.416126   1.397005
    12  C    4.180616   3.758307   2.423025   2.791595   2.417646
    13  C    2.788784   2.482712   1.403010   2.422837   2.791543
    14  C    2.221981   1.368096   2.596281   3.113996   4.501972
    15  C    5.078310   4.995354   6.219585   6.656055   7.957627
    16  C    5.926747   6.088886   7.363488   7.925769   9.224752
    17  C    6.588705   6.810126   7.972493   8.552251   9.769980
    18  C    6.509200   6.601806   7.577998   8.064026   9.173536
    19  C    5.755860   5.617227   6.480982   6.828130   7.906609
    20  C    4.980313   4.708843   5.704820   6.011990   7.208472
    21  O    4.968898   4.343084   5.429221   5.473518   6.783229
    22  H    3.809779   4.200696   5.657545   6.460689   7.833493
    23  H    4.040371   2.697418   2.159448   1.084426   2.147774
    24  H    5.788664   4.625224   3.403464   2.145346   1.084554
    25  H    6.085666   5.342905   3.884988   3.399086   2.156064
    26  H    4.813973   4.627821   3.403884   3.875999   3.401537
    27  H    2.430953   2.689361   2.152403   3.402789   3.875807
    28  H    3.272237   2.214905   3.065288   3.095061   4.448655
    29  H    6.331443   6.582332   7.940010   8.550203   9.891195
    30  H    7.410523   7.747663   8.935556   9.576871  10.795377
    31  H    7.284081   7.421171   8.304301   8.794282   9.823790
    32  H    6.055486   5.807108   6.449491   6.683732   7.622727
    33  H    4.684416   4.137740   4.991140   5.115920   6.287282
                   11         12         13         14         15
    11  C    0.000000
    12  C    1.396299   0.000000
    13  C    2.416506   1.391857   0.000000
    14  C    5.291433   5.008931   3.810252   0.000000
    15  C    8.771517   8.450938   7.238542   4.019005   0.000000
    16  C    9.951868   9.516676   8.263114   5.212975   1.395767
    17  C   10.413787   9.949481   8.755981   6.108413   2.400180
    18  C    9.792539   9.401744   8.322210   6.035039   2.764772
    19  C    8.599730   8.331330   7.315761   5.045689   2.400324
    20  C    8.021811   7.799023   6.709014   3.906065   1.396858
    21  O    7.857907   7.831627   6.730396   3.001427   2.637973
    22  H    8.455826   7.866633   6.499359   3.379104   3.109915
    23  H    3.398108   3.876019   3.406652   2.816099   6.163792
    24  H    2.156411   3.401792   3.876096   5.166169   8.470104
    25  H    1.085679   2.155933   3.400017   6.360883   9.797560
    26  H    2.155291   1.084405   2.147065   5.938458   9.281439
    27  H    3.402167   2.155125   1.084294   4.051649   7.227330
    28  H    5.469843   5.456469   4.424113   1.075785   4.099522
    29  H   10.620769  10.143041   8.839570   5.649455   2.151064
    30  H   11.392602  10.865743   9.655077   7.078982   3.384769
    31  H   10.368924   9.961885   8.947652   6.967886   3.849154
    32  H    8.282376   8.098067   7.221455   5.392710   3.385171
    33  H    7.194320   7.109985   6.099649   3.310617   2.153014
                   16         17         18         19         20
    16  C    0.000000
    17  C    1.392808   0.000000
    18  C    2.416392   1.396482   0.000000
    19  C    2.802613   2.424617   1.396503   0.000000
    20  C    2.440529   2.803664   2.417150   1.393044   0.000000
    21  O    3.877838   5.011978   5.204366   4.361200   2.982636
    22  H    3.497429   4.683235   5.382867   5.140949   4.095271
    23  H    7.501038   8.205351   7.757470   6.480153   5.547605
    24  H    9.787725  10.340246   9.701224   8.377680   7.670692
    25  H   10.983535  11.404901  10.725156   9.516459   8.994418
    26  H   10.273154  10.640779  10.082853   9.080786   8.637651
    27  H    8.112749   8.570148   8.220099   7.357674   6.812665
    28  H    5.415268   6.355552   6.239805   5.144174   3.913006
    29  H    1.083818   2.164907   3.407609   3.886127   3.414741
    30  H    2.147371   1.083624   2.155657   3.406146   3.887248
    31  H    3.396876   2.151592   1.084382   2.151618   3.397494
    32  H    3.886432   3.406351   2.155853   1.083845   2.147299
    33  H    3.414714   3.885967   3.406357   2.163018   1.082607
                   21         22         23         24         25
    21  O    0.000000
    22  H    3.413830   0.000000
    23  H    4.689013   6.175711   0.000000
    24  H    7.103871   8.542272   2.467999   0.000000
    25  H    8.858688   9.541263   4.293287   2.485233   0.000000
    26  H    8.815777   8.596376   4.960424   4.299729   2.484674
    27  H    7.007236   6.237032   4.299220   4.960353   4.299702
    28  H    2.466625   3.914691   2.438346   4.905209   6.488011
    29  H    4.184092   3.302336   8.109809  10.471666  11.675383
    30  H    5.967867   5.311698   9.258186  11.391543  12.384644
    31  H    6.257164   6.381654   8.547483  10.347446  11.255356
    32  H    4.979835   6.015558   6.385118   8.037381   9.126071
    33  H    2.590135   4.350087   4.573615   6.679245   8.147706
                   26         27         28         29         30
    26  H    0.000000
    27  H    2.479729   0.000000
    28  H    6.466488   4.859150   0.000000
    29  H   10.892034   8.633743   5.869556   0.000000
    30  H   11.510405   9.393078   7.371839   2.494711   0.000000
    31  H   10.580263   8.818961   7.196670   4.304061   2.479843
    32  H    8.826097   7.345689   5.443531   4.969914   4.300907
    33  H    8.013795   6.357161   3.131102   4.297027   4.969499
                   31         32         33
    31  H    0.000000
    32  H    2.479972   0.000000
    33  H    4.302358   2.492033   0.000000
 Stoichiometry    C15H12N2O3S
 Framework group  C1[X(C15H12N2O3S)]
 Deg. of freedom    93
 Full point group                 C1      NOp   1
 Largest Abelian subgroup         C1      NOp   1
 Largest concise Abelian subgroup C1      NOp   1
                         Standard orientation:                         
 ---------------------------------------------------------------------
 Center     Atomic      Atomic             Coordinates (Angstroms)
 Number     Number       Type             X           Y           Z
 ---------------------------------------------------------------------
      1          8           0        3.539410   -2.185566   -0.359521
      2         16           0        2.377733   -1.320297   -0.564038
      3          7           0        1.317622   -1.753099    0.691190
      4          6           0        0.053291   -1.169561    0.822381
      5          7           0       -0.374242   -0.829789    2.022271
      6          8           0       -1.681978   -0.378064    1.816708
      7          6           0       -1.986411   -0.442140    0.496689
      8          6           0       -3.316580    0.000306    0.096171
      9          6           0       -3.692719   -0.023969   -1.256161
     10          6           0       -4.961383    0.398438   -1.637459
     11          6           0       -5.869055    0.850961   -0.676742
     12          6           0       -5.500931    0.878097    0.669883
     13          6           0       -4.232205    0.456091    1.056551
     14          6           0       -0.916200   -0.946731   -0.190130
     15          6           0        2.880402    0.368268   -0.284935
     16          6           0        4.010465    0.612383    0.497071
     17          6           0        4.392469    1.931235    0.730768
     18          6           0        3.649774    2.981525    0.187208
     19          6           0        2.524441    2.721350   -0.597748
     20          6           0        2.131717    1.407409   -0.842489
     21          8           0        1.586342   -1.366573   -1.793123
     22          1           0        1.809462   -1.883174    1.574008
     23          1           0       -2.991586   -0.374450   -2.005531
     24          1           0       -5.242647    0.375572   -2.684658
     25          1           0       -6.858840    1.180845   -0.977076
     26          1           0       -6.202713    1.227883    1.418940
     27          1           0       -3.940975    0.473832    2.100851
     28          1           0       -0.807645   -1.144483   -1.241997
     29          1           0        4.580055   -0.219240    0.895358
     30          1           0        5.271306    2.138051    1.330030
     31          1           0        3.952299    4.006434    0.371395
     32          1           0        1.956964    3.539753   -1.025425
     33          1           0        1.274280    1.183592   -1.464378
 ---------------------------------------------------------------------
 Rotational constants (GHZ):      0.5606712      0.1452124      0.1350369
 Leave Link  202 at Thu Aug  6 22:08:15 2020, MaxMem=    33554432 cpu:         0.0
 (Enter /prod/apps/gaussian/g09d1/l301.exe)
 Standard basis: 6-31G(d) (6D, 7F)
 Ernie: Thresh=  0.10000D-02 Tol=  0.10000D-05 Strict=F.
 There are   343 symmetry adapted cartesian basis functions of A   symmetry.
 There are   343 symmetry adapted basis functions of A   symmetry.
   343 basis functions,   660 primitive gaussians,   343 cartesian basis functions
    78 alpha electrons       78 beta electrons
       nuclear repulsion energy      1721.7665728040 Hartrees.
 IExCor=  402 DFT=T Ex+Corr=B3LYP ExCW=0 ScaHFX=  0.200000
 ScaDFX=  0.800000  0.720000  1.000000  0.810000 ScalE2=  1.000000  1.000000
 IRadAn=      0 IRanWt=     -1 IRanGd=            0 ICorTp=0 IEmpDi=  4
 NAtoms=   33 NActive=   33 NUniq=   33 SFac= 1.00D+00 NAtFMM=   60 NAOKFM=F Big=F
 Integral buffers will be    131072 words long.
 Raffenetti 2 integral format.
 Two-electron integral symmetry is turned on.
 Leave Link  301 at Thu Aug  6 22:08:15 2020, MaxMem=    33554432 cpu:         0.0
 (Enter /prod/apps/gaussian/g09d1/l302.exe)
 NPDir=0 NMtPBC=     1 NCelOv=     1 NCel=       1 NClECP=     1 NCelD=      1
         NCelK=      1 NCelE2=     1 NClLst=     1 CellRange=     0.0.
 One-electron integrals computed using PRISM.
 NBasis=   343 RedAO= T EigKep=  4.55D-04  NBF=   343
 NBsUse=   343 1.00D-06 EigRej= -1.00D+00 NBFU=   343
 Precomputing XC quadrature grid using
 IXCGrd= 4 IRadAn=           0 IRanWt=          -1 IRanGd=           0 AccXCQ= 0.00D+00.
 Generated NRdTot=       0 NPtTot=           0 NUsed=           0 NTot=          32
 NSgBfM=   336   336   338   338   338 MxSgAt=    33 MxSgA2=    33.
 Leave Link  302 at Thu Aug  6 22:08:16 2020, MaxMem=    33554432 cpu:         1.2
 (Enter /prod/apps/gaussian/g09d1/l303.exe)
 DipDrv:  MaxL=1.
 Leave Link  303 at Thu Aug  6 22:08:17 2020, MaxMem=    33554432 cpu:         0.0
 (Enter /prod/apps/gaussian/g09d1/l401.exe)
 ExpMin= 1.17D-01 ExpMax= 2.19D+04 ExpMxC= 3.30D+03 IAcc=1 IRadAn=         1 AccDes= 0.00D+00
 Harris functional with IExCor=  402 and IRadAn=       1 diagonalized for initial guess.
 HarFok:  IExCor=  402 AccDes= 0.00D+00 IRadAn=         1 IDoV= 1 UseB2=F ITyADJ=14
 ICtDFT=  3500011 ScaDFX=  1.000000  1.000000  1.000000  1.000000
 FoFCou: FMM=F IPFlag=           0 FMFlag=      100000 FMFlg1=           0
         NFxFlg=           0 DoJE=T BraDBF=F KetDBF=T FulRan=T
         wScrn=  0.000000 ICntrl=     500 IOpCl=  0 I1Cent=   200000004 NGrid=           0
         NMat0=    1 NMatS0=      1 NMatT0=    0 NMatD0=    1 NMtDS0=    0 NMtDT0=    0
 Petite list used in FoFCou.
 Harris En= -1312.10678217249    
 JPrj=0 DoOrth=F DoCkMO=F.
 Leave Link  401 at Thu Aug  6 22:08:20 2020, MaxMem=    33554432 cpu:         3.4
 (Enter /prod/apps/gaussian/g09d1/l502.exe)
 Closed shell SCF:
 Using DIIS extrapolation, IDIIS=  1040.
 Integral symmetry usage will be decided dynamically.
 IVT=      376131 IEndB=      376131 NGot=    33554432 MDV=    33312934
 LenX=    33312934 LenY=    33194844
 Requested convergence on RMS density matrix=1.00D-08 within 128 cycles.
 Requested convergence on MAX density matrix=1.00D-06.
 Requested convergence on             energy=1.00D-06.
 No special actions if energy rises.
 Fock matrices will be formed incrementally for  20 cycles.
 Integral accuracy reduced to 1.0D-05 until final iterations.

 Cycle   1  Pass 0  IDiag  1:
 FoFJK:  IHMeth= 1 ICntrl=       0 DoSepK=F KAlg= 0 I1Cent=   0 FoldK=F
 IRaf= 700000000 NMat=   1 IRICut=       1 DoRegI=T DoRafI=F ISym2E= 0.
 FoFCou: FMM=F IPFlag=           0 FMFlag=      100000 FMFlg1=           0
         NFxFlg=           0 DoJE=F BraDBF=F KetDBF=F FulRan=T
         wScrn=  0.000000 ICntrl=       0 IOpCl=  0 I1Cent=           0 NGrid=           0
         NMat0=    1 NMatS0=      1 NMatT0=    0 NMatD0=    1 NMtDS0=    0 NMtDT0=    0
 Symmetry not used in FoFCou.
 E= -1311.48060034219    
 DIIS: error= 2.49D-02 at cycle   1 NSaved=   1.
 NSaved= 1 IEnMin= 1 EnMin= -1311.48060034219     IErMin= 1 ErrMin= 2.49D-02
 ErrMax= 2.49D-02  0.00D+00 EMaxC= 1.00D-01 BMatC= 6.61D-01 BMatP= 6.61D-01
 IDIUse=3 WtCom= 7.51D-01 WtEn= 2.49D-01
 Coeff-Com:  0.100D+01
 Coeff-En:   0.100D+01
 Coeff:      0.100D+01
 Gap=     0.282 Goal=   None    Shift=    0.000
 GapD=    0.282 DampG=1.000 DampE=0.500 DampFc=0.5000 IDamp=-1.
 Damping current iteration by 5.00D-01
 RMSDP=6.27D-03 MaxDP=5.91D-01              OVMax= 2.46D-01

 Cycle   2  Pass 0  IDiag  1:
 RMSU=  3.12D-03    CP:  9.89D-01
 E= -1311.60957627655     Delta-E=       -0.128975934358 Rises=F Damp=T
 DIIS: error= 1.18D-02 at cycle   2 NSaved=   2.
 NSaved= 2 IEnMin= 2 EnMin= -1311.60957627655     IErMin= 2 ErrMin= 1.18D-02
 ErrMax= 1.18D-02  0.00D+00 EMaxC= 1.00D-01 BMatC= 1.22D-01 BMatP= 6.61D-01
 IDIUse=3 WtCom= 8.82D-01 WtEn= 1.18D-01
 Coeff-Com:  0.244D+00 0.756D+00
 Coeff-En:   0.386D+00 0.614D+00
 Coeff:      0.260D+00 0.740D+00
 Gap=     0.230 Goal=   None    Shift=    0.000
 RMSDP=2.06D-03 MaxDP=1.50D-01 DE=-1.29D-01 OVMax= 2.20D-01

 Cycle   3  Pass 0  IDiag  1:
 RMSU=  1.68D-03    CP:  9.74D-01  6.33D-01
 E= -1312.00388346793     Delta-E=       -0.394307191381 Rises=F Damp=F
 DIIS: error= 9.63D-03 at cycle   3 NSaved=   3.
 NSaved= 3 IEnMin= 3 EnMin= -1312.00388346793     IErMin= 3 ErrMin= 9.63D-03
 ErrMax= 9.63D-03  0.00D+00 EMaxC= 1.00D-01 BMatC= 7.42D-02 BMatP= 1.22D-01
 IDIUse=3 WtCom= 9.04D-01 WtEn= 9.63D-02
 Coeff-Com:  0.714D-01 0.436D+00 0.493D+00
 Coeff-En:   0.000D+00 0.000D+00 0.100D+01
 Coeff:      0.645D-01 0.394D+00 0.542D+00
 Gap=     0.185 Goal=   None    Shift=    0.000
 RMSDP=1.16D-03 MaxDP=5.22D-02 DE=-3.94D-01 OVMax= 6.98D-02

 Cycle   4  Pass 0  IDiag  1:
 RMSU=  7.32D-04    CP:  9.81D-01  7.38D-01  5.10D-01
 E= -1312.06068441843     Delta-E=       -0.056800950505 Rises=F Damp=F
 DIIS: error= 3.91D-03 at cycle   4 NSaved=   4.
 NSaved= 4 IEnMin= 4 EnMin= -1312.06068441843     IErMin= 4 ErrMin= 3.91D-03
 ErrMax= 3.91D-03  0.00D+00 EMaxC= 1.00D-01 BMatC= 1.25D-02 BMatP= 7.42D-02
 IDIUse=3 WtCom= 9.61D-01 WtEn= 3.91D-02
 Coeff-Com:  0.725D-02 0.111D+00 0.312D+00 0.570D+00
 Coeff-En:   0.000D+00 0.000D+00 0.155D+00 0.845D+00
 Coeff:      0.697D-02 0.106D+00 0.306D+00 0.580D+00
 Gap=     0.184 Goal=   None    Shift=    0.000
 RMSDP=4.14D-04 MaxDP=1.95D-02 DE=-5.68D-02 OVMax= 3.22D-02

 Cycle   5  Pass 0  IDiag  1:
 RMSU=  2.31D-04    CP:  9.80D-01  7.19D-01  6.31D-01  6.30D-01
 E= -1312.07071678152     Delta-E=       -0.010032363091 Rises=F Damp=F
 DIIS: error= 1.55D-03 at cycle   5 NSaved=   5.
 NSaved= 5 IEnMin= 5 EnMin= -1312.07071678152     IErMin= 5 ErrMin= 1.55D-03
 ErrMax= 1.55D-03  0.00D+00 EMaxC= 1.00D-01 BMatC= 1.66D-03 BMatP= 1.25D-02
 IDIUse=3 WtCom= 9.85D-01 WtEn= 1.55D-02
 Coeff-Com: -0.254D-02 0.294D-01 0.142D+00 0.361D+00 0.471D+00
 Coeff-En:   0.000D+00 0.000D+00 0.000D+00 0.900D-01 0.910D+00
 Coeff:     -0.250D-02 0.290D-01 0.140D+00 0.356D+00 0.477D+00
 Gap=     0.181 Goal=   None    Shift=    0.000
 RMSDP=1.54D-04 MaxDP=8.38D-03 DE=-1.00D-02 OVMax= 1.40D-02

 Cycle   6  Pass 0  IDiag  1:
 RMSU=  8.50D-05    CP:  9.80D-01  7.24D-01  6.28D-01  6.78D-01  4.67D-01
 E= -1312.07212576823     Delta-E=       -0.001408986712 Rises=F Damp=F
 DIIS: error= 7.76D-04 at cycle   6 NSaved=   6.
 NSaved= 6 IEnMin= 6 EnMin= -1312.07212576823     IErMin= 6 ErrMin= 7.76D-04
 ErrMax= 7.76D-04  0.00D+00 EMaxC= 1.00D-01 BMatC= 2.25D-04 BMatP= 1.66D-03
 IDIUse=3 WtCom= 9.92D-01 WtEn= 7.76D-03
 Coeff-Com: -0.240D-02 0.571D-02 0.472D-01 0.146D+00 0.308D+00 0.496D+00
 Coeff-En:   0.000D+00 0.000D+00 0.000D+00 0.000D+00 0.115D+00 0.885D+00
 Coeff:     -0.238D-02 0.567D-02 0.468D-01 0.145D+00 0.307D+00 0.499D+00
 Gap=     0.181 Goal=   None    Shift=    0.000
 RMSDP=5.10D-05 MaxDP=2.81D-03 DE=-1.41D-03 OVMax= 4.44D-03

 Cycle   7  Pass 0  IDiag  1:
 RMSU=  2.64D-05    CP:  9.80D-01  7.24D-01  6.30D-01  6.82D-01  5.57D-01
                    CP:  5.54D-01
 E= -1312.07232188954     Delta-E=       -0.000196121305 Rises=F Damp=F
 DIIS: error= 1.81D-04 at cycle   7 NSaved=   7.
 NSaved= 7 IEnMin= 7 EnMin= -1312.07232188954     IErMin= 7 ErrMin= 1.81D-04
 ErrMax= 1.81D-04  0.00D+00 EMaxC= 1.00D-01 BMatC= 1.48D-05 BMatP= 2.25D-04
 IDIUse=3 WtCom= 9.98D-01 WtEn= 1.81D-03
 Coeff-Com: -0.123D-02 0.772D-03 0.158D-01 0.550D-01 0.140D+00 0.293D+00
 Coeff-Com:  0.497D+00
 Coeff-En:   0.000D+00 0.000D+00 0.000D+00 0.000D+00 0.000D+00 0.000D+00
 Coeff-En:   0.100D+01
 Coeff:     -0.123D-02 0.771D-03 0.158D-01 0.549D-01 0.139D+00 0.293D+00
 Coeff:      0.498D+00
 Gap=     0.181 Goal=   None    Shift=    0.000
 RMSDP=1.35D-05 MaxDP=5.37D-04 DE=-1.96D-04 OVMax= 1.07D-03

 Cycle   8  Pass 0  IDiag  1:
 RMSU=  8.67D-06    CP:  9.80D-01  7.24D-01  6.31D-01  6.84D-01  5.60D-01
                    CP:  5.81D-01  6.25D-01
 E= -1312.07233435260     Delta-E=       -0.000012463059 Rises=F Damp=F
 DIIS: error= 5.01D-05 at cycle   8 NSaved=   8.
 NSaved= 8 IEnMin= 8 EnMin= -1312.07233435260     IErMin= 8 ErrMin= 5.01D-05
 ErrMax= 5.01D-05  0.00D+00 EMaxC= 1.00D-01 BMatC= 1.45D-06 BMatP= 1.48D-05
 IDIUse=1 WtCom= 1.00D+00 WtEn= 0.00D+00
 Coeff-Com: -0.443D-03-0.234D-03 0.350D-02 0.148D-01 0.452D-01 0.117D+00
 Coeff-Com:  0.288D+00 0.532D+00
 Coeff:     -0.443D-03-0.234D-03 0.350D-02 0.148D-01 0.452D-01 0.117D+00
 Coeff:      0.288D+00 0.532D+00
 Gap=     0.181 Goal=   None    Shift=    0.000
 RMSDP=4.91D-06 MaxDP=1.90D-04 DE=-1.25D-05 OVMax= 4.37D-04

 Initial convergence to 1.0D-05 achieved.  Increase integral accuracy.
 Cycle   9  Pass 1  IDiag  1:
 E= -1312.07236997508     Delta-E=       -0.000035622482 Rises=F Damp=F
 DIIS: error= 5.22D-05 at cycle   1 NSaved=   1.
 NSaved= 1 IEnMin= 1 EnMin= -1312.07236997508     IErMin= 1 ErrMin= 5.22D-05
 ErrMax= 5.22D-05  0.00D+00 EMaxC= 1.00D-01 BMatC= 7.81D-07 BMatP= 7.81D-07
 IDIUse=1 WtCom= 1.00D+00 WtEn= 0.00D+00
 Coeff-Com:  0.100D+01
 Coeff:      0.100D+01
 Gap=     0.181 Goal=   None    Shift=    0.000
 RMSDP=4.91D-06 MaxDP=1.90D-04 DE=-3.56D-05 OVMax= 2.47D-04

 Cycle  10  Pass 1  IDiag  1:
 RMSU=  3.15D-05    CP:  1.00D+00
 E= -1312.07237017957     Delta-E=       -0.000000204486 Rises=F Damp=F
 DIIS: error= 3.27D-05 at cycle   2 NSaved=   2.
 NSaved= 2 IEnMin= 2 EnMin= -1312.07237017957     IErMin= 2 ErrMin= 3.27D-05
 ErrMax= 3.27D-05  0.00D+00 EMaxC= 1.00D-01 BMatC= 6.33D-07 BMatP= 7.81D-07
 IDIUse=1 WtCom= 1.00D+00 WtEn= 0.00D+00
 Coeff-Com:  0.463D+00 0.537D+00
 Coeff:      0.463D+00 0.537D+00
 Gap=     0.181 Goal=   None    Shift=    0.000
 RMSDP=3.97D-06 MaxDP=1.62D-04 DE=-2.04D-07 OVMax= 2.49D-04

 Cycle  11  Pass 1  IDiag  1:
 RMSU=  3.96D-06    CP:  1.00D+00  9.92D-01
 E= -1312.07237044768     Delta-E=       -0.000000268109 Rises=F Damp=F
 DIIS: error= 2.39D-05 at cycle   3 NSaved=   3.
 NSaved= 3 IEnMin= 3 EnMin= -1312.07237044768     IErMin= 3 ErrMin= 2.39D-05
 ErrMax= 2.39D-05  0.00D+00 EMaxC= 1.00D-01 BMatC= 3.41D-07 BMatP= 6.33D-07
 IDIUse=1 WtCom= 1.00D+00 WtEn= 0.00D+00
 Coeff-Com:  0.102D-01 0.421D+00 0.569D+00
 Coeff:      0.102D-01 0.421D+00 0.569D+00
 Gap=     0.181 Goal=   None    Shift=    0.000
 RMSDP=1.84D-06 MaxDP=7.50D-05 DE=-2.68D-07 OVMax= 1.25D-04

 Cycle  12  Pass 1  IDiag  1:
 RMSU=  6.39D-07    CP:  1.00D+00  1.00D+00  5.75D-01
 E= -1312.07237074179     Delta-E=       -0.000000294111 Rises=F Damp=F
 DIIS: error= 4.79D-06 at cycle   4 NSaved=   4.
 NSaved= 4 IEnMin= 4 EnMin= -1312.07237074179     IErMin= 4 ErrMin= 4.79D-06
 ErrMax= 4.79D-06  0.00D+00 EMaxC= 1.00D-01 BMatC= 1.21D-08 BMatP= 3.41D-07
 IDIUse=1 WtCom= 1.00D+00 WtEn= 0.00D+00
 Coeff-Com: -0.470D-02 0.247D+00 0.353D+00 0.404D+00
 Coeff:     -0.470D-02 0.247D+00 0.353D+00 0.404D+00
 Gap=     0.181 Goal=   None    Shift=    0.000
 RMSDP=3.77D-07 MaxDP=1.20D-05 DE=-2.94D-07 OVMax= 2.94D-05

 Cycle  13  Pass 1  IDiag  1:
 RMSU=  1.71D-07    CP:  1.00D+00  1.00D+00  5.84D-01  4.77D-01
 E= -1312.07237075281     Delta-E=       -0.000000011024 Rises=F Damp=F
 DIIS: error= 9.19D-07 at cycle   5 NSaved=   5.
 NSaved= 5 IEnMin= 5 EnMin= -1312.07237075281     IErMin= 5 ErrMin= 9.19D-07
 ErrMax= 9.19D-07  0.00D+00 EMaxC= 1.00D-01 BMatC= 5.30D-10 BMatP= 1.21D-08
 IDIUse=1 WtCom= 1.00D+00 WtEn= 0.00D+00
 Coeff-Com: -0.355D-02 0.117D+00 0.171D+00 0.235D+00 0.480D+00
 Coeff:     -0.355D-02 0.117D+00 0.171D+00 0.235D+00 0.480D+00
 Gap=     0.181 Goal=   None    Shift=    0.000
 RMSDP=8.42D-08 MaxDP=3.15D-06 DE=-1.10D-08 OVMax= 7.30D-06

 Cycle  14  Pass 1  IDiag  1:
 RMSU=  6.14D-08    CP:  1.00D+00  1.00D+00  5.86D-01  5.00D-01  6.80D-01
 E= -1312.07237075336     Delta-E=       -0.000000000553 Rises=F Damp=F
 DIIS: error= 2.30D-07 at cycle   6 NSaved=   6.
 NSaved= 6 IEnMin= 6 EnMin= -1312.07237075336     IErMin= 6 ErrMin= 2.30D-07
 ErrMax= 2.30D-07  0.00D+00 EMaxC= 1.00D-01 BMatC= 3.00D-11 BMatP= 5.30D-10
 IDIUse=1 WtCom= 1.00D+00 WtEn= 0.00D+00
 Coeff-Com: -0.141D-02 0.400D-01 0.586D-01 0.873D-01 0.250D+00 0.566D+00
 Coeff:     -0.141D-02 0.400D-01 0.586D-01 0.873D-01 0.250D+00 0.566D+00
 Gap=     0.181 Goal=   None    Shift=    0.000
 RMSDP=2.43D-08 MaxDP=9.12D-07 DE=-5.53D-10 OVMax= 1.96D-06

 Cycle  15  Pass 1  IDiag  1:
 RMSU=  2.01D-08    CP:  1.00D+00  1.00D+00  5.86D-01  4.97D-01  7.28D-01
                    CP:  8.26D-01
 E= -1312.07237075329     Delta-E=        0.000000000075 Rises=F Damp=F
 DIIS: error= 1.23D-07 at cycle   7 NSaved=   7.
 NSaved= 7 IEnMin= 6 EnMin= -1312.07237075336     IErMin= 7 ErrMin= 1.23D-07
 ErrMax= 1.23D-07  0.00D+00 EMaxC= 1.00D-01 BMatC= 1.07D-11 BMatP= 3.00D-11
 IDIUse=1 WtCom= 1.00D+00 WtEn= 0.00D+00
 Coeff-Com: -0.246D-03 0.344D-02 0.521D-02 0.117D-01 0.753D-01 0.400D+00
 Coeff-Com:  0.504D+00
 Coeff:     -0.246D-03 0.344D-02 0.521D-02 0.117D-01 0.753D-01 0.400D+00
 Coeff:      0.504D+00
 Gap=     0.181 Goal=   None    Shift=    0.000
 RMSDP=1.10D-08 MaxDP=6.27D-07 DE= 7.55D-11 OVMax= 7.54D-07

 Cycle  16  Pass 1  IDiag  1:
 RMSU=  5.37D-09    CP:  1.00D+00  1.00D+00  5.86D-01  5.00D-01  7.39D-01
                    CP:  8.66D-01  5.58D-01
 E= -1312.07237075331     Delta-E=       -0.000000000020 Rises=F Damp=F
 DIIS: error= 2.69D-08 at cycle   8 NSaved=   8.
 NSaved= 8 IEnMin= 6 EnMin= -1312.07237075336     IErMin= 8 ErrMin= 2.69D-08
 ErrMax= 2.69D-08  0.00D+00 EMaxC= 1.00D-01 BMatC= 5.69D-13 BMatP= 1.07D-11
 IDIUse=1 WtCom= 1.00D+00 WtEn= 0.00D+00
 Coeff-Com:  0.556D-05-0.198D-02-0.284D-02-0.188D-02 0.168D-01 0.166D+00
 Coeff-Com:  0.273D+00 0.551D+00
 Coeff:      0.556D-05-0.198D-02-0.284D-02-0.188D-02 0.168D-01 0.166D+00
 Coeff:      0.273D+00 0.551D+00
 Gap=     0.181 Goal=   None    Shift=    0.000
 RMSDP=2.65D-09 MaxDP=1.90D-07 DE=-2.05D-11 OVMax= 1.51D-07

 SCF Done:  E(RB3LYP) =  -1312.07237075     A.U. after   16 cycles
            NFock= 16  Conv=0.27D-08     -V/T= 2.0077
 KE= 1.302109591218D+03 PE=-6.514260255123D+03 EE= 2.178311720348D+03
 Leave Link  502 at Thu Aug  6 22:13:15 2020, MaxMem=    33554432 cpu:       294.8
 (Enter /prod/apps/gaussian/g09d1/l601.exe)
 Copying SCF densities to generalized density rwf, IOpCl= 0 IROHF=0.

 **********************************************************************

            Population analysis using the SCF density.

 **********************************************************************

 Orbital symmetries:
       Occupied  (A) (A) (A) (A) (A) (A) (A) (A) (A) (A) (A) (A)
                 (A) (A) (A) (A) (A) (A) (A) (A) (A) (A) (A) (A)
                 (A) (A) (A) (A) (A) (A) (A) (A) (A) (A) (A) (A)
                 (A) (A) (A) (A) (A) (A) (A) (A) (A) (A) (A) (A)
                 (A) (A) (A) (A) (A) (A) (A) (A) (A) (A) (A) (A)
                 (A) (A) (A) (A) (A) (A) (A) (A) (A) (A) (A) (A)
                 (A) (A) (A) (A) (A) (A)
       Virtual   (A) (A) (A) (A) (A) (A) (A) (A) (A) (A) (A) (A)
                 (A) (A) (A) (A) (A) (A) (A) (A) (A) (A) (A) (A)
                 (A) (A) (A) (A) (A) (A) (A) (A) (A) (A) (A) (A)
                 (A) (A) (A) (A) (A) (A) (A) (A) (A) (A) (A) (A)
                 (A) (A) (A) (A) (A) (A) (A) (A) (A) (A) (A) (A)
                 (A) (A) (A) (A) (A) (A) (A) (A) (A) (A) (A) (A)
                 (A) (A) (A) (A) (A) (A) (A) (A) (A) (A) (A) (A)
                 (A) (A) (A) (A) (A) (A) (A) (A) (A) (A) (A) (A)
                 (A) (A) (A) (A) (A) (A) (A) (A) (A) (A) (A) (A)
                 (A) (A) (A) (A) (A) (A) (A) (A) (A) (A) (A) (A)
                 (A) (A) (A) (A) (A) (A) (A) (A) (A) (A) (A) (A)
                 (A) (A) (A) (A) (A) (A) (A) (A) (A) (A) (A) (A)
                 (A) (A) (A) (A) (A) (A) (A) (A) (A) (A) (A) (A)
                 (A) (A) (A) (A) (A) (A) (A) (A) (A) (A) (A) (A)
                 (A) (A) (A) (A) (A) (A) (A) (A) (A) (A) (A) (A)
                 (A) (A) (A) (A) (A) (A) (A) (A) (A) (A) (A) (A)
                 (A) (A) (A) (A) (A) (A) (A) (A) (A) (A) (A) (A)
                 (A) (A) (A) (A) (A) (A) (A) (A) (A) (A) (A) (A)
                 (A) (A) (A) (A) (A) (A) (A) (A) (A) (A) (A) (A)
                 (A) (A) (A) (A) (A) (A) (A) (A) (A) (A) (A) (A)
                 (A) (A) (A) (A) (A) (A) (A) (A) (A) (A) (A) (A)
                 (A) (A) (A) (A) (A) (A) (A) (A) (A) (A) (A) (A)
                 (A)
 The electronic state is 1-A.
 Alpha  occ. eigenvalues --  -89.12558 -19.23782 -19.15405 -19.15237 -14.39175
 Alpha  occ. eigenvalues --  -14.38061 -10.27250 -10.26779 -10.23907 -10.22237
 Alpha  occ. eigenvalues --  -10.22234 -10.21855 -10.21845 -10.21659 -10.21649
 Alpha  occ. eigenvalues --  -10.20673 -10.20398 -10.20331 -10.20317 -10.20222
 Alpha  occ. eigenvalues --  -10.20046  -8.15056  -6.11583  -6.11461  -6.11348
 Alpha  occ. eigenvalues --   -1.14415  -1.12309  -1.01325  -0.96321  -0.88526
 Alpha  occ. eigenvalues --   -0.87659  -0.85139  -0.81028  -0.78789  -0.77425
 Alpha  occ. eigenvalues --   -0.75897  -0.75489  -0.69056  -0.64963  -0.63755
 Alpha  occ. eigenvalues --   -0.63363  -0.61678  -0.59961  -0.59353  -0.56382
 Alpha  occ. eigenvalues --   -0.55078  -0.52330  -0.50433  -0.49432  -0.48869
 Alpha  occ. eigenvalues --   -0.48127  -0.47544  -0.46776  -0.46694  -0.45362
 Alpha  occ. eigenvalues --   -0.44997  -0.44448  -0.43604  -0.42790  -0.40332
 Alpha  occ. eigenvalues --   -0.39371  -0.39279  -0.38422  -0.37310  -0.36774
 Alpha  occ. eigenvalues --   -0.36424  -0.35528  -0.34672  -0.32753  -0.32039
 Alpha  occ. eigenvalues --   -0.31464  -0.31345  -0.29951  -0.28379  -0.27767
 Alpha  occ. eigenvalues --   -0.26487  -0.25953  -0.23492
 Alpha virt. eigenvalues --   -0.05388  -0.04733  -0.02699  -0.01276   0.01804
 Alpha virt. eigenvalues --    0.04644   0.06618   0.07015   0.08390   0.09018
 Alpha virt. eigenvalues --    0.09749   0.10654   0.11727   0.12164   0.12991
 Alpha virt. eigenvalues --    0.13393   0.14332   0.14813   0.15787   0.16236
 Alpha virt. eigenvalues --    0.16626   0.17252   0.17385   0.18359   0.18572
 Alpha virt. eigenvalues --    0.23303   0.23942   0.25802   0.26374   0.27909
 Alpha virt. eigenvalues --    0.28167   0.29275   0.29499   0.30896   0.31604
 Alpha virt. eigenvalues --    0.32805   0.34310   0.35784   0.37168   0.39097
 Alpha virt. eigenvalues --    0.41648   0.43776   0.44092   0.46793   0.48450
 Alpha virt. eigenvalues --    0.49764   0.50877   0.51043   0.51763   0.53048
 Alpha virt. eigenvalues --    0.53189   0.54146   0.55391   0.55967   0.56335
 Alpha virt. eigenvalues --    0.56523   0.56858   0.57604   0.57948   0.58179
 Alpha virt. eigenvalues --    0.58538   0.58877   0.59333   0.60032   0.60237
 Alpha virt. eigenvalues --    0.60841   0.61154   0.61805   0.62406   0.63192
 Alpha virt. eigenvalues --    0.63849   0.64408   0.66012   0.67313   0.69196
 Alpha virt. eigenvalues --    0.69799   0.69927   0.73642   0.74870   0.75396
 Alpha virt. eigenvalues --    0.75732   0.77622   0.78399   0.79723   0.81000
 Alpha virt. eigenvalues --    0.81311   0.81888   0.82113   0.82683   0.82863
 Alpha virt. eigenvalues --    0.83536   0.83915   0.84221   0.86175   0.87096
 Alpha virt. eigenvalues --    0.87753   0.88738   0.89476   0.89585   0.90437
 Alpha virt. eigenvalues --    0.91216   0.92026   0.92217   0.93112   0.94616
 Alpha virt. eigenvalues --    0.97221   0.98098   0.98199   1.00188   1.01597
 Alpha virt. eigenvalues --    1.03130   1.04100   1.06405   1.07058   1.09418
 Alpha virt. eigenvalues --    1.09729   1.10479   1.12762   1.13961   1.15098
 Alpha virt. eigenvalues --    1.15569   1.16189   1.17162   1.17776   1.19336
 Alpha virt. eigenvalues --    1.21849   1.22799   1.23843   1.24244   1.25048
 Alpha virt. eigenvalues --    1.28001   1.28818   1.31212   1.32331   1.35484
 Alpha virt. eigenvalues --    1.35677   1.36705   1.40069   1.40844   1.41419
 Alpha virt. eigenvalues --    1.41935   1.42228   1.43538   1.44991   1.45576
 Alpha virt. eigenvalues --    1.46669   1.46937   1.47910   1.48072   1.48821
 Alpha virt. eigenvalues --    1.49762   1.52117   1.53968   1.55189   1.56175
 Alpha virt. eigenvalues --    1.60854   1.65427   1.69470   1.73180   1.75422
 Alpha virt. eigenvalues --    1.76157   1.77312   1.78724   1.79119   1.80536
 Alpha virt. eigenvalues --    1.81461   1.82733   1.84406   1.85305   1.86103
 Alpha virt. eigenvalues --    1.87143   1.88617   1.89399   1.90551   1.92015
 Alpha virt. eigenvalues --    1.94397   1.95347   1.96063   1.96569   1.97092
 Alpha virt. eigenvalues --    1.98927   2.01765   2.03133   2.04298   2.05886
 Alpha virt. eigenvalues --    2.07980   2.10279   2.10980   2.11796   2.12189
 Alpha virt. eigenvalues --    2.12661   2.13058   2.13186   2.13474   2.14163
 Alpha virt. eigenvalues --    2.14658   2.17099   2.18863   2.20727   2.22477
 Alpha virt. eigenvalues --    2.24942   2.27105   2.27687   2.28511   2.29144
 Alpha virt. eigenvalues --    2.29770   2.30394   2.32099   2.32534   2.33817
 Alpha virt. eigenvalues --    2.43766   2.50777   2.52298   2.53099   2.54374
 Alpha virt. eigenvalues --    2.56600   2.56990   2.57824   2.59618   2.62058
 Alpha virt. eigenvalues --    2.62389   2.64692   2.66000   2.66635   2.69158
 Alpha virt. eigenvalues --    2.69434   2.72025   2.72487   2.73731   2.74296
 Alpha virt. eigenvalues --    2.74580   2.76763   2.77498   2.81053   2.85751
 Alpha virt. eigenvalues --    2.90194   2.90720   3.00956   3.01315   3.05513
 Alpha virt. eigenvalues --    3.13812   3.27172   3.36236   3.42700   3.77954
 Alpha virt. eigenvalues --    3.79123   3.97950   4.03688   4.05753   4.07150
 Alpha virt. eigenvalues --    4.08090   4.09004   4.09547   4.10528   4.13356
 Alpha virt. eigenvalues --    4.17531   4.24514   4.30517   4.31160   4.34032
 Alpha virt. eigenvalues --    4.38029   4.40136   4.55145   4.64588   4.73985
          Condensed to atoms (all electrons):
               1          2          3          4          5          6
     1  O    8.208204   0.451570  -0.053354   0.001474  -0.000010   0.000000
     2  S    0.451570  13.709459   0.116642  -0.014842  -0.003581   0.000154
     3  N   -0.053354   0.116642   7.418013   0.231183  -0.079606   0.005739
     4  C    0.001474  -0.014842   0.231183   4.546948   0.426703  -0.041493
     5  N   -0.000010  -0.003581  -0.079606   0.426703   6.871687   0.135008
     6  O    0.000000   0.000154   0.005739  -0.041493   0.135008   8.172324
     7  C   -0.000001   0.000110  -0.001018  -0.019763  -0.082481   0.249040
     8  C    0.000000  -0.000021  -0.000195   0.004009   0.004776  -0.037482
     9  C    0.000000  -0.000001   0.000002   0.000590  -0.000110   0.003172
    10  C    0.000000   0.000000   0.000000  -0.000007   0.000001  -0.000061
    11  C    0.000000   0.000000   0.000000   0.000000   0.000000   0.000001
    12  C    0.000000   0.000000   0.000000   0.000005   0.000001   0.000309
    13  C    0.000000   0.000000  -0.000001  -0.000397   0.000190  -0.006664
    14  C   -0.000035  -0.000598  -0.054789   0.437845  -0.048194  -0.091431
    15  C   -0.059840   0.175760  -0.061813   0.001373   0.000022   0.000003
    16  C    0.002872  -0.022455  -0.001641   0.000075   0.000030   0.000000
    17  C    0.000539   0.003132  -0.000112  -0.000018   0.000002   0.000000
    18  C   -0.000006  -0.000291   0.000005   0.000001  -0.000001   0.000000
    19  C   -0.000039   0.002479  -0.000109   0.000047   0.000003   0.000000
    20  C    0.001446  -0.022933  -0.002583   0.001393   0.000087  -0.000014
    21  O   -0.039494   0.410577  -0.050854  -0.002876   0.000113   0.000000
    22  H    0.001226  -0.003367   0.288452  -0.028271   0.004746  -0.000207
    23  H    0.000000  -0.000004   0.000000   0.000059  -0.000003   0.000028
    24  H    0.000000   0.000000   0.000000   0.000000   0.000000   0.000000
    25  H    0.000000   0.000000   0.000000   0.000000   0.000000   0.000000
    26  H    0.000000   0.000000   0.000000   0.000000   0.000000  -0.000003
    27  H    0.000000   0.000000   0.000000   0.000062  -0.000243   0.010059
    28  H    0.000010   0.000587  -0.001297  -0.025310   0.004921   0.003150
    29  H    0.008987  -0.002236   0.000076   0.000000   0.000001   0.000000
    30  H    0.000002  -0.000051   0.000001   0.000000   0.000000   0.000000
    31  H    0.000000   0.000007   0.000000   0.000000   0.000000   0.000000
    32  H    0.000000  -0.000048   0.000001  -0.000001   0.000000   0.000000
    33  H    0.000059  -0.003261   0.000009   0.000166  -0.000002  -0.000007
               7          8          9         10         11         12
     1  O   -0.000001   0.000000   0.000000   0.000000   0.000000   0.000000
     2  S    0.000110  -0.000021  -0.000001   0.000000   0.000000   0.000000
     3  N   -0.001018  -0.000195   0.000002   0.000000   0.000000   0.000000
     4  C   -0.019763   0.004009   0.000590  -0.000007   0.000000   0.000005
     5  N   -0.082481   0.004776  -0.000110   0.000001   0.000000   0.000001
     6  O    0.249040  -0.037482   0.003172  -0.000061   0.000001   0.000309
     7  C    4.772915   0.338078  -0.042261   0.006405   0.000937   0.004717
     8  C    0.338078   4.772204   0.537354  -0.008088  -0.033717  -0.008245
     9  C   -0.042261   0.537354   5.006928   0.521377  -0.038366  -0.041779
    10  C    0.006405  -0.008088   0.521377   4.861807   0.545393  -0.023893
    11  C    0.000937  -0.033717  -0.038366   0.545393   4.853362   0.544001
    12  C    0.004717  -0.008245  -0.041779  -0.023893   0.544001   4.875089
    13  C   -0.039493   0.478761  -0.083958  -0.042467  -0.036061   0.505174
    14  C    0.486597  -0.060252  -0.021330   0.000244   0.000013  -0.000237
    15  C   -0.000141   0.000000   0.000000   0.000000   0.000000   0.000000
    16  C    0.000001   0.000000   0.000000   0.000000   0.000000   0.000000
    17  C    0.000000   0.000000   0.000000   0.000000   0.000000   0.000000
    18  C    0.000000   0.000000   0.000000   0.000000   0.000000   0.000000
    19  C   -0.000002   0.000000   0.000000   0.000000   0.000000   0.000000
    20  C   -0.000057   0.000001   0.000000   0.000000   0.000000   0.000000
    21  O    0.000488  -0.000003   0.000002   0.000000   0.000000   0.000000
    22  H    0.000269   0.000001   0.000000   0.000000   0.000000   0.000000
    23  H   -0.013309  -0.037162   0.352641  -0.044154   0.004646   0.000223
    24  H   -0.000212   0.003279  -0.038497   0.359233  -0.041978   0.004491
    25  H    0.000003   0.000544   0.004927  -0.042800   0.360706  -0.042679
    26  H   -0.000185   0.003159   0.000877   0.004501  -0.042297   0.359890
    27  H   -0.013564  -0.038216   0.005532   0.000273   0.004443  -0.043102
    28  H   -0.032257  -0.002604   0.000746   0.000073   0.000000   0.000000
    29  H    0.000000   0.000000   0.000000   0.000000   0.000000   0.000000
    30  H    0.000000   0.000000   0.000000   0.000000   0.000000   0.000000
    31  H    0.000000   0.000000   0.000000   0.000000   0.000000   0.000000
    32  H    0.000000   0.000000   0.000000   0.000000   0.000000   0.000000
    33  H    0.000111   0.000000  -0.000002   0.000000   0.000000   0.000000
              13         14         15         16         17         18
     1  O    0.000000  -0.000035  -0.059840   0.002872   0.000539  -0.000006
     2  S    0.000000  -0.000598   0.175760  -0.022455   0.003132  -0.000291
     3  N   -0.000001  -0.054789  -0.061813  -0.001641  -0.000112   0.000005
     4  C   -0.000397   0.437845   0.001373   0.000075  -0.000018   0.000001
     5  N    0.000190  -0.048194   0.000022   0.000030   0.000002  -0.000001
     6  O   -0.006664  -0.091431   0.000003   0.000000   0.000000   0.000000
     7  C   -0.039493   0.486597  -0.000141   0.000001   0.000000   0.000000
     8  C    0.478761  -0.060252   0.000000   0.000000   0.000000   0.000000
     9  C   -0.083958  -0.021330   0.000000   0.000000   0.000000   0.000000
    10  C   -0.042467   0.000244   0.000000   0.000000   0.000000   0.000000
    11  C   -0.036061   0.000013   0.000000   0.000000   0.000000   0.000000
    12  C    0.505174  -0.000237   0.000000   0.000000   0.000000   0.000000
    13  C    5.044850   0.011982   0.000000   0.000000   0.000000   0.000000
    14  C    0.011982   5.254605  -0.000789   0.000002   0.000001   0.000001
    15  C    0.000000  -0.000789   5.340829   0.487272  -0.028376  -0.038147
    16  C    0.000000   0.000002   0.487272   4.942896   0.507199  -0.029433
    17  C    0.000000   0.000001  -0.028376   0.507199   4.875888   0.543703
    18  C    0.000000   0.000001  -0.038147  -0.029433   0.543703   4.839895
    19  C    0.000000   0.000001  -0.028304  -0.037642  -0.029209   0.544324
    20  C    0.000000   0.000032   0.491509  -0.037703  -0.037335  -0.030222
    21  O    0.000000  -0.000536  -0.056404   0.001630  -0.000044  -0.000005
    22  H    0.000000   0.005007   0.000047   0.000307   0.000026   0.000000
    23  H    0.005988   0.006794   0.000000   0.000000   0.000000   0.000000
    24  H    0.000870  -0.000001   0.000000   0.000000   0.000000   0.000000
    25  H    0.004743   0.000000   0.000000   0.000000   0.000000   0.000000
    26  H   -0.038088   0.000001   0.000000   0.000000   0.000000   0.000000
    27  H    0.359723   0.000216   0.000000   0.000000   0.000000   0.000000
    28  H   -0.000074   0.350411   0.000143  -0.000004   0.000000   0.000000
    29  H    0.000000  -0.000001  -0.046592   0.360850  -0.035976   0.004106
    30  H    0.000000   0.000000   0.004802  -0.041793   0.363629  -0.041624
    31  H    0.000000   0.000000   0.000477   0.004910  -0.042257   0.362174
    32  H    0.000000  -0.000003   0.004780   0.000662   0.004426  -0.041613
    33  H    0.000000   0.002060  -0.045075   0.004771   0.000302   0.004194
              19         20         21         22         23         24
     1  O   -0.000039   0.001446  -0.039494   0.001226   0.000000   0.000000
     2  S    0.002479  -0.022933   0.410577  -0.003367  -0.000004   0.000000
     3  N   -0.000109  -0.002583  -0.050854   0.288452   0.000000   0.000000
     4  C    0.000047   0.001393  -0.002876  -0.028271   0.000059   0.000000
     5  N    0.000003   0.000087   0.000113   0.004746  -0.000003   0.000000
     6  O    0.000000  -0.000014   0.000000  -0.000207   0.000028   0.000000
     7  C   -0.000002  -0.000057   0.000488   0.000269  -0.013309  -0.000212
     8  C    0.000000   0.000001  -0.000003   0.000001  -0.037162   0.003279
     9  C    0.000000   0.000000   0.000002   0.000000   0.352641  -0.038497
    10  C    0.000000   0.000000   0.000000   0.000000  -0.044154   0.359233
    11  C    0.000000   0.000000   0.000000   0.000000   0.004646  -0.041978
    12  C    0.000000   0.000000   0.000000   0.000000   0.000223   0.004491
    13  C    0.000000   0.000000   0.000000   0.000000   0.005988   0.000870
    14  C    0.000001   0.000032  -0.000536   0.005007   0.006794  -0.000001
    15  C   -0.028304   0.491509  -0.056404   0.000047   0.000000   0.000000
    16  C   -0.037642  -0.037703   0.001630   0.000307   0.000000   0.000000
    17  C   -0.029209  -0.037335  -0.000044   0.000026   0.000000   0.000000
    18  C    0.544324  -0.030222  -0.000005   0.000000   0.000000   0.000000
    19  C    4.873987   0.509498   0.000495   0.000000   0.000000   0.000000
    20  C    0.509498   4.930158   0.003338   0.000065  -0.000001   0.000000
    21  O    0.000495   0.003338   8.256830   0.001570  -0.000012   0.000000
    22  H    0.000000   0.000065   0.001570   0.361793   0.000000   0.000000
    23  H    0.000000  -0.000001  -0.000012   0.000000   0.584265  -0.005215
    24  H    0.000000   0.000000   0.000000   0.000000  -0.005215   0.584146
    25  H    0.000000   0.000000   0.000000   0.000000  -0.000170  -0.005431
    26  H    0.000000   0.000000   0.000000   0.000000   0.000016  -0.000177
    27  H    0.000000   0.000000   0.000000   0.000000  -0.000149   0.000016
    28  H    0.000004  -0.000213   0.009108  -0.000162   0.002205  -0.000002
    29  H    0.000341   0.004570   0.000085   0.000091   0.000000   0.000000
    30  H    0.004418   0.000665   0.000000   0.000000   0.000000   0.000000
    31  H   -0.042172   0.004920   0.000000   0.000000   0.000000   0.000000
    32  H    0.363617  -0.041691   0.000002   0.000000   0.000000   0.000000
    33  H   -0.035875   0.359036   0.008244  -0.000018   0.000005   0.000000
              25         26         27         28         29         30
     1  O    0.000000   0.000000   0.000000   0.000010   0.008987   0.000002
     2  S    0.000000   0.000000   0.000000   0.000587  -0.002236  -0.000051
     3  N    0.000000   0.000000   0.000000  -0.001297   0.000076   0.000001
     4  C    0.000000   0.000000   0.000062  -0.025310   0.000000   0.000000
     5  N    0.000000   0.000000  -0.000243   0.004921   0.000001   0.000000
     6  O    0.000000  -0.000003   0.010059   0.003150   0.000000   0.000000
     7  C    0.000003  -0.000185  -0.013564  -0.032257   0.000000   0.000000
     8  C    0.000544   0.003159  -0.038216  -0.002604   0.000000   0.000000
     9  C    0.004927   0.000877   0.005532   0.000746   0.000000   0.000000
    10  C   -0.042800   0.004501   0.000273   0.000073   0.000000   0.000000
    11  C    0.360706  -0.042297   0.004443   0.000000   0.000000   0.000000
    12  C   -0.042679   0.359890  -0.043102   0.000000   0.000000   0.000000
    13  C    0.004743  -0.038088   0.359723  -0.000074   0.000000   0.000000
    14  C    0.000000   0.000001   0.000216   0.350411  -0.000001   0.000000
    15  C    0.000000   0.000000   0.000000   0.000143  -0.046592   0.004802
    16  C    0.000000   0.000000   0.000000  -0.000004   0.360850  -0.041793
    17  C    0.000000   0.000000   0.000000   0.000000  -0.035976   0.363629
    18  C    0.000000   0.000000   0.000000   0.000000   0.004106  -0.041624
    19  C    0.000000   0.000000   0.000000   0.000004   0.000341   0.004418
    20  C    0.000000   0.000000   0.000000  -0.000213   0.004570   0.000665
    21  O    0.000000   0.000000   0.000000   0.009108   0.000085   0.000000
    22  H    0.000000   0.000000   0.000000  -0.000162   0.000091   0.000000
    23  H   -0.000170   0.000016  -0.000149   0.002205   0.000000   0.000000
    24  H   -0.005431  -0.000177   0.000016  -0.000002   0.000000   0.000000
    25  H    0.587935  -0.005414  -0.000158   0.000000   0.000000   0.000000
    26  H   -0.005414   0.582508  -0.004897   0.000000   0.000000   0.000000
    27  H   -0.000158  -0.004897   0.556810  -0.000007   0.000000   0.000000
    28  H    0.000000   0.000000  -0.000007   0.499215   0.000000   0.000000
    29  H    0.000000   0.000000   0.000000   0.000000   0.529557  -0.005106
    30  H    0.000000   0.000000   0.000000   0.000000  -0.005106   0.570421
    31  H    0.000000   0.000000   0.000000   0.000000  -0.000147  -0.005439
    32  H    0.000000   0.000000   0.000000   0.000000   0.000014  -0.000169
    33  H    0.000000   0.000000   0.000000   0.000342  -0.000150   0.000014
              31         32         33
     1  O    0.000000   0.000000   0.000059
     2  S    0.000007  -0.000048  -0.003261
     3  N    0.000000   0.000001   0.000009
     4  C    0.000000  -0.000001   0.000166
     5  N    0.000000   0.000000  -0.000002
     6  O    0.000000   0.000000  -0.000007
     7  C    0.000000   0.000000   0.000111
     8  C    0.000000   0.000000   0.000000
     9  C    0.000000   0.000000  -0.000002
    10  C    0.000000   0.000000   0.000000
    11  C    0.000000   0.000000   0.000000
    12  C    0.000000   0.000000   0.000000
    13  C    0.000000   0.000000   0.000000
    14  C    0.000000  -0.000003   0.002060
    15  C    0.000477   0.004780  -0.045075
    16  C    0.004910   0.000662   0.004771
    17  C   -0.042257   0.004426   0.000302
    18  C    0.362174  -0.041613   0.004194
    19  C   -0.042172   0.363617  -0.035875
    20  C    0.004920  -0.041691   0.359036
    21  O    0.000000   0.000002   0.008244
    22  H    0.000000   0.000000  -0.000018
    23  H    0.000000   0.000000   0.000005
    24  H    0.000000   0.000000   0.000000
    25  H    0.000000   0.000000   0.000000
    26  H    0.000000   0.000000   0.000000
    27  H    0.000000   0.000000   0.000000
    28  H    0.000000   0.000000   0.000342
    29  H   -0.000147   0.000014  -0.000150
    30  H   -0.005439  -0.000169   0.000014
    31  H    0.574995  -0.005444  -0.000147
    32  H   -0.005444   0.570637  -0.005166
    33  H   -0.000147  -0.005166   0.532268
 Mulliken charges:
               1
     1  O   -0.523610
     2  S    1.203212
     3  N   -0.752753
     4  C    0.481044
     5  N   -0.234059
     6  O   -0.401626
     7  C    0.385071
     8  C    0.083818
     9  C   -0.167844
    10  C   -0.137838
    11  C   -0.121084
    12  C   -0.133966
    13  C   -0.165079
    14  C   -0.277615
    15  C   -0.141537
    16  C   -0.142805
    17  C   -0.125520
    18  C   -0.117061
    19  C   -0.125863
    20  C   -0.133965
    21  O   -0.542256
    22  H    0.368427
    23  H    0.143310
    24  H    0.139478
    25  H    0.137794
    26  H    0.140108
    27  H    0.163203
    28  H    0.191015
    29  H    0.181530
    30  H    0.150230
    31  H    0.148124
    32  H    0.149996
    33  H    0.178122
 Sum of Mulliken charges =   0.00000
 Mulliken charges with hydrogens summed into heavy atoms:
               1
     1  O   -0.523610
     2  S    1.203212
     3  N   -0.384326
     4  C    0.481044
     5  N   -0.234059
     6  O   -0.401626
     7  C    0.385071
     8  C    0.083818
     9  C   -0.024534
    10  C    0.001640
    11  C    0.016710
    12  C    0.006142
    13  C   -0.001876
    14  C   -0.086599
    15  C   -0.141537
    16  C    0.038725
    17  C    0.024710
    18  C    0.031063
    19  C    0.024133
    20  C    0.044157
    21  O   -0.542256
 Electronic spatial extent (au):  <R**2>=           8024.5381
 Charge=              0.0000 electrons
 Dipole moment (field-independent basis, Debye):
    X=             -1.4177    Y=              4.6603    Z=              0.2706  Tot=              4.8787
 Quadrupole moment (field-independent basis, Debye-Ang):
   XX=           -107.5800   YY=           -126.2052   ZZ=           -128.3599
   XY=             10.1334   XZ=             13.0062   YZ=             -3.6911
 Traceless Quadrupole moment (field-independent basis, Debye-Ang):
   XX=             13.1350   YY=             -5.4902   ZZ=             -7.6449
   XY=             10.1334   XZ=             13.0062   YZ=             -3.6911
 Octapole moment (field-independent basis, Debye-Ang**2):
  XXX=            -54.3688  YYY=             26.0351  ZZZ=            -10.5817  XYY=             18.3340
  XXY=             74.4027  XXZ=             32.1862  XZZ=            -10.9035  YZZ=             -0.7824
  YYZ=              9.2894  XYZ=            -11.7175
 Hexadecapole moment (field-independent basis, Debye-Ang**3):
 XXXX=          -7523.7195 YYYY=          -1520.0284 ZZZZ=           -939.6738 XXXY=            -30.9225
 XXXZ=            182.8488 YYYX=            121.3346 YYYZ=            -11.5177 ZZZX=             30.4384
 ZZZY=              3.0559 XXYY=          -1666.3969 XXZZ=          -1428.7209 YYZZ=           -420.7784
 XXYZ=             24.2309 YYXZ=             22.9546 ZZXY=            -32.9803
 N-N= 1.721766572804D+03 E-N=-6.514260258271D+03  KE= 1.302109591218D+03
 No NMR shielding tensors so no spin-rotation constants.
 Leave Link  601 at Thu Aug  6 22:13:15 2020, MaxMem=    33554432 cpu:         0.3
 (Enter /prod/apps/gaussian/g09d1/l9999.exe)
 1\1\GINC-PIRINEUS9\SP\RB3LYP\6-31G(d)\C15H12N2O3S1\UBAFAR01\06-Aug-202
 0\0\\#p b3lyp/6-31G(d)\\SM42.n.6.pdb.xyz\\0,1\O,0,3.726,1.251,1.12\S,0
 ,3.509,0.322,0.011\N,0,2.914,1.307,-1.239\C,0,2.54,0.779,-2.479\N,0,2.
 874,1.426,-3.578\O,0,2.275,0.699,-4.612\C,0,1.62,-0.372,-4.099\C,0,0.9
 39,-1.252,-5.041\C,0,0.255,-2.388,-4.58\C,0,-0.394,-3.227,-5.479\C,0,-
 0.368,-2.945,-6.847\C,0,0.311,-1.817,-7.312\C,0,0.962,-0.974,-6.416\C,
 0,1.749,-0.371,-2.737\C,0,5.094,-0.309,-0.51\C,0,6.241,0.43,-0.216\C,0
 ,7.477,-0.053,-0.639\C,0,7.554,-1.256,-1.344\C,0,6.398,-1.987,-1.626\C
 ,0,5.155,-1.518,-1.207\O,0,2.579,-0.802,0.115\H,0,3.419,2.19,-1.298\H,
 0,0.232,-2.611,-3.519\H,0,-0.92,-4.102,-5.113\H,0,-0.875,-3.602,-7.547
 \H,0,0.333,-1.594,-8.373\H,0,1.49,-0.096,-6.771\H,0,1.353,-1.058,-2.01
 \H,0,6.158,1.353,0.346\H,0,8.378,0.505,-0.413\H,0,8.519,-1.628,-1.67\H
 ,0,6.464,-2.925,-2.165\H,0,4.249,-2.079,-1.398\\Version=AM64L-G09RevD.
 01\State=1-A\HF=-1312.0723708\RMSD=2.650e-09\Dipole=0.9438192,-1.09830
 86,-1.2598277\Quadrupole=11.0993631,-0.3027289,-10.7966342,4.7676198,8
 .6593852,3.5099508\PG=C01 [X(C15H12N2O3S1)]\\@


 NOBODY LOSES ALL THE TIME
 I HAD AN UNCLE NAMED
 SOL WHO WAS A BORN FAILURE AND
 NEARLY EVERYBODY SAID HE SHOULD HAVE GONE
 INTO VAUDEVILLE PERHAPS BECAUSE MY UNCLE SOL COULD
 SING MCCANN HE WAS A DIVER ON XMAS EVE LIKE HELL ITSELF WHICH
 MAY OR MAY NOT ACCOUNT FOR THE FACT THAT MY UNCLE
 SOL INDULGED IN THAT POSSIBLY MOST INEXCUSABLE
 OF ALL TO USE A HIGHFALOOTIN PHRASE
 LUXURIES THAT IS OR TO
 WIT FARMING AND BE
 IT NEEDLESSLY
 ADDED
 MY UNCLE SOL'S FARM     
 FAILED BECAUSE THE CHICKENS
 ATE THE VEGETABLES SO
 MY UNCLE SOL HAD A
 CHICKEN FARM TILL THE
 SKUNKS ATE THE CHICKENS WHEN 
 MY UNCLE SOL
 HAD A SKUNK FARM BUT
 THE SKUNKS CAUGHT COLD AND
 DIED AND SO
 MY UNCLE SOL IMITATED THE
 SKUNKS IN A SUBTLE MANNER
 OR BY DROWNING HIMSELF IN THE WATERTANK
 BUT SOMEBODY WHO'D GIVEN MY UNCLE SOL A VICTOR     
 VICTROLA AND RECORDS WHILE HE LIVED PRESENTED TO
 HIM UPON THE AUSPICIOUS OCCASION OF HIS DECEASE A
 SCRUMPTIOUS NOT TO MENTION SPLENDIFEROUS FUNERAL WITH
 TALL BOYS IN BLACK GLOVES AND FLOWERS AND EVERYTHING AND
 I REMEMBER WE ALL CRIED LIKE THE MISSOURI
 WHEN MY UNCLE SOL'S COFFIN LURCHED BECAUSE     
 SOMEBODY PRESSED A BUTTON
 (AND DOWN WENT
 MY UNCLE
 SOL
 AND STARTED A WORM FARM)
           E. E. CUMMINGS
 Job cpu time:       0 days  0 hours  4 minutes 60.0 seconds.
 File lengths (MBytes):  RWF=     66 Int=      0 D2E=      0 Chk=      5 Scr=      1
 Normal termination of Gaussian 09 at Thu Aug  6 22:13:15 2020.
 Initial command:
 /prod/apps/gaussian/g09d1/l1.exe "/tmp/ubafar01/1448649/Gau-125818.inp" -scrdir="/tmp/ubafar01/1448649/"
 Entering Link 1 = /prod/apps/gaussian/g09d1/l1.exe PID=    127215.
  
 Copyright (c) 1988,1990,1992,1993,1995,1998,2003,2009,2013,
            Gaussian, Inc.  All Rights Reserved.
  
 This is part of the Gaussian(R) 09 program.  It is based on
 the Gaussian(R) 03 system (copyright 2003, Gaussian, Inc.),
 the Gaussian(R) 98 system (copyright 1998, Gaussian, Inc.),
 the Gaussian(R) 94 system (copyright 1995, Gaussian, Inc.),
 the Gaussian 92(TM) system (copyright 1992, Gaussian, Inc.),
 the Gaussian 90(TM) system (copyright 1990, Gaussian, Inc.),
 the Gaussian 88(TM) system (copyright 1988, Gaussian, Inc.),
 the Gaussian 86(TM) system (copyright 1986, Carnegie Mellon
 University), and the Gaussian 82(TM) system (copyright 1983,
 Carnegie Mellon University). Gaussian is a federally registered
 trademark of Gaussian, Inc.
  
 This software contains proprietary and confidential information,
 including trade secrets, belonging to Gaussian, Inc.
  
 This software is provided under written license and may be
 used, copied, transmitted, or stored only in accord with that
 written license.
  
 The following legend is applicable only to US Government
 contracts under FAR:
  
                    RESTRICTED RIGHTS LEGEND
  
 Use, reproduction and disclosure by the US Government is
 subject to restrictions as set forth in subparagraphs (a)
 and (c) of the Commercial Computer Software - Restricted
 Rights clause in FAR 52.227-19.
  
 Gaussian, Inc.
 340 Quinnipiac St., Bldg. 40, Wallingford CT 06492
  
  
 ---------------------------------------------------------------
 Warning -- This program may not be used in any manner that
 competes with the business of Gaussian, Inc. or will provide
 assistance to any competitor of Gaussian, Inc.  The licensee
 of this program is prohibited from giving any competitor of
 Gaussian, Inc. access to this program.  By using this program,
 the user acknowledges that Gaussian, Inc. is engaged in the
 business of creating and licensing software in the field of
 computational chemistry and represents and warrants to the
 licensee that it is not a competitor of Gaussian, Inc. and that
 it will not use this program in any manner prohibited above.
 ---------------------------------------------------------------
  

 Cite this work as:
 Gaussian 09, Revision D.01,
 M. J. Frisch, G. W. Trucks, H. B. Schlegel, G. E. Scuseria, 
 M. A. Robb, J. R. Cheeseman, G. Scalmani, V. Barone, B. Mennucci, 
 G. A. Petersson, H. Nakatsuji, M. Caricato, X. Li, H. P. Hratchian, 
 A. F. Izmaylov, J. Bloino, G. Zheng, J. L. Sonnenberg, M. Hada, 
 M. Ehara, K. Toyota, R. Fukuda, J. Hasegawa, M. Ishida, T. Nakajima, 
 Y. Honda, O. Kitao, H. Nakai, T. Vreven, J. A. Montgomery, Jr., 
 J. E. Peralta, F. Ogliaro, M. Bearpark, J. J. Heyd, E. Brothers, 
 K. N. Kudin, V. N. Staroverov, T. Keith, R. Kobayashi, J. Normand, 
 K. Raghavachari, A. Rendell, J. C. Burant, S. S. Iyengar, J. Tomasi, 
 M. Cossi, N. Rega, J. M. Millam, M. Klene, J. E. Knox, J. B. Cross, 
 V. Bakken, C. Adamo, J. Jaramillo, R. Gomperts, R. E. Stratmann, 
 O. Yazyev, A. J. Austin, R. Cammi, C. Pomelli, J. W. Ochterski, 
 R. L. Martin, K. Morokuma, V. G. Zakrzewski, G. A. Voth, 
 P. Salvador, J. J. Dannenberg, S. Dapprich, A. D. Daniels, 
 O. Farkas, J. B. Foresman, J. V. Ortiz, J. Cioslowski, 
 and D. J. Fox, Gaussian, Inc., Wallingford CT, 2013.
 
 ******************************************
 Gaussian 09:  AM64L-G09RevD.01 24-Apr-2013
                 6-Aug-2020 
 ******************************************
 %nproc=1
 Will use up to    1 processors via shared memory.
 %Chk=SM42.n.6.pdb.xyz.mst.n.o.chk
 %subst l301 /dades/curu/work_g09D01_MST_AddSphPartition_ReadGammas/exe-dir/
 %subst l502 /dades/curu/work_g09D01_MST_AddSphPartition_ReadGammas/exe-dir/
 ----------------------------------------------------------------------
 #p b3lyp/6-31G(d) scrf=(iefpcm,read,solvent=n-Octanol) geom=allcheck g
 uess=read
 ----------------------------------------------------------------------
 1/29=7,38=1,40=2/1;
 2/12=2,40=1/2;
 3/5=1,6=6,7=1,11=2,14=-4,16=1,25=1,30=1,70=2203,72=25,74=-5,116=-2/1,2,3;
 4/5=1/1;
 5/5=2,38=6,53=25/2;
 6/7=2,8=2,9=2,10=2,28=1/1;
 99/5=1,9=1/99;
 Leave Link    1 at Thu Aug  6 22:13:15 2020, MaxMem=           0 cpu:         0.0
 (Enter /prod/apps/gaussian/g09d1/l101.exe)
 Structure from the checkpoint file:  "SM42.n.6.pdb.xyz.mst.n.o.chk"
 ----------------
 SM42.n.6.pdb.xyz
 ----------------
 Charge =  0 Multiplicity = 1
 Z-Matrix found in file.
 O,0,3.726,1.251,1.12
 S,0,3.509,0.322,0.011
 N,0,2.914,1.307,-1.239
 C,0,2.54,0.779,-2.479
 N,0,2.874,1.426,-3.578
 O,0,2.275,0.699,-4.612
 C,0,1.62,-0.372,-4.099
 C,0,0.939,-1.252,-5.041
 C,0,0.255,-2.388,-4.58
 C,0,-0.394,-3.227,-5.479
 C,0,-0.368,-2.945,-6.847
 C,0,0.311,-1.817,-7.312
 C,0,0.962,-0.974,-6.416
 C,0,1.749,-0.371,-2.737
 C,0,5.094,-0.309,-0.51
 C,0,6.241,0.43,-0.216
 C,0,7.477,-0.053,-0.639
 C,0,7.554,-1.256,-1.344
 C,0,6.398,-1.987,-1.626
 C,0,5.155,-1.518,-1.207
 O,0,2.579,-0.802,0.115
 H,0,3.419,2.19,-1.298
 H,0,0.232,-2.611,-3.519
 H,0,-0.92,-4.102,-5.113
 H,0,-0.875,-3.602,-7.547
 H,0,0.333,-1.594,-8.373
 H,0,1.49,-0.096,-6.771
 H,0,1.353,-1.058,-2.01
 H,0,6.158,1.353,0.346
 H,0,8.378,0.505,-0.413
 H,0,8.519,-1.628,-1.67
 H,0,6.464,-2.925,-2.165
 H,0,4.249,-2.079,-1.398
 Recover connectivity data from disk.
 NAtoms=     33 NQM=       33 NQMF=       0 NMMI=      0 NMMIF=      0
                NMic=       0 NMicF=      0.
                    Isotopes and Nuclear Properties:
 (Nuclear quadrupole moments (NQMom) in fm**2, nuclear magnetic moments (NMagM)
  in nuclear magnetons)

  Atom         1           2           3           4           5           6           7           8           9          10
 IAtWgt=          16          32          14          12          14          16          12          12          12          12
 AtmWgt=  15.9949146  31.9720718  14.0030740  12.0000000  14.0030740  15.9949146  12.0000000  12.0000000  12.0000000  12.0000000
 NucSpn=           0           0           2           0           2           0           0           0           0           0
 AtZEff=  -5.6000000 -13.6000000  -4.5500000  -3.6000000  -4.5500000  -5.6000000  -3.6000000  -3.6000000  -3.6000000  -3.6000000
 NQMom=    0.0000000   0.0000000   2.0440000   0.0000000   2.0440000   0.0000000   0.0000000   0.0000000   0.0000000   0.0000000
 NMagM=    0.0000000   0.0000000   0.4037610   0.0000000   0.4037610   0.0000000   0.0000000   0.0000000   0.0000000   0.0000000
 AtZNuc=   8.0000000  16.0000000   7.0000000   6.0000000   7.0000000   8.0000000   6.0000000   6.0000000   6.0000000   6.0000000

  Atom        11          12          13          14          15          16          17          18          19          20
 IAtWgt=          12          12          12          12          12          12          12          12          12          12
 AtmWgt=  12.0000000  12.0000000  12.0000000  12.0000000  12.0000000  12.0000000  12.0000000  12.0000000  12.0000000  12.0000000
 NucSpn=           0           0           0           0           0           0           0           0           0           0
 AtZEff=  -3.6000000  -3.6000000  -3.6000000  -3.6000000  -3.6000000  -3.6000000  -3.6000000  -3.6000000  -3.6000000  -3.6000000
 NQMom=    0.0000000   0.0000000   0.0000000   0.0000000   0.0000000   0.0000000   0.0000000   0.0000000   0.0000000   0.0000000
 NMagM=    0.0000000   0.0000000   0.0000000   0.0000000   0.0000000   0.0000000   0.0000000   0.0000000   0.0000000   0.0000000
 AtZNuc=   6.0000000   6.0000000   6.0000000   6.0000000   6.0000000   6.0000000   6.0000000   6.0000000   6.0000000   6.0000000

  Atom        21          22          23          24          25          26          27          28          29          30
 IAtWgt=          16           1           1           1           1           1           1           1           1           1
 AtmWgt=  15.9949146   1.0078250   1.0078250   1.0078250   1.0078250   1.0078250   1.0078250   1.0078250   1.0078250   1.0078250
 NucSpn=           0           1           1           1           1           1           1           1           1           1
 AtZEff=  -5.6000000  -1.0000000  -1.0000000  -1.0000000  -1.0000000  -1.0000000  -1.0000000  -1.0000000  -1.0000000  -1.0000000
 NQMom=    0.0000000   0.0000000   0.0000000   0.0000000   0.0000000   0.0000000   0.0000000   0.0000000   0.0000000   0.0000000
 NMagM=    0.0000000   2.7928460   2.7928460   2.7928460   2.7928460   2.7928460   2.7928460   2.7928460   2.7928460   2.7928460
 AtZNuc=   8.0000000   1.0000000   1.0000000   1.0000000   1.0000000   1.0000000   1.0000000   1.0000000   1.0000000   1.0000000

  Atom        31          32          33
 IAtWgt=           1           1           1
 AtmWgt=   1.0078250   1.0078250   1.0078250
 NucSpn=           1           1           1
 AtZEff=  -1.0000000  -1.0000000  -1.0000000
 NQMom=    0.0000000   0.0000000   0.0000000
 NMagM=    2.7928460   2.7928460   2.7928460
 AtZNuc=   1.0000000   1.0000000   1.0000000
 Leave Link  101 at Thu Aug  6 22:13:15 2020, MaxMem=    33554432 cpu:         0.0
 (Enter /prod/apps/gaussian/g09d1/l202.exe)
                          Input orientation:                          
 ---------------------------------------------------------------------
 Center     Atomic      Atomic             Coordinates (Angstroms)
 Number     Number       Type             X           Y           Z
 ---------------------------------------------------------------------
      1          8           0        3.726000    1.251000    1.120000
      2         16           0        3.509000    0.322000    0.011000
      3          7           0        2.914000    1.307000   -1.239000
      4          6           0        2.540000    0.779000   -2.479000
      5          7           0        2.874000    1.426000   -3.578000
      6          8           0        2.275000    0.699000   -4.612000
      7          6           0        1.620000   -0.372000   -4.099000
      8          6           0        0.939000   -1.252000   -5.041000
      9          6           0        0.255000   -2.388000   -4.580000
     10          6           0       -0.394000   -3.227000   -5.479000
     11          6           0       -0.368000   -2.945000   -6.847000
     12          6           0        0.311000   -1.817000   -7.312000
     13          6           0        0.962000   -0.974000   -6.416000
     14          6           0        1.749000   -0.371000   -2.737000
     15          6           0        5.094000   -0.309000   -0.510000
     16          6           0        6.241000    0.430000   -0.216000
     17          6           0        7.477000   -0.053000   -0.639000
     18          6           0        7.554000   -1.256000   -1.344000
     19          6           0        6.398000   -1.987000   -1.626000
     20          6           0        5.155000   -1.518000   -1.207000
     21          8           0        2.579000   -0.802000    0.115000
     22          1           0        3.419000    2.190000   -1.298000
     23          1           0        0.232000   -2.611000   -3.519000
     24          1           0       -0.920000   -4.102000   -5.113000
     25          1           0       -0.875000   -3.602000   -7.547000
     26          1           0        0.333000   -1.594000   -8.373000
     27          1           0        1.490000   -0.096000   -6.771000
     28          1           0        1.353000   -1.058000   -2.010000
     29          1           0        6.158000    1.353000    0.346000
     30          1           0        8.378000    0.505000   -0.413000
     31          1           0        8.519000   -1.628000   -1.670000
     32          1           0        6.464000   -2.925000   -2.165000
     33          1           0        4.249000   -2.079000   -1.398000
 ---------------------------------------------------------------------
                    Distance matrix (angstroms):
                    1          2          3          4          5
     1  O    0.000000
     2  S    1.462878   0.000000
     3  N    2.495468   1.699044   0.000000
     4  C    3.818662   2.710703   1.398664   0.000000
     5  N    4.777838   3.808275   2.342367   1.318319   0.000000
     6  O    5.938512   4.799689   3.486419   2.150887   1.398744
     7  C    5.857246   4.576249   3.559927   2.189886   2.253167
     8  C    7.210430   5.882608   4.990422   3.640330   3.613347
     9  C    7.601326   6.245790   5.646732   4.434559   4.733895
    10  C    8.976285   7.613732   7.034033   5.801413   5.995334
    11  C    9.891428   8.528574   7.765352   6.434599   6.348430
    12  C    9.600702   8.272173   7.308647   5.921617   5.570348
    13  C    8.329563   7.033716   5.984530   4.589451   4.179711
    14  C    4.627728   3.336068   2.533163   1.419417   2.280815
    15  C    2.638546   1.783768   2.809857   3.403472   4.165483
    16  C    2.963809   2.743541   3.589511   4.352054   4.861250
    17  C    4.343328   4.038335   4.799018   5.334022   5.657983
    18  C    5.197108   4.548421   5.301848   5.528982   5.838346
    19  C    5.016447   4.044449   4.810245   4.823124   5.279910
    20  C    3.889001   2.752897   3.606068   3.705728   4.414945
    21  O    2.557429   1.462564   2.528522   3.038078   4.323107
    22  H    2.612029   2.282763   1.018919   2.039197   2.465587
    23  H    6.974482   5.639337   5.267091   4.230906   4.825040
[...]
 Alpha virt. eigenvalues --    2.62661   2.64837   2.65967   2.66553   2.68953
 Alpha virt. eigenvalues --    2.69715   2.71958   2.72295   2.73805   2.74378
 Alpha virt. eigenvalues --    2.74704   2.76447   2.77265   2.80468   2.85007
 Alpha virt. eigenvalues --    2.89964   2.90354   3.00966   3.01237   3.04981
 Alpha virt. eigenvalues --    3.13492   3.26864   3.36529   3.42746   3.77039
 Alpha virt. eigenvalues --    3.78458   3.97003   4.02875   4.05662   4.07273
 Alpha virt. eigenvalues --    4.08094   4.08865   4.09810   4.10612   4.13164
 Alpha virt. eigenvalues --    4.17345   4.24226   4.30813   4.31219   4.34188
 Alpha virt. eigenvalues --    4.37633   4.39883   4.54875   4.64846   4.73898
          Condensed to atoms (all electrons):
               1          2          3          4          5          6
     1  O    8.225909   0.451598  -0.053445   0.001429  -0.000011   0.000000
     2  S    0.451598  13.698567   0.124978  -0.015097  -0.003564   0.000149
     3  N   -0.053445   0.124978   7.420624   0.231764  -0.077992   0.005691
     4  C    0.001429  -0.015097   0.231764   4.533254   0.433671  -0.044428
     5  N   -0.000011  -0.003564  -0.077992   0.433671   6.884505   0.132306
     6  O    0.000000   0.000149   0.005691  -0.044428   0.132306   8.182028
     7  C   -0.000001   0.000071  -0.001108  -0.017992  -0.084122   0.248784
     8  C    0.000000  -0.000023  -0.000196   0.003726   0.004752  -0.037343
     9  C    0.000000  -0.000001   0.000002   0.000595  -0.000110   0.003152
    10  C    0.000000   0.000000   0.000000  -0.000007   0.000001  -0.000061
    11  C    0.000000   0.000000   0.000000   0.000000   0.000000   0.000002
    12  C    0.000000   0.000000   0.000000   0.000005   0.000001   0.000297
    13  C    0.000000   0.000000  -0.000001  -0.000388   0.000192  -0.006946
    14  C   -0.000037  -0.000803  -0.054395   0.443459  -0.049411  -0.090173
    15  C   -0.060801   0.187115  -0.063763   0.001181   0.000055   0.000002
    16  C    0.002798  -0.023539  -0.001511   0.000056   0.000030   0.000000
    17  C    0.000518   0.003063  -0.000105  -0.000017   0.000002   0.000000
    18  C   -0.000006  -0.000309   0.000005   0.000002  -0.000001   0.000000
    19  C   -0.000039   0.002423  -0.000103   0.000044   0.000002   0.000000
    20  C    0.001386  -0.023964  -0.002563   0.001397   0.000074  -0.000013
    21  O   -0.038925   0.412045  -0.051493  -0.002745   0.000113   0.000000
    22  H    0.000984  -0.003430   0.289733  -0.025929   0.004291  -0.000196
    23  H    0.000000  -0.000004   0.000000   0.000072  -0.000004   0.000027
    24  H    0.000000   0.000000   0.000000   0.000000   0.000000   0.000000
    25  H    0.000000   0.000000   0.000000   0.000000   0.000000   0.000000
    26  H    0.000000   0.000000   0.000000   0.000000   0.000000  -0.000003
    27  H    0.000000   0.000000   0.000000   0.000058  -0.000241   0.009984
    28  H    0.000009   0.000661  -0.001278  -0.026521   0.004991   0.003165
    29  H    0.008506  -0.002612   0.000057   0.000002   0.000001   0.000000
    30  H    0.000001  -0.000055   0.000001   0.000000   0.000000   0.000000
    31  H    0.000000   0.000006   0.000000   0.000000   0.000000   0.000000
    32  H    0.000000  -0.000052   0.000001   0.000000   0.000000   0.000000
    33  H    0.000054  -0.003375  -0.000008   0.000150  -0.000003  -0.000006
               7          8          9         10         11         12
     1  O   -0.000001   0.000000   0.000000   0.000000   0.000000   0.000000
     2  S    0.000071  -0.000023  -0.000001   0.000000   0.000000   0.000000
     3  N   -0.001108  -0.000196   0.000002   0.000000   0.000000   0.000000
     4  C   -0.017992   0.003726   0.000595  -0.000007   0.000000   0.000005
     5  N   -0.084122   0.004752  -0.000110   0.000001   0.000000   0.000001
     6  O    0.248784  -0.037343   0.003152  -0.000061   0.000002   0.000297
     7  C    4.764650   0.340787  -0.042657   0.006389   0.000889   0.004712
     8  C    0.340787   4.782172   0.536089  -0.009528  -0.033795  -0.008978
     9  C   -0.042657   0.536089   5.010590   0.521030  -0.039328  -0.041725
    10  C    0.006389  -0.009528   0.521030   4.869366   0.542837  -0.025017
    11  C    0.000889  -0.033795  -0.039328   0.542837   4.862911   0.541574
    12  C    0.004712  -0.008978  -0.041725  -0.025017   0.541574   4.881466
    13  C   -0.040307   0.475980  -0.082367  -0.042306  -0.037079   0.506298
    14  C    0.491301  -0.059597  -0.020795   0.000237   0.000015  -0.000235
    15  C   -0.000140   0.000000   0.000000   0.000000   0.000000   0.000000
    16  C    0.000001   0.000000   0.000000   0.000000   0.000000   0.000000
    17  C    0.000000   0.000000   0.000000   0.000000   0.000000   0.000000
    18  C    0.000000   0.000000   0.000000   0.000000   0.000000   0.000000
    19  C   -0.000001   0.000000   0.000000   0.000000   0.000000   0.000000
    20  C   -0.000060   0.000001   0.000000   0.000000   0.000000   0.000000
    21  O    0.000468  -0.000003   0.000002   0.000000   0.000000   0.000000
    22  H    0.000261   0.000001   0.000000   0.000000   0.000000   0.000000
    23  H   -0.012809  -0.038126   0.355103  -0.041962   0.004568   0.000200
    24  H   -0.000206   0.003221  -0.037580   0.361535  -0.040953   0.004397
    25  H    0.000003   0.000526   0.004842  -0.041785   0.362935  -0.041710
    26  H   -0.000178   0.003175   0.000824   0.004416  -0.041159   0.362093
    27  H   -0.013356  -0.041165   0.005437   0.000233   0.004500  -0.041743
    28  H   -0.030727  -0.002816   0.000881   0.000073   0.000000   0.000001
    29  H    0.000000   0.000000   0.000000   0.000000   0.000000   0.000000
    30  H    0.000000   0.000000   0.000000   0.000000   0.000000   0.000000
    31  H    0.000000   0.000000   0.000000   0.000000   0.000000   0.000000
    32  H    0.000000   0.000000   0.000000   0.000000   0.000000   0.000000
    33  H    0.000102  -0.000001  -0.000002   0.000000   0.000000   0.000000
              13         14         15         16         17         18
     1  O    0.000000  -0.000037  -0.060801   0.002798   0.000518  -0.000006
     2  S    0.000000  -0.000803   0.187115  -0.023539   0.003063  -0.000309
     3  N   -0.000001  -0.054395  -0.063763  -0.001511  -0.000105   0.000005
     4  C   -0.000388   0.443459   0.001181   0.000056  -0.000017   0.000002
     5  N    0.000192  -0.049411   0.000055   0.000030   0.000002  -0.000001
     6  O   -0.006946  -0.090173   0.000002   0.000000   0.000000   0.000000
     7  C   -0.040307   0.491301  -0.000140   0.000001   0.000000   0.000000
     8  C    0.475980  -0.059597   0.000000   0.000000   0.000000   0.000000
     9  C   -0.082367  -0.020795   0.000000   0.000000   0.000000   0.000000
    10  C   -0.042306   0.000237   0.000000   0.000000   0.000000   0.000000
    11  C   -0.037079   0.000015   0.000000   0.000000   0.000000   0.000000
    12  C    0.506298  -0.000235   0.000000   0.000000   0.000000   0.000000
    13  C    5.051318   0.011895   0.000000   0.000000   0.000000   0.000000
    14  C    0.011895   5.243364  -0.000822   0.000003   0.000001   0.000001
    15  C    0.000000  -0.000822   5.349290   0.484911  -0.028897  -0.038278
    16  C    0.000000   0.000003   0.484911   4.940635   0.510755  -0.030397
    17  C    0.000000   0.000001  -0.028897   0.510755   4.875974   0.541061
    18  C    0.000000   0.000001  -0.038278  -0.030397   0.541061   4.845881
    19  C    0.000000   0.000001  -0.029230  -0.037669  -0.029843   0.542152
    20  C    0.000000   0.000044   0.488567  -0.035871  -0.037551  -0.031237
    21  O    0.000000  -0.000641  -0.057258   0.001550  -0.000044  -0.000004
    22  H    0.000000   0.004606  -0.000119   0.000297   0.000024   0.000000
    23  H    0.005756   0.006541   0.000000   0.000000   0.000000   0.000000
    24  H    0.000834  -0.000001   0.000000   0.000000   0.000000   0.000000
    25  H    0.004672   0.000000   0.000000   0.000000   0.000000   0.000000
    26  H   -0.037598   0.000001   0.000000   0.000000   0.000000   0.000000
    27  H    0.361206   0.000227   0.000000   0.000000   0.000000   0.000000
    28  H   -0.000076   0.350716   0.000143  -0.000004   0.000000   0.000000
    29  H    0.000000  -0.000001  -0.048831   0.362652  -0.033927   0.004133
    30  H    0.000000   0.000000   0.004756  -0.040901   0.365899  -0.040217
    31  H    0.000000   0.000000   0.000473   0.004820  -0.040957   0.364359
    32  H    0.000000  -0.000003   0.004727   0.000632   0.004301  -0.039879
    33  H    0.000000   0.001989  -0.047371   0.004566   0.000284   0.004187
              19         20         21         22         23         24
     1  O   -0.000039   0.001386  -0.038925   0.000984   0.000000   0.000000
     2  S    0.002423  -0.023964   0.412045  -0.003430  -0.000004   0.000000
     3  N   -0.000103  -0.002563  -0.051493   0.289733   0.000000   0.000000
     4  C    0.000044   0.001397  -0.002745  -0.025929   0.000072   0.000000
     5  N    0.000002   0.000074   0.000113   0.004291  -0.000004   0.000000
     6  O    0.000000  -0.000013   0.000000  -0.000196   0.000027   0.000000
     7  C   -0.000001  -0.000060   0.000468   0.000261  -0.012809  -0.000206
     8  C    0.000000   0.000001  -0.000003   0.000001  -0.038126   0.003221
     9  C    0.000000   0.000000   0.000002   0.000000   0.355103  -0.037580
    10  C    0.000000   0.000000   0.000000   0.000000  -0.041962   0.361535
    11  C    0.000000   0.000000   0.000000   0.000000   0.004568  -0.040953
    12  C    0.000000   0.000000   0.000000   0.000000   0.000200   0.004397
    13  C    0.000000   0.000000   0.000000   0.000000   0.005756   0.000834
    14  C    0.000001   0.000044  -0.000641   0.004606   0.006541  -0.000001
    15  C   -0.029230   0.488567  -0.057258  -0.000119   0.000000   0.000000
    16  C   -0.037669  -0.035871   0.001550   0.000297   0.000000   0.000000
    17  C   -0.029843  -0.037551  -0.000044   0.000024   0.000000   0.000000
    18  C    0.542152  -0.031237  -0.000004   0.000000   0.000000   0.000000
    19  C    4.874633   0.512549   0.000478   0.000000   0.000000   0.000000
    20  C    0.512549   4.934562   0.003341   0.000054  -0.000001   0.000000
    21  O    0.000478   0.003341   8.268399   0.001432  -0.000011   0.000000
    22  H    0.000000   0.000054   0.001432   0.336337   0.000000   0.000000
    23  H    0.000000  -0.000001  -0.000011   0.000000   0.569588  -0.005012
    24  H    0.000000   0.000000   0.000000   0.000000  -0.005012   0.566378
    25  H    0.000000   0.000000   0.000000   0.000000  -0.000162  -0.005193
    26  H    0.000000   0.000000   0.000000   0.000000   0.000015  -0.000168
    27  H    0.000000   0.000000   0.000000   0.000000  -0.000145   0.000015
    28  H    0.000003  -0.000210   0.008985  -0.000148   0.002011  -0.000002
    29  H    0.000312   0.004428   0.000079   0.000084   0.000000   0.000000
    30  H    0.004311   0.000632   0.000000   0.000000   0.000000   0.000000
    31  H   -0.040935   0.004839   0.000000   0.000000   0.000000   0.000000
    32  H    0.365782  -0.041045   0.000002   0.000000   0.000000   0.000000
    33  H   -0.033970   0.360694   0.007740  -0.000016   0.000004   0.000000
              25         26         27         28         29         30
     1  O    0.000000   0.000000   0.000000   0.000009   0.008506   0.000001
     2  S    0.000000   0.000000   0.000000   0.000661  -0.002612  -0.000055
     3  N    0.000000   0.000000   0.000000  -0.001278   0.000057   0.000001
     4  C    0.000000   0.000000   0.000058  -0.026521   0.000002   0.000000
     5  N    0.000000   0.000000  -0.000241   0.004991   0.000001   0.000000
     6  O    0.000000  -0.000003   0.009984   0.003165   0.000000   0.000000
     7  C    0.000003  -0.000178  -0.013356  -0.030727   0.000000   0.000000
     8  C    0.000526   0.003175  -0.041165  -0.002816   0.000000   0.000000
     9  C    0.004842   0.000824   0.005437   0.000881   0.000000   0.000000
    10  C   -0.041785   0.004416   0.000233   0.000073   0.000000   0.000000
    11  C    0.362935  -0.041159   0.004500   0.000000   0.000000   0.000000
    12  C   -0.041710   0.362093  -0.041743   0.000001   0.000000   0.000000
    13  C    0.004672  -0.037598   0.361206  -0.000076   0.000000   0.000000
    14  C    0.000000   0.000001   0.000227   0.350716  -0.000001   0.000000
    15  C    0.000000   0.000000   0.000000   0.000143  -0.048831   0.004756
    16  C    0.000000   0.000000   0.000000  -0.000004   0.362652  -0.040901
    17  C    0.000000   0.000000   0.000000   0.000000  -0.033927   0.365899
    18  C    0.000000   0.000000   0.000000   0.000000   0.004133  -0.040217
    19  C    0.000000   0.000000   0.000000   0.000003   0.000312   0.004311
    20  C    0.000000   0.000000   0.000000  -0.000210   0.004428   0.000632
    21  O    0.000000   0.000000   0.000000   0.008985   0.000079   0.000000
    22  H    0.000000   0.000000   0.000000  -0.000148   0.000084   0.000000
    23  H   -0.000162   0.000015  -0.000145   0.002011   0.000000   0.000000
    24  H   -0.005193  -0.000168   0.000015  -0.000002   0.000000   0.000000
    25  H    0.569862  -0.005183  -0.000154   0.000000   0.000000   0.000000
    26  H   -0.005183   0.566268  -0.004874   0.000000   0.000000   0.000000
    27  H   -0.000154  -0.004874   0.556795  -0.000008   0.000000   0.000000
    28  H    0.000000   0.000000  -0.000008   0.495508   0.000000   0.000000
    29  H    0.000000   0.000000   0.000000   0.000000   0.525672  -0.005057
    30  H    0.000000   0.000000   0.000000   0.000000  -0.005057   0.550817
    31  H    0.000000   0.000000   0.000000   0.000000  -0.000141  -0.005176
    32  H    0.000000   0.000000   0.000000   0.000000   0.000014  -0.000160
    33  H    0.000000   0.000000   0.000000   0.000324  -0.000147   0.000014
              31         32         33
     1  O    0.000000   0.000000   0.000054
     2  S    0.000006  -0.000052  -0.003375
     3  N    0.000000   0.000001  -0.000008
     4  C    0.000000   0.000000   0.000150
     5  N    0.000000   0.000000  -0.000003
     6  O    0.000000   0.000000  -0.000006
     7  C    0.000000   0.000000   0.000102
     8  C    0.000000   0.000000  -0.000001
     9  C    0.000000   0.000000  -0.000002
    10  C    0.000000   0.000000   0.000000
    11  C    0.000000   0.000000   0.000000
    12  C    0.000000   0.000000   0.000000
    13  C    0.000000   0.000000   0.000000
    14  C    0.000000  -0.000003   0.001989
    15  C    0.000473   0.004727  -0.047371
    16  C    0.004820   0.000632   0.004566
    17  C   -0.040957   0.004301   0.000284
    18  C    0.364359  -0.039879   0.004187
    19  C   -0.040935   0.365782  -0.033970
    20  C    0.004839  -0.041045   0.360694
    21  O    0.000000   0.000002   0.007740
    22  H    0.000000   0.000000  -0.000016
    23  H    0.000000   0.000000   0.000004
    24  H    0.000000   0.000000   0.000000
    25  H    0.000000   0.000000   0.000000
    26  H    0.000000   0.000000   0.000000
    27  H    0.000000   0.000000   0.000000
    28  H    0.000000   0.000000   0.000324
    29  H   -0.000141   0.000014  -0.000147
    30  H   -0.005176  -0.000160   0.000014
    31  H    0.553996  -0.005179  -0.000142
    32  H   -0.005179   0.551217  -0.005086
    33  H   -0.000142  -0.005086   0.529269
 Mulliken charges:
               1
     1  O   -0.539929
     2  S    1.196152
     3  N   -0.764898
     4  C    0.482258
     5  N   -0.249528
     6  O   -0.406418
     7  C    0.385245
     8  C    0.081140
     9  C   -0.173980
    10  C   -0.145451
    11  C   -0.127917
    12  C   -0.141634
    13  C   -0.171084
    14  C   -0.277485
    15  C   -0.145711
    16  C   -0.143812
    17  C   -0.130541
    18  C   -0.121452
    19  C   -0.130903
    20  C   -0.140054
    21  O   -0.553508
    22  H    0.391733
    23  H    0.154351
    24  H    0.152734
    25  H    0.151347
    26  H    0.152371
    27  H    0.163229
    28  H    0.194321
    29  H    0.184775
    30  H    0.165135
    31  H    0.164036
    32  H    0.164729
    33  H    0.180748
 Sum of Mulliken charges =   0.00000
 Mulliken charges with hydrogens summed into heavy atoms:
               1
     1  O   -0.539929
     2  S    1.196152
     3  N   -0.373165
     4  C    0.482258
     5  N   -0.249528
     6  O   -0.406418
     7  C    0.385245
     8  C    0.081140
     9  C   -0.019628
    10  C    0.007283
    11  C    0.023430
    12  C    0.010736
    13  C   -0.007855
    14  C   -0.083164
    15  C   -0.145711
    16  C    0.040963
    17  C    0.034594
    18  C    0.042585
    19  C    0.033826
    20  C    0.040694
    21  O   -0.553508
 Electronic spatial extent (au):  <R**2>=           8020.8258
 Charge=              0.0000 electrons
 Dipole moment (field-independent basis, Debye):
    X=             -1.6426    Y=              5.5125    Z=              0.2928  Tot=              5.7595
 Quadrupole moment (field-independent basis, Debye-Ang):
   XX=           -103.6022   YY=           -125.1968   ZZ=           -128.3528
   XY=             11.9138   XZ=             15.1223   YZ=             -4.0504
 Traceless Quadrupole moment (field-independent basis, Debye-Ang):
   XX=             15.4484   YY=             -6.1462   ZZ=             -9.3022
   XY=             11.9138   XZ=             15.1223   YZ=             -4.0504
 Octapole moment (field-independent basis, Debye-Ang**2):
  XXX=            -68.6518  YYY=             34.9905  ZZZ=            -11.7496  XYY=             21.2885
  XXY=             87.8637  XXZ=             33.0808  XZZ=            -12.6436  YZZ=              0.7317
  YYZ=             10.3027  XYZ=            -12.3201
 Hexadecapole moment (field-independent basis, Debye-Ang**3):
 XXXX=          -7337.4988 YYYY=          -1498.7221 ZZZZ=           -939.8592 XXXY=            -15.9594
 XXXZ=            220.4794 YYYX=            147.9949 YYYZ=            -14.1366 ZZZX=             41.0026
 ZZZY=              1.9848 XXYY=          -1644.7234 XXZZ=          -1412.0887 YYZZ=           -419.4127
 XXYZ=             24.8596 YYXZ=             28.3705 ZZXY=            -31.8747
 N-N= 1.721751186587D+03 E-N=-6.514653516316D+03  KE= 1.302121442265D+03
 No NMR shielding tensors so no spin-rotation constants.
 Leave Link  601 at Thu Aug  6 22:16:43 2020, MaxMem=    33554432 cpu:         0.3
 (Enter /prod/apps/gaussian/g09d1/l9999.exe)
 1\1\GINC-PIRINEUS9\SP\RB3LYP\6-31G(d)\C15H12N2O3S1\UBAFAR01\06-Aug-202
 0\0\\#p b3lyp/6-31G(d) scrf=(iefpcm,read,solvent=n-Octanol) geom=allch
 eck guess=read\\SM42.n.6.pdb.xyz\\0,1\O,0,3.726,1.251,1.12\S,0,3.509,0
 .322,0.011\N,0,2.914,1.307,-1.239\C,0,2.54,0.779,-2.479\N,0,2.874,1.42
 6,-3.578\O,0,2.275,0.699,-4.612\C,0,1.62,-0.372,-4.099\C,0,0.939,-1.25
 2,-5.041\C,0,0.255,-2.388,-4.58\C,0,-0.394,-3.227,-5.479\C,0,-0.368,-2
 .945,-6.847\C,0,0.311,-1.817,-7.312\C,0,0.962,-0.974,-6.416\C,0,1.749,
 -0.371,-2.737\C,0,5.094,-0.309,-0.51\C,0,6.241,0.43,-0.216\C,0,7.477,-
 0.053,-0.639\C,0,7.554,-1.256,-1.344\C,0,6.398,-1.987,-1.626\C,0,5.155
 ,-1.518,-1.207\O,0,2.579,-0.802,0.115\H,0,3.419,2.19,-1.298\H,0,0.232,
 -2.611,-3.519\H,0,-0.92,-4.102,-5.113\H,0,-0.875,-3.602,-7.547\H,0,0.3
 33,-1.594,-8.373\H,0,1.49,-0.096,-6.771\H,0,1.353,-1.058,-2.01\H,0,6.1
 58,1.353,0.346\H,0,8.378,0.505,-0.413\H,0,8.519,-1.628,-1.67\H,0,6.464
 ,-2.925,-2.165\H,0,4.249,-2.079,-1.398\\Version=AM64L-G09RevD.01\State
 =1-A\HF=-1312.097481\RMSD=5.395e-09\Dipole=1.1218208,-1.3043679,-1.474
 6669\Quadrupole=13.1812056,-0.664089,-12.5171166,5.462564,10.0584864,4
 .2192669\PG=C01 [X(C15H12N2O3S1)]\\@


 "WHERE SHALL I START, PLEASE YOUR MAJESTY?" HE ASKED.
 "BEGIN AT THE BEGINNING," THE KING SAID GRAVELY,
 "AND GO ON TILL YOU COME TO THE END: THEN STOP." 

                                      -- LEWIS CARROLL
 Job cpu time:       0 days  0 hours  3 minutes 28.1 seconds.
 File lengths (MBytes):  RWF=    239 Int=      0 D2E=      0 Chk=      7 Scr=      1
 Normal termination of Gaussian 09 at Thu Aug  6 22:16:43 2020.
