 Entering Gaussian System, Link 0=g09
 Initial command:
 /prod/apps/gaussian/g09d1/l1.exe "/tmp/ubafar01/1448648/Gau-22298.inp" -scrdir="/tmp/ubafar01/1448648/"
 Entering Link 1 = /prod/apps/gaussian/g09d1/l1.exe PID=     22299.
  
 Copyright (c) 1988,1990,1992,1993,1995,1998,2003,2009,2013,
            Gaussian, Inc.  All Rights Reserved.
  
 This is part of the Gaussian(R) 09 program.  It is based on
 the Gaussian(R) 03 system (copyright 2003, Gaussian, Inc.),
 the Gaussian(R) 98 system (copyright 1998, Gaussian, Inc.),
 the Gaussian(R) 94 system (copyright 1995, Gaussian, Inc.),
 the Gaussian 92(TM) system (copyright 1992, Gaussian, Inc.),
 the Gaussian 90(TM) system (copyright 1990, Gaussian, Inc.),
 the Gaussian 88(TM) system (copyright 1988, Gaussian, Inc.),
 the Gaussian 86(TM) system (copyright 1986, Carnegie Mellon
 University), and the Gaussian 82(TM) system (copyright 1983,
 Carnegie Mellon University). Gaussian is a federally registered
 trademark of Gaussian, Inc.
  
 This software contains proprietary and confidential information,
 including trade secrets, belonging to Gaussian, Inc.
  
 This software is provided under written license and may be
 used, copied, transmitted, or stored only in accord with that
 written license.
  
 The following legend is applicable only to US Government
 contracts under FAR:
  
                    RESTRICTED RIGHTS LEGEND
  
 Use, reproduction and disclosure by the US Government is
 subject to restrictions as set forth in subparagraphs (a)
 and (c) of the Commercial Computer Software - Restricted
 Rights clause in FAR 52.227-19.
  
 Gaussian, Inc.
 340 Quinnipiac St., Bldg. 40, Wallingford CT 06492
  
  
 ---------------------------------------------------------------
 Warning -- This program may not be used in any manner that
 competes with the business of Gaussian, Inc. or will provide
 assistance to any competitor of Gaussian, Inc.  The licensee
 of this program is prohibited from giving any competitor of
 Gaussian, Inc. access to this program.  By using this program,
 the user acknowledges that Gaussian, Inc. is engaged in the
 business of creating and licensing software in the field of
 computational chemistry and represents and warrants to the
 licensee that it is not a competitor of Gaussian, Inc. and that
 it will not use this program in any manner prohibited above.
 ---------------------------------------------------------------
  

 Cite this work as:
 Gaussian 09, Revision D.01,
 M. J. Frisch, G. W. Trucks, H. B. Schlegel, G. E. Scuseria, 
 M. A. Robb, J. R. Cheeseman, G. Scalmani, V. Barone, B. Mennucci, 
 G. A. Petersson, H. Nakatsuji, M. Caricato, X. Li, H. P. Hratchian, 
 A. F. Izmaylov, J. Bloino, G. Zheng, J. L. Sonnenberg, M. Hada, 
 M. Ehara, K. Toyota, R. Fukuda, J. Hasegawa, M. Ishida, T. Nakajima, 
 Y. Honda, O. Kitao, H. Nakai, T. Vreven, J. A. Montgomery, Jr., 
 J. E. Peralta, F. Ogliaro, M. Bearpark, J. J. Heyd, E. Brothers, 
 K. N. Kudin, V. N. Staroverov, T. Keith, R. Kobayashi, J. Normand, 
 K. Raghavachari, A. Rendell, J. C. Burant, S. S. Iyengar, J. Tomasi, 
 M. Cossi, N. Rega, J. M. Millam, M. Klene, J. E. Knox, J. B. Cross, 
 V. Bakken, C. Adamo, J. Jaramillo, R. Gomperts, R. E. Stratmann, 
 O. Yazyev, A. J. Austin, R. Cammi, C. Pomelli, J. W. Ochterski, 
 R. L. Martin, K. Morokuma, V. G. Zakrzewski, G. A. Voth, 
 P. Salvador, J. J. Dannenberg, S. Dapprich, A. D. Daniels, 
 O. Farkas, J. B. Foresman, J. V. Ortiz, J. Cioslowski, 
 and D. J. Fox, Gaussian, Inc., Wallingford CT, 2013.
 
 ******************************************
 Gaussian 09:  AM64L-G09RevD.01 24-Apr-2013
                 6-Aug-2020 
 ******************************************
 %nproc=1
 Will use up to    1 processors via shared memory.
 %Chk=SM42.n.5.pdb.xyz.mst.n.o.chk
 -----------------
 #p b3lyp/6-31G(d)
 -----------------
 1/38=1/1;
 2/12=2,17=6,18=5,40=1/2;
 3/5=1,6=6,7=1,11=2,16=1,25=1,30=1,74=-5/1,2,3;
 4//1;
 5/5=2,38=5/2;
 6/7=2,8=2,9=2,10=2,28=1/1;
 99/5=1,9=1/99;
 Leave Link    1 at Thu Aug  6 22:07:45 2020, MaxMem=           0 cpu:         0.0
 (Enter /prod/apps/gaussian/g09d1/l101.exe)
 ----------------
 SM42.n.5.pdb.xyz
 ----------------
 Symbolic Z-matrix:
 Charge =  0 Multiplicity = 1
 O                     2.421    -0.487    -0.15 
 S                     3.873    -0.452    -0.357 
 N                     4.102     0.248    -1.899 
 C                     3.395    -0.247    -3.003 
 N                     4.027    -0.361    -4.155 
 O                     3.042    -0.774    -5.06 
 C                     1.859    -0.912    -4.414 
 C                     0.713    -1.35     -5.203 
 C                    -0.54     -1.52     -4.593 
 C                    -1.633    -1.938    -5.345 
 C                    -1.49     -2.191    -6.712 
 C                    -0.246    -2.024    -7.323 
 C                     0.851    -1.606    -6.575 
 C                     2.019    -0.585    -3.095 
 C                     4.621     0.805     0.66 
 C                     3.999     2.05      0.78 
 C                     4.582     3.009     1.602 
 C                     5.763     2.718     2.292 
 C                     6.367     1.467     2.166 
 C                     5.796     0.495     1.345 
 O                     4.652    -1.687    -0.212 
 H                     5.095     0.376    -2.1 
 H                    -0.654    -1.325    -3.532 
 H                    -2.597    -2.066    -4.865 
 H                    -2.344    -2.516    -7.296 
 H                    -0.129    -2.219    -8.383 
 H                     1.819    -1.475    -7.044 
 H                     1.297    -0.581    -2.299 
 H                     3.082     2.258     0.243 
 H                     4.115     3.982     1.707 
 H                     6.211     3.471     2.931 
 H                     7.28      1.245     2.706 
 H                     6.238    -0.487     1.23 
 
 NAtoms=     33 NQM=       33 NQMF=       0 NMMI=      0 NMMIF=      0
                NMic=       0 NMicF=      0.
                    Isotopes and Nuclear Properties:
 (Nuclear quadrupole moments (NQMom) in fm**2, nuclear magnetic moments (NMagM)
  in nuclear magnetons)

  Atom         1           2           3           4           5           6           7           8           9          10
 IAtWgt=          16          32          14          12          14          16          12          12          12          12
 AtmWgt=  15.9949146  31.9720718  14.0030740  12.0000000  14.0030740  15.9949146  12.0000000  12.0000000  12.0000000  12.0000000
 NucSpn=           0           0           2           0           2           0           0           0           0           0
 AtZEff=   0.0000000   0.0000000   0.0000000   0.0000000   0.0000000   0.0000000   0.0000000   0.0000000   0.0000000   0.0000000
 NQMom=    0.0000000   0.0000000   2.0440000   0.0000000   2.0440000   0.0000000   0.0000000   0.0000000   0.0000000   0.0000000
 NMagM=    0.0000000   0.0000000   0.4037610   0.0000000   0.4037610   0.0000000   0.0000000   0.0000000   0.0000000   0.0000000
 AtZNuc=   8.0000000  16.0000000   7.0000000   6.0000000   7.0000000   8.0000000   6.0000000   6.0000000   6.0000000   6.0000000

  Atom        11          12          13          14          15          16          17          18          19          20
 IAtWgt=          12          12          12          12          12          12          12          12          12          12
 AtmWgt=  12.0000000  12.0000000  12.0000000  12.0000000  12.0000000  12.0000000  12.0000000  12.0000000  12.0000000  12.0000000
 NucSpn=           0           0           0           0           0           0           0           0           0           0
 AtZEff=   0.0000000   0.0000000   0.0000000   0.0000000   0.0000000   0.0000000   0.0000000   0.0000000   0.0000000   0.0000000
 NQMom=    0.0000000   0.0000000   0.0000000   0.0000000   0.0000000   0.0000000   0.0000000   0.0000000   0.0000000   0.0000000
 NMagM=    0.0000000   0.0000000   0.0000000   0.0000000   0.0000000   0.0000000   0.0000000   0.0000000   0.0000000   0.0000000
 AtZNuc=   6.0000000   6.0000000   6.0000000   6.0000000   6.0000000   6.0000000   6.0000000   6.0000000   6.0000000   6.0000000

  Atom        21          22          23          24          25          26          27          28          29          30
 IAtWgt=          16           1           1           1           1           1           1           1           1           1
 AtmWgt=  15.9949146   1.0078250   1.0078250   1.0078250   1.0078250   1.0078250   1.0078250   1.0078250   1.0078250   1.0078250
 NucSpn=           0           1           1           1           1           1           1           1           1           1
 AtZEff=   0.0000000   0.0000000   0.0000000   0.0000000   0.0000000   0.0000000   0.0000000   0.0000000   0.0000000   0.0000000
 NQMom=    0.0000000   0.0000000   0.0000000   0.0000000   0.0000000   0.0000000   0.0000000   0.0000000   0.0000000   0.0000000
 NMagM=    0.0000000   2.7928460   2.7928460   2.7928460   2.7928460   2.7928460   2.7928460   2.7928460   2.7928460   2.7928460
 AtZNuc=   8.0000000   1.0000000   1.0000000   1.0000000   1.0000000   1.0000000   1.0000000   1.0000000   1.0000000   1.0000000

  Atom        31          32          33
 IAtWgt=           1           1           1
 AtmWgt=   1.0078250   1.0078250   1.0078250
 NucSpn=           1           1           1
 AtZEff=   0.0000000   0.0000000   0.0000000
 NQMom=    0.0000000   0.0000000   0.0000000
 NMagM=    2.7928460   2.7928460   2.7928460
 AtZNuc=   1.0000000   1.0000000   1.0000000
 Leave Link  101 at Thu Aug  6 22:07:45 2020, MaxMem=    33554432 cpu:         0.1
 (Enter /prod/apps/gaussian/g09d1/l202.exe)
                          Input orientation:                          
 ---------------------------------------------------------------------
 Center     Atomic      Atomic             Coordinates (Angstroms)
 Number     Number       Type             X           Y           Z
 ---------------------------------------------------------------------
      1          8           0        2.421000   -0.487000   -0.150000
      2         16           0        3.873000   -0.452000   -0.357000
      3          7           0        4.102000    0.248000   -1.899000
      4          6           0        3.395000   -0.247000   -3.003000
      5          7           0        4.027000   -0.361000   -4.155000
      6          8           0        3.042000   -0.774000   -5.060000
      7          6           0        1.859000   -0.912000   -4.414000
      8          6           0        0.713000   -1.350000   -5.203000
      9          6           0       -0.540000   -1.520000   -4.593000
     10          6           0       -1.633000   -1.938000   -5.345000
     11          6           0       -1.490000   -2.191000   -6.712000
     12          6           0       -0.246000   -2.024000   -7.323000
     13          6           0        0.851000   -1.606000   -6.575000
     14          6           0        2.019000   -0.585000   -3.095000
     15          6           0        4.621000    0.805000    0.660000
     16          6           0        3.999000    2.050000    0.780000
     17          6           0        4.582000    3.009000    1.602000
     18          6           0        5.763000    2.718000    2.292000
     19          6           0        6.367000    1.467000    2.166000
     20          6           0        5.796000    0.495000    1.345000
     21          8           0        4.652000   -1.687000   -0.212000
     22          1           0        5.095000    0.376000   -2.100000
     23          1           0       -0.654000   -1.325000   -3.532000
     24          1           0       -2.597000   -2.066000   -4.865000
     25          1           0       -2.344000   -2.516000   -7.296000
     26          1           0       -0.129000   -2.219000   -8.383000
     27          1           0        1.819000   -1.475000   -7.044000
     28          1           0        1.297000   -0.581000   -2.299000
     29          1           0        3.082000    2.258000    0.243000
     30          1           0        4.115000    3.982000    1.707000
     31          1           0        6.211000    3.471000    2.931000
     32          1           0        7.280000    1.245000    2.706000
     33          1           0        6.238000   -0.487000    1.230000
 ---------------------------------------------------------------------
                    Distance matrix (angstroms):
                    1          2          3          4          5
     1  O    0.000000
     2  S    1.467098   0.000000
     3  N    2.534756   1.708861   0.000000
     4  C    3.024216   2.696632   1.401317   0.000000
     5  N    4.316843   3.802210   2.337957   1.318910   0.000000
     6  O    4.957430   4.786696   3.487120   2.152577   1.399935
     7  C    4.321824   4.552696   3.563969   2.189165   2.251867
     8  C    5.403225   5.854547   4.995532   3.640018   3.613727
     9  C    5.438277   6.209580   5.650807   4.430898   4.732083
    10  C    6.747469   7.576568   7.038731   5.798726   5.994884
    11  C    7.826837   8.495406   7.770724   6.434209   6.350153
    12  C    7.805587   8.243937   7.313471   5.922585   5.573179
    13  C    6.708031   7.009117   5.989265   4.591078   4.182511
    14  C    2.973926   3.309328   2.542281   1.419889   2.281631
    15  C    2.676820   1.781528   2.669848   4.003417   4.989651
    16  C    3.129114   2.751118   3.230302   4.466779   5.492534
    17  C    4.467823   4.039664   4.484476   5.763378   6.693876
    18  C    5.234917   4.542929   5.140457   6.514267   7.352397
    19  C    4.975227   4.033377   4.810448   6.203962   6.983711
    20  C    3.819682   2.737068   3.667994   5.021999   5.840556
    21  O    2.534010   1.467341   2.625394   3.382799   4.206679
    22  H    3.420167   2.284057   1.021192   2.023249   2.430395
    23  H    4.647127   5.597900   5.268829   4.223307   4.819667
    24  H    7.064332   8.049097   7.682991   6.532983   6.876664
    25  H    8.825383   9.542584   8.849758   7.517601   7.422907
    26  H    8.791167   9.140841   8.125866   6.726943   6.212929
    27  H    6.990407   7.069753   5.886582   4.507931   3.802970
    28  H    2.427017   3.228588   2.952163   2.238029   3.308479
    29  H    2.850683   2.886136   3.109448   4.112117   5.205246
    30  H    5.127382   4.896837   5.190969   6.370788   7.296056
    31  H    6.286686   5.627354   6.177743   7.547565   8.346585
    32  H    5.896307   4.885635   5.683284   7.064840   7.761093
    33  H    4.058804   2.848336   3.859192   5.104756   5.822596
                    6          7          8          9         10
     6  O    0.000000
     7  C    1.354935   0.000000
     8  C    2.403428   1.458657   0.000000
     9  C    3.688540   2.481311   1.403926   0.000000
    10  C    4.826152   3.756794   2.422731   1.390999   0.000000
    11  C    5.027526   4.258221   2.799566   2.417210   1.397550
    12  C    4.182656   3.758969   2.422469   2.791658   2.417364
    13  C    2.790686   2.483470   1.402485   2.422932   2.791663
    14  C    2.223393   1.368316   2.595096   3.109133   4.497801
    15  C    6.140430   6.026791   7.368260   7.722406   9.093767
    16  C    6.557166   6.350644   7.625883   7.887747   9.227090
    17  C    7.814405   7.679924   8.959803   9.226307  10.552717
    18  C    8.581947   8.566712   9.910911  10.251423  11.606159
    19  C    8.263945   8.323347   9.705945  10.114984  11.489523
    20  C    7.086530   7.116579   8.492186   8.914312  10.289102
    21  O    5.189294   5.104731   6.367054   6.795433   8.118615
    22  H    3.781390   4.181535   5.640001   6.446944   7.819885
    23  H    4.037177   2.695118   2.159063   1.084777   2.149693
    24  H    5.788403   4.625046   3.403381   2.145542   1.084472
    25  H    6.086317   5.342654   3.884000   3.398918   2.155460
    26  H    4.815142   4.627457   3.402429   3.875774   3.401532
    27  H    2.433801   2.689883   2.151312   3.402103   3.875213
    28  H    3.271910   2.213285   3.060332   3.085243   4.438971
    29  H    6.108718   5.764744   6.949010   7.125943   8.429910
    30  H    8.340453   8.155208   9.367600   9.572410  10.854336
    31  H    9.587422   9.596855  10.937641  11.273715  12.620531
    32  H    9.074567   9.205123  10.602443  11.048666  12.425444
    33  H    7.061224   7.156186   8.523725   8.995316  10.358024
                   11         12         13         14         15
    11  C    0.000000
    12  C    1.395975   0.000000
    13  C    2.416873   1.391990   0.000000
    14  C    5.289140   5.007687   3.810127   0.000000
    15  C   10.033281   9.768276   8.507117   4.775199   0.000000
    16  C   10.210057  10.013796   8.796151   5.087165   1.396893
    17  C   11.533940  11.326796  10.103560   6.445744   2.397186
    18  C   12.560904  12.289950  11.020363   7.344870   2.761731
    19  C   12.406946  12.081389  10.783073   7.126986   2.398916
    20  C   11.189979  10.862106   9.570456   5.928383   1.394973
    21  O    8.957018   8.641197   7.412282   4.056942   2.640343
    22  H    8.439328   7.846401   6.478077   3.372732   2.833076
    23  H    3.400184   3.876435   3.406440   2.807757   7.066498
    24  H    2.156962   3.401577   3.876133   5.160786   9.532460
    25  H    1.084434   2.155086   3.399407   6.357117  11.083240
    26  H    2.155306   1.084119   2.145934   5.936902  10.652836
    27  H    3.401817   2.154871   1.083580   4.052987   8.508891
    28  H    5.462054   5.450108   4.419696   1.074670   4.661079
    29  H    9.437627   9.308892   8.148189   4.511636   2.157225
    30  H   11.849115  11.688937  10.510517   6.950533   3.383131
    31  H   13.577595  13.305352  12.036177   8.386696   3.846180
    32  H   13.319824  12.957927  11.644621   8.042302   3.383784
    33  H   11.211644  10.842437   9.549343   6.042780   2.146824
                   16         17         18         19         20
    16  C    0.000000
    17  C    1.391134   0.000000
    18  C    2.417450   1.398407   0.000000
    19  C    2.805051   2.425301   1.394881   0.000000
    20  C    2.442634   2.803576   2.416532   1.394585   0.000000
    21  O    3.921179   5.034671   5.187327   4.306254   2.914465
    22  H    3.506835   4.571724   5.022037   4.583342   3.517611
    23  H    7.185707   8.518052   9.562568   9.463451   8.288548
    24  H    9.608054  10.914016  11.999954  11.927713  10.750129
    25  H   11.238495  12.556652  13.603233  13.463850  12.247147
    26  H   10.919034  12.215798  13.154667  12.925402  11.709202
    27  H    8.853982  10.123919  10.968012  10.684745   9.490666
    28  H    4.868594   6.236756   7.204571   7.059421   5.888762
    29  H    1.082831   2.158908   3.405549   3.887780   3.418826
    30  H    2.146022   1.084363   2.157736   3.406965   3.887927
    31  H    3.396908   2.152516   1.084451   2.150715   3.397675
    32  H    3.888761   3.407303   2.154626   1.083722   2.148738
    33  H    3.413501   3.886224   3.409618   2.170450   1.083011
                   21         22         23         24         25
    21  O    0.000000
    22  H    2.831389   0.000000
    23  H    6.269536   6.164011   0.000000
    24  H    8.622184   8.530853   2.470065   0.000000
    25  H    9.990711   9.523697   4.294447   2.485210   0.000000
    26  H    9.481889   8.573231   4.960551   4.300088   2.485157
    27  H    7.399125   6.213012   4.297950   4.959675   4.298576
    28  H    4.103027   3.921767   2.424918   4.894162   6.478512
    29  H    4.270240   3.617146   6.406732   8.777225  10.443614
    30  H    6.009034   5.334500   8.851821  11.172306  12.845104
    31  H    6.238100   6.011276  10.578290  13.000648  14.615872
    32  H    4.900789   5.350423  10.414696  12.877806  14.380768
    33  H    2.456575   3.624930   8.418940  10.848940  12.266224
                   26         27         28         29         30
    26  H    0.000000
    27  H    2.478137   0.000000
    28  H    6.459998   4.856619   0.000000
    29  H   10.235327   8.284372   4.208077   0.000000
    30  H   12.580621  10.565532   6.694037   2.486476   0.000000
    31  H   14.162567  11.968843   8.241298   4.299692   2.480426
    32  H   13.778915  11.501453   8.011279   4.971493   4.301906
    33  H   11.659686   9.432008   6.072574   4.297619   4.970575
                   31         32         33
    31  H    0.000000
    32  H    2.479609   0.000000
    33  H    4.308120   2.502831   0.000000
 Stoichiometry    C15H12N2O3S
 Framework group  C1[X(C15H12N2O3S)]
 Deg. of freedom    93
 Full point group                 C1      NOp   1
 Largest Abelian subgroup         C1      NOp   1
 Largest concise Abelian subgroup C1      NOp   1
                         Standard orientation:                         
 ---------------------------------------------------------------------
 Center     Atomic      Atomic             Coordinates (Angstroms)
 Number     Number       Type             X           Y           Z
 ---------------------------------------------------------------------
      1          8           0        1.267715    1.409928    0.911396
      2         16           0        1.919622    0.096258    0.870574
      3          7           0        1.081356   -0.797459   -0.320554
      4          6           0       -0.317453   -0.872125   -0.282489
      5          7           0       -0.893421   -2.026460   -0.556892
      6          8           0       -2.265851   -1.751018   -0.537205
      7          6           0       -2.464124   -0.445851   -0.232121
      8          6           0       -3.843884    0.021070   -0.155129
      9          6           0       -4.118716    1.360363    0.163888
     10          6           0       -5.434353    1.805919    0.237740
     11          6           0       -6.489981    0.922896   -0.005300
     12          6           0       -6.221840   -0.409909   -0.322277
     13          6           0       -4.907080   -0.860914   -0.397370
     14          6           0       -1.254826    0.171242   -0.061578
     15          6           0        3.517717    0.213502    0.091992
     16          6           0        3.665628    0.995806   -1.055803
     17          6           0        4.927184    1.099369   -1.632869
     18          6           0        6.016754    0.433472   -1.062817
     19          6           0        5.852379   -0.337975    0.087637
     20          6           0        4.594049   -0.453102    0.677737
     21          8           0        2.065666   -0.675068    2.110258
     22          1           0        1.514666   -1.710533   -0.466750
     23          1           0       -3.301484    2.048011    0.353665
     24          1           0       -5.636662    2.842415    0.484372
     25          1           0       -7.514678    1.273168    0.052177
     26          1           0       -7.036647   -1.099528   -0.511563
     27          1           0       -4.693130   -1.894441   -0.642715
     28          1           0       -1.038005    1.194526    0.184986
     29          1           0        2.812920    1.509300   -1.482108
     30          1           0        5.061956    1.700772   -2.525054
     31          1           0        6.996981    0.519526   -1.518649
     32          1           0        6.700716   -0.848805    0.527899
     33          1           0        4.434913   -1.040414    1.573646
 ---------------------------------------------------------------------
 Rotational constants (GHZ):      0.9767255      0.1089963      0.1065107
 Leave Link  202 at Thu Aug  6 22:07:45 2020, MaxMem=    33554432 cpu:         0.0
 (Enter /prod/apps/gaussian/g09d1/l301.exe)
 Standard basis: 6-31G(d) (6D, 7F)
 Ernie: Thresh=  0.10000D-02 Tol=  0.10000D-05 Strict=F.
 There are   343 symmetry adapted cartesian basis functions of A   symmetry.
 There are   343 symmetry adapted basis functions of A   symmetry.
   343 basis functions,   660 primitive gaussians,   343 cartesian basis functions
    78 alpha electrons       78 beta electrons
       nuclear repulsion energy      1681.4088094846 Hartrees.
 IExCor=  402 DFT=T Ex+Corr=B3LYP ExCW=0 ScaHFX=  0.200000
 ScaDFX=  0.800000  0.720000  1.000000  0.810000 ScalE2=  1.000000  1.000000
 IRadAn=      0 IRanWt=     -1 IRanGd=            0 ICorTp=0 IEmpDi=  4
 NAtoms=   33 NActive=   33 NUniq=   33 SFac= 1.00D+00 NAtFMM=   60 NAOKFM=F Big=F
 Integral buffers will be    131072 words long.
 Raffenetti 2 integral format.
 Two-electron integral symmetry is turned on.
 Leave Link  301 at Thu Aug  6 22:07:45 2020, MaxMem=    33554432 cpu:         0.0
 (Enter /prod/apps/gaussian/g09d1/l302.exe)
 NPDir=0 NMtPBC=     1 NCelOv=     1 NCel=       1 NClECP=     1 NCelD=      1
         NCelK=      1 NCelE2=     1 NClLst=     1 CellRange=     0.0.
 One-electron integrals computed using PRISM.
 NBasis=   343 RedAO= T EigKep=  4.55D-04  NBF=   343
 NBsUse=   343 1.00D-06 EigRej= -1.00D+00 NBFU=   343
 Precomputing XC quadrature grid using
 IXCGrd= 4 IRadAn=           0 IRanWt=          -1 IRanGd=           0 AccXCQ= 0.00D+00.
 Generated NRdTot=       0 NPtTot=           0 NUsed=           0 NTot=          32
 NSgBfM=   336   336   336   336   336 MxSgAt=    33 MxSgA2=    33.
 Leave Link  302 at Thu Aug  6 22:07:46 2020, MaxMem=    33554432 cpu:         1.1
 (Enter /prod/apps/gaussian/g09d1/l303.exe)
 DipDrv:  MaxL=1.
 Leave Link  303 at Thu Aug  6 22:07:46 2020, MaxMem=    33554432 cpu:         0.0
 (Enter /prod/apps/gaussian/g09d1/l401.exe)
 ExpMin= 1.17D-01 ExpMax= 2.19D+04 ExpMxC= 3.30D+03 IAcc=1 IRadAn=         1 AccDes= 0.00D+00
 Harris functional with IExCor=  402 and IRadAn=       1 diagonalized for initial guess.
 HarFok:  IExCor=  402 AccDes= 0.00D+00 IRadAn=         1 IDoV= 1 UseB2=F ITyADJ=14
 ICtDFT=  3500011 ScaDFX=  1.000000  1.000000  1.000000  1.000000
 FoFCou: FMM=F IPFlag=           0 FMFlag=      100000 FMFlg1=           0
         NFxFlg=           0 DoJE=T BraDBF=F KetDBF=T FulRan=T
         wScrn=  0.000000 ICntrl=     500 IOpCl=  0 I1Cent=   200000004 NGrid=           0
         NMat0=    1 NMatS0=      1 NMatT0=    0 NMatD0=    1 NMtDS0=    0 NMtDT0=    0
 Petite list used in FoFCou.
 Harris En= -1312.10590665262    
 JPrj=0 DoOrth=F DoCkMO=F.
 Leave Link  401 at Thu Aug  6 22:07:49 2020, MaxMem=    33554432 cpu:         3.0
 (Enter /prod/apps/gaussian/g09d1/l502.exe)
 Closed shell SCF:
 Using DIIS extrapolation, IDIIS=  1040.
 Integral symmetry usage will be decided dynamically.
 IVT=      376131 IEndB=      376131 NGot=    33554432 MDV=    33312934
 LenX=    33312934 LenY=    33194844
 Requested convergence on RMS density matrix=1.00D-08 within 128 cycles.
 Requested convergence on MAX density matrix=1.00D-06.
 Requested convergence on             energy=1.00D-06.
 No special actions if energy rises.
 Fock matrices will be formed incrementally for  20 cycles.
 Integral accuracy reduced to 1.0D-05 until final iterations.

 Cycle   1  Pass 0  IDiag  1:
 FoFJK:  IHMeth= 1 ICntrl=       0 DoSepK=F KAlg= 0 I1Cent=   0 FoldK=F
 IRaf= 640000000 NMat=   1 IRICut=       1 DoRegI=T DoRafI=F ISym2E= 0.
 FoFCou: FMM=F IPFlag=           0 FMFlag=      100000 FMFlg1=           0
         NFxFlg=           0 DoJE=F BraDBF=F KetDBF=F FulRan=T
         wScrn=  0.000000 ICntrl=       0 IOpCl=  0 I1Cent=           0 NGrid=           0
         NMat0=    1 NMatS0=      1 NMatT0=    0 NMatD0=    1 NMtDS0=    0 NMtDT0=    0
 Symmetry not used in FoFCou.
 E= -1311.47529187845    
 DIIS: error= 2.79D-02 at cycle   1 NSaved=   1.
 NSaved= 1 IEnMin= 1 EnMin= -1311.47529187845     IErMin= 1 ErrMin= 2.79D-02
 ErrMax= 2.79D-02  0.00D+00 EMaxC= 1.00D-01 BMatC= 6.63D-01 BMatP= 6.63D-01
 IDIUse=3 WtCom= 7.21D-01 WtEn= 2.79D-01
 Coeff-Com:  0.100D+01
 Coeff-En:   0.100D+01
 Coeff:      0.100D+01
 Gap=     0.279 Goal=   None    Shift=    0.000
 GapD=    0.279 DampG=1.000 DampE=0.500 DampFc=0.5000 IDamp=-1.
 Damping current iteration by 5.00D-01
 RMSDP=6.36D-03 MaxDP=5.99D-01              OVMax= 2.44D-01

 Cycle   2  Pass 0  IDiag  1:
 RMSU=  3.17D-03    CP:  9.89D-01
 E= -1311.60388802311     Delta-E=       -0.128596144661 Rises=F Damp=T
 DIIS: error= 1.27D-02 at cycle   2 NSaved=   2.
 NSaved= 2 IEnMin= 2 EnMin= -1311.60388802311     IErMin= 2 ErrMin= 1.27D-02
 ErrMax= 1.27D-02  0.00D+00 EMaxC= 1.00D-01 BMatC= 1.23D-01 BMatP= 6.63D-01
 IDIUse=3 WtCom= 8.73D-01 WtEn= 1.27D-01
 Coeff-Com:  0.245D+00 0.755D+00
 Coeff-En:   0.387D+00 0.613D+00
 Coeff:      0.263D+00 0.737D+00
 Gap=     0.230 Goal=   None    Shift=    0.000
 RMSDP=2.08D-03 MaxDP=1.46D-01 DE=-1.29D-01 OVMax= 2.05D-01

 Cycle   3  Pass 0  IDiag  1:
 RMSU=  1.69D-03    CP:  9.75D-01  6.27D-01
 E= -1311.99935420695     Delta-E=       -0.395466183839 Rises=F Damp=F
 DIIS: error= 1.07D-02 at cycle   3 NSaved=   3.
 NSaved= 3 IEnMin= 3 EnMin= -1311.99935420695     IErMin= 3 ErrMin= 1.07D-02
 ErrMax= 1.07D-02  0.00D+00 EMaxC= 1.00D-01 BMatC= 7.65D-02 BMatP= 1.23D-01
 IDIUse=3 WtCom= 8.93D-01 WtEn= 1.07D-01
 Coeff-Com:  0.746D-01 0.437D+00 0.488D+00
 Coeff-En:   0.000D+00 0.000D+00 0.100D+01
 Coeff:      0.667D-01 0.391D+00 0.543D+00
 Gap=     0.180 Goal=   None    Shift=    0.000
 RMSDP=1.20D-03 MaxDP=5.12D-02 DE=-3.95D-01 OVMax= 7.65D-02

 Cycle   4  Pass 0  IDiag  1:
 RMSU=  7.54D-04    CP:  9.81D-01  7.44D-01  4.98D-01
 E= -1312.05679699465     Delta-E=       -0.057442787695 Rises=F Damp=F
 DIIS: error= 4.97D-03 at cycle   4 NSaved=   4.
 NSaved= 4 IEnMin= 4 EnMin= -1312.05679699465     IErMin= 4 ErrMin= 4.97D-03
 ErrMax= 4.97D-03  0.00D+00 EMaxC= 1.00D-01 BMatC= 1.42D-02 BMatP= 7.65D-02
 IDIUse=3 WtCom= 9.50D-01 WtEn= 4.97D-02
 Coeff-Com:  0.904D-02 0.108D+00 0.319D+00 0.564D+00
 Coeff-En:   0.000D+00 0.000D+00 0.173D+00 0.827D+00
 Coeff:      0.859D-02 0.103D+00 0.312D+00 0.577D+00
 Gap=     0.180 Goal=   None    Shift=    0.000
 RMSDP=4.35D-04 MaxDP=2.00D-02 DE=-5.74D-02 OVMax= 3.14D-02

 Cycle   5  Pass 0  IDiag  1:
 RMSU=  2.31D-04    CP:  9.80D-01  7.18D-01  6.28D-01  6.24D-01
 E= -1312.06829583974     Delta-E=       -0.011498845090 Rises=F Damp=F
 DIIS: error= 1.77D-03 at cycle   5 NSaved=   5.
 NSaved= 5 IEnMin= 5 EnMin= -1312.06829583974     IErMin= 5 ErrMin= 1.77D-03
 ErrMax= 1.77D-03  0.00D+00 EMaxC= 1.00D-01 BMatC= 1.55D-03 BMatP= 1.42D-02
 IDIUse=3 WtCom= 9.82D-01 WtEn= 1.77D-02
 Coeff-Com: -0.164D-02 0.265D-01 0.142D+00 0.349D+00 0.485D+00
 Coeff-En:   0.000D+00 0.000D+00 0.000D+00 0.603D-01 0.940D+00
 Coeff:     -0.161D-02 0.261D-01 0.139D+00 0.344D+00 0.493D+00
 Gap=     0.177 Goal=   None    Shift=    0.000
 RMSDP=1.55D-04 MaxDP=8.07D-03 DE=-1.15D-02 OVMax= 1.36D-02

 Cycle   6  Pass 0  IDiag  1:
 RMSU=  8.56D-05    CP:  9.80D-01  7.23D-01  6.25D-01  6.75D-01  4.74D-01
 E= -1312.06956060374     Delta-E=       -0.001264763997 Rises=F Damp=F
 DIIS: error= 6.78D-04 at cycle   6 NSaved=   6.
 NSaved= 6 IEnMin= 6 EnMin= -1312.06956060374     IErMin= 6 ErrMin= 6.78D-04
 ErrMax= 6.78D-04  0.00D+00 EMaxC= 1.00D-01 BMatC= 2.52D-04 BMatP= 1.55D-03
 IDIUse=3 WtCom= 9.93D-01 WtEn= 6.78D-03
 Coeff-Com: -0.203D-02 0.496D-02 0.500D-01 0.147D+00 0.326D+00 0.474D+00
 Coeff-En:   0.000D+00 0.000D+00 0.000D+00 0.000D+00 0.141D+00 0.859D+00
 Coeff:     -0.202D-02 0.493D-02 0.497D-01 0.146D+00 0.325D+00 0.477D+00
 Gap=     0.177 Goal=   None    Shift=    0.000
 RMSDP=5.36D-05 MaxDP=2.87D-03 DE=-1.26D-03 OVMax= 4.87D-03

 Cycle   7  Pass 0  IDiag  1:
 RMSU=  2.73D-05    CP:  9.80D-01  7.23D-01  6.28D-01  6.77D-01  5.67D-01
                    CP:  5.29D-01
 E= -1312.06978070221     Delta-E=       -0.000220098472 Rises=F Damp=F
 DIIS: error= 1.48D-04 at cycle   7 NSaved=   7.
 NSaved= 7 IEnMin= 7 EnMin= -1312.06978070221     IErMin= 7 ErrMin= 1.48D-04
 ErrMax= 1.48D-04  0.00D+00 EMaxC= 1.00D-01 BMatC= 1.57D-05 BMatP= 2.52D-04
 IDIUse=3 WtCom= 9.99D-01 WtEn= 1.48D-03
 Coeff-Com: -0.107D-02 0.388D-03 0.164D-01 0.538D-01 0.145D+00 0.281D+00
 Coeff-Com:  0.505D+00
 Coeff-En:   0.000D+00 0.000D+00 0.000D+00 0.000D+00 0.000D+00 0.000D+00
 Coeff-En:   0.100D+01
 Coeff:     -0.107D-02 0.387D-03 0.163D-01 0.537D-01 0.145D+00 0.281D+00
 Coeff:      0.505D+00
 Gap=     0.177 Goal=   None    Shift=    0.000
 RMSDP=1.39D-05 MaxDP=5.28D-04 DE=-2.20D-04 OVMax= 1.02D-03

 Cycle   8  Pass 0  IDiag  1:
 RMSU=  8.83D-06    CP:  9.80D-01  7.22D-01  6.28D-01  6.78D-01  5.71D-01
                    CP:  5.61D-01  6.25D-01
 E= -1312.06979404131     Delta-E=       -0.000013339106 Rises=F Damp=F
 DIIS: error= 6.73D-05 at cycle   8 NSaved=   8.
 NSaved= 8 IEnMin= 8 EnMin= -1312.06979404131     IErMin= 8 ErrMin= 6.73D-05
 ErrMax= 6.73D-05  0.00D+00 EMaxC= 1.00D-01 BMatC= 1.42D-06 BMatP= 1.57D-05
 IDIUse=1 WtCom= 1.00D+00 WtEn= 0.00D+00
 Coeff-Com: -0.389D-03-0.337D-03 0.368D-02 0.144D-01 0.471D-01 0.113D+00
 Coeff-Com:  0.286D+00 0.536D+00
 Coeff:     -0.389D-03-0.337D-03 0.368D-02 0.144D-01 0.471D-01 0.113D+00
 Coeff:      0.286D+00 0.536D+00
 Gap=     0.177 Goal=   None    Shift=    0.000
 RMSDP=4.97D-06 MaxDP=1.71D-04 DE=-1.33D-05 OVMax= 4.76D-04

 Initial convergence to 1.0D-05 achieved.  Increase integral accuracy.
 Cycle   9  Pass 1  IDiag  1:
 E= -1312.06979563841     Delta-E=       -0.000001597100 Rises=F Damp=F
 DIIS: error= 7.23D-05 at cycle   1 NSaved=   1.
 NSaved= 1 IEnMin= 1 EnMin= -1312.06979563841     IErMin= 1 ErrMin= 7.23D-05
 ErrMax= 7.23D-05  0.00D+00 EMaxC= 1.00D-01 BMatC= 8.84D-07 BMatP= 8.84D-07
 IDIUse=1 WtCom= 1.00D+00 WtEn= 0.00D+00
 Coeff-Com:  0.100D+01
 Coeff:      0.100D+01
 Gap=     0.177 Goal=   None    Shift=    0.000
 RMSDP=4.97D-06 MaxDP=1.71D-04 DE=-1.60D-06 OVMax= 2.79D-04

 Cycle  10  Pass 1  IDiag  1:
 RMSU=  3.92D-05    CP:  1.00D+00
 E= -1312.06979592108     Delta-E=       -0.000000282662 Rises=F Damp=F
 DIIS: error= 3.72D-05 at cycle   2 NSaved=   2.
 NSaved= 2 IEnMin= 2 EnMin= -1312.06979592108     IErMin= 2 ErrMin= 3.72D-05
 ErrMax= 3.72D-05  0.00D+00 EMaxC= 1.00D-01 BMatC= 6.10D-07 BMatP= 8.84D-07
 IDIUse=1 WtCom= 1.00D+00 WtEn= 0.00D+00
 Coeff-Com:  0.434D+00 0.566D+00
 Coeff:      0.434D+00 0.566D+00
 Gap=     0.177 Goal=   None    Shift=    0.000
 RMSDP=4.10D-06 MaxDP=1.50D-04 DE=-2.83D-07 OVMax= 2.93D-04

 Cycle  11  Pass 1  IDiag  1:
 RMSU=  4.10D-06    CP:  1.00D+00  9.98D-01
 E= -1312.06979615784     Delta-E=       -0.000000236767 Rises=F Damp=F
 DIIS: error= 2.85D-05 at cycle   3 NSaved=   3.
 NSaved= 3 IEnMin= 3 EnMin= -1312.06979615784     IErMin= 3 ErrMin= 2.85D-05
 ErrMax= 2.85D-05  0.00D+00 EMaxC= 1.00D-01 BMatC= 3.73D-07 BMatP= 6.10D-07
 IDIUse=1 WtCom= 1.00D+00 WtEn= 0.00D+00
 Coeff-Com:  0.121D-01 0.436D+00 0.552D+00
 Coeff:      0.121D-01 0.436D+00 0.552D+00
 Gap=     0.177 Goal=   None    Shift=    0.000
 RMSDP=1.92D-06 MaxDP=7.29D-05 DE=-2.37D-07 OVMax= 1.25D-04

 Cycle  12  Pass 1  IDiag  1:
 RMSU=  6.46D-07    CP:  1.00D+00  1.01D+00  5.67D-01
 E= -1312.06979649158     Delta-E=       -0.000000333732 Rises=F Damp=F
 DIIS: error= 4.23D-06 at cycle   4 NSaved=   4.
 NSaved= 4 IEnMin= 4 EnMin= -1312.06979649158     IErMin= 4 ErrMin= 4.23D-06
 ErrMax= 4.23D-06  0.00D+00 EMaxC= 1.00D-01 BMatC= 1.51D-08 BMatP= 3.73D-07
 IDIUse=1 WtCom= 1.00D+00 WtEn= 0.00D+00
 Coeff-Com: -0.395D-02 0.260D+00 0.349D+00 0.395D+00
 Coeff:     -0.395D-02 0.260D+00 0.349D+00 0.395D+00
 Gap=     0.177 Goal=   None    Shift=    0.000
 RMSDP=4.04D-07 MaxDP=1.55D-05 DE=-3.34D-07 OVMax= 2.97D-05

 Cycle  13  Pass 1  IDiag  1:
 RMSU=  1.81D-07    CP:  1.00D+00  1.01D+00  5.74D-01  4.43D-01
 E= -1312.06979650486     Delta-E=       -0.000000013289 Rises=F Damp=F
 DIIS: error= 1.20D-06 at cycle   5 NSaved=   5.
 NSaved= 5 IEnMin= 5 EnMin= -1312.06979650486     IErMin= 5 ErrMin= 1.20D-06
 ErrMax= 1.20D-06  0.00D+00 EMaxC= 1.00D-01 BMatC= 5.84D-10 BMatP= 1.51D-08
 IDIUse=1 WtCom= 1.00D+00 WtEn= 0.00D+00
 Coeff-Com: -0.309D-02 0.125D+00 0.170D+00 0.231D+00 0.477D+00
 Coeff:     -0.309D-02 0.125D+00 0.170D+00 0.231D+00 0.477D+00
 Gap=     0.177 Goal=   None    Shift=    0.000
 RMSDP=9.06D-08 MaxDP=3.79D-06 DE=-1.33D-08 OVMax= 6.99D-06

 Cycle  14  Pass 1  IDiag  1:
 RMSU=  6.20D-08    CP:  1.00D+00  1.01D+00  5.74D-01  4.64D-01  6.43D-01
 E= -1312.06979650550     Delta-E=       -0.000000000634 Rises=F Damp=F
 DIIS: error= 2.56D-07 at cycle   6 NSaved=   6.
 NSaved= 6 IEnMin= 6 EnMin= -1312.06979650550     IErMin= 6 ErrMin= 2.56D-07
 ErrMax= 2.56D-07  0.00D+00 EMaxC= 1.00D-01 BMatC= 2.91D-11 BMatP= 5.84D-10
 IDIUse=1 WtCom= 1.00D+00 WtEn= 0.00D+00
 Coeff-Com: -0.132D-02 0.469D-01 0.641D-01 0.935D-01 0.249D+00 0.548D+00
 Coeff:     -0.132D-02 0.469D-01 0.641D-01 0.935D-01 0.249D+00 0.548D+00
 Gap=     0.177 Goal=   None    Shift=    0.000
 RMSDP=2.39D-08 MaxDP=1.01D-06 DE=-6.34D-10 OVMax= 1.69D-06

 Cycle  15  Pass 1  IDiag  1:
 RMSU=  1.98D-08    CP:  1.00D+00  1.01D+00  5.74D-01  4.66D-01  6.92D-01
                    CP:  8.42D-01
 E= -1312.06979650552     Delta-E=       -0.000000000025 Rises=F Damp=F
 DIIS: error= 9.21D-08 at cycle   7 NSaved=   7.
 NSaved= 7 IEnMin= 7 EnMin= -1312.06979650552     IErMin= 7 ErrMin= 9.21D-08
 ErrMax= 9.21D-08  0.00D+00 EMaxC= 1.00D-01 BMatC= 8.97D-12 BMatP= 2.91D-11
 IDIUse=1 WtCom= 1.00D+00 WtEn= 0.00D+00
 Coeff-Com: -0.270D-03 0.618D-02 0.868D-02 0.160D-01 0.714D-01 0.374D+00
 Coeff-Com:  0.524D+00
 Coeff:     -0.270D-03 0.618D-02 0.868D-02 0.160D-01 0.714D-01 0.374D+00
 Coeff:      0.524D+00
 Gap=     0.177 Goal=   None    Shift=    0.000
 RMSDP=1.07D-08 MaxDP=6.23D-07 DE=-2.46D-11 OVMax= 6.90D-07

 Cycle  16  Pass 1  IDiag  1:
 RMSU=  6.09D-09    CP:  1.00D+00  1.01D+00  5.74D-01  4.68D-01  6.99D-01
                    CP:  8.87D-01  5.90D-01
 E= -1312.06979650555     Delta-E=       -0.000000000029 Rises=F Damp=F
 DIIS: error= 3.13D-08 at cycle   8 NSaved=   8.
 NSaved= 8 IEnMin= 8 EnMin= -1312.06979650555     IErMin= 8 ErrMin= 3.13D-08
 ErrMax= 3.13D-08  0.00D+00 EMaxC= 1.00D-01 BMatC= 8.41D-13 BMatP= 8.97D-12
 IDIUse=1 WtCom= 1.00D+00 WtEn= 0.00D+00
 Coeff-Com:  0.683D-05-0.208D-02-0.270D-02-0.195D-02 0.112D-01 0.151D+00
 Coeff-Com:  0.307D+00 0.537D+00
 Coeff:      0.683D-05-0.208D-02-0.270D-02-0.195D-02 0.112D-01 0.151D+00
 Coeff:      0.307D+00 0.537D+00
 Gap=     0.177 Goal=   None    Shift=    0.000
 RMSDP=3.08D-09 MaxDP=1.97D-07 DE=-2.91D-11 OVMax= 2.03D-07

 SCF Done:  E(RB3LYP) =  -1312.06979651     A.U. after   16 cycles
            NFock= 16  Conv=0.31D-08     -V/T= 2.0077
 KE= 1.302098904542D+03 PE=-6.433860360903D+03 EE= 2.138282850370D+03
 Leave Link  502 at Thu Aug  6 22:12:09 2020, MaxMem=    33554432 cpu:       259.9
 (Enter /prod/apps/gaussian/g09d1/l601.exe)
 Copying SCF densities to generalized density rwf, IOpCl= 0 IROHF=0.

 **********************************************************************

            Population analysis using the SCF density.

 **********************************************************************

 Orbital symmetries:
       Occupied  (A) (A) (A) (A) (A) (A) (A) (A) (A) (A) (A) (A)
                 (A) (A) (A) (A) (A) (A) (A) (A) (A) (A) (A) (A)
                 (A) (A) (A) (A) (A) (A) (A) (A) (A) (A) (A) (A)
                 (A) (A) (A) (A) (A) (A) (A) (A) (A) (A) (A) (A)
                 (A) (A) (A) (A) (A) (A) (A) (A) (A) (A) (A) (A)
                 (A) (A) (A) (A) (A) (A) (A) (A) (A) (A) (A) (A)
                 (A) (A) (A) (A) (A) (A)
       Virtual   (A) (A) (A) (A) (A) (A) (A) (A) (A) (A) (A) (A)
                 (A) (A) (A) (A) (A) (A) (A) (A) (A) (A) (A) (A)
                 (A) (A) (A) (A) (A) (A) (A) (A) (A) (A) (A) (A)
                 (A) (A) (A) (A) (A) (A) (A) (A) (A) (A) (A) (A)
                 (A) (A) (A) (A) (A) (A) (A) (A) (A) (A) (A) (A)
                 (A) (A) (A) (A) (A) (A) (A) (A) (A) (A) (A) (A)
                 (A) (A) (A) (A) (A) (A) (A) (A) (A) (A) (A) (A)
                 (A) (A) (A) (A) (A) (A) (A) (A) (A) (A) (A) (A)
                 (A) (A) (A) (A) (A) (A) (A) (A) (A) (A) (A) (A)
                 (A) (A) (A) (A) (A) (A) (A) (A) (A) (A) (A) (A)
                 (A) (A) (A) (A) (A) (A) (A) (A) (A) (A) (A) (A)
                 (A) (A) (A) (A) (A) (A) (A) (A) (A) (A) (A) (A)
                 (A) (A) (A) (A) (A) (A) (A) (A) (A) (A) (A) (A)
                 (A) (A) (A) (A) (A) (A) (A) (A) (A) (A) (A) (A)
                 (A) (A) (A) (A) (A) (A) (A) (A) (A) (A) (A) (A)
                 (A) (A) (A) (A) (A) (A) (A) (A) (A) (A) (A) (A)
                 (A) (A) (A) (A) (A) (A) (A) (A) (A) (A) (A) (A)
                 (A) (A) (A) (A) (A) (A) (A) (A) (A) (A) (A) (A)
                 (A) (A) (A) (A) (A) (A) (A) (A) (A) (A) (A) (A)
                 (A) (A) (A) (A) (A) (A) (A) (A) (A) (A) (A) (A)
                 (A) (A) (A) (A) (A) (A) (A) (A) (A) (A) (A) (A)
                 (A) (A) (A) (A) (A) (A) (A) (A) (A) (A) (A) (A)
                 (A)
 The electronic state is 1-A.
 Alpha  occ. eigenvalues --  -89.12567 -19.23186 -19.15327 -19.15246 -14.39054
 Alpha  occ. eigenvalues --  -14.37443 -10.26855 -10.26150 -10.24165 -10.22594
 Alpha  occ. eigenvalues --  -10.22474 -10.22171 -10.21927 -10.21885 -10.21305
 Alpha  occ. eigenvalues --  -10.20148 -10.19903 -10.19833 -10.19807 -10.19727
 Alpha  occ. eigenvalues --  -10.19429  -8.15109  -6.11637  -6.11496  -6.11404
 Alpha  occ. eigenvalues --   -1.13803  -1.12057  -1.00889  -0.96139  -0.88862
 Alpha  occ. eigenvalues --   -0.87147  -0.84797  -0.80567  -0.78987  -0.77702
 Alpha  occ. eigenvalues --   -0.75386  -0.74949  -0.69575  -0.64520  -0.63664
 Alpha  occ. eigenvalues --   -0.62831  -0.61303  -0.59516  -0.58942  -0.56067
 Alpha  occ. eigenvalues --   -0.54590  -0.52323  -0.50123  -0.49166  -0.48690
 Alpha  occ. eigenvalues --   -0.48056  -0.47204  -0.46678  -0.46207  -0.45283
 Alpha  occ. eigenvalues --   -0.45157  -0.44327  -0.43105  -0.42267  -0.39927
 Alpha  occ. eigenvalues --   -0.39586  -0.39302  -0.37974  -0.37557  -0.36788
 Alpha  occ. eigenvalues --   -0.36077  -0.35161  -0.35021  -0.32531  -0.32184
 Alpha  occ. eigenvalues --   -0.30929  -0.30894  -0.29374  -0.28450  -0.28034
 Alpha  occ. eigenvalues --   -0.25974  -0.25367  -0.22897
 Alpha virt. eigenvalues --   -0.05161  -0.04619  -0.02896  -0.00777   0.02309
 Alpha virt. eigenvalues --    0.04812   0.06700   0.07237   0.07958   0.09029
 Alpha virt. eigenvalues --    0.09853   0.10753   0.11020   0.12301   0.12822
 Alpha virt. eigenvalues --    0.13438   0.14859   0.15041   0.15487   0.16683
 Alpha virt. eigenvalues --    0.16863   0.17248   0.17778   0.18287   0.19027
 Alpha virt. eigenvalues --    0.23883   0.24050   0.25986   0.26546   0.27839
 Alpha virt. eigenvalues --    0.28313   0.29361   0.29838   0.30757   0.32737
 Alpha virt. eigenvalues --    0.33201   0.34295   0.35458   0.37566   0.41815
 Alpha virt. eigenvalues --    0.42172   0.44168   0.44435   0.47589   0.48486
 Alpha virt. eigenvalues --    0.50224   0.50662   0.51059   0.52049   0.53459
 Alpha virt. eigenvalues --    0.53665   0.54038   0.55109   0.55768   0.55988
 Alpha virt. eigenvalues --    0.56514   0.56592   0.57485   0.58102   0.58490
 Alpha virt. eigenvalues --    0.58611   0.58843   0.59321   0.59849   0.60595
 Alpha virt. eigenvalues --    0.61314   0.61440   0.61735   0.62493   0.62958
 Alpha virt. eigenvalues --    0.64858   0.65041   0.65685   0.67568   0.68944
 Alpha virt. eigenvalues --    0.69939   0.71116   0.74017   0.75092   0.75814
 Alpha virt. eigenvalues --    0.76605   0.77667   0.78321   0.79893   0.80428
 Alpha virt. eigenvalues --    0.80632   0.81802   0.81953   0.82241   0.83015
 Alpha virt. eigenvalues --    0.83309   0.83942   0.84945   0.85777   0.86327
 Alpha virt. eigenvalues --    0.88714   0.89426   0.89530   0.90470   0.90719
 Alpha virt. eigenvalues --    0.91410   0.91851   0.92552   0.93472   0.96210
 Alpha virt. eigenvalues --    0.97252   0.97905   0.98482   0.98885   1.00585
 Alpha virt. eigenvalues --    1.03010   1.03718   1.04711   1.04777   1.08796
 Alpha virt. eigenvalues --    1.09378   1.10429   1.10890   1.12433   1.15012
 Alpha virt. eigenvalues --    1.15322   1.17339   1.17828   1.18346   1.20579
 Alpha virt. eigenvalues --    1.21296   1.24002   1.24435   1.25719   1.26603
 Alpha virt. eigenvalues --    1.28209   1.29522   1.31706   1.33500   1.35397
 Alpha virt. eigenvalues --    1.36796   1.38931   1.39400   1.41207   1.41550
 Alpha virt. eigenvalues --    1.42313   1.42473   1.43223   1.44892   1.46208
 Alpha virt. eigenvalues --    1.47001   1.47440   1.47800   1.48273   1.48380
 Alpha virt. eigenvalues --    1.50272   1.52680   1.54257   1.55173   1.59093
 Alpha virt. eigenvalues --    1.62254   1.64437   1.66359   1.72227   1.75536
 Alpha virt. eigenvalues --    1.76635   1.77404   1.79008   1.79386   1.80520
 Alpha virt. eigenvalues --    1.81179   1.83708   1.83959   1.84544   1.85854
 Alpha virt. eigenvalues --    1.86798   1.88731   1.89173   1.91694   1.92748
 Alpha virt. eigenvalues --    1.94772   1.94971   1.95867   1.96804   1.97390
 Alpha virt. eigenvalues --    1.99198   2.02525   2.03959   2.05163   2.05983
 Alpha virt. eigenvalues --    2.08283   2.10882   2.11250   2.11851   2.12121
 Alpha virt. eigenvalues --    2.12378   2.12668   2.13552   2.13735   2.14159
 Alpha virt. eigenvalues --    2.14854   2.18761   2.19318   2.21403   2.22786
 Alpha virt. eigenvalues --    2.25232   2.27235   2.27435   2.28358   2.29966
 Alpha virt. eigenvalues --    2.30198   2.31308   2.31652   2.33397   2.34533
 Alpha virt. eigenvalues --    2.43559   2.50419   2.52506   2.52813   2.54781
 Alpha virt. eigenvalues --    2.55949   2.57699   2.58197   2.59370   2.62157
 Alpha virt. eigenvalues --    2.62805   2.64135   2.66513   2.67061   2.68625
 Alpha virt. eigenvalues --    2.69328   2.71770   2.73226   2.73572   2.74182
 Alpha virt. eigenvalues --    2.74623   2.76145   2.79546   2.82881   2.84880
 Alpha virt. eigenvalues --    2.90598   2.91177   3.00989   3.01932   3.06009
 Alpha virt. eigenvalues --    3.14188   3.27717   3.36041   3.43197   3.78910
 Alpha virt. eigenvalues --    3.89129   3.91026   4.03416   4.05490   4.06932
 Alpha virt. eigenvalues --    4.08210   4.09008   4.09596   4.11046   4.13926
 Alpha virt. eigenvalues --    4.19106   4.24116   4.30543   4.31712   4.33597
 Alpha virt. eigenvalues --    4.38602   4.40251   4.55352   4.64175   4.74455
          Condensed to atoms (all electrons):
               1          2          3          4          5          6
     1  O    8.253877   0.428040  -0.049177  -0.004655   0.000098   0.000000
     2  S    0.428040  13.727918   0.091280  -0.017571  -0.002277   0.000085
     3  N   -0.049177   0.091280   7.468607   0.237241  -0.078412   0.005815
     4  C   -0.004655  -0.017571   0.237241   4.520614   0.429206  -0.041953
     5  N    0.000098  -0.002277  -0.078412   0.429206   6.867005   0.137218
     6  O    0.000000   0.000085   0.005815  -0.041953   0.137218   8.170651
     7  C    0.000580  -0.000136  -0.000880  -0.016647  -0.084627   0.250218
     8  C   -0.000005  -0.000022  -0.000205   0.003974   0.004745  -0.037658
     9  C    0.000003  -0.000002   0.000002   0.000612  -0.000109   0.003175
    10  C    0.000000   0.000000   0.000000  -0.000007   0.000001  -0.000061
    11  C    0.000000   0.000000   0.000000   0.000000   0.000000   0.000001
    12  C    0.000000   0.000000   0.000000   0.000005   0.000001   0.000306
    13  C    0.000000   0.000000  -0.000001  -0.000394   0.000171  -0.006596
    14  C    0.000469  -0.001062  -0.057183   0.442446  -0.044976  -0.091557
    15  C   -0.058028   0.157677  -0.052952   0.003267  -0.000061   0.000000
    16  C    0.001274  -0.017164   0.003095   0.000004  -0.000001   0.000000
    17  C    0.000244   0.001748  -0.000048   0.000000   0.000000   0.000000
    18  C   -0.000005  -0.000372   0.000012   0.000000   0.000000   0.000000
    19  C   -0.000040   0.003729  -0.000124   0.000000   0.000000   0.000000
    20  C    0.000134  -0.026965  -0.000769  -0.000056   0.000001   0.000000
    21  O   -0.044837   0.450382  -0.057026   0.000889  -0.000055   0.000000
    22  H    0.001555  -0.004435   0.281830  -0.025675   0.005766  -0.000227
    23  H   -0.000014  -0.000003   0.000000   0.000067  -0.000004   0.000028
    24  H    0.000000   0.000000   0.000000   0.000000   0.000000   0.000000
    25  H    0.000000   0.000000   0.000000   0.000000   0.000000   0.000000
    26  H    0.000000   0.000000   0.000000   0.000000   0.000000  -0.000003
    27  H    0.000000   0.000000   0.000000   0.000064  -0.000247   0.010066
    28  H    0.009692   0.000779  -0.001715  -0.025528   0.004833   0.003192
    29  H    0.003079   0.000083   0.002117  -0.000109   0.000001   0.000000
    30  H    0.000001  -0.000040  -0.000002   0.000000   0.000000   0.000000
    31  H    0.000000   0.000006   0.000000   0.000000   0.000000   0.000000
    32  H    0.000000  -0.000054   0.000001   0.000000   0.000000   0.000000
    33  H    0.000056  -0.004997   0.000217  -0.000006   0.000000   0.000000
               7          8          9         10         11         12
     1  O    0.000580  -0.000005   0.000003   0.000000   0.000000   0.000000
     2  S   -0.000136  -0.000022  -0.000002   0.000000   0.000000   0.000000
     3  N   -0.000880  -0.000205   0.000002   0.000000   0.000000   0.000000
     4  C   -0.016647   0.003974   0.000612  -0.000007   0.000000   0.000005
     5  N   -0.084627   0.004745  -0.000109   0.000001   0.000000   0.000001
     6  O    0.250218  -0.037658   0.003175  -0.000061   0.000001   0.000306
     7  C    4.772854   0.337229  -0.041870   0.006408   0.000934   0.004709
     8  C    0.337229   4.770866   0.537890  -0.007992  -0.033761  -0.007962
     9  C   -0.041870   0.537890   5.006100   0.520895  -0.038225  -0.041733
    10  C    0.006408  -0.007992   0.520895   4.863454   0.545034  -0.023758
    11  C    0.000934  -0.033761  -0.038225   0.545034   4.853824   0.544326
    12  C    0.004709  -0.007962  -0.041733  -0.023758   0.544326   4.875488
    13  C   -0.039392   0.478286  -0.084635  -0.042489  -0.036042   0.504941
    14  C    0.485731  -0.059988  -0.021493   0.000249   0.000013  -0.000237
    15  C   -0.000004   0.000000   0.000000   0.000000   0.000000   0.000000
    16  C    0.000000   0.000000   0.000000   0.000000   0.000000   0.000000
    17  C    0.000000   0.000000   0.000000   0.000000   0.000000   0.000000
    18  C    0.000000   0.000000   0.000000   0.000000   0.000000   0.000000
    19  C    0.000000   0.000000   0.000000   0.000000   0.000000   0.000000
    20  C    0.000000   0.000000   0.000000   0.000000   0.000000   0.000000
    21  O   -0.000031   0.000000   0.000000   0.000000   0.000000   0.000000
    22  H    0.000316   0.000001   0.000000   0.000000   0.000000   0.000000
    23  H   -0.013411  -0.036555   0.352435  -0.044321   0.004615   0.000224
    24  H   -0.000212   0.003281  -0.038537   0.358963  -0.042228   0.004500
    25  H    0.000003   0.000541   0.004931  -0.043051   0.360671  -0.042915
    26  H   -0.000185   0.003183   0.000879   0.004518  -0.042549   0.359673
    27  H   -0.013555  -0.038202   0.005563   0.000272   0.004461  -0.043398
    28  H   -0.032492  -0.002751   0.000768   0.000078   0.000000   0.000000
    29  H    0.000001   0.000000   0.000000   0.000000   0.000000   0.000000
    30  H    0.000000   0.000000   0.000000   0.000000   0.000000   0.000000
    31  H    0.000000   0.000000   0.000000   0.000000   0.000000   0.000000
    32  H    0.000000   0.000000   0.000000   0.000000   0.000000   0.000000
    33  H    0.000000   0.000000   0.000000   0.000000   0.000000   0.000000
              13         14         15         16         17         18
     1  O    0.000000   0.000469  -0.058028   0.001274   0.000244  -0.000005
     2  S    0.000000  -0.001062   0.157677  -0.017164   0.001748  -0.000372
     3  N   -0.000001  -0.057183  -0.052952   0.003095  -0.000048   0.000012
     4  C   -0.000394   0.442446   0.003267   0.000004   0.000000   0.000000
     5  N    0.000171  -0.044976  -0.000061  -0.000001   0.000000   0.000000
     6  O   -0.006596  -0.091557   0.000000   0.000000   0.000000   0.000000
     7  C   -0.039392   0.485731  -0.000004   0.000000   0.000000   0.000000
     8  C    0.478286  -0.059988   0.000000   0.000000   0.000000   0.000000
     9  C   -0.084635  -0.021493   0.000000   0.000000   0.000000   0.000000
    10  C   -0.042489   0.000249   0.000000   0.000000   0.000000   0.000000
    11  C   -0.036042   0.000013   0.000000   0.000000   0.000000   0.000000
    12  C    0.504941  -0.000237   0.000000   0.000000   0.000000   0.000000
    13  C    5.045975   0.012105   0.000000   0.000000   0.000000   0.000000
    14  C    0.012105   5.243948  -0.000044   0.000001   0.000000   0.000000
    15  C    0.000000  -0.000044   5.374398   0.473923  -0.026940  -0.039245
    16  C    0.000000   0.000001   0.473923   4.907512   0.518717  -0.029349
    17  C    0.000000   0.000000  -0.026940   0.518717   4.873989   0.539949
    18  C    0.000000   0.000000  -0.039245  -0.029349   0.539949   4.841225
    19  C    0.000000   0.000000  -0.032634  -0.036942  -0.028820   0.545523
    20  C    0.000000   0.000000   0.516139  -0.037967  -0.038918  -0.029409
    21  O    0.000000  -0.000139  -0.061337   0.001612  -0.000042  -0.000005
    22  H    0.000000   0.004992   0.001361   0.000193  -0.000027   0.000002
    23  H    0.006009   0.006887   0.000000   0.000000   0.000000   0.000000
    24  H    0.000878  -0.000001   0.000000   0.000000   0.000000   0.000000
    25  H    0.004764   0.000000   0.000000   0.000000   0.000000   0.000000
    26  H   -0.038257   0.000001   0.000000   0.000000   0.000000   0.000000
    27  H    0.359648   0.000227   0.000000   0.000000   0.000000   0.000000
    28  H   -0.000077   0.350534   0.000048  -0.000009   0.000000   0.000000
    29  H    0.000000   0.000022  -0.047175   0.363436  -0.037076   0.004213
    30  H    0.000000   0.000000   0.004998  -0.041545   0.363546  -0.041493
    31  H    0.000000   0.000000   0.000457   0.004923  -0.042149   0.362473
    32  H    0.000000   0.000000   0.004876   0.000680   0.004374  -0.041649
    33  H    0.000000   0.000000  -0.041531   0.004699   0.000272   0.004068
              19         20         21         22         23         24
     1  O   -0.000040   0.000134  -0.044837   0.001555  -0.000014   0.000000
     2  S    0.003729  -0.026965   0.450382  -0.004435  -0.000003   0.000000
     3  N   -0.000124  -0.000769  -0.057026   0.281830   0.000000   0.000000
     4  C    0.000000  -0.000056   0.000889  -0.025675   0.000067   0.000000
     5  N    0.000000   0.000001  -0.000055   0.005766  -0.000004   0.000000
     6  O    0.000000   0.000000   0.000000  -0.000227   0.000028   0.000000
     7  C    0.000000   0.000000  -0.000031   0.000316  -0.013411  -0.000212
     8  C    0.000000   0.000000   0.000000   0.000001  -0.036555   0.003281
     9  C    0.000000   0.000000   0.000000   0.000000   0.352435  -0.038537
    10  C    0.000000   0.000000   0.000000   0.000000  -0.044321   0.358963
    11  C    0.000000   0.000000   0.000000   0.000000   0.004615  -0.042228
    12  C    0.000000   0.000000   0.000000   0.000000   0.000224   0.004500
    13  C    0.000000   0.000000   0.000000   0.000000   0.006009   0.000878
    14  C    0.000000   0.000000  -0.000139   0.004992   0.006887  -0.000001
    15  C   -0.032634   0.516139  -0.061337   0.001361   0.000000   0.000000
    16  C   -0.036942  -0.037967   0.001612   0.000193   0.000000   0.000000
    17  C   -0.028820  -0.038918  -0.000042  -0.000027   0.000000   0.000000
    18  C    0.545523  -0.029409  -0.000005   0.000002   0.000000   0.000000
    19  C    4.882177   0.502354   0.000639   0.000006   0.000000   0.000000
    20  C    0.502354   4.922402   0.002974   0.000427   0.000000   0.000000
    21  O    0.000639   0.002974   8.194398   0.000198   0.000000   0.000000
    22  H    0.000006   0.000427   0.000198   0.369886   0.000000   0.000000
    23  H    0.000000   0.000000   0.000000   0.000000   0.583466  -0.005191
    24  H    0.000000   0.000000   0.000000   0.000000  -0.005191   0.586307
    25  H    0.000000   0.000000   0.000000   0.000000  -0.000169  -0.005457
    26  H    0.000000   0.000000   0.000000   0.000000   0.000016  -0.000178
    27  H    0.000000   0.000000   0.000000   0.000000  -0.000150   0.000016
    28  H    0.000000  -0.000001   0.000067  -0.000173   0.002237  -0.000002
    29  H    0.000352   0.004424   0.000057   0.000021   0.000000   0.000000
    30  H    0.004407   0.000636   0.000000   0.000000   0.000000   0.000000
    31  H   -0.042048   0.004833   0.000000   0.000000   0.000000   0.000000
    32  H    0.364465  -0.042132   0.000002   0.000000   0.000000   0.000000
    33  H   -0.036184   0.360004   0.011172   0.000019   0.000000   0.000000
              25         26         27         28         29         30
     1  O    0.000000   0.000000   0.000000   0.009692   0.003079   0.000001
     2  S    0.000000   0.000000   0.000000   0.000779   0.000083  -0.000040
     3  N    0.000000   0.000000   0.000000  -0.001715   0.002117  -0.000002
     4  C    0.000000   0.000000   0.000064  -0.025528  -0.000109   0.000000
     5  N    0.000000   0.000000  -0.000247   0.004833   0.000001   0.000000
     6  O    0.000000  -0.000003   0.010066   0.003192   0.000000   0.000000
     7  C    0.000003  -0.000185  -0.013555  -0.032492   0.000001   0.000000
     8  C    0.000541   0.003183  -0.038202  -0.002751   0.000000   0.000000
     9  C    0.004931   0.000879   0.005563   0.000768   0.000000   0.000000
    10  C   -0.043051   0.004518   0.000272   0.000078   0.000000   0.000000
    11  C    0.360671  -0.042549   0.004461   0.000000   0.000000   0.000000
    12  C   -0.042915   0.359673  -0.043398   0.000000   0.000000   0.000000
    13  C    0.004764  -0.038257   0.359648  -0.000077   0.000000   0.000000
    14  C    0.000000   0.000001   0.000227   0.350534   0.000022   0.000000
    15  C    0.000000   0.000000   0.000000   0.000048  -0.047175   0.004998
    16  C    0.000000   0.000000   0.000000  -0.000009   0.363436  -0.041545
    17  C    0.000000   0.000000   0.000000   0.000000  -0.037076   0.363546
    18  C    0.000000   0.000000   0.000000   0.000000   0.004213  -0.041493
    19  C    0.000000   0.000000   0.000000   0.000000   0.000352   0.004407
    20  C    0.000000   0.000000   0.000000  -0.000001   0.004424   0.000636
    21  O    0.000000   0.000000   0.000000   0.000067   0.000057   0.000000
    22  H    0.000000   0.000000   0.000000  -0.000173   0.000021   0.000000
    23  H   -0.000169   0.000016  -0.000150   0.002237   0.000000   0.000000
    24  H   -0.005457  -0.000178   0.000016  -0.000002   0.000000   0.000000
    25  H    0.590231  -0.005450  -0.000159   0.000000   0.000000   0.000000
    26  H   -0.005450   0.584852  -0.004939   0.000000   0.000000   0.000000
    27  H   -0.000159  -0.004939   0.558122  -0.000008   0.000000   0.000000
    28  H    0.000000   0.000000  -0.000008   0.499650   0.000003   0.000000
    29  H    0.000000   0.000000   0.000000   0.000003   0.532272  -0.005339
    30  H    0.000000   0.000000   0.000000   0.000000  -0.005339   0.569052
    31  H    0.000000   0.000000   0.000000   0.000000  -0.000149  -0.005372
    32  H    0.000000   0.000000   0.000000   0.000000   0.000015  -0.000168
    33  H    0.000000   0.000000   0.000000   0.000000  -0.000145   0.000013
              31         32         33
     1  O    0.000000   0.000000   0.000056
     2  S    0.000006  -0.000054  -0.004997
     3  N    0.000000   0.000001   0.000217
     4  C    0.000000   0.000000  -0.000006
     5  N    0.000000   0.000000   0.000000
     6  O    0.000000   0.000000   0.000000
     7  C    0.000000   0.000000   0.000000
     8  C    0.000000   0.000000   0.000000
     9  C    0.000000   0.000000   0.000000
    10  C    0.000000   0.000000   0.000000
    11  C    0.000000   0.000000   0.000000
    12  C    0.000000   0.000000   0.000000
    13  C    0.000000   0.000000   0.000000
    14  C    0.000000   0.000000   0.000000
    15  C    0.000457   0.004876  -0.041531
    16  C    0.004923   0.000680   0.004699
    17  C   -0.042149   0.004374   0.000272
    18  C    0.362473  -0.041649   0.004068
    19  C   -0.042048   0.364465  -0.036184
    20  C    0.004833  -0.042132   0.360004
    21  O    0.000000   0.000002   0.011172
    22  H    0.000000   0.000000   0.000019
    23  H    0.000000   0.000000   0.000000
    24  H    0.000000   0.000000   0.000000
    25  H    0.000000   0.000000   0.000000
    26  H    0.000000   0.000000   0.000000
    27  H    0.000000   0.000000   0.000000
    28  H    0.000000   0.000000   0.000000
    29  H   -0.000149   0.000015  -0.000145
    30  H   -0.005372  -0.000168   0.000013
    31  H    0.573142  -0.005452  -0.000140
    32  H   -0.005452   0.568299  -0.004916
    33  H   -0.000140  -0.004916   0.516245
 Mulliken charges:
               1
     1  O   -0.542340
     2  S    1.213372
     3  N   -0.791721
     4  C    0.494212
     5  N   -0.238275
     6  O   -0.402700
     7  C    0.384459
     8  C    0.085102
     9  C   -0.166649
    10  C   -0.138193
    11  C   -0.121076
    12  C   -0.134170
    13  C   -0.164895
    14  C   -0.270945
    15  C   -0.177192
    16  C   -0.117090
    17  C   -0.128818
    18  C   -0.115938
    19  C   -0.126859
    20  C   -0.138112
    21  O   -0.498916
    22  H    0.363963
    23  H    0.143835
    24  H    0.137861
    25  H    0.136061
    26  H    0.138437
    27  H    0.162219
    28  H    0.190876
    29  H    0.179898
    30  H    0.151306
    31  H    0.149475
    32  H    0.151660
    33  H    0.191153
 Sum of Mulliken charges =   0.00000
 Mulliken charges with hydrogens summed into heavy atoms:
               1
     1  O   -0.542340
     2  S    1.213372
     3  N   -0.427758
     4  C    0.494212
     5  N   -0.238275
     6  O   -0.402700
     7  C    0.384459
     8  C    0.085102
     9  C   -0.022814
    10  C   -0.000332
    11  C    0.014985
    12  C    0.004267
    13  C   -0.002676
    14  C   -0.080069
    15  C   -0.177192
    16  C    0.062808
    17  C    0.022488
    18  C    0.033537
    19  C    0.024801
    20  C    0.053041
    21  O   -0.498916
 Electronic spatial extent (au):  <R**2>=           9740.1111
 Charge=              0.0000 electrons
 Dipole moment (field-independent basis, Debye):
    X=              2.2911    Y=              1.3495    Z=             -2.7419  Tot=              3.8195
 Quadrupole moment (field-independent basis, Debye-Ang):
   XX=            -80.9073   YY=           -127.2252   ZZ=           -132.2704
   XY=             -6.6914   XZ=             -8.6961   YZ=             -3.0284
 Traceless Quadrupole moment (field-independent basis, Debye-Ang):
   XX=             32.5603   YY=            -13.7576   ZZ=            -18.8027
   XY=             -6.6914   XZ=             -8.6961   YZ=             -3.0284
 Octapole moment (field-independent basis, Debye-Ang**2):
  XXX=             66.2219  YYY=              9.3556  ZZZ=             -7.4383  XYY=             -7.8395
  XXY=              2.6363  XXZ=            -26.3007  XZZ=             22.2910  YZZ=              5.9599
  YYZ=              1.1993  XYZ=            -22.4560
 Hexadecapole moment (field-independent basis, Debye-Ang**3):
 XXXX=          -9561.8658 YYYY=           -923.3551 ZZZZ=           -640.7321 XXXY=            -78.3728
 XXXZ=            -93.1225 YYYX=            -51.6789 YYYZ=             -5.4059 ZZZX=            -26.3193
 ZZZY=             -7.4321 XXYY=          -2008.0524 XXZZ=          -2089.8679 YYZZ=           -254.8073
 XXYZ=            -39.9635 YYXZ=            -23.1843 ZZXY=             46.2365
 N-N= 1.681408809485D+03 E-N=-6.433860361902D+03  KE= 1.302098904542D+03
 No NMR shielding tensors so no spin-rotation constants.
 Leave Link  601 at Thu Aug  6 22:12:09 2020, MaxMem=    33554432 cpu:         0.3
 (Enter /prod/apps/gaussian/g09d1/l9999.exe)
 1\1\GINC-PIRINEUS30\SP\RB3LYP\6-31G(d)\C15H12N2O3S1\UBAFAR01\06-Aug-20
 20\0\\#p b3lyp/6-31G(d)\\SM42.n.5.pdb.xyz\\0,1\O,0,2.421,-0.487,-0.15\
 S,0,3.873,-0.452,-0.357\N,0,4.102,0.248,-1.899\C,0,3.395,-0.247,-3.003
 \N,0,4.027,-0.361,-4.155\O,0,3.042,-0.774,-5.06\C,0,1.859,-0.912,-4.41
 4\C,0,0.713,-1.35,-5.203\C,0,-0.54,-1.52,-4.593\C,0,-1.633,-1.938,-5.3
 45\C,0,-1.49,-2.191,-6.712\C,0,-0.246,-2.024,-7.323\C,0,0.851,-1.606,-
 6.575\C,0,2.019,-0.585,-3.095\C,0,4.621,0.805,0.66\C,0,3.999,2.05,0.78
 \C,0,4.582,3.009,1.602\C,0,5.763,2.718,2.292\C,0,6.367,1.467,2.166\C,0
 ,5.796,0.495,1.345\O,0,4.652,-1.687,-0.212\H,0,5.095,0.376,-2.1\H,0,-0
 .654,-1.325,-3.532\H,0,-2.597,-2.066,-4.865\H,0,-2.344,-2.516,-7.296\H
 ,0,-0.129,-2.219,-8.383\H,0,1.819,-1.475,-7.044\H,0,1.297,-0.581,-2.29
 9\H,0,3.082,2.258,0.243\H,0,4.115,3.982,1.707\H,0,6.211,3.471,2.931\H,
 0,7.28,1.245,2.706\H,0,6.238,-0.487,1.23\\Version=AM64L-G09RevD.01\Sta
 te=1-A\HF=-1312.0697965\RMSD=3.080e-09\Dipole=0.0057991,1.3810563,0.59
 22464\Quadrupole=4.6407594,-5.9485571,1.3077978,8.5784399,15.4331131,1
 3.1743838\PG=C01 [X(C15H12N2O3S1)]\\@


 THERE IS AN OLD, OLD RECIPE IN MAINE FOR STEWING COOT. PLACE THE
 BIRD IN A KETTLE OF WATER WITH A RED BUILDING BRICK FREE OF MORTAR AND
 BLEMISHES. PARBOIL THE COOT AND BRICK TOGETHER FOR THREE HOURS.
 POUR OFF THE WATER, REFILL THE KETTLE, AND AGAIN PARBOIL FOR THREE HOURS.
 ONCE AGAIN POUR OFF THE WATER, FOR THE LAST TIME ADD FRESH WATER,
 AND LET THE COOT AND BRICK SIMMER TOGETHER OVERNIGHT. IN THE MORNING,
 THROW AWAY THE COOT AND EAT THE BRICK.
 Job cpu time:       0 days  0 hours  4 minutes 24.4 seconds.
 File lengths (MBytes):  RWF=     66 Int=      0 D2E=      0 Chk=      5 Scr=      1
 Normal termination of Gaussian 09 at Thu Aug  6 22:12:09 2020.
 Initial command:
 /prod/apps/gaussian/g09d1/l1.exe "/tmp/ubafar01/1448648/Gau-22298.inp" -scrdir="/tmp/ubafar01/1448648/"
 Entering Link 1 = /prod/apps/gaussian/g09d1/l1.exe PID=     22551.
  
 Copyright (c) 1988,1990,1992,1993,1995,1998,2003,2009,2013,
            Gaussian, Inc.  All Rights Reserved.
  
 This is part of the Gaussian(R) 09 program.  It is based on
 the Gaussian(R) 03 system (copyright 2003, Gaussian, Inc.),
 the Gaussian(R) 98 system (copyright 1998, Gaussian, Inc.),
 the Gaussian(R) 94 system (copyright 1995, Gaussian, Inc.),
 the Gaussian 92(TM) system (copyright 1992, Gaussian, Inc.),
 the Gaussian 90(TM) system (copyright 1990, Gaussian, Inc.),
 the Gaussian 88(TM) system (copyright 1988, Gaussian, Inc.),
 the Gaussian 86(TM) system (copyright 1986, Carnegie Mellon
 University), and the Gaussian 82(TM) system (copyright 1983,
 Carnegie Mellon University). Gaussian is a federally registered
 trademark of Gaussian, Inc.
  
 This software contains proprietary and confidential information,
 including trade secrets, belonging to Gaussian, Inc.
  
 This software is provided under written license and may be
 used, copied, transmitted, or stored only in accord with that
 written license.
  
 The following legend is applicable only to US Government
 contracts under FAR:
  
                    RESTRICTED RIGHTS LEGEND
  
 Use, reproduction and disclosure by the US Government is
 subject to restrictions as set forth in subparagraphs (a)
 and (c) of the Commercial Computer Software - Restricted
 Rights clause in FAR 52.227-19.
  
 Gaussian, Inc.
 340 Quinnipiac St., Bldg. 40, Wallingford CT 06492
  
  
 ---------------------------------------------------------------
 Warning -- This program may not be used in any manner that
 competes with the business of Gaussian, Inc. or will provide
 assistance to any competitor of Gaussian, Inc.  The licensee
 of this program is prohibited from giving any competitor of
 Gaussian, Inc. access to this program.  By using this program,
 the user acknowledges that Gaussian, Inc. is engaged in the
 business of creating and licensing software in the field of
 computational chemistry and represents and warrants to the
 licensee that it is not a competitor of Gaussian, Inc. and that
 it will not use this program in any manner prohibited above.
 ---------------------------------------------------------------
  

 Cite this work as:
 Gaussian 09, Revision D.01,
 M. J. Frisch, G. W. Trucks, H. B. Schlegel, G. E. Scuseria, 
 M. A. Robb, J. R. Cheeseman, G. Scalmani, V. Barone, B. Mennucci, 
 G. A. Petersson, H. Nakatsuji, M. Caricato, X. Li, H. P. Hratchian, 
 A. F. Izmaylov, J. Bloino, G. Zheng, J. L. Sonnenberg, M. Hada, 
 M. Ehara, K. Toyota, R. Fukuda, J. Hasegawa, M. Ishida, T. Nakajima, 
 Y. Honda, O. Kitao, H. Nakai, T. Vreven, J. A. Montgomery, Jr., 
 J. E. Peralta, F. Ogliaro, M. Bearpark, J. J. Heyd, E. Brothers, 
 K. N. Kudin, V. N. Staroverov, T. Keith, R. Kobayashi, J. Normand, 
 K. Raghavachari, A. Rendell, J. C. Burant, S. S. Iyengar, J. Tomasi, 
 M. Cossi, N. Rega, J. M. Millam, M. Klene, J. E. Knox, J. B. Cross, 
 V. Bakken, C. Adamo, J. Jaramillo, R. Gomperts, R. E. Stratmann, 
 O. Yazyev, A. J. Austin, R. Cammi, C. Pomelli, J. W. Ochterski, 
 R. L. Martin, K. Morokuma, V. G. Zakrzewski, G. A. Voth, 
 P. Salvador, J. J. Dannenberg, S. Dapprich, A. D. Daniels, 
 O. Farkas, J. B. Foresman, J. V. Ortiz, J. Cioslowski, 
 and D. J. Fox, Gaussian, Inc., Wallingford CT, 2013.
 
 ******************************************
 Gaussian 09:  AM64L-G09RevD.01 24-Apr-2013
                 6-Aug-2020 
 ******************************************
 %nproc=1
 Will use up to    1 processors via shared memory.
 %Chk=SM42.n.5.pdb.xyz.mst.n.o.chk
 %subst l301 /dades/curu/work_g09D01_MST_AddSphPartition_ReadGammas/exe-dir/
 %subst l502 /dades/curu/work_g09D01_MST_AddSphPartition_ReadGammas/exe-dir/
 ----------------------------------------------------------------------
 #p b3lyp/6-31G(d) scrf=(iefpcm,read,solvent=n-Octanol) geom=allcheck g
 uess=read
 ----------------------------------------------------------------------
 1/29=7,38=1,40=2/1;
 2/12=2,40=1/2;
 3/5=1,6=6,7=1,11=2,14=-4,16=1,25=1,30=1,70=2203,72=25,74=-5,116=-2/1,2,3;
 4/5=1/1;
 5/5=2,38=6,53=25/2;
 6/7=2,8=2,9=2,10=2,28=1/1;
 99/5=1,9=1/99;
 Leave Link    1 at Thu Aug  6 22:12:10 2020, MaxMem=           0 cpu:         0.0
 (Enter /prod/apps/gaussian/g09d1/l101.exe)
 Structure from the checkpoint file:  "SM42.n.5.pdb.xyz.mst.n.o.chk"
 ----------------
 SM42.n.5.pdb.xyz
 ----------------
 Charge =  0 Multiplicity = 1
 Z-Matrix found in file.
 O,0,2.421,-0.487,-0.15
 S,0,3.873,-0.452,-0.357
 N,0,4.102,0.248,-1.899
 C,0,3.395,-0.247,-3.003
 N,0,4.027,-0.361,-4.155
 O,0,3.042,-0.774,-5.06
 C,0,1.859,-0.912,-4.414
 C,0,0.713,-1.35,-5.203
 C,0,-0.54,-1.52,-4.593
 C,0,-1.633,-1.938,-5.345
 C,0,-1.49,-2.191,-6.712
 C,0,-0.246,-2.024,-7.323
 C,0,0.851,-1.606,-6.575
 C,0,2.019,-0.585,-3.095
 C,0,4.621,0.805,0.66
 C,0,3.999,2.05,0.78
 C,0,4.582,3.009,1.602
 C,0,5.763,2.718,2.292
 C,0,6.367,1.467,2.166
 C,0,5.796,0.495,1.345
 O,0,4.652,-1.687,-0.212
 H,0,5.095,0.376,-2.1
 H,0,-0.654,-1.325,-3.532
 H,0,-2.597,-2.066,-4.865
 H,0,-2.344,-2.516,-7.296
 H,0,-0.129,-2.219,-8.383
 H,0,1.819,-1.475,-7.044
 H,0,1.297,-0.581,-2.299
 H,0,3.082,2.258,0.243
 H,0,4.115,3.982,1.707
 H,0,6.211,3.471,2.931
 H,0,7.28,1.245,2.706
 H,0,6.238,-0.487,1.23
 Recover connectivity data from disk.
 NAtoms=     33 NQM=       33 NQMF=       0 NMMI=      0 NMMIF=      0
                NMic=       0 NMicF=      0.
                    Isotopes and Nuclear Properties:
 (Nuclear quadrupole moments (NQMom) in fm**2, nuclear magnetic moments (NMagM)
  in nuclear magnetons)

  Atom         1           2           3           4           5           6           7           8           9          10
 IAtWgt=          16          32          14          12          14          16          12          12          12          12
 AtmWgt=  15.9949146  31.9720718  14.0030740  12.0000000  14.0030740  15.9949146  12.0000000  12.0000000  12.0000000  12.0000000
 NucSpn=           0           0           2           0           2           0           0           0           0           0
 AtZEff=  -5.6000000 -13.6000000  -4.5500000  -3.6000000  -4.5500000  -5.6000000  -3.6000000  -3.6000000  -3.6000000  -3.6000000
 NQMom=    0.0000000   0.0000000   2.0440000   0.0000000   2.0440000   0.0000000   0.0000000   0.0000000   0.0000000   0.0000000
 NMagM=    0.0000000   0.0000000   0.4037610   0.0000000   0.4037610   0.0000000   0.0000000   0.0000000   0.0000000   0.0000000
 AtZNuc=   8.0000000  16.0000000   7.0000000   6.0000000   7.0000000   8.0000000   6.0000000   6.0000000   6.0000000   6.0000000

  Atom        11          12          13          14          15          16          17          18          19          20
 IAtWgt=          12          12          12          12          12          12          12          12          12          12
 AtmWgt=  12.0000000  12.0000000  12.0000000  12.0000000  12.0000000  12.0000000  12.0000000  12.0000000  12.0000000  12.0000000
 NucSpn=           0           0           0           0           0           0           0           0           0           0
 AtZEff=  -3.6000000  -3.6000000  -3.6000000  -3.6000000  -3.6000000  -3.6000000  -3.6000000  -3.6000000  -3.6000000  -3.6000000
 NQMom=    0.0000000   0.0000000   0.0000000   0.0000000   0.0000000   0.0000000   0.0000000   0.0000000   0.0000000   0.0000000
 NMagM=    0.0000000   0.0000000   0.0000000   0.0000000   0.0000000   0.0000000   0.0000000   0.0000000   0.0000000   0.0000000
 AtZNuc=   6.0000000   6.0000000   6.0000000   6.0000000   6.0000000   6.0000000   6.0000000   6.0000000   6.0000000   6.0000000

  Atom        21          22          23          24          25          26          27          28          29          30
 IAtWgt=          16           1           1           1           1           1           1           1           1           1
 AtmWgt=  15.9949146   1.0078250   1.0078250   1.0078250   1.0078250   1.0078250   1.0078250   1.0078250   1.0078250   1.0078250
 NucSpn=           0           1           1           1           1           1           1           1           1           1
 AtZEff=  -5.6000000  -1.0000000  -1.0000000  -1.0000000  -1.0000000  -1.0000000  -1.0000000  -1.0000000  -1.0000000  -1.0000000
 NQMom=    0.0000000   0.0000000   0.0000000   0.0000000   0.0000000   0.0000000   0.0000000   0.0000000   0.0000000   0.0000000
 NMagM=    0.0000000   2.7928460   2.7928460   2.7928460   2.7928460   2.7928460   2.7928460   2.7928460   2.7928460   2.7928460
 AtZNuc=   8.0000000   1.0000000   1.0000000   1.0000000   1.0000000   1.0000000   1.0000000   1.0000000   1.0000000   1.0000000

  Atom        31          32          33
 IAtWgt=           1           1           1
 AtmWgt=   1.0078250   1.0078250   1.0078250
 NucSpn=           1           1           1
 AtZEff=  -1.0000000  -1.0000000  -1.0000000
 NQMom=    0.0000000   0.0000000   0.0000000
 NMagM=    2.7928460   2.7928460   2.7928460
 AtZNuc=   1.0000000   1.0000000   1.0000000
 Leave Link  101 at Thu Aug  6 22:12:10 2020, MaxMem=    33554432 cpu:         0.0
 (Enter /prod/apps/gaussian/g09d1/l202.exe)
                          Input orientation:                          
 ---------------------------------------------------------------------
 Center     Atomic      Atomic             Coordinates (Angstroms)
 Number     Number       Type             X           Y           Z
 ---------------------------------------------------------------------
      1          8           0        2.421000   -0.487000   -0.150000
      2         16           0        3.873000   -0.452000   -0.357000
      3          7           0        4.102000    0.248000   -1.899000
      4          6           0        3.395000   -0.247000   -3.003000
      5          7           0        4.027000   -0.361000   -4.155000
      6          8           0        3.042000   -0.774000   -5.060000
      7          6           0        1.859000   -0.912000   -4.414000
      8          6           0        0.713000   -1.350000   -5.203000
      9          6           0       -0.540000   -1.520000   -4.593000
     10          6           0       -1.633000   -1.938000   -5.345000
     11          6           0       -1.490000   -2.191000   -6.712000
     12          6           0       -0.246000   -2.024000   -7.323000
     13          6           0        0.851000   -1.606000   -6.575000
     14          6           0        2.019000   -0.585000   -3.095000
     15          6           0        4.621000    0.805000    0.660000
     16          6           0        3.999000    2.050000    0.780000
     17          6           0        4.582000    3.009000    1.602000
     18          6           0        5.763000    2.718000    2.292000
     19          6           0        6.367000    1.467000    2.166000
     20          6           0        5.796000    0.495000    1.345000
     21          8           0        4.652000   -1.687000   -0.212000
     22          1           0        5.095000    0.376000   -2.100000
     23          1           0       -0.654000   -1.325000   -3.532000
     24          1           0       -2.597000   -2.066000   -4.865000
     25          1           0       -2.344000   -2.516000   -7.296000
     26          1           0       -0.129000   -2.219000   -8.383000
     27          1           0        1.819000   -1.475000   -7.044000
     28          1           0        1.297000   -0.581000   -2.299000
     29          1           0        3.082000    2.258000    0.243000
     30          1           0        4.115000    3.982000    1.707000
     31          1           0        6.211000    3.471000    2.931000
     32          1           0        7.280000    1.245000    2.706000
     33          1           0        6.238000   -0.487000    1.230000
 ---------------------------------------------------------------------
                    Distance matrix (angstroms):
                    1          2          3          4          5
     1  O    0.000000
     2  S    1.467098   0.000000
     3  N    2.534756   1.708861   0.000000
     4  C    3.024216   2.696632   1.401317   0.000000
     5  N    4.316843   3.802210   2.337957   1.318910   0.000000
     6  O    4.957430   4.786696   3.487120   2.152577   1.399935
     7  C    4.321824   4.552696   3.563969   2.189165   2.251867
     8  C    5.403225   5.854547   4.995532   3.640018   3.613727
     9  C    5.438277   6.209580   5.650807   4.430898   4.732083
    10  C    6.747469   7.576568   7.038731   5.798726   5.994884
    11  C    7.826837   8.495406   7.770724   6.434209   6.350153
    12  C    7.805587   8.243937   7.313471   5.922585   5.573179
    13  C    6.708031   7.009117   5.989265   4.591078   4.182511
    14  C    2.973926   3.309328   2.542281   1.419889   2.281631
    15  C    2.676820   1.781528   2.669848   4.003417   4.989651
    16  C    3.129114   2.751118   3.230302   4.466779   5.492534
    17  C    4.467823   4.039664   4.484476   5.763378   6.693876
    18  C    5.234917   4.542929   5.140457   6.514267   7.352397
    19  C    4.975227   4.033377   4.810448   6.203962   6.983711
    20  C    3.819682   2.737068   3.667994   5.021999   5.840556
    21  O    2.534010   1.467341   2.625394   3.382799   4.206679
    22  H    3.420167   2.284057   1.021192   2.023249   2.430395
    23  H    4.647127   5.597900   5.268829   4.223307   4.819667
    24  H    7.064332   8.049097   7.682991   6.532983   6.876664
    25  H    8.825383   9.542584   8.849758   7.517601   7.422907
    26  H    8.791167   9.140841   8.125866   6.726943   6.212929
    27  H    6.990407   7.069753   5.886582   4.507931   3.802970
    28  H    2.427017   3.228588   2.952163   2.238029   3.308479
    29  H    2.850683   2.886136   3.109448   4.112117   5.205246
    30  H    5.127382   4.896837   5.190969   6.370788   7.296056
    31  H    6.286686   5.627354   6.177743   7.547565   8.346585
    32  H    5.896307   4.885635   5.683284   7.064840   7.761093
    33  H    4.058804   2.848336   3.859192   5.104756   5.822596
                    6          7          8          9         10
     6  O    0.000000
     7  C    1.354935   0.000000
[...]
 Alpha virt. eigenvalues --    2.69637   2.71952   2.73007   2.73809   2.73981
 Alpha virt. eigenvalues --    2.74383   2.75730   2.79026   2.82178   2.84051
 Alpha virt. eigenvalues --    2.90040   2.90546   3.00785   3.01830   3.05285
 Alpha virt. eigenvalues --    3.13561   3.27063   3.36522   3.42869   3.77974
 Alpha virt. eigenvalues --    3.88346   3.90170   4.02684   4.05391   4.06758
 Alpha virt. eigenvalues --    4.08171   4.08821   4.09934   4.10754   4.13428
 Alpha virt. eigenvalues --    4.18929   4.23503   4.30978   4.31432   4.33940
 Alpha virt. eigenvalues --    4.37859   4.39694   4.54741   4.64626   4.73997
          Condensed to atoms (all electrons):
               1          2          3          4          5          6
     1  O    8.266712   0.429311  -0.049928  -0.004615   0.000099   0.000000
     2  S    0.429311  13.709415   0.100244  -0.015381  -0.002316   0.000085
     3  N   -0.049928   0.100244   7.457656   0.239434  -0.076839   0.005729
     4  C   -0.004615  -0.015381   0.239434   4.511069   0.435298  -0.045053
     5  N    0.000099  -0.002316  -0.076839   0.435298   6.885648   0.133127
     6  O    0.000000   0.000085   0.005729  -0.045053   0.133127   8.182698
     7  C    0.000556  -0.000154  -0.000771  -0.015482  -0.086113   0.249783
     8  C   -0.000005  -0.000022  -0.000200   0.003791   0.004693  -0.037640
     9  C    0.000003  -0.000002   0.000002   0.000618  -0.000111   0.003152
    10  C    0.000000   0.000000   0.000000  -0.000007   0.000001  -0.000061
    11  C    0.000000   0.000000   0.000000   0.000000   0.000000   0.000002
    12  C    0.000000   0.000000   0.000000   0.000005   0.000001   0.000295
    13  C    0.000000   0.000000  -0.000001  -0.000386   0.000175  -0.006834
    14  C    0.000264  -0.000801  -0.057108   0.446751  -0.047511  -0.090186
    15  C   -0.058702   0.170647  -0.054576   0.003202  -0.000064   0.000000
    16  C    0.001338  -0.017737   0.002955   0.000004  -0.000001   0.000000
    17  C    0.000239   0.001713  -0.000043   0.000000   0.000000   0.000000
    18  C   -0.000005  -0.000365   0.000011   0.000000   0.000000   0.000000
    19  C   -0.000039   0.003681  -0.000121   0.000000   0.000000   0.000000
    20  C    0.000081  -0.027857  -0.000718  -0.000052   0.000001   0.000000
    21  O   -0.044406   0.450184  -0.056873   0.000769  -0.000054   0.000000
    22  H    0.001405  -0.004037   0.284572  -0.023861   0.004943  -0.000209
    23  H   -0.000014  -0.000003   0.000000   0.000081  -0.000005   0.000028
    24  H    0.000000   0.000000   0.000000   0.000000   0.000000   0.000000
    25  H    0.000000   0.000000   0.000000   0.000000   0.000000   0.000000
    26  H    0.000000   0.000000   0.000000   0.000000   0.000000  -0.000003
    27  H    0.000000   0.000000   0.000000   0.000060  -0.000246   0.010019
    28  H    0.009840   0.000931  -0.001735  -0.026441   0.004900   0.003206
    29  H    0.002846   0.000225   0.002000  -0.000102   0.000001   0.000000
    30  H    0.000001  -0.000048  -0.000002   0.000000   0.000000   0.000000
    31  H    0.000000   0.000006   0.000000   0.000000   0.000000   0.000000
    32  H    0.000000  -0.000061   0.000001   0.000000   0.000000   0.000000
    33  H    0.000052  -0.005268   0.000195  -0.000005   0.000000   0.000000
               7          8          9         10         11         12
     1  O    0.000556  -0.000005   0.000003   0.000000   0.000000   0.000000
     2  S   -0.000154  -0.000022  -0.000002   0.000000   0.000000   0.000000
     3  N   -0.000771  -0.000200   0.000002   0.000000   0.000000   0.000000
     4  C   -0.015482   0.003791   0.000618  -0.000007   0.000000   0.000005
     5  N   -0.086113   0.004693  -0.000111   0.000001   0.000000   0.000001
     6  O    0.249783  -0.037640   0.003152  -0.000061   0.000002   0.000295
     7  C    4.769308   0.340040  -0.042388   0.006393   0.000884   0.004719
     8  C    0.340040   4.781501   0.536547  -0.009517  -0.033849  -0.008769
     9  C   -0.042388   0.536547   5.011443   0.520386  -0.039238  -0.041712
    10  C    0.006393  -0.009517   0.520386   4.871297   0.542466  -0.024922
    11  C    0.000884  -0.033849  -0.039238   0.542466   4.863366   0.541842
    12  C    0.004719  -0.008769  -0.041712  -0.024922   0.541842   4.882040
    13  C   -0.040405   0.475703  -0.082960  -0.042331  -0.037098   0.505969
    14  C    0.488100  -0.059180  -0.020948   0.000243   0.000014  -0.000235
    15  C   -0.000005   0.000000   0.000000   0.000000   0.000000   0.000000
    16  C    0.000000   0.000000   0.000000   0.000000   0.000000   0.000000
    17  C    0.000000   0.000000   0.000000   0.000000   0.000000   0.000000
    18  C    0.000000   0.000000   0.000000   0.000000   0.000000   0.000000
    19  C    0.000000   0.000000   0.000000   0.000000   0.000000   0.000000
    20  C    0.000000   0.000000   0.000000   0.000000   0.000000   0.000000
    21  O   -0.000031   0.000000   0.000000   0.000000   0.000000   0.000000
    22  H    0.000291   0.000001   0.000000   0.000000   0.000000   0.000000
    23  H   -0.012911  -0.037629   0.354953  -0.042145   0.004538   0.000198
    24  H   -0.000206   0.003222  -0.037630   0.361406  -0.041066   0.004400
    25  H    0.000003   0.000522   0.004840  -0.041941   0.363060  -0.041849
    26  H   -0.000178   0.003198   0.000824   0.004428  -0.041306   0.362002
    27  H   -0.013343  -0.041272   0.005469   0.000230   0.004518  -0.041992
    28  H   -0.031775  -0.002915   0.000871   0.000077   0.000000   0.000001
    29  H    0.000001   0.000000   0.000000   0.000000   0.000000   0.000000
    30  H    0.000000   0.000000   0.000000   0.000000   0.000000   0.000000
    31  H    0.000000   0.000000   0.000000   0.000000   0.000000   0.000000
    32  H    0.000000   0.000000   0.000000   0.000000   0.000000   0.000000
    33  H    0.000000   0.000000   0.000000   0.000000   0.000000   0.000000
              13         14         15         16         17         18
     1  O    0.000000   0.000264  -0.058702   0.001338   0.000239  -0.000005
     2  S    0.000000  -0.000801   0.170647  -0.017737   0.001713  -0.000365
     3  N   -0.000001  -0.057108  -0.054576   0.002955  -0.000043   0.000011
     4  C   -0.000386   0.446751   0.003202   0.000004   0.000000   0.000000
     5  N    0.000175  -0.047511  -0.000064  -0.000001   0.000000   0.000000
     6  O   -0.006834  -0.090186   0.000000   0.000000   0.000000   0.000000
     7  C   -0.040405   0.488100  -0.000005   0.000000   0.000000   0.000000
     8  C    0.475703  -0.059180   0.000000   0.000000   0.000000   0.000000
     9  C   -0.082960  -0.020948   0.000000   0.000000   0.000000   0.000000
    10  C   -0.042331   0.000243   0.000000   0.000000   0.000000   0.000000
    11  C   -0.037098   0.000014   0.000000   0.000000   0.000000   0.000000
    12  C    0.505969  -0.000235   0.000000   0.000000   0.000000   0.000000
    13  C    5.052992   0.011980   0.000000   0.000000   0.000000   0.000000
    14  C    0.011980   5.239801  -0.000045   0.000000   0.000000   0.000000
    15  C    0.000000  -0.000045   5.378562   0.471262  -0.028088  -0.039330
    16  C    0.000000   0.000000   0.471262   4.911348   0.521879  -0.030306
    17  C    0.000000   0.000000  -0.028088   0.521879   4.873030   0.537723
    18  C    0.000000   0.000000  -0.039330  -0.030306   0.537723   4.847066
    19  C    0.000000   0.000000  -0.032509  -0.037422  -0.029341   0.542892
    20  C    0.000000   0.000000   0.512218  -0.035532  -0.038761  -0.030398
    21  O    0.000000  -0.000129  -0.062285   0.001534  -0.000043  -0.000005
    22  H    0.000000   0.004659   0.000958   0.000154  -0.000024   0.000002
    23  H    0.005778   0.006660   0.000000   0.000000   0.000000   0.000000
    24  H    0.000840  -0.000001   0.000000   0.000000   0.000000   0.000000
    25  H    0.004684   0.000000   0.000000   0.000000   0.000000   0.000000
    26  H   -0.037737   0.000001   0.000000   0.000000   0.000000   0.000000
    27  H    0.361216   0.000237   0.000000   0.000000   0.000000   0.000000
    28  H   -0.000077   0.351214   0.000049  -0.000010   0.000000   0.000000
    29  H    0.000000   0.000019  -0.049801   0.364634  -0.034619   0.004200
    30  H    0.000000   0.000000   0.004935  -0.040720   0.365712  -0.039998
    31  H    0.000000   0.000000   0.000457   0.004843  -0.040902   0.364535
    32  H    0.000000   0.000000   0.004844   0.000648   0.004265  -0.040228
    33  H    0.000000   0.000000  -0.044622   0.004567   0.000252   0.004137
              19         20         21         22         23         24
     1  O   -0.000039   0.000081  -0.044406   0.001405  -0.000014   0.000000
     2  S    0.003681  -0.027857   0.450184  -0.004037  -0.000003   0.000000
     3  N   -0.000121  -0.000718  -0.056873   0.284572   0.000000   0.000000
     4  C    0.000000  -0.000052   0.000769  -0.023861   0.000081   0.000000
     5  N    0.000000   0.000001  -0.000054   0.004943  -0.000005   0.000000
     6  O    0.000000   0.000000   0.000000  -0.000209   0.000028   0.000000
     7  C    0.000000   0.000000  -0.000031   0.000291  -0.012911  -0.000206
     8  C    0.000000   0.000000   0.000000   0.000001  -0.037629   0.003222
     9  C    0.000000   0.000000   0.000000   0.000000   0.354953  -0.037630
    10  C    0.000000   0.000000   0.000000   0.000000  -0.042145   0.361406
    11  C    0.000000   0.000000   0.000000   0.000000   0.004538  -0.041066
    12  C    0.000000   0.000000   0.000000   0.000000   0.000198   0.004400
    13  C    0.000000   0.000000   0.000000   0.000000   0.005778   0.000840
    14  C    0.000000   0.000000  -0.000129   0.004659   0.006660  -0.000001
    15  C   -0.032509   0.512218  -0.062285   0.000958   0.000000   0.000000
    16  C   -0.037422  -0.035532   0.001534   0.000154   0.000000   0.000000
    17  C   -0.029341  -0.038761  -0.000043  -0.000024   0.000000   0.000000
    18  C    0.542892  -0.030398  -0.000005   0.000002   0.000000   0.000000
    19  C    4.880844   0.507156   0.000606   0.000005   0.000000   0.000000
    20  C    0.507156   4.916823   0.002818   0.000377   0.000000   0.000000
    21  O    0.000606   0.002818   8.213762   0.000118   0.000000   0.000000
    22  H    0.000005   0.000377   0.000118   0.342498   0.000000   0.000000
    23  H    0.000000   0.000000   0.000000   0.000000   0.568883  -0.004979
    24  H    0.000000   0.000000   0.000000   0.000000  -0.004979   0.567486
    25  H    0.000000   0.000000   0.000000   0.000000  -0.000161  -0.005201
    26  H    0.000000   0.000000   0.000000   0.000000   0.000015  -0.000168
    27  H    0.000000   0.000000   0.000000   0.000000  -0.000145   0.000015
    28  H    0.000000  -0.000001   0.000065  -0.000156   0.002037  -0.000002
    29  H    0.000336   0.004204   0.000053   0.000020   0.000000   0.000000
    30  H    0.004280   0.000618   0.000000   0.000000   0.000000   0.000000
    31  H   -0.040804   0.004753   0.000000   0.000000   0.000000   0.000000
    32  H    0.366526  -0.041337   0.000002   0.000000   0.000000   0.000000
    33  H   -0.034525   0.361734   0.010594   0.000020   0.000000   0.000000
              25         26         27         28         29         30
     1  O    0.000000   0.000000   0.000000   0.009840   0.002846   0.000001
     2  S    0.000000   0.000000   0.000000   0.000931   0.000225  -0.000048
     3  N    0.000000   0.000000   0.000000  -0.001735   0.002000  -0.000002
     4  C    0.000000   0.000000   0.000060  -0.026441  -0.000102   0.000000
     5  N    0.000000   0.000000  -0.000246   0.004900   0.000001   0.000000
     6  O    0.000000  -0.000003   0.010019   0.003206   0.000000   0.000000
     7  C    0.000003  -0.000178  -0.013343  -0.031775   0.000001   0.000000
     8  C    0.000522   0.003198  -0.041272  -0.002915   0.000000   0.000000
     9  C    0.004840   0.000824   0.005469   0.000871   0.000000   0.000000
    10  C   -0.041941   0.004428   0.000230   0.000077   0.000000   0.000000
    11  C    0.363060  -0.041306   0.004518   0.000000   0.000000   0.000000
    12  C   -0.041849   0.362002  -0.041992   0.000001   0.000000   0.000000
    13  C    0.004684  -0.037737   0.361216  -0.000077   0.000000   0.000000
    14  C    0.000000   0.000001   0.000237   0.351214   0.000019   0.000000
    15  C    0.000000   0.000000   0.000000   0.000049  -0.049801   0.004935
    16  C    0.000000   0.000000   0.000000  -0.000010   0.364634  -0.040720
    17  C    0.000000   0.000000   0.000000   0.000000  -0.034619   0.365712
    18  C    0.000000   0.000000   0.000000   0.000000   0.004200  -0.039998
    19  C    0.000000   0.000000   0.000000   0.000000   0.000336   0.004280
    20  C    0.000000   0.000000   0.000000  -0.000001   0.004204   0.000618
    21  O    0.000000   0.000000   0.000000   0.000065   0.000053   0.000000
    22  H    0.000000   0.000000   0.000000  -0.000156   0.000020   0.000000
    23  H   -0.000161   0.000015  -0.000145   0.002037   0.000000   0.000000
    24  H   -0.005201  -0.000168   0.000015  -0.000002   0.000000   0.000000
    25  H    0.570901  -0.005201  -0.000154   0.000000   0.000000   0.000000
    26  H   -0.005201   0.567611  -0.004909   0.000000   0.000000   0.000000
    27  H   -0.000154  -0.004909   0.557991  -0.000008   0.000000   0.000000
    28  H    0.000000   0.000000  -0.000008   0.495509   0.000002   0.000000
    29  H    0.000000   0.000000   0.000000   0.000002   0.528258  -0.005269
    30  H    0.000000   0.000000   0.000000   0.000000  -0.005269   0.549815
    31  H    0.000000   0.000000   0.000000   0.000000  -0.000144  -0.005117
    32  H    0.000000   0.000000   0.000000   0.000000   0.000014  -0.000159
    33  H    0.000000   0.000000   0.000000   0.000000  -0.000144   0.000013
              31         32         33
     1  O    0.000000   0.000000   0.000052
     2  S    0.000006  -0.000061  -0.005268
     3  N    0.000000   0.000001   0.000195
     4  C    0.000000   0.000000  -0.000005
     5  N    0.000000   0.000000   0.000000
     6  O    0.000000   0.000000   0.000000
     7  C    0.000000   0.000000   0.000000
     8  C    0.000000   0.000000   0.000000
     9  C    0.000000   0.000000   0.000000
    10  C    0.000000   0.000000   0.000000
    11  C    0.000000   0.000000   0.000000
    12  C    0.000000   0.000000   0.000000
    13  C    0.000000   0.000000   0.000000
    14  C    0.000000   0.000000   0.000000
    15  C    0.000457   0.004844  -0.044622
    16  C    0.004843   0.000648   0.004567
    17  C   -0.040902   0.004265   0.000252
    18  C    0.364535  -0.040228   0.004137
    19  C   -0.040804   0.366526  -0.034525
    20  C    0.004753  -0.041337   0.361734
    21  O    0.000000   0.000002   0.010594
    22  H    0.000000   0.000000   0.000020
    23  H    0.000000   0.000000   0.000000
    24  H    0.000000   0.000000   0.000000
    25  H    0.000000   0.000000   0.000000
    26  H    0.000000   0.000000   0.000000
    27  H    0.000000   0.000000   0.000000
    28  H    0.000000   0.000000   0.000000
    29  H   -0.000144   0.000014  -0.000144
    30  H   -0.005117  -0.000159   0.000013
    31  H    0.552740  -0.005198  -0.000136
    32  H   -0.005198   0.550020  -0.004938
    33  H   -0.000136  -0.004938   0.518767
 Mulliken charges:
               1
     1  O   -0.555031
     2  S    1.207610
     3  N   -0.793882
     4  C    0.490301
     5  N   -0.255627
     6  O   -0.408138
     7  C    0.383684
     8  C    0.081779
     9  C   -0.174119
    10  C   -0.146002
    11  C   -0.128134
    12  C   -0.141992
    13  C   -0.171509
    14  C   -0.273800
    15  C   -0.177107
    16  C   -0.123439
    17  C   -0.132993
    18  C   -0.119932
    19  C   -0.131562
    20  C   -0.136127
    21  O   -0.516681
    22  H    0.388264
    23  H    0.154821
    24  H    0.151884
    25  H    0.150496
    26  H    0.151422
    27  H    0.162314
    28  H    0.194419
    29  H    0.183266
    30  H    0.165938
    31  H    0.164968
    32  H    0.165603
    33  H    0.189306
 Sum of Mulliken charges =   0.00000
 Mulliken charges with hydrogens summed into heavy atoms:
               1
     1  O   -0.555031
     2  S    1.207610
     3  N   -0.405618
     4  C    0.490301
     5  N   -0.255627
     6  O   -0.408138
     7  C    0.383684
     8  C    0.081779
     9  C   -0.019298
    10  C    0.005881
    11  C    0.022362
    12  C    0.009430
    13  C   -0.009194
    14  C   -0.079381
    15  C   -0.177107
    16  C    0.059827
    17  C    0.032945
    18  C    0.045036
    19  C    0.034041
    20  C    0.053179
    21  O   -0.516681
 Electronic spatial extent (au):  <R**2>=           9733.5525
 Charge=              0.0000 electrons
 Dipole moment (field-independent basis, Debye):
    X=              2.6893    Y=              1.6112    Z=             -3.2429  Tot=              4.5105
 Quadrupole moment (field-independent basis, Debye-Ang):
   XX=            -72.0742   YY=           -127.0378   ZZ=           -132.4694
   XY=             -8.1269   XZ=            -10.5193   YZ=             -3.3068
 Traceless Quadrupole moment (field-independent basis, Debye-Ang):
   XX=             38.4530   YY=            -16.5107   ZZ=            -21.9423
   XY=             -8.1269   XZ=            -10.5193   YZ=             -3.3068
 Octapole moment (field-independent basis, Debye-Ang**2):
  XXX=             74.9197  YYY=             11.8572  ZZZ=            -10.4711  XYY=             -8.6330
  XXY=              8.6042  XXZ=            -33.8928  XZZ=             23.9878  YZZ=              6.9213
  YYZ=              0.7094  XYZ=            -24.1532
 Hexadecapole moment (field-independent basis, Debye-Ang**3):
 XXXX=          -9074.8698 YYYY=           -921.4419 ZZZZ=           -641.7601 XXXY=           -107.0940
 XXXZ=           -133.9923 YYYX=            -61.8881 YYYZ=             -6.6355 ZZZX=            -37.0088
 ZZZY=             -8.8580 XXYY=          -1981.8006 XXZZ=          -2072.9993 YYZZ=           -254.2837
 XXYZ=            -45.3622 YYXZ=            -27.7223 ZZXY=             48.7823
 N-N= 1.681393452694D+03 E-N=-6.434300365748D+03  KE= 1.302113701319D+03
 No NMR shielding tensors so no spin-rotation constants.
 Leave Link  601 at Thu Aug  6 22:15:19 2020, MaxMem=    33554432 cpu:         0.3
 (Enter /prod/apps/gaussian/g09d1/l9999.exe)
 1\1\GINC-PIRINEUS30\SP\RB3LYP\6-31G(d)\C15H12N2O3S1\UBAFAR01\06-Aug-20
 20\0\\#p b3lyp/6-31G(d) scrf=(iefpcm,read,solvent=n-Octanol) geom=allc
 heck guess=read\\SM42.n.5.pdb.xyz\\0,1\O,0,2.421,-0.487,-0.15\S,0,3.87
 3,-0.452,-0.357\N,0,4.102,0.248,-1.899\C,0,3.395,-0.247,-3.003\N,0,4.0
 27,-0.361,-4.155\O,0,3.042,-0.774,-5.06\C,0,1.859,-0.912,-4.414\C,0,0.
 713,-1.35,-5.203\C,0,-0.54,-1.52,-4.593\C,0,-1.633,-1.938,-5.345\C,0,-
 1.49,-2.191,-6.712\C,0,-0.246,-2.024,-7.323\C,0,0.851,-1.606,-6.575\C,
 0,2.019,-0.585,-3.095\C,0,4.621,0.805,0.66\C,0,3.999,2.05,0.78\C,0,4.5
 82,3.009,1.602\C,0,5.763,2.718,2.292\C,0,6.367,1.467,2.166\C,0,5.796,0
 .495,1.345\O,0,4.652,-1.687,-0.212\H,0,5.095,0.376,-2.1\H,0,-0.654,-1.
 325,-3.532\H,0,-2.597,-2.066,-4.865\H,0,-2.344,-2.516,-7.296\H,0,-0.12
 9,-2.219,-8.383\H,0,1.819,-1.475,-7.044\H,0,1.297,-0.581,-2.299\H,0,3.
 082,2.258,0.243\H,0,4.115,3.982,1.707\H,0,6.211,3.471,2.931\H,0,7.28,1
 .245,2.706\H,0,6.238,-0.487,1.23\\Version=AM64L-G09RevD.01\State=1-A\H
 F=-1312.0951178\RMSD=5.065e-09\Dipole=-0.0025153,1.6317758,0.6974292\Q
 uadrupole=5.4741636,-6.826344,1.3521804,10.4288112,18.2767415,15.45281
 07\PG=C01 [X(C15H12N2O3S1)]\\@


 Some scientists claim that hydrogen, because it is so
 plentiful, is the basic building block of the universe. 
 I dispute that. I say that stupidity is far more
 abundant than hydrogen, and THAT is the basic building 
 block of the universe.
                   --Frank Zappa
 Job cpu time:       0 days  0 hours  3 minutes  9.9 seconds.
 File lengths (MBytes):  RWF=    196 Int=      0 D2E=      0 Chk=      7 Scr=      1
 Normal termination of Gaussian 09 at Thu Aug  6 22:15:19 2020.
