 Entering Gaussian System, Link 0=g09
 Initial command:
 /prod/apps/gaussian/g09d1/l1.exe "/tmp/ubafar01/1448594/Gau-122381.inp" -scrdir="/tmp/ubafar01/1448594/"
 Entering Link 1 = /prod/apps/gaussian/g09d1/l1.exe PID=    122382.
  
 Copyright (c) 1988,1990,1992,1993,1995,1998,2003,2009,2013,
            Gaussian, Inc.  All Rights Reserved.
  
 This is part of the Gaussian(R) 09 program.  It is based on
 the Gaussian(R) 03 system (copyright 2003, Gaussian, Inc.),
 the Gaussian(R) 98 system (copyright 1998, Gaussian, Inc.),
 the Gaussian(R) 94 system (copyright 1995, Gaussian, Inc.),
 the Gaussian 92(TM) system (copyright 1992, Gaussian, Inc.),
 the Gaussian 90(TM) system (copyright 1990, Gaussian, Inc.),
 the Gaussian 88(TM) system (copyright 1988, Gaussian, Inc.),
 the Gaussian 86(TM) system (copyright 1986, Carnegie Mellon
 University), and the Gaussian 82(TM) system (copyright 1983,
 Carnegie Mellon University). Gaussian is a federally registered
 trademark of Gaussian, Inc.
  
 This software contains proprietary and confidential information,
 including trade secrets, belonging to Gaussian, Inc.
  
 This software is provided under written license and may be
 used, copied, transmitted, or stored only in accord with that
 written license.
  
 The following legend is applicable only to US Government
 contracts under FAR:
  
                    RESTRICTED RIGHTS LEGEND
  
 Use, reproduction and disclosure by the US Government is
 subject to restrictions as set forth in subparagraphs (a)
 and (c) of the Commercial Computer Software - Restricted
 Rights clause in FAR 52.227-19.
  
 Gaussian, Inc.
 340 Quinnipiac St., Bldg. 40, Wallingford CT 06492
  
  
 ---------------------------------------------------------------
 Warning -- This program may not be used in any manner that
 competes with the business of Gaussian, Inc. or will provide
 assistance to any competitor of Gaussian, Inc.  The licensee
 of this program is prohibited from giving any competitor of
 Gaussian, Inc. access to this program.  By using this program,
 the user acknowledges that Gaussian, Inc. is engaged in the
 business of creating and licensing software in the field of
 computational chemistry and represents and warrants to the
 licensee that it is not a competitor of Gaussian, Inc. and that
 it will not use this program in any manner prohibited above.
 ---------------------------------------------------------------
  

 Cite this work as:
 Gaussian 09, Revision D.01,
 M. J. Frisch, G. W. Trucks, H. B. Schlegel, G. E. Scuseria, 
 M. A. Robb, J. R. Cheeseman, G. Scalmani, V. Barone, B. Mennucci, 
 G. A. Petersson, H. Nakatsuji, M. Caricato, X. Li, H. P. Hratchian, 
 A. F. Izmaylov, J. Bloino, G. Zheng, J. L. Sonnenberg, M. Hada, 
 M. Ehara, K. Toyota, R. Fukuda, J. Hasegawa, M. Ishida, T. Nakajima, 
 Y. Honda, O. Kitao, H. Nakai, T. Vreven, J. A. Montgomery, Jr., 
 J. E. Peralta, F. Ogliaro, M. Bearpark, J. J. Heyd, E. Brothers, 
 K. N. Kudin, V. N. Staroverov, T. Keith, R. Kobayashi, J. Normand, 
 K. Raghavachari, A. Rendell, J. C. Burant, S. S. Iyengar, J. Tomasi, 
 M. Cossi, N. Rega, J. M. Millam, M. Klene, J. E. Knox, J. B. Cross, 
 V. Bakken, C. Adamo, J. Jaramillo, R. Gomperts, R. E. Stratmann, 
 O. Yazyev, A. J. Austin, R. Cammi, C. Pomelli, J. W. Ochterski, 
 R. L. Martin, K. Morokuma, V. G. Zakrzewski, G. A. Voth, 
 P. Salvador, J. J. Dannenberg, S. Dapprich, A. D. Daniels, 
 O. Farkas, J. B. Foresman, J. V. Ortiz, J. Cioslowski, 
 and D. J. Fox, Gaussian, Inc., Wallingford CT, 2013.
 
 ******************************************
 Gaussian 09:  AM64L-G09RevD.01 24-Apr-2013
                 6-Aug-2020 
 ******************************************
 %nproc=1
 Will use up to    1 processors via shared memory.
 %Chk=SM42.n.3.pdb.xyz.mst.n.w.chk
 -----------------
 #p b3lyp/6-31G(d)
 -----------------
 1/38=1/1;
 2/12=2,17=6,18=5,40=1/2;
 3/5=1,6=6,7=1,11=2,16=1,25=1,30=1,74=-5/1,2,3;
 4//1;
 5/5=2,38=5/2;
 6/7=2,8=2,9=2,10=2,28=1/1;
 99/5=1,9=1/99;
 Leave Link    1 at Thu Aug  6 21:56:18 2020, MaxMem=           0 cpu:         0.0
 (Enter /prod/apps/gaussian/g09d1/l101.exe)
 ----------------
 SM42.n.3.pdb.xyz
 ----------------
 Symbolic Z-matrix:
 Charge =  0 Multiplicity = 1
 O                     3.955    -1.661    -0.884 
 S                     3.55     -0.362    -0.332 
 N                     3.112     0.709    -1.578 
 C                     2.617     0.248    -2.801 
 N                     3.007     0.845    -3.913 
 O                     2.27      0.219    -4.929 
 C                     1.481    -0.744    -4.393 
 C                     0.644    -1.512    -5.307 
 C                    -0.147    -2.566    -4.821 
 C                    -0.949    -3.298    -5.692 
 C                    -0.971    -2.989    -7.055 
 C                    -0.185    -1.943    -7.544 
 C                     0.619    -1.206    -6.677 
 C                     1.655    -0.768    -3.036 
 C                     2.03     -0.598     0.57 
 C                     1.396     0.506     1.146 
 C                     0.236     0.296     1.887 
 C                    -0.271    -0.997     2.048 
 C                     0.379    -2.089     1.471 
 C                     1.542    -1.896     0.725 
 O                     4.494     0.418     0.479 
 H                     3.802     1.458    -1.657 
 H                    -0.13     -2.812    -3.765 
 H                    -1.556    -4.11     -5.308 
 H                    -1.596    -3.562    -7.732 
 H                    -0.198    -1.699    -8.601 
 H                     1.228    -0.393    -7.053 
 H                     1.164    -1.4      -2.316 
 H                     1.795     1.504     1.014 
 H                    -0.272     1.141     2.337 
 H                    -1.175    -1.152     2.626 
 H                    -0.015    -3.091     1.6 
 H                     2.067    -2.725     0.268 
 
 NAtoms=     33 NQM=       33 NQMF=       0 NMMI=      0 NMMIF=      0
                NMic=       0 NMicF=      0.
                    Isotopes and Nuclear Properties:
 (Nuclear quadrupole moments (NQMom) in fm**2, nuclear magnetic moments (NMagM)
  in nuclear magnetons)

  Atom         1           2           3           4           5           6           7           8           9          10
 IAtWgt=          16          32          14          12          14          16          12          12          12          12
 AtmWgt=  15.9949146  31.9720718  14.0030740  12.0000000  14.0030740  15.9949146  12.0000000  12.0000000  12.0000000  12.0000000
 NucSpn=           0           0           2           0           2           0           0           0           0           0
 AtZEff=   0.0000000   0.0000000   0.0000000   0.0000000   0.0000000   0.0000000   0.0000000   0.0000000   0.0000000   0.0000000
 NQMom=    0.0000000   0.0000000   2.0440000   0.0000000   2.0440000   0.0000000   0.0000000   0.0000000   0.0000000   0.0000000
 NMagM=    0.0000000   0.0000000   0.4037610   0.0000000   0.4037610   0.0000000   0.0000000   0.0000000   0.0000000   0.0000000
 AtZNuc=   8.0000000  16.0000000   7.0000000   6.0000000   7.0000000   8.0000000   6.0000000   6.0000000   6.0000000   6.0000000

  Atom        11          12          13          14          15          16          17          18          19          20
 IAtWgt=          12          12          12          12          12          12          12          12          12          12
 AtmWgt=  12.0000000  12.0000000  12.0000000  12.0000000  12.0000000  12.0000000  12.0000000  12.0000000  12.0000000  12.0000000
 NucSpn=           0           0           0           0           0           0           0           0           0           0
 AtZEff=   0.0000000   0.0000000   0.0000000   0.0000000   0.0000000   0.0000000   0.0000000   0.0000000   0.0000000   0.0000000
 NQMom=    0.0000000   0.0000000   0.0000000   0.0000000   0.0000000   0.0000000   0.0000000   0.0000000   0.0000000   0.0000000
 NMagM=    0.0000000   0.0000000   0.0000000   0.0000000   0.0000000   0.0000000   0.0000000   0.0000000   0.0000000   0.0000000
 AtZNuc=   6.0000000   6.0000000   6.0000000   6.0000000   6.0000000   6.0000000   6.0000000   6.0000000   6.0000000   6.0000000

  Atom        21          22          23          24          25          26          27          28          29          30
 IAtWgt=          16           1           1           1           1           1           1           1           1           1
 AtmWgt=  15.9949146   1.0078250   1.0078250   1.0078250   1.0078250   1.0078250   1.0078250   1.0078250   1.0078250   1.0078250
 NucSpn=           0           1           1           1           1           1           1           1           1           1
 AtZEff=   0.0000000   0.0000000   0.0000000   0.0000000   0.0000000   0.0000000   0.0000000   0.0000000   0.0000000   0.0000000
 NQMom=    0.0000000   0.0000000   0.0000000   0.0000000   0.0000000   0.0000000   0.0000000   0.0000000   0.0000000   0.0000000
 NMagM=    0.0000000   2.7928460   2.7928460   2.7928460   2.7928460   2.7928460   2.7928460   2.7928460   2.7928460   2.7928460
 AtZNuc=   8.0000000   1.0000000   1.0000000   1.0000000   1.0000000   1.0000000   1.0000000   1.0000000   1.0000000   1.0000000

  Atom        31          32          33
 IAtWgt=           1           1           1
 AtmWgt=   1.0078250   1.0078250   1.0078250
 NucSpn=           1           1           1
 AtZEff=   0.0000000   0.0000000   0.0000000
 NQMom=    0.0000000   0.0000000   0.0000000
 NMagM=    2.7928460   2.7928460   2.7928460
 AtZNuc=   1.0000000   1.0000000   1.0000000
 Leave Link  101 at Thu Aug  6 21:56:18 2020, MaxMem=    33554432 cpu:         0.1
 (Enter /prod/apps/gaussian/g09d1/l202.exe)
                          Input orientation:                          
 ---------------------------------------------------------------------
 Center     Atomic      Atomic             Coordinates (Angstroms)
 Number     Number       Type             X           Y           Z
 ---------------------------------------------------------------------
      1          8           0        3.955000   -1.661000   -0.884000
      2         16           0        3.550000   -0.362000   -0.332000
      3          7           0        3.112000    0.709000   -1.578000
      4          6           0        2.617000    0.248000   -2.801000
      5          7           0        3.007000    0.845000   -3.913000
      6          8           0        2.270000    0.219000   -4.929000
      7          6           0        1.481000   -0.744000   -4.393000
      8          6           0        0.644000   -1.512000   -5.307000
      9          6           0       -0.147000   -2.566000   -4.821000
     10          6           0       -0.949000   -3.298000   -5.692000
     11          6           0       -0.971000   -2.989000   -7.055000
     12          6           0       -0.185000   -1.943000   -7.544000
     13          6           0        0.619000   -1.206000   -6.677000
     14          6           0        1.655000   -0.768000   -3.036000
     15          6           0        2.030000   -0.598000    0.570000
     16          6           0        1.396000    0.506000    1.146000
     17          6           0        0.236000    0.296000    1.887000
     18          6           0       -0.271000   -0.997000    2.048000
     19          6           0        0.379000   -2.089000    1.471000
     20          6           0        1.542000   -1.896000    0.725000
     21          8           0        4.494000    0.418000    0.479000
     22          1           0        3.802000    1.458000   -1.657000
     23          1           0       -0.130000   -2.812000   -3.765000
     24          1           0       -1.556000   -4.110000   -5.308000
     25          1           0       -1.596000   -3.562000   -7.732000
     26          1           0       -0.198000   -1.699000   -8.601000
     27          1           0        1.228000   -0.393000   -7.053000
     28          1           0        1.164000   -1.400000   -2.316000
     29          1           0        1.795000    1.504000    1.014000
     30          1           0       -0.272000    1.141000    2.337000
     31          1           0       -1.175000   -1.152000    2.626000
     32          1           0       -0.015000   -3.091000    1.600000
     33          1           0        2.067000   -2.725000    0.268000
 ---------------------------------------------------------------------
                    Distance matrix (angstroms):
                    1          2          3          4          5
     1  O    0.000000
     2  S    1.468377   0.000000
     3  N    2.609442   1.700412   0.000000
     4  C    3.018181   2.708976   1.397596   0.000000
     5  N    4.043956   3.817756   2.341313   1.321005   0.000000
     6  O    4.768191   4.807117   3.489737   2.156301   1.402605
     7  C    4.390290   4.573664   3.563088   2.192949   2.254772
     8  C    5.527011   5.875199   4.992926   3.642851   3.616968
     9  C    5.757204   6.219047   5.644799   4.431556   4.733614
    10  C    7.060159   7.588853   7.033688   5.800720   5.998269
    11  C    8.006891   8.517001   7.768116   6.438045   6.355801
    12  C    7.846956   8.274221   7.314128   5.928552   5.580857
    13  C    6.700356   7.040037   5.990165   4.596683   4.189134
    14  C    3.273920   3.326782   2.535772   1.418776   2.280088
    15  C    2.636230   1.783171   2.737312   3.524759   4.809789
    16  C    3.919856   2.752748   3.225840   4.139591   5.320124
    17  C    5.033811   4.042217   4.521965   5.258213   6.451344
    18  C    5.186193   4.546170   5.244330   5.779565   7.047820
    19  C    4.303137   4.035911   4.959284   5.359123   6.670997
    20  C    2.909755   2.739064   3.815067   4.264392   5.583041
    21  O    2.543724   1.468760   2.495166   3.782913   4.656518
    22  H    3.217002   2.265288   1.021441   2.043786   2.469277
    23  H    5.129541   5.597356   5.262221   4.223613   4.820407
    24  H    7.479338   8.054770   7.676320   6.533846   6.878882
    25  H    9.017899   9.564587   8.847509   7.521983   7.429268
    26  H    8.763615   9.176679   8.128782   6.734615   6.222645
    27  H    6.863011   7.110871   5.894021   4.518817   3.815375
    28  H    3.147765   3.272109   2.964326   2.249964   3.314677
    29  H    4.276123   2.893734   3.014130   4.099688   5.116498
    30  H    6.007793   4.897985   5.192813   5.961779   7.064132
    31  H    6.236672   5.630230   6.286120   6.766949   8.014715
    32  H    4.896535   4.887667   5.858141   6.119244   7.417395
    33  H    2.454332   2.853604   4.036347   4.308131   5.577568
                    6          7          8          9         10
     6  O    0.000000
     7  C    1.355428   0.000000
     8  C    2.404812   1.458009   0.000000
     9  C    3.689143   2.480575   1.404561   0.000000
    10  C    4.828397   3.757022   2.423978   1.392002   0.000000
    11  C    5.031423   4.258940   2.800939   2.418401   1.397760
    12  C    4.188018   3.760579   2.424288   2.793618   2.418600
    13  C    2.794983   2.484581   1.403980   2.425096   2.793799
    14  C    2.221676   1.368321   2.594821   3.109057   4.498450
    15  C    5.564539   4.995406   6.107006   6.138015   7.441578
    16  C    6.144255   5.678930   6.802870   6.886445   8.168702
    17  C    7.113434   6.486141   7.428928   7.303081   8.471263
    18  C    7.524219   6.679820   7.429568   7.047006   8.103202
    19  C    7.061356   6.116365   6.807675   6.331940   7.384703
    20  C    6.080372   5.246403   6.110555   5.836072   7.024854
    21  O    5.850833   5.845066   7.212849   7.650695   9.028629
    22  H    3.819441   4.209696   5.667130   6.465143   7.840457
    23  H    4.037556   2.695613   2.160287   1.084408   2.149485
    24  H    5.789832   4.624992   3.404351   2.146249   1.084089
    25  H    6.090872   5.343966   3.885965   3.400814   2.156364
    26  H    4.822171   4.630154   3.405051   3.878491   3.403393
    27  H    2.443703   2.694960   2.154468   3.405052   3.876941
    28  H    3.266828   2.201080   3.037931   3.058317   4.411865
    29  H    6.098860   5.864107   7.097612   7.374516   8.692478
    30  H    7.752845   7.205493   8.142985   8.061913   9.199342
    31  H    8.415800   7.515794   8.146831   7.649444   8.593341
    32  H    7.668453   6.607759   7.115769   6.443779   7.354486
    33  H    5.976383   5.098301   5.880215   5.552026   6.704192
                   11         12         13         14         15
    11  C    0.000000
    12  C    1.396794   0.000000
    13  C    2.418692   1.393296   0.000000
    14  C    5.289714   5.008821   3.810777   0.000000
    15  C    8.536012   8.517761   7.408076   3.629430   0.000000
    16  C    9.223563   9.165875   8.045744   4.379416   1.397336
    17  C    9.602470   9.702274   8.703148   5.232742   2.398366
    18  C    9.344660   9.638920   8.772765   5.441413   2.763745
    19  C    8.679008   9.033805   8.199219   4.866854   2.400142
    20  C    8.248528   8.447550   7.491170   3.928139   1.395340
    21  O    9.911359   9.583104   8.298273   4.671375   2.666802
    22  H    8.467334   7.881608   6.513738   3.386196   3.510933
    23  H    3.400399   3.878018   3.408809   2.809911   5.325375
    24  H    2.156589   3.402238   3.877886   5.161537   7.729452
    25  H    1.085027   2.155789   3.401468   6.358290   9.531861
    26  H    2.156790   1.084875   2.147630   5.938821   9.501759
    27  H    3.402179   2.154101   1.083156   4.056999   7.667813
    28  H    5.435188   5.426475   4.399202   1.076525   3.118037
    29  H    9.640880   9.436184   8.238844   4.645867   2.161195
    30  H   10.283733  10.351463   9.357055   6.018865   3.383137
    31  H    9.855858  10.248643   9.474553   6.341498   3.847867
    32  H    8.708235   9.217350   8.512574   5.447727   3.384963
    33  H    7.932558   8.167642   7.255142   3.862125   2.148651
                   16         17         18         19         20
    16  C    0.000000
    17  C    1.392401   0.000000
    18  C    2.418988   1.398148   0.000000
    19  C    2.806054   2.425228   1.395669   0.000000
    20  C    2.442982   2.803702   2.417747   1.395111   0.000000
    21  O    3.170211   4.486414   5.212409   4.919587   3.758912
    22  H    3.814702   5.160091   6.028547   5.838024   4.693702
    23  H    6.120108   6.460551   6.091394   5.310132   4.877985
    24  H    8.466161   8.625087   8.090286   7.333724   7.134178
    25  H   10.213695  10.524521  10.197218   9.527096   9.172974
    26  H   10.119628  10.684874  10.672363  10.096049   9.488977
    27  H    8.249850   9.021219   9.243377   8.732456   7.928108
    28  H    3.958801   4.626317   4.611521   3.928399   3.104284
    29  H    1.082880   2.156820   3.404778   3.888901   3.421627
    30  H    2.145677   1.083785   2.157444   3.406854   3.887481
    31  H    3.398442   2.152614   1.084124   2.151025   3.398445
    32  H    3.890430   3.408392   2.156635   1.084380   2.148930
    33  H    3.414745   3.885893   3.408904   2.168190   1.082458
                   21         22         23         24         25
    21  O    0.000000
    22  H    2.474462   0.000000
    23  H    7.058740   6.175531   0.000000
    24  H    9.518122   8.546379   2.469641   0.000000
    25  H   10.970370   9.552195   4.295200   2.485494   0.000000
    26  H   10.437574   8.613117   4.962891   4.301271   2.486028
    27  H    8.249576   6.258474   4.301938   4.961025   4.298672
    28  H    4.712329   3.944805   2.401620   4.867706   6.451736
    29  H    2.958077   3.341318   6.721036   9.094717  10.660945
    30  H    5.166203   5.714018   7.271917   9.363102  11.191780
    31  H    6.261954   7.065884   6.685245   8.476042  10.643003
    32  H    5.822440   6.772809   5.373480   7.150770   9.476689
    33  H    3.976594   4.920705   4.593416   6.792358   8.838447
                   26         27         28         29         30
    26  H    0.000000
    27  H    2.476977   0.000000
    28  H    6.437831   4.843275   0.000000
    29  H   10.328576   8.306418   4.463214   0.000000
    30  H   11.300926   9.631991   5.492648   2.480844   0.000000
    31  H   11.282698  10.001676   5.473188   4.298114   2.481286
    32  H   10.297162   9.148697   4.425447   4.973281   4.303376
    33  H    9.210975   7.729113   3.041067   4.302899   4.969672
                   31         32         33
    31  H    0.000000
    32  H    2.481531   0.000000
    33  H    4.306397   2.498580   0.000000
 Stoichiometry    C15H12N2O3S
 Framework group  C1[X(C15H12N2O3S)]
 Deg. of freedom    93
 Full point group                 C1      NOp   1
 Largest Abelian subgroup         C1      NOp   1
 Largest concise Abelian subgroup C1      NOp   1
                         Standard orientation:                         
 ---------------------------------------------------------------------
 Center     Atomic      Atomic             Coordinates (Angstroms)
 Number     Number       Type             X           Y           Z
 ---------------------------------------------------------------------
      1          8           0        1.755942   -1.053695    1.950115
      2         16           0        2.431190   -1.183552    0.652692
      3          7           0        1.355752   -1.768606   -0.527371
      4          6           0       -0.021335   -1.547082   -0.438874
      5          7           0       -0.847246   -2.522073   -0.774010
      6          8           0       -2.126135   -1.956074   -0.667295
      7          6           0       -2.022530   -0.669914   -0.252271
      8          6           0       -3.260167    0.080153   -0.074949
      9          6           0       -3.222569    1.396141    0.414495
     10          6           0       -4.403162    2.114512    0.581264
     11          6           0       -5.632532    1.530167    0.263579
     12          6           0       -5.675890    0.221150   -0.221835
     13          6           0       -4.497536   -0.502612   -0.391911
     14          6           0       -0.701353   -0.350122   -0.095671
     15          6           0        2.833442    0.455167    0.076072
     16          6           0        3.431654    0.613613   -1.176759
     17          6           0        3.782269    1.896293   -1.589775
     18          6           0        3.540138    2.993574   -0.757809
     19          6           0        2.947621    2.816007    0.493305
     20          6           0        2.589660    1.537614    0.922152
     21          8           0        3.602317   -2.059757    0.518588
     22          1           0        1.614053   -2.718860   -0.798738
     23          1           0       -2.271440    1.852148    0.666193
     24          1           0       -4.364524    3.129591    0.959907
     25          1           0       -6.551412    2.091835    0.395762
     26          1           0       -6.627309   -0.237428   -0.469750
     27          1           0       -4.527899   -1.517152   -0.770081
     28          1           0       -0.278922    0.593985    0.202859
     29          1           0        3.613273   -0.242058   -1.815094
     30          1           0        4.242751    2.038905   -2.560448
     31          1           0        3.815619    3.989101   -1.086993
     32          1           0        2.763687    3.668624    1.137582
     33          1           0        2.130280    1.371128    1.888055
 ---------------------------------------------------------------------
 Rotational constants (GHZ):      0.5004405      0.1560549      0.1310990
 Leave Link  202 at Thu Aug  6 21:56:18 2020, MaxMem=    33554432 cpu:         0.0
 (Enter /prod/apps/gaussian/g09d1/l301.exe)
 Standard basis: 6-31G(d) (6D, 7F)
 Ernie: Thresh=  0.10000D-02 Tol=  0.10000D-05 Strict=F.
 There are   343 symmetry adapted cartesian basis functions of A   symmetry.
 There are   343 symmetry adapted basis functions of A   symmetry.
   343 basis functions,   660 primitive gaussians,   343 cartesian basis functions
    78 alpha electrons       78 beta electrons
       nuclear repulsion energy      1716.9713569509 Hartrees.
 IExCor=  402 DFT=T Ex+Corr=B3LYP ExCW=0 ScaHFX=  0.200000
 ScaDFX=  0.800000  0.720000  1.000000  0.810000 ScalE2=  1.000000  1.000000
 IRadAn=      0 IRanWt=     -1 IRanGd=            0 ICorTp=0 IEmpDi=  4
 NAtoms=   33 NActive=   33 NUniq=   33 SFac= 1.00D+00 NAtFMM=   60 NAOKFM=F Big=F
 Integral buffers will be    131072 words long.
 Raffenetti 2 integral format.
 Two-electron integral symmetry is turned on.
 Leave Link  301 at Thu Aug  6 21:56:18 2020, MaxMem=    33554432 cpu:         0.0
 (Enter /prod/apps/gaussian/g09d1/l302.exe)
 NPDir=0 NMtPBC=     1 NCelOv=     1 NCel=       1 NClECP=     1 NCelD=      1
         NCelK=      1 NCelE2=     1 NClLst=     1 CellRange=     0.0.
 One-electron integrals computed using PRISM.
 NBasis=   343 RedAO= T EigKep=  4.58D-04  NBF=   343
 NBsUse=   343 1.00D-06 EigRej= -1.00D+00 NBFU=   343
 Precomputing XC quadrature grid using
 IXCGrd= 4 IRadAn=           0 IRanWt=          -1 IRanGd=           0 AccXCQ= 0.00D+00.
 Generated NRdTot=       0 NPtTot=           0 NUsed=           0 NTot=          32
 NSgBfM=   341   341   341   342   342 MxSgAt=    33 MxSgA2=    33.
 Leave Link  302 at Thu Aug  6 21:56:19 2020, MaxMem=    33554432 cpu:         1.2
 (Enter /prod/apps/gaussian/g09d1/l303.exe)
 DipDrv:  MaxL=1.
 Leave Link  303 at Thu Aug  6 21:56:19 2020, MaxMem=    33554432 cpu:         0.0
 (Enter /prod/apps/gaussian/g09d1/l401.exe)
 ExpMin= 1.17D-01 ExpMax= 2.19D+04 ExpMxC= 3.30D+03 IAcc=1 IRadAn=         1 AccDes= 0.00D+00
 Harris functional with IExCor=  402 and IRadAn=       1 diagonalized for initial guess.
 HarFok:  IExCor=  402 AccDes= 0.00D+00 IRadAn=         1 IDoV= 1 UseB2=F ITyADJ=14
 ICtDFT=  3500011 ScaDFX=  1.000000  1.000000  1.000000  1.000000
 FoFCou: FMM=F IPFlag=           0 FMFlag=      100000 FMFlg1=           0
         NFxFlg=           0 DoJE=T BraDBF=F KetDBF=T FulRan=T
         wScrn=  0.000000 ICntrl=     500 IOpCl=  0 I1Cent=   200000004 NGrid=           0
         NMat0=    1 NMatS0=      1 NMatT0=    0 NMatD0=    1 NMtDS0=    0 NMtDT0=    0
 Petite list used in FoFCou.
 Harris En= -1312.10507994826    
 JPrj=0 DoOrth=F DoCkMO=F.
 Leave Link  401 at Thu Aug  6 21:56:23 2020, MaxMem=    33554432 cpu:         3.5
 (Enter /prod/apps/gaussian/g09d1/l502.exe)
 Closed shell SCF:
 Using DIIS extrapolation, IDIIS=  1040.
 Integral symmetry usage will be decided dynamically.
 IVT=      376131 IEndB=      376131 NGot=    33554432 MDV=    33312934
 LenX=    33312934 LenY=    33194844
 Requested convergence on RMS density matrix=1.00D-08 within 128 cycles.
 Requested convergence on MAX density matrix=1.00D-06.
 Requested convergence on             energy=1.00D-06.
 No special actions if energy rises.
 Fock matrices will be formed incrementally for  20 cycles.
 Integral accuracy reduced to 1.0D-05 until final iterations.

 Cycle   1  Pass 0  IDiag  1:
 FoFJK:  IHMeth= 1 ICntrl=       0 DoSepK=F KAlg= 0 I1Cent=   0 FoldK=F
 IRaf= 700000000 NMat=   1 IRICut=       1 DoRegI=T DoRafI=F ISym2E= 0.
 FoFCou: FMM=F IPFlag=           0 FMFlag=      100000 FMFlg1=           0
         NFxFlg=           0 DoJE=F BraDBF=F KetDBF=F FulRan=T
         wScrn=  0.000000 ICntrl=       0 IOpCl=  0 I1Cent=           0 NGrid=           0
         NMat0=    1 NMatS0=      1 NMatT0=    0 NMatD0=    1 NMtDS0=    0 NMtDT0=    0
 Symmetry not used in FoFCou.
 E= -1311.47676759058    
 DIIS: error= 4.19D-02 at cycle   1 NSaved=   1.
 NSaved= 1 IEnMin= 1 EnMin= -1311.47676759058     IErMin= 1 ErrMin= 4.19D-02
 ErrMax= 4.19D-02  0.00D+00 EMaxC= 1.00D-01 BMatC= 6.61D-01 BMatP= 6.61D-01
 IDIUse=3 WtCom= 5.81D-01 WtEn= 4.19D-01
 Coeff-Com:  0.100D+01
 Coeff-En:   0.100D+01
 Coeff:      0.100D+01
 Gap=     0.276 Goal=   None    Shift=    0.000
 GapD=    0.276 DampG=1.000 DampE=0.500 DampFc=0.5000 IDamp=-1.
 Damping current iteration by 5.00D-01
 RMSDP=6.32D-03 MaxDP=5.97D-01              OVMax= 2.37D-01

 Cycle   2  Pass 0  IDiag  1:
 RMSU=  3.15D-03    CP:  9.89D-01
 E= -1311.60475975911     Delta-E=       -0.127992168531 Rises=F Damp=T
 DIIS: error= 1.43D-02 at cycle   2 NSaved=   2.
 NSaved= 2 IEnMin= 2 EnMin= -1311.60475975911     IErMin= 2 ErrMin= 1.43D-02
 ErrMax= 1.43D-02  0.00D+00 EMaxC= 1.00D-01 BMatC= 1.23D-01 BMatP= 6.61D-01
 IDIUse=3 WtCom= 8.57D-01 WtEn= 1.43D-01
 Coeff-Com:  0.245D+00 0.755D+00
 Coeff-En:   0.387D+00 0.613D+00
 Coeff:      0.265D+00 0.735D+00
 Gap=     0.239 Goal=   None    Shift=    0.000
 RMSDP=2.06D-03 MaxDP=1.46D-01 DE=-1.28D-01 OVMax= 1.94D-01

 Cycle   3  Pass 0  IDiag  1:
 RMSU=  1.69D-03    CP:  9.75D-01  6.34D-01
 E= -1311.99903286869     Delta-E=       -0.394273109583 Rises=F Damp=F
 DIIS: error= 1.02D-02 at cycle   3 NSaved=   3.
 NSaved= 3 IEnMin= 3 EnMin= -1311.99903286869     IErMin= 3 ErrMin= 1.02D-02
 ErrMax= 1.02D-02  0.00D+00 EMaxC= 1.00D-01 BMatC= 7.64D-02 BMatP= 1.23D-01
 IDIUse=3 WtCom= 8.98D-01 WtEn= 1.02D-01
 Coeff-Com:  0.770D-01 0.437D+00 0.486D+00
 Coeff-En:   0.000D+00 0.000D+00 0.100D+01
 Coeff:      0.691D-01 0.392D+00 0.539D+00
 Gap=     0.183 Goal=   None    Shift=    0.000
 RMSDP=1.21D-03 MaxDP=4.61D-02 DE=-3.94D-01 OVMax= 7.08D-02

 Cycle   4  Pass 0  IDiag  1:
 RMSU=  7.71D-04    CP:  9.81D-01  7.43D-01  4.91D-01
 E= -1312.05569198945     Delta-E=       -0.056659120753 Rises=F Damp=F
 DIIS: error= 5.05D-03 at cycle   4 NSaved=   4.
 NSaved= 4 IEnMin= 4 EnMin= -1312.05569198945     IErMin= 4 ErrMin= 5.05D-03
 ErrMax= 5.05D-03  0.00D+00 EMaxC= 1.00D-01 BMatC= 1.49D-02 BMatP= 7.64D-02
 IDIUse=3 WtCom= 9.49D-01 WtEn= 5.05D-02
 Coeff-Com:  0.106D-01 0.116D+00 0.323D+00 0.550D+00
 Coeff-En:   0.000D+00 0.000D+00 0.180D+00 0.820D+00
 Coeff:      0.101D-01 0.110D+00 0.316D+00 0.564D+00
 Gap=     0.186 Goal=   None    Shift=    0.000
 RMSDP=4.63D-04 MaxDP=1.84D-02 DE=-5.67D-02 OVMax= 3.39D-02

 Cycle   5  Pass 0  IDiag  1:
 RMSU=  2.54D-04    CP:  9.80D-01  7.18D-01  6.22D-01  6.01D-01
 E= -1312.06732695687     Delta-E=       -0.011634967420 Rises=F Damp=F
 DIIS: error= 1.97D-03 at cycle   5 NSaved=   5.
 NSaved= 5 IEnMin= 5 EnMin= -1312.06732695687     IErMin= 5 ErrMin= 1.97D-03
 ErrMax= 1.97D-03  0.00D+00 EMaxC= 1.00D-01 BMatC= 2.11D-03 BMatP= 1.49D-02
 IDIUse=3 WtCom= 9.80D-01 WtEn= 1.97D-02
 Coeff-Com: -0.145D-02 0.303D-01 0.150D+00 0.363D+00 0.458D+00
 Coeff-En:   0.000D+00 0.000D+00 0.000D+00 0.107D+00 0.893D+00
 Coeff:     -0.142D-02 0.297D-01 0.147D+00 0.358D+00 0.467D+00
 Gap=     0.182 Goal=   None    Shift=    0.000
 RMSDP=1.70D-04 MaxDP=9.52D-03 DE=-1.16D-02 OVMax= 1.59D-02

 Cycle   6  Pass 0  IDiag  1:
 RMSU=  8.58D-05    CP:  9.80D-01  7.24D-01  6.19D-01  6.63D-01  4.59D-01
 E= -1312.06911815780     Delta-E=       -0.001791200936 Rises=F Damp=F
 DIIS: error= 6.48D-04 at cycle   6 NSaved=   6.
 NSaved= 6 IEnMin= 6 EnMin= -1312.06911815780     IErMin= 6 ErrMin= 6.48D-04
 ErrMax= 6.48D-04  0.00D+00 EMaxC= 1.00D-01 BMatC= 2.35D-04 BMatP= 2.11D-03
 IDIUse=3 WtCom= 9.94D-01 WtEn= 6.48D-03
 Coeff-Com: -0.208D-02 0.516D-02 0.488D-01 0.143D+00 0.294D+00 0.511D+00
 Coeff-En:   0.000D+00 0.000D+00 0.000D+00 0.000D+00 0.887D-01 0.911D+00
 Coeff:     -0.207D-02 0.513D-02 0.485D-01 0.143D+00 0.292D+00 0.513D+00
 Gap=     0.182 Goal=   None    Shift=    0.000
 RMSDP=5.05D-05 MaxDP=2.87D-03 DE=-1.79D-03 OVMax= 4.57D-03

 Cycle   7  Pass 0  IDiag  1:
 RMSU=  2.69D-05    CP:  9.80D-01  7.24D-01  6.21D-01  6.65D-01  5.44D-01
                    CP:  5.74D-01
 E= -1312.06931982919     Delta-E=       -0.000201671387 Rises=F Damp=F
 DIIS: error= 1.36D-04 at cycle   7 NSaved=   7.
 NSaved= 7 IEnMin= 7 EnMin= -1312.06931982919     IErMin= 7 ErrMin= 1.36D-04
 ErrMax= 1.36D-04  0.00D+00 EMaxC= 1.00D-01 BMatC= 1.41D-05 BMatP= 2.35D-04
 IDIUse=3 WtCom= 9.99D-01 WtEn= 1.36D-03
 Coeff-Com: -0.109D-02 0.468D-03 0.159D-01 0.521D-01 0.127D+00 0.291D+00
 Coeff-Com:  0.514D+00
 Coeff-En:   0.000D+00 0.000D+00 0.000D+00 0.000D+00 0.000D+00 0.000D+00
 Coeff-En:   0.100D+01
 Coeff:     -0.109D-02 0.467D-03 0.159D-01 0.521D-01 0.127D+00 0.291D+00
 Coeff:      0.514D+00
 Gap=     0.182 Goal=   None    Shift=    0.000
 RMSDP=1.33D-05 MaxDP=5.07D-04 DE=-2.02D-04 OVMax= 1.16D-03

 Cycle   8  Pass 0  IDiag  1:
 RMSU=  8.55D-06    CP:  9.80D-01  7.23D-01  6.22D-01  6.66D-01  5.48D-01
                    CP:  5.95D-01  6.36D-01
 E= -1312.06933174924     Delta-E=       -0.000011920051 Rises=F Damp=F
 DIIS: error= 7.47D-05 at cycle   8 NSaved=   8.
 NSaved= 8 IEnMin= 8 EnMin= -1312.06933174924     IErMin= 8 ErrMin= 7.47D-05
 ErrMax= 7.47D-05  0.00D+00 EMaxC= 1.00D-01 BMatC= 1.42D-06 BMatP= 1.41D-05
 IDIUse=1 WtCom= 1.00D+00 WtEn= 0.00D+00
 Coeff-Com: -0.400D-03-0.306D-03 0.369D-02 0.143D-01 0.414D-01 0.117D+00
 Coeff-Com:  0.294D+00 0.530D+00
 Coeff:     -0.400D-03-0.306D-03 0.369D-02 0.143D-01 0.414D-01 0.117D+00
 Coeff:      0.294D+00 0.530D+00
 Gap=     0.182 Goal=   None    Shift=    0.000
 RMSDP=4.94D-06 MaxDP=1.68D-04 DE=-1.19D-05 OVMax= 4.76D-04

 Initial convergence to 1.0D-05 achieved.  Increase integral accuracy.
 Cycle   9  Pass 1  IDiag  1:
 E= -1312.06934207460     Delta-E=       -0.000010325356 Rises=F Damp=F
 DIIS: error= 5.21D-05 at cycle   1 NSaved=   1.
 NSaved= 1 IEnMin= 1 EnMin= -1312.06934207460     IErMin= 1 ErrMin= 5.21D-05
 ErrMax= 5.21D-05  0.00D+00 EMaxC= 1.00D-01 BMatC= 8.28D-07 BMatP= 8.28D-07
 IDIUse=1 WtCom= 1.00D+00 WtEn= 0.00D+00
 Coeff-Com:  0.100D+01
 Coeff:      0.100D+01
 Gap=     0.182 Goal=   None    Shift=    0.000
 RMSDP=4.94D-06 MaxDP=1.68D-04 DE=-1.03D-05 OVMax= 2.84D-04

 Cycle  10  Pass 1  IDiag  1:
 RMSU=  3.10D-05    CP:  1.00D+00
 E= -1312.06934228946     Delta-E=       -0.000000214868 Rises=F Damp=F
 DIIS: error= 3.65D-05 at cycle   2 NSaved=   2.
 NSaved= 2 IEnMin= 2 EnMin= -1312.06934228946     IErMin= 2 ErrMin= 3.65D-05
 ErrMax= 3.65D-05  0.00D+00 EMaxC= 1.00D-01 BMatC= 6.79D-07 BMatP= 8.28D-07
 IDIUse=1 WtCom= 1.00D+00 WtEn= 0.00D+00
 Coeff-Com:  0.465D+00 0.535D+00
 Coeff:      0.465D+00 0.535D+00
 Gap=     0.182 Goal=   None    Shift=    0.000
 RMSDP=4.11D-06 MaxDP=1.55D-04 DE=-2.15D-07 OVMax= 2.93D-04

 Cycle  11  Pass 1  IDiag  1:
 RMSU=  4.10D-06    CP:  1.00D+00  9.92D-01
 E= -1312.06934259801     Delta-E=       -0.000000308550 Rises=F Damp=F
 DIIS: error= 2.32D-05 at cycle   3 NSaved=   3.
 NSaved= 3 IEnMin= 3 EnMin= -1312.06934259801     IErMin= 3 ErrMin= 2.32D-05
 ErrMax= 2.32D-05  0.00D+00 EMaxC= 1.00D-01 BMatC= 3.63D-07 BMatP= 6.79D-07
 IDIUse=1 WtCom= 1.00D+00 WtEn= 0.00D+00
 Coeff-Com:  0.114D-01 0.419D+00 0.569D+00
 Coeff:      0.114D-01 0.419D+00 0.569D+00
 Gap=     0.182 Goal=   None    Shift=    0.000
 RMSDP=1.87D-06 MaxDP=7.15D-05 DE=-3.09D-07 OVMax= 1.24D-04

 Cycle  12  Pass 1  IDiag  1:
 RMSU=  6.46D-07    CP:  1.00D+00  1.00D+00  5.82D-01
 E= -1312.06934291777     Delta-E=       -0.000000319761 Rises=F Damp=F
 DIIS: error= 4.16D-06 at cycle   4 NSaved=   4.
 NSaved= 4 IEnMin= 4 EnMin= -1312.06934291777     IErMin= 4 ErrMin= 4.16D-06
 ErrMax= 4.16D-06  0.00D+00 EMaxC= 1.00D-01 BMatC= 1.35D-08 BMatP= 3.63D-07
 IDIUse=1 WtCom= 1.00D+00 WtEn= 0.00D+00
 Coeff-Com: -0.543D-02 0.244D+00 0.352D+00 0.409D+00
 Coeff:     -0.543D-02 0.244D+00 0.352D+00 0.409D+00
 Gap=     0.182 Goal=   None    Shift=    0.000
 RMSDP=3.95D-07 MaxDP=1.31D-05 DE=-3.20D-07 OVMax= 3.14D-05

 Cycle  13  Pass 1  IDiag  1:
 RMSU=  1.82D-07    CP:  1.00D+00  1.01D+00  5.88D-01  4.60D-01
 E= -1312.06934292986     Delta-E=       -0.000000012084 Rises=F Damp=F
 DIIS: error= 1.38D-06 at cycle   5 NSaved=   5.
 NSaved= 5 IEnMin= 5 EnMin= -1312.06934292986     IErMin= 5 ErrMin= 1.38D-06
 ErrMax= 1.38D-06  0.00D+00 EMaxC= 1.00D-01 BMatC= 6.06D-10 BMatP= 1.35D-08
 IDIUse=1 WtCom= 1.00D+00 WtEn= 0.00D+00
 Coeff-Com: -0.393D-02 0.112D+00 0.163D+00 0.236D+00 0.493D+00
 Coeff:     -0.393D-02 0.112D+00 0.163D+00 0.236D+00 0.493D+00
 Gap=     0.182 Goal=   None    Shift=    0.000
 RMSDP=9.11D-08 MaxDP=3.39D-06 DE=-1.21D-08 OVMax= 8.04D-06

 Cycle  14  Pass 1  IDiag  1:
 RMSU=  6.87D-08    CP:  1.00D+00  1.01D+00  5.90D-01  4.89D-01  6.95D-01
 E= -1312.06934293037     Delta-E=       -0.000000000507 Rises=F Damp=F
 DIIS: error= 2.98D-07 at cycle   6 NSaved=   6.
 NSaved= 6 IEnMin= 6 EnMin= -1312.06934293037     IErMin= 6 ErrMin= 2.98D-07
 ErrMax= 2.98D-07  0.00D+00 EMaxC= 1.00D-01 BMatC= 3.12D-11 BMatP= 6.06D-10
 IDIUse=1 WtCom= 1.00D+00 WtEn= 0.00D+00
 Coeff-Com: -0.146D-02 0.355D-01 0.523D-01 0.849D-01 0.245D+00 0.584D+00
 Coeff:     -0.146D-02 0.355D-01 0.523D-01 0.849D-01 0.245D+00 0.584D+00
 Gap=     0.182 Goal=   None    Shift=    0.000
 RMSDP=2.63D-08 MaxDP=1.04D-06 DE=-5.07D-10 OVMax= 2.11D-06

 Cycle  15  Pass 1  IDiag  1:
 RMSU=  2.10D-08    CP:  1.00D+00  1.01D+00  5.90D-01  4.89D-01  7.41D-01
                    CP:  8.07D-01
 E= -1312.06934293036     Delta-E=        0.000000000008 Rises=F Damp=F
 DIIS: error= 1.19D-07 at cycle   7 NSaved=   7.
 NSaved= 7 IEnMin= 6 EnMin= -1312.06934293037     IErMin= 7 ErrMin= 1.19D-07
 ErrMax= 1.19D-07  0.00D+00 EMaxC= 1.00D-01 BMatC= 1.21D-11 BMatP= 3.12D-11
 IDIUse=1 WtCom= 1.00D+00 WtEn= 0.00D+00
 Coeff-Com: -0.321D-03 0.465D-02 0.702D-02 0.168D-01 0.827D-01 0.408D+00
 Coeff-Com:  0.481D+00
 Coeff:     -0.321D-03 0.465D-02 0.702D-02 0.168D-01 0.827D-01 0.408D+00
 Coeff:      0.481D+00
 Gap=     0.182 Goal=   None    Shift=    0.000
 RMSDP=1.22D-08 MaxDP=6.19D-07 DE= 8.19D-12 OVMax= 7.40D-07

 Cycle  16  Pass 1  IDiag  1:
 RMSU=  6.62D-09    CP:  1.00D+00  1.01D+00  5.90D-01  4.92D-01  7.47D-01
                    CP:  8.48D-01  5.47D-01
 E= -1312.06934293048     Delta-E=       -0.000000000122 Rises=F Damp=F
 DIIS: error= 3.27D-08 at cycle   8 NSaved=   8.
 NSaved= 8 IEnMin= 8 EnMin= -1312.06934293048     IErMin= 8 ErrMin= 3.27D-08
 ErrMax= 3.27D-08  0.00D+00 EMaxC= 1.00D-01 BMatC= 8.38D-13 BMatP= 1.21D-11
 IDIUse=1 WtCom= 1.00D+00 WtEn= 0.00D+00
 Coeff-Com: -0.304D-05-0.162D-02-0.230D-02-0.571D-03 0.171D-01 0.164D+00
 Coeff-Com:  0.273D+00 0.551D+00
 Coeff:     -0.304D-05-0.162D-02-0.230D-02-0.571D-03 0.171D-01 0.164D+00
 Coeff:      0.273D+00 0.551D+00
 Gap=     0.182 Goal=   None    Shift=    0.000
 RMSDP=3.20D-09 MaxDP=1.94D-07 DE=-1.22D-10 OVMax= 1.78D-07

 SCF Done:  E(RB3LYP) =  -1312.06934293     A.U. after   16 cycles
            NFock= 16  Conv=0.32D-08     -V/T= 2.0077
 KE= 1.302042942562D+03 PE=-6.504537911556D+03 EE= 2.173454269112D+03
 Leave Link  502 at Thu Aug  6 22:01:22 2020, MaxMem=    33554432 cpu:       299.0
 (Enter /prod/apps/gaussian/g09d1/l601.exe)
 Copying SCF densities to generalized density rwf, IOpCl= 0 IROHF=0.

 **********************************************************************

            Population analysis using the SCF density.

 **********************************************************************

 Orbital symmetries:
       Occupied  (A) (A) (A) (A) (A) (A) (A) (A) (A) (A) (A) (A)
                 (A) (A) (A) (A) (A) (A) (A) (A) (A) (A) (A) (A)
                 (A) (A) (A) (A) (A) (A) (A) (A) (A) (A) (A) (A)
                 (A) (A) (A) (A) (A) (A) (A) (A) (A) (A) (A) (A)
                 (A) (A) (A) (A) (A) (A) (A) (A) (A) (A) (A) (A)
                 (A) (A) (A) (A) (A) (A) (A) (A) (A) (A) (A) (A)
                 (A) (A) (A) (A) (A) (A)
       Virtual   (A) (A) (A) (A) (A) (A) (A) (A) (A) (A) (A) (A)
                 (A) (A) (A) (A) (A) (A) (A) (A) (A) (A) (A) (A)
                 (A) (A) (A) (A) (A) (A) (A) (A) (A) (A) (A) (A)
                 (A) (A) (A) (A) (A) (A) (A) (A) (A) (A) (A) (A)
                 (A) (A) (A) (A) (A) (A) (A) (A) (A) (A) (A) (A)
                 (A) (A) (A) (A) (A) (A) (A) (A) (A) (A) (A) (A)
                 (A) (A) (A) (A) (A) (A) (A) (A) (A) (A) (A) (A)
                 (A) (A) (A) (A) (A) (A) (A) (A) (A) (A) (A) (A)
                 (A) (A) (A) (A) (A) (A) (A) (A) (A) (A) (A) (A)
                 (A) (A) (A) (A) (A) (A) (A) (A) (A) (A) (A) (A)
                 (A) (A) (A) (A) (A) (A) (A) (A) (A) (A) (A) (A)
                 (A) (A) (A) (A) (A) (A) (A) (A) (A) (A) (A) (A)
                 (A) (A) (A) (A) (A) (A) (A) (A) (A) (A) (A) (A)
                 (A) (A) (A) (A) (A) (A) (A) (A) (A) (A) (A) (A)
                 (A) (A) (A) (A) (A) (A) (A) (A) (A) (A) (A) (A)
                 (A) (A) (A) (A) (A) (A) (A) (A) (A) (A) (A) (A)
                 (A) (A) (A) (A) (A) (A) (A) (A) (A) (A) (A) (A)
                 (A) (A) (A) (A) (A) (A) (A) (A) (A) (A) (A) (A)
                 (A) (A) (A) (A) (A) (A) (A) (A) (A) (A) (A) (A)
                 (A) (A) (A) (A) (A) (A) (A) (A) (A) (A) (A) (A)
                 (A) (A) (A) (A) (A) (A) (A) (A) (A) (A) (A) (A)
                 (A) (A) (A) (A) (A) (A) (A) (A) (A) (A) (A) (A)
                 (A)
 The electronic state is 1-A.
 Alpha  occ. eigenvalues --  -89.12569 -19.23614 -19.15321 -19.15115 -14.39122
 Alpha  occ. eigenvalues --  -14.37837 -10.27297 -10.26764 -10.24256 -10.22645
 Alpha  occ. eigenvalues --  -10.22494 -10.22189 -10.21995 -10.21987 -10.21868
 Alpha  occ. eigenvalues --  -10.20753 -10.20417 -10.20364 -10.20325 -10.20325
 Alpha  occ. eigenvalues --  -10.20227  -8.15082  -6.11621  -6.11476  -6.11367
 Alpha  occ. eigenvalues --   -1.14106  -1.11982  -1.00810  -0.96228  -0.88847
 Alpha  occ. eigenvalues --   -0.87589  -0.85050  -0.81003  -0.79160  -0.77750
 Alpha  occ. eigenvalues --   -0.75877  -0.75469  -0.69547  -0.64787  -0.64069
 Alpha  occ. eigenvalues --   -0.63500  -0.61660  -0.59990  -0.59369  -0.56077
 Alpha  occ. eigenvalues --   -0.54999  -0.52310  -0.50390  -0.49616  -0.48894
 Alpha  occ. eigenvalues --   -0.48247  -0.47508  -0.46921  -0.46847  -0.45326
 Alpha  occ. eigenvalues --   -0.45254  -0.44731  -0.43617  -0.42828  -0.40250
 Alpha  occ. eigenvalues --   -0.39723  -0.39349  -0.38410  -0.37651  -0.37075
 Alpha  occ. eigenvalues --   -0.36534  -0.35567  -0.34864  -0.32381  -0.32133
 Alpha  occ. eigenvalues --   -0.31352  -0.30916  -0.29823  -0.28388  -0.28103
 Alpha  occ. eigenvalues --   -0.26456  -0.25871  -0.23358
 Alpha virt. eigenvalues --   -0.05182  -0.05076  -0.03035  -0.01308   0.02001
 Alpha virt. eigenvalues --    0.04316   0.06742   0.06909   0.07658   0.08458
 Alpha virt. eigenvalues --    0.09334   0.10889   0.11232   0.12251   0.12650
 Alpha virt. eigenvalues --    0.12701   0.14160   0.14617   0.15258   0.16121
 Alpha virt. eigenvalues --    0.16394   0.16703   0.17291   0.18298   0.18487
 Alpha virt. eigenvalues --    0.22519   0.23617   0.25954   0.26166   0.27659
 Alpha virt. eigenvalues --    0.27982   0.29147   0.29328   0.30446   0.31532
 Alpha virt. eigenvalues --    0.32708   0.34443   0.35356   0.37583   0.39813
 Alpha virt. eigenvalues --    0.41332   0.43671   0.45063   0.47282   0.49734
 Alpha virt. eigenvalues --    0.50084   0.50640   0.50775   0.51649   0.52842
 Alpha virt. eigenvalues --    0.52982   0.53932   0.55205   0.55431   0.55582
 Alpha virt. eigenvalues --    0.56413   0.57231   0.57741   0.58031   0.58115
 Alpha virt. eigenvalues --    0.58287   0.58447   0.59036   0.59543   0.60139
 Alpha virt. eigenvalues --    0.60753   0.61192   0.61686   0.62240   0.62305
 Alpha virt. eigenvalues --    0.64292   0.64502   0.65007   0.66407   0.69258
 Alpha virt. eigenvalues --    0.70391   0.70865   0.72201   0.75211   0.76564
 Alpha virt. eigenvalues --    0.76878   0.77743   0.78571   0.79524   0.80396
 Alpha virt. eigenvalues --    0.81280   0.81445   0.82496   0.82681   0.82759
 Alpha virt. eigenvalues --    0.83600   0.84197   0.84478   0.85855   0.86451
 Alpha virt. eigenvalues --    0.88104   0.88956   0.89197   0.89728   0.90079
 Alpha virt. eigenvalues --    0.90847   0.91615   0.92729   0.93562   0.94385
 Alpha virt. eigenvalues --    0.97129   0.97705   0.97963   1.00810   1.01870
 Alpha virt. eigenvalues --    1.02608   1.03638   1.04985   1.07078   1.08251
 Alpha virt. eigenvalues --    1.09645   1.10168   1.10785   1.11604   1.13598
 Alpha virt. eigenvalues --    1.15164   1.16130   1.16924   1.17323   1.20006
 Alpha virt. eigenvalues --    1.21621   1.22500   1.23857   1.23918   1.25333
 Alpha virt. eigenvalues --    1.26406   1.31098   1.31758   1.33380   1.34722
 Alpha virt. eigenvalues --    1.36270   1.38496   1.39326   1.40609   1.41021
 Alpha virt. eigenvalues --    1.41504   1.42136   1.42962   1.44412   1.45570
 Alpha virt. eigenvalues --    1.46246   1.46838   1.47723   1.47866   1.48926
 Alpha virt. eigenvalues --    1.49760   1.52259   1.53684   1.54370   1.55234
 Alpha virt. eigenvalues --    1.61849   1.66285   1.70073   1.71800   1.75664
 Alpha virt. eigenvalues --    1.76046   1.77407   1.78586   1.78984   1.80485
 Alpha virt. eigenvalues --    1.81884   1.82062   1.84470   1.84873   1.86212
 Alpha virt. eigenvalues --    1.87036   1.88418   1.89571   1.91109   1.92406
 Alpha virt. eigenvalues --    1.94049   1.94548   1.96271   1.96972   1.97628
 Alpha virt. eigenvalues --    1.98783   2.00160   2.03742   2.04357   2.06210
 Alpha virt. eigenvalues --    2.07981   2.09272   2.10482   2.11717   2.11761
 Alpha virt. eigenvalues --    2.12285   2.12918   2.13116   2.13605   2.14096
 Alpha virt. eigenvalues --    2.16912   2.18097   2.19334   2.21885   2.22870
 Alpha virt. eigenvalues --    2.24844   2.26614   2.27225   2.28451   2.29519
 Alpha virt. eigenvalues --    2.29838   2.31198   2.32300   2.33199   2.34355
 Alpha virt. eigenvalues --    2.44031   2.50593   2.51034   2.53117   2.53995
 Alpha virt. eigenvalues --    2.56506   2.57003   2.57770   2.59671   2.62003
 Alpha virt. eigenvalues --    2.62086   2.64031   2.65802   2.66274   2.68547
 Alpha virt. eigenvalues --    2.69477   2.71397   2.72830   2.73620   2.74020
 Alpha virt. eigenvalues --    2.74148   2.75999   2.77611   2.82352   2.83811
 Alpha virt. eigenvalues --    2.89811   2.90275   3.00605   3.01810   3.05033
 Alpha virt. eigenvalues --    3.13774   3.26950   3.35796   3.42418   3.76565
 Alpha virt. eigenvalues --    3.79894   4.00090   4.03600   4.06515   4.07222
 Alpha virt. eigenvalues --    4.08342   4.08939   4.10484   4.12831   4.15769
 Alpha virt. eigenvalues --    4.18021   4.23609   4.31202   4.31719   4.33703
 Alpha virt. eigenvalues --    4.38360   4.40027   4.55509   4.64215   4.74007
          Condensed to atoms (all electrons):
               1          2          3          4          5          6
     1  O    8.231962   0.421122  -0.055465   0.007480  -0.000030   0.000001
     2  S    0.421122  13.712484   0.080974  -0.004407  -0.001977   0.000087
     3  N   -0.055465   0.080974   7.496609   0.223389  -0.078196   0.005622
     4  C    0.007480  -0.004407   0.223389   4.507689   0.429139  -0.040397
     5  N   -0.000030  -0.001977  -0.078196   0.429139   6.866781   0.134431
     6  O    0.000001   0.000087   0.005622  -0.040397   0.134431   8.170969
     7  C   -0.000057  -0.000136  -0.001494  -0.015255  -0.082179   0.252084
     8  C    0.000002  -0.000024  -0.000201   0.004067   0.004756  -0.038118
     9  C    0.000000  -0.000002   0.000002   0.000533  -0.000104   0.003215
    10  C    0.000000   0.000000   0.000000  -0.000007   0.000001  -0.000059
    11  C    0.000000   0.000000   0.000000   0.000000   0.000000   0.000001
    12  C    0.000000   0.000000   0.000000   0.000004   0.000001   0.000309
    13  C    0.000000   0.000000  -0.000001  -0.000340   0.000148  -0.006495
    14  C    0.000099  -0.002120  -0.050841   0.427238  -0.045227  -0.092478
    15  C   -0.057146   0.173265  -0.047281  -0.009065  -0.000074   0.000002
    16  C    0.001803  -0.019823   0.000976   0.000223  -0.000003   0.000000
    17  C   -0.000046   0.002192   0.000011  -0.000009   0.000000   0.000000
    18  C   -0.000005  -0.000349   0.000011   0.000003   0.000000   0.000000
    19  C    0.000666   0.003591  -0.000110   0.000005   0.000000   0.000000
    20  C    0.002502  -0.033181   0.000555   0.000138   0.000002   0.000000
    21  O   -0.042646   0.458953  -0.053113   0.001156  -0.000009   0.000000
    22  H    0.000081  -0.011422   0.291697  -0.021814   0.003782  -0.000194
    23  H   -0.000001  -0.000003   0.000000   0.000062  -0.000004   0.000022
    24  H    0.000000   0.000000   0.000000   0.000000   0.000000   0.000000
    25  H    0.000000   0.000000   0.000000   0.000000   0.000000   0.000000
    26  H    0.000000   0.000000   0.000000   0.000000   0.000000  -0.000002
    27  H    0.000000   0.000000   0.000000   0.000063  -0.000239   0.009768
    28  H   -0.000296   0.001423  -0.001324  -0.029971   0.004943   0.003508
    29  H    0.000059  -0.001215   0.003851   0.000188   0.000000   0.000000
    30  H    0.000000  -0.000059   0.000000   0.000000   0.000000   0.000000
    31  H    0.000000   0.000008   0.000000   0.000000   0.000000   0.000000
    32  H    0.000003  -0.000074   0.000000   0.000000   0.000000   0.000000
    33  H    0.012733  -0.007238   0.000262  -0.000018   0.000000   0.000000
               7          8          9         10         11         12
     1  O   -0.000057   0.000002   0.000000   0.000000   0.000000   0.000000
     2  S   -0.000136  -0.000024  -0.000002   0.000000   0.000000   0.000000
     3  N   -0.001494  -0.000201   0.000002   0.000000   0.000000   0.000000
     4  C   -0.015255   0.004067   0.000533  -0.000007   0.000000   0.000004
     5  N   -0.082179   0.004756  -0.000104   0.000001   0.000000   0.000001
     6  O    0.252084  -0.038118   0.003215  -0.000059   0.000001   0.000309
     7  C    4.740330   0.338204  -0.041249   0.006380   0.000942   0.004648
     8  C    0.338204   4.776218   0.536015  -0.008014  -0.033680  -0.007975
     9  C   -0.041249   0.536015   5.005406   0.521646  -0.038378  -0.041186
    10  C    0.006380  -0.008014   0.521646   4.862311   0.545391  -0.023877
    11  C    0.000942  -0.033680  -0.038378   0.545391   4.852840   0.543688
    12  C    0.004648  -0.007975  -0.041186  -0.023877   0.543688   4.875244
    13  C   -0.039058   0.477206  -0.084648  -0.042358  -0.035911   0.504345
    14  C    0.509010  -0.061257  -0.021649   0.000224   0.000014  -0.000243
    15  C    0.000106  -0.000004   0.000001   0.000000   0.000000   0.000000
    16  C    0.000007   0.000000   0.000000   0.000000   0.000000   0.000000
    17  C    0.000000   0.000000   0.000000   0.000000   0.000000   0.000000
    18  C    0.000000   0.000000   0.000000   0.000000   0.000000   0.000000
    19  C    0.000000   0.000000   0.000000   0.000000   0.000000   0.000000
    20  C    0.000022  -0.000002   0.000000   0.000000   0.000000   0.000000
    21  O    0.000000   0.000000   0.000000   0.000000   0.000000   0.000000
    22  H    0.000245   0.000001   0.000000   0.000000   0.000000   0.000000
    23  H   -0.013354  -0.037495   0.351575  -0.044756   0.004681   0.000211
    24  H   -0.000213   0.003316  -0.038965   0.358943  -0.041949   0.004507
    25  H    0.000003   0.000543   0.004904  -0.042872   0.360760  -0.042567
    26  H   -0.000183   0.003142   0.000883   0.004477  -0.042181   0.359839
    27  H   -0.013178  -0.038176   0.005438   0.000280   0.004431  -0.042975
    28  H   -0.025652  -0.003864   0.001373   0.000087   0.000000   0.000002
    29  H    0.000001   0.000000   0.000000   0.000000   0.000000   0.000000
    30  H    0.000000   0.000000   0.000000   0.000000   0.000000   0.000000
    31  H    0.000000   0.000000   0.000000   0.000000   0.000000   0.000000
    32  H    0.000000   0.000000   0.000000   0.000000   0.000000   0.000000
    33  H   -0.000001   0.000000   0.000000   0.000000   0.000000   0.000000
              13         14         15         16         17         18
     1  O    0.000000   0.000099  -0.057146   0.001803  -0.000046  -0.000005
     2  S    0.000000  -0.002120   0.173265  -0.019823   0.002192  -0.000349
     3  N   -0.000001  -0.050841  -0.047281   0.000976   0.000011   0.000011
     4  C   -0.000340   0.427238  -0.009065   0.000223  -0.000009   0.000003
     5  N    0.000148  -0.045227  -0.000074  -0.000003   0.000000   0.000000
     6  O   -0.006495  -0.092478   0.000002   0.000000   0.000000   0.000000
     7  C   -0.039058   0.509010   0.000106   0.000007   0.000000   0.000000
     8  C    0.477206  -0.061257  -0.000004   0.000000   0.000000   0.000000
     9  C   -0.084648  -0.021649   0.000001   0.000000   0.000000   0.000000
    10  C   -0.042358   0.000224   0.000000   0.000000   0.000000   0.000000
    11  C   -0.035911   0.000014   0.000000   0.000000   0.000000   0.000000
    12  C    0.504345  -0.000243   0.000000   0.000000   0.000000   0.000000
    13  C    5.044889   0.012304   0.000000   0.000000   0.000000   0.000000
    14  C    0.012304   5.236811   0.002748   0.000196   0.000008  -0.000003
    15  C    0.000000   0.002748   5.335698   0.465634  -0.023887  -0.038812
    16  C    0.000000   0.000196   0.465634   4.916627   0.519586  -0.030070
    17  C    0.000000   0.000008  -0.023887   0.519586   4.869816   0.540924
    18  C    0.000000  -0.000003  -0.038812  -0.030070   0.540924   4.840925
    19  C    0.000000  -0.000107  -0.031899  -0.036913  -0.028770   0.545470
    20  C    0.000000  -0.001681   0.520026  -0.034802  -0.039375  -0.029624
    21  O    0.000000  -0.000030  -0.060394   0.001097   0.000172  -0.000005
    22  H    0.000000   0.004853   0.002615  -0.000079   0.000004   0.000000
    23  H    0.006056   0.006292  -0.000003   0.000000   0.000000   0.000000
    24  H    0.000864   0.000000   0.000000   0.000000   0.000000   0.000000
    25  H    0.004718   0.000000   0.000000   0.000000   0.000000   0.000000
    26  H   -0.037896   0.000001   0.000000   0.000000   0.000000   0.000000
    27  H    0.360198   0.000237   0.000000   0.000000   0.000000   0.000000
    28  H   -0.000123   0.341687   0.001516  -0.000200  -0.000071  -0.000005
    29  H    0.000000  -0.000029  -0.048616   0.363819  -0.037033   0.004275
    30  H    0.000000   0.000000   0.004852  -0.041294   0.363380  -0.041393
    31  H    0.000000   0.000000   0.000474   0.004925  -0.041986   0.362388
    32  H    0.000000  -0.000002   0.004850   0.000717   0.004342  -0.041519
    33  H    0.000000  -0.000106  -0.040195   0.004992   0.000242   0.004084
              19         20         21         22         23         24
     1  O    0.000666   0.002502  -0.042646   0.000081  -0.000001   0.000000
     2  S    0.003591  -0.033181   0.458953  -0.011422  -0.000003   0.000000
     3  N   -0.000110   0.000555  -0.053113   0.291697   0.000000   0.000000
     4  C    0.000005   0.000138   0.001156  -0.021814   0.000062   0.000000
     5  N    0.000000   0.000002  -0.000009   0.003782  -0.000004   0.000000
     6  O    0.000000   0.000000   0.000000  -0.000194   0.000022   0.000000
     7  C    0.000000   0.000022   0.000000   0.000245  -0.013354  -0.000213
     8  C    0.000000  -0.000002   0.000000   0.000001  -0.037495   0.003316
     9  C    0.000000   0.000000   0.000000   0.000000   0.351575  -0.038965
    10  C    0.000000   0.000000   0.000000   0.000000  -0.044756   0.358943
    11  C    0.000000   0.000000   0.000000   0.000000   0.004681  -0.041949
    12  C    0.000000   0.000000   0.000000   0.000000   0.000211   0.004507
    13  C    0.000000   0.000000   0.000000   0.000000   0.006056   0.000864
    14  C   -0.000107  -0.001681  -0.000030   0.004853   0.006292   0.000000
    15  C   -0.031899   0.520026  -0.060394   0.002615  -0.000003   0.000000
    16  C   -0.036913  -0.034802   0.001097  -0.000079   0.000000   0.000000
    17  C   -0.028770  -0.039375   0.000172   0.000004   0.000000   0.000000
    18  C    0.545470  -0.029624  -0.000005   0.000000   0.000000   0.000000
    19  C    4.889563   0.497023  -0.000049   0.000002   0.000000   0.000000
    20  C    0.497023   4.933972  -0.000511  -0.000038  -0.000004   0.000000
    21  O   -0.000049  -0.000511   8.219611   0.004865   0.000000   0.000000
    22  H    0.000002  -0.000038   0.004865   0.347220   0.000000   0.000000
    23  H    0.000000  -0.000004   0.000000   0.000000   0.592935  -0.005272
    24  H    0.000000   0.000000   0.000000   0.000000  -0.005272   0.586895
    25  H    0.000000   0.000000   0.000000   0.000000  -0.000171  -0.005442
    26  H    0.000000   0.000000   0.000000   0.000000   0.000016  -0.000177
    27  H    0.000000   0.000000   0.000000   0.000000  -0.000149   0.000016
    28  H    0.000284   0.004467   0.000002  -0.000138   0.002357  -0.000003
    29  H    0.000346   0.004552   0.001781  -0.000208   0.000000   0.000000
    30  H    0.004413   0.000651   0.000001   0.000000   0.000000   0.000000
    31  H   -0.042303   0.004846   0.000000   0.000000   0.000000   0.000000
    32  H    0.364036  -0.042576   0.000000   0.000000   0.000000   0.000000
    33  H   -0.036819   0.359122   0.000029  -0.000004   0.000003   0.000000
              25         26         27         28         29         30
     1  O    0.000000   0.000000   0.000000  -0.000296   0.000059   0.000000
     2  S    0.000000   0.000000   0.000000   0.001423  -0.001215  -0.000059
     3  N    0.000000   0.000000   0.000000  -0.001324   0.003851   0.000000
     4  C    0.000000   0.000000   0.000063  -0.029971   0.000188   0.000000
     5  N    0.000000   0.000000  -0.000239   0.004943   0.000000   0.000000
     6  O    0.000000  -0.000002   0.009768   0.003508   0.000000   0.000000
     7  C    0.000003  -0.000183  -0.013178  -0.025652   0.000001   0.000000
     8  C    0.000543   0.003142  -0.038176  -0.003864   0.000000   0.000000
     9  C    0.004904   0.000883   0.005438   0.001373   0.000000   0.000000
    10  C   -0.042872   0.004477   0.000280   0.000087   0.000000   0.000000
    11  C    0.360760  -0.042181   0.004431   0.000000   0.000000   0.000000
    12  C   -0.042567   0.359839  -0.042975   0.000002   0.000000   0.000000
    13  C    0.004718  -0.037896   0.360198  -0.000123   0.000000   0.000000
    14  C    0.000000   0.000001   0.000237   0.341687  -0.000029   0.000000
    15  C    0.000000   0.000000   0.000000   0.001516  -0.048616   0.004852
    16  C    0.000000   0.000000   0.000000  -0.000200   0.363819  -0.041294
    17  C    0.000000   0.000000   0.000000  -0.000071  -0.037033   0.363380
    18  C    0.000000   0.000000   0.000000  -0.000005   0.004275  -0.041393
    19  C    0.000000   0.000000   0.000000   0.000284   0.000346   0.004413
    20  C    0.000000   0.000000   0.000000   0.004467   0.004552   0.000651
    21  O    0.000000   0.000000   0.000000   0.000002   0.001781   0.000001
    22  H    0.000000   0.000000   0.000000  -0.000138  -0.000208   0.000000
    23  H   -0.000171   0.000016  -0.000149   0.002357   0.000000   0.000000
    24  H   -0.005442  -0.000177   0.000016  -0.000003   0.000000   0.000000
    25  H    0.587863  -0.005375  -0.000158   0.000000   0.000000   0.000000
    26  H   -0.005375   0.581543  -0.004871   0.000000   0.000000   0.000000
    27  H   -0.000158  -0.004871   0.554782  -0.000009   0.000000   0.000000
    28  H    0.000000   0.000000  -0.000009   0.535771  -0.000001   0.000000
    29  H    0.000000   0.000000   0.000000  -0.000001   0.539532  -0.005374
    30  H    0.000000   0.000000   0.000000   0.000000  -0.005374   0.568867
    31  H    0.000000   0.000000   0.000000   0.000000  -0.000152  -0.005359
    32  H    0.000000   0.000000   0.000000   0.000006   0.000015  -0.000168
    33  H    0.000000   0.000000   0.000000   0.000428  -0.000139   0.000014
              31         32         33
     1  O    0.000000   0.000003   0.012733
     2  S    0.000008  -0.000074  -0.007238
     3  N    0.000000   0.000000   0.000262
     4  C    0.000000   0.000000  -0.000018
     5  N    0.000000   0.000000   0.000000
     6  O    0.000000   0.000000   0.000000
     7  C    0.000000   0.000000  -0.000001
     8  C    0.000000   0.000000   0.000000
     9  C    0.000000   0.000000   0.000000
    10  C    0.000000   0.000000   0.000000
    11  C    0.000000   0.000000   0.000000
    12  C    0.000000   0.000000   0.000000
    13  C    0.000000   0.000000   0.000000
    14  C    0.000000  -0.000002  -0.000106
    15  C    0.000474   0.004850  -0.040195
    16  C    0.004925   0.000717   0.004992
    17  C   -0.041986   0.004342   0.000242
    18  C    0.362388  -0.041519   0.004084
    19  C   -0.042303   0.364036  -0.036819
    20  C    0.004846  -0.042576   0.359122
    21  O    0.000000   0.000000   0.000029
    22  H    0.000000   0.000000  -0.000004
    23  H    0.000000   0.000000   0.000003
    24  H    0.000000   0.000000   0.000000
    25  H    0.000000   0.000000   0.000000
    26  H    0.000000   0.000000   0.000000
    27  H    0.000000   0.000000   0.000000
    28  H    0.000000   0.000006   0.000428
    29  H   -0.000152   0.000015  -0.000139
    30  H   -0.005359  -0.000168   0.000014
    31  H    0.573835  -0.005446  -0.000141
    32  H   -0.005446   0.570495  -0.004864
    33  H   -0.000141  -0.004864   0.518575
 Mulliken charges:
               1
     1  O   -0.522821
     2  S    1.227934
     3  N   -0.815935
     4  C    0.519904
     5  N   -0.235940
     6  O   -0.402274
     7  C    0.380027
     8  C    0.085342
     9  C   -0.164809
    10  C   -0.137797
    11  C   -0.120649
    12  C   -0.133975
    13  C   -0.163899
    14  C   -0.265947
    15  C   -0.154411
    16  C   -0.117420
    17  C   -0.129501
    18  C   -0.116296
    19  C   -0.128428
    20  C   -0.146083
    21  O   -0.530910
    22  H    0.378534
    23  H    0.137000
    24  H    0.137479
    25  H    0.137793
    26  H    0.140784
    27  H    0.164544
    28  H    0.163804
    29  H    0.174347
    30  H    0.151469
    31  H    0.148911
    32  H    0.150184
    33  H    0.189039
 Sum of Mulliken charges =   0.00000
 Mulliken charges with hydrogens summed into heavy atoms:
               1
     1  O   -0.522821
     2  S    1.227934
     3  N   -0.437400
     4  C    0.519904
     5  N   -0.235940
     6  O   -0.402274
     7  C    0.380027
     8  C    0.085342
     9  C   -0.027809
    10  C   -0.000318
    11  C    0.017144
    12  C    0.006809
    13  C    0.000644
    14  C   -0.102143
    15  C   -0.154411
    16  C    0.056928
    17  C    0.021968
    18  C    0.032615
    19  C    0.021756
    20  C    0.042955
    21  O   -0.530910
 Electronic spatial extent (au):  <R**2>=           7993.9034
 Charge=              0.0000 electrons
 Dipole moment (field-independent basis, Debye):
    X=             -1.1394    Y=              6.0639    Z=             -2.1618  Tot=              6.5378
 Quadrupole moment (field-independent basis, Debye-Ang):
   XX=           -115.3594   YY=           -121.3328   ZZ=           -129.0786
   XY=              7.3506   XZ=            -10.7347   YZ=              5.2248
 Traceless Quadrupole moment (field-independent basis, Debye-Ang):
   XX=              6.5642   YY=              0.5908   ZZ=             -7.1550
   XY=              7.3506   XZ=            -10.7347   YZ=              5.2248
 Octapole moment (field-independent basis, Debye-Ang**2):
  XXX=           -113.7233  YYY=             31.9429  ZZZ=             -8.7782  XYY=             19.2914
  XXY=             57.5268  XXZ=            -36.9911  XZZ=             26.4816  YZZ=              5.4015
  YYZ=              3.8474  XYZ=             -0.7787
 Hexadecapole moment (field-independent basis, Debye-Ang**3):
 XXXX=          -7408.7679 YYYY=          -2065.0443 ZZZZ=           -617.6941 XXXY=             72.2233
 XXXZ=            -86.4197 YYYX=             20.5716 YYYZ=             10.9381 ZZZX=            -20.1013
 ZZZY=              2.4046 XXYY=          -1591.7162 XXZZ=          -1428.8987 YYZZ=           -456.5117
 XXYZ=             39.1662 YYXZ=            -65.5189 ZZXY=             32.5562
 N-N= 1.716971356951D+03 E-N=-6.504537910974D+03  KE= 1.302042942562D+03
 No NMR shielding tensors so no spin-rotation constants.
 Leave Link  601 at Thu Aug  6 22:01:22 2020, MaxMem=    33554432 cpu:         0.3
 (Enter /prod/apps/gaussian/g09d1/l9999.exe)
 1\1\GINC-PIRINEUS9\SP\RB3LYP\6-31G(d)\C15H12N2O3S1\UBAFAR01\06-Aug-202
 0\0\\#p b3lyp/6-31G(d)\\SM42.n.3.pdb.xyz\\0,1\O,0,3.955,-1.661,-0.884\
 S,0,3.55,-0.362,-0.332\N,0,3.112,0.709,-1.578\C,0,2.617,0.248,-2.801\N
 ,0,3.007,0.845,-3.913\O,0,2.27,0.219,-4.929\C,0,1.481,-0.744,-4.393\C,
 0,0.644,-1.512,-5.307\C,0,-0.147,-2.566,-4.821\C,0,-0.949,-3.298,-5.69
 2\C,0,-0.971,-2.989,-7.055\C,0,-0.185,-1.943,-7.544\C,0,0.619,-1.206,-
 6.677\C,0,1.655,-0.768,-3.036\C,0,2.03,-0.598,0.57\C,0,1.396,0.506,1.1
 46\C,0,0.236,0.296,1.887\C,0,-0.271,-0.997,2.048\C,0,0.379,-2.089,1.47
 1\C,0,1.542,-1.896,0.725\O,0,4.494,0.418,0.479\H,0,3.802,1.458,-1.657\
 H,0,-0.13,-2.812,-3.765\H,0,-1.556,-4.11,-5.308\H,0,-1.596,-3.562,-7.7
 32\H,0,-0.198,-1.699,-8.601\H,0,1.228,-0.393,-7.053\H,0,1.164,-1.4,-2.
 316\H,0,1.795,1.504,1.014\H,0,-0.272,1.141,2.337\H,0,-1.175,-1.152,2.6
 26\H,0,-0.015,-3.091,1.6\H,0,2.067,-2.725,0.268\\Version=AM64L-G09RevD
 .01\State=1-A\HF=-1312.0693429\RMSD=3.196e-09\Dipole=-2.4916112,-0.542
 2796,0.3375101\Quadrupole=-8.7464243,1.361075,7.3853492,3.800357,-6.15
 21073,4.0082958\PG=C01 [X(C15H12N2O3S1)]\\@


 THERE IS NO SUBJECT, HOWEVER COMPLEX,
 WHICH, IF STUDIED WITH PATIENCE AND INTELLIGIENCE
 WILL NOT BECOME
 MORE COMPLEX
                        QUOTED BY D. GORDON ROHMAN
 Job cpu time:       0 days  0 hours  5 minutes  4.3 seconds.
 File lengths (MBytes):  RWF=     66 Int=      0 D2E=      0 Chk=      5 Scr=      1
 Normal termination of Gaussian 09 at Thu Aug  6 22:01:22 2020.
 Initial command:
 /prod/apps/gaussian/g09d1/l1.exe "/tmp/ubafar01/1448594/Gau-122381.inp" -scrdir="/tmp/ubafar01/1448594/"
 Entering Link 1 = /prod/apps/gaussian/g09d1/l1.exe PID=    123588.
  
 Copyright (c) 1988,1990,1992,1993,1995,1998,2003,2009,2013,
            Gaussian, Inc.  All Rights Reserved.
  
 This is part of the Gaussian(R) 09 program.  It is based on
 the Gaussian(R) 03 system (copyright 2003, Gaussian, Inc.),
 the Gaussian(R) 98 system (copyright 1998, Gaussian, Inc.),
 the Gaussian(R) 94 system (copyright 1995, Gaussian, Inc.),
 the Gaussian 92(TM) system (copyright 1992, Gaussian, Inc.),
 the Gaussian 90(TM) system (copyright 1990, Gaussian, Inc.),
 the Gaussian 88(TM) system (copyright 1988, Gaussian, Inc.),
 the Gaussian 86(TM) system (copyright 1986, Carnegie Mellon
 University), and the Gaussian 82(TM) system (copyright 1983,
 Carnegie Mellon University). Gaussian is a federally registered
 trademark of Gaussian, Inc.
  
 This software contains proprietary and confidential information,
 including trade secrets, belonging to Gaussian, Inc.
  
 This software is provided under written license and may be
 used, copied, transmitted, or stored only in accord with that
 written license.
  
 The following legend is applicable only to US Government
 contracts under FAR:
  
                    RESTRICTED RIGHTS LEGEND
  
 Use, reproduction and disclosure by the US Government is
 subject to restrictions as set forth in subparagraphs (a)
 and (c) of the Commercial Computer Software - Restricted
 Rights clause in FAR 52.227-19.
  
 Gaussian, Inc.
 340 Quinnipiac St., Bldg. 40, Wallingford CT 06492
  
  
 ---------------------------------------------------------------
 Warning -- This program may not be used in any manner that
 competes with the business of Gaussian, Inc. or will provide
 assistance to any competitor of Gaussian, Inc.  The licensee
 of this program is prohibited from giving any competitor of
 Gaussian, Inc. access to this program.  By using this program,
 the user acknowledges that Gaussian, Inc. is engaged in the
 business of creating and licensing software in the field of
 computational chemistry and represents and warrants to the
 licensee that it is not a competitor of Gaussian, Inc. and that
 it will not use this program in any manner prohibited above.
 ---------------------------------------------------------------
  

 Cite this work as:
 Gaussian 09, Revision D.01,
 M. J. Frisch, G. W. Trucks, H. B. Schlegel, G. E. Scuseria, 
 M. A. Robb, J. R. Cheeseman, G. Scalmani, V. Barone, B. Mennucci, 
 G. A. Petersson, H. Nakatsuji, M. Caricato, X. Li, H. P. Hratchian, 
 A. F. Izmaylov, J. Bloino, G. Zheng, J. L. Sonnenberg, M. Hada, 
 M. Ehara, K. Toyota, R. Fukuda, J. Hasegawa, M. Ishida, T. Nakajima, 
 Y. Honda, O. Kitao, H. Nakai, T. Vreven, J. A. Montgomery, Jr., 
 J. E. Peralta, F. Ogliaro, M. Bearpark, J. J. Heyd, E. Brothers, 
 K. N. Kudin, V. N. Staroverov, T. Keith, R. Kobayashi, J. Normand, 
 K. Raghavachari, A. Rendell, J. C. Burant, S. S. Iyengar, J. Tomasi, 
 M. Cossi, N. Rega, J. M. Millam, M. Klene, J. E. Knox, J. B. Cross, 
 V. Bakken, C. Adamo, J. Jaramillo, R. Gomperts, R. E. Stratmann, 
 O. Yazyev, A. J. Austin, R. Cammi, C. Pomelli, J. W. Ochterski, 
 R. L. Martin, K. Morokuma, V. G. Zakrzewski, G. A. Voth, 
 P. Salvador, J. J. Dannenberg, S. Dapprich, A. D. Daniels, 
 O. Farkas, J. B. Foresman, J. V. Ortiz, J. Cioslowski, 
 and D. J. Fox, Gaussian, Inc., Wallingford CT, 2013.
 
 ******************************************
 Gaussian 09:  AM64L-G09RevD.01 24-Apr-2013
                 6-Aug-2020 
 ******************************************
 %nproc=1
 Will use up to    1 processors via shared memory.
 %Chk=SM42.n.3.pdb.xyz.mst.n.w.chk
 %subst l502 /dades/curu/work_g09D01_MST_AddSphPartition_ReadGammas/exe-dir/
 ----------------------------------------------------------------------
 #p b3lyp/6-31G(d) scrf=(iefpcm,read,solvent=Water) geom=allcheck guess
 =read
 ----------------------------------------------------------------------
 1/29=7,38=1,40=2/1;
 2/12=2,40=1/2;
 3/5=1,6=6,7=1,11=2,14=-4,16=1,25=1,30=1,70=2203,72=1,74=-5,116=-2/1,2,3;
 4/5=1/1;
 5/5=2,38=6,53=1/2;
 6/7=2,8=2,9=2,10=2,28=1/1;
 99/5=1,9=1/99;
 Leave Link    1 at Thu Aug  6 22:01:22 2020, MaxMem=           0 cpu:         0.0
 (Enter /prod/apps/gaussian/g09d1/l101.exe)
 Structure from the checkpoint file:  "SM42.n.3.pdb.xyz.mst.n.w.chk"
 ----------------
 SM42.n.3.pdb.xyz
 ----------------
 Charge =  0 Multiplicity = 1
 Z-Matrix found in file.
 O,0,3.955,-1.661,-0.884
 S,0,3.55,-0.362,-0.332
 N,0,3.112,0.709,-1.578
 C,0,2.617,0.248,-2.801
 N,0,3.007,0.845,-3.913
 O,0,2.27,0.219,-4.929
 C,0,1.481,-0.744,-4.393
 C,0,0.644,-1.512,-5.307
 C,0,-0.147,-2.566,-4.821
 C,0,-0.949,-3.298,-5.692
 C,0,-0.971,-2.989,-7.055
 C,0,-0.185,-1.943,-7.544
 C,0,0.619,-1.206,-6.677
 C,0,1.655,-0.768,-3.036
 C,0,2.03,-0.598,0.57
 C,0,1.396,0.506,1.146
 C,0,0.236,0.296,1.887
 C,0,-0.271,-0.997,2.048
 C,0,0.379,-2.089,1.471
 C,0,1.542,-1.896,0.725
 O,0,4.494,0.418,0.479
 H,0,3.802,1.458,-1.657
 H,0,-0.13,-2.812,-3.765
 H,0,-1.556,-4.11,-5.308
 H,0,-1.596,-3.562,-7.732
 H,0,-0.198,-1.699,-8.601
 H,0,1.228,-0.393,-7.053
 H,0,1.164,-1.4,-2.316
 H,0,1.795,1.504,1.014
 H,0,-0.272,1.141,2.337
 H,0,-1.175,-1.152,2.626
 H,0,-0.015,-3.091,1.6
 H,0,2.067,-2.725,0.268
 Recover connectivity data from disk.
 NAtoms=     33 NQM=       33 NQMF=       0 NMMI=      0 NMMIF=      0
                NMic=       0 NMicF=      0.
                    Isotopes and Nuclear Properties:
 (Nuclear quadrupole moments (NQMom) in fm**2, nuclear magnetic moments (NMagM)
  in nuclear magnetons)

  Atom         1           2           3           4           5           6           7           8           9          10
 IAtWgt=          16          32          14          12          14          16          12          12          12          12
 AtmWgt=  15.9949146  31.9720718  14.0030740  12.0000000  14.0030740  15.9949146  12.0000000  12.0000000  12.0000000  12.0000000
 NucSpn=           0           0           2           0           2           0           0           0           0           0
 AtZEff=  -5.6000000 -13.6000000  -4.5500000  -3.6000000  -4.5500000  -5.6000000  -3.6000000  -3.6000000  -3.6000000  -3.6000000
 NQMom=    0.0000000   0.0000000   2.0440000   0.0000000   2.0440000   0.0000000   0.0000000   0.0000000   0.0000000   0.0000000
 NMagM=    0.0000000   0.0000000   0.4037610   0.0000000   0.4037610   0.0000000   0.0000000   0.0000000   0.0000000   0.0000000
 AtZNuc=   8.0000000  16.0000000   7.0000000   6.0000000   7.0000000   8.0000000   6.0000000   6.0000000   6.0000000   6.0000000

  Atom        11          12          13          14          15          16          17          18          19          20
 IAtWgt=          12          12          12          12          12          12          12          12          12          12
 AtmWgt=  12.0000000  12.0000000  12.0000000  12.0000000  12.0000000  12.0000000  12.0000000  12.0000000  12.0000000  12.0000000
 NucSpn=           0           0           0           0           0           0           0           0           0           0
 AtZEff=  -3.6000000  -3.6000000  -3.6000000  -3.6000000  -3.6000000  -3.6000000  -3.6000000  -3.6000000  -3.6000000  -3.6000000
 NQMom=    0.0000000   0.0000000   0.0000000   0.0000000   0.0000000   0.0000000   0.0000000   0.0000000   0.0000000   0.0000000
 NMagM=    0.0000000   0.0000000   0.0000000   0.0000000   0.0000000   0.0000000   0.0000000   0.0000000   0.0000000   0.0000000
 AtZNuc=   6.0000000   6.0000000   6.0000000   6.0000000   6.0000000   6.0000000   6.0000000   6.0000000   6.0000000   6.0000000

  Atom        21          22          23          24          25          26          27          28          29          30
 IAtWgt=          16           1           1           1           1           1           1           1           1           1
 AtmWgt=  15.9949146   1.0078250   1.0078250   1.0078250   1.0078250   1.0078250   1.0078250   1.0078250   1.0078250   1.0078250
 NucSpn=           0           1           1           1           1           1           1           1           1           1
 AtZEff=  -5.6000000  -1.0000000  -1.0000000  -1.0000000  -1.0000000  -1.0000000  -1.0000000  -1.0000000  -1.0000000  -1.0000000
 NQMom=    0.0000000   0.0000000   0.0000000   0.0000000   0.0000000   0.0000000   0.0000000   0.0000000   0.0000000   0.0000000
 NMagM=    0.0000000   2.7928460   2.7928460   2.7928460   2.7928460   2.7928460   2.7928460   2.7928460   2.7928460   2.7928460
 AtZNuc=   8.0000000   1.0000000   1.0000000   1.0000000   1.0000000   1.0000000   1.0000000   1.0000000   1.0000000   1.0000000

  Atom        31          32          33
 IAtWgt=           1           1           1
 AtmWgt=   1.0078250   1.0078250   1.0078250
 NucSpn=           1           1           1
 AtZEff=  -1.0000000  -1.0000000  -1.0000000
 NQMom=    0.0000000   0.0000000   0.0000000
 NMagM=    2.7928460   2.7928460   2.7928460
 AtZNuc=   1.0000000   1.0000000   1.0000000
 Leave Link  101 at Thu Aug  6 22:01:22 2020, MaxMem=    33554432 cpu:         0.0
 (Enter /prod/apps/gaussian/g09d1/l202.exe)
                          Input orientation:                          
 ---------------------------------------------------------------------
 Center     Atomic      Atomic             Coordinates (Angstroms)
 Number     Number       Type             X           Y           Z
 ---------------------------------------------------------------------
      1          8           0        3.955000   -1.661000   -0.884000
      2         16           0        3.550000   -0.362000   -0.332000
      3          7           0        3.112000    0.709000   -1.578000
      4          6           0        2.617000    0.248000   -2.801000
      5          7           0        3.007000    0.845000   -3.913000
      6          8           0        2.270000    0.219000   -4.929000
      7          6           0        1.481000   -0.744000   -4.393000
      8          6           0        0.644000   -1.512000   -5.307000
      9          6           0       -0.147000   -2.566000   -4.821000
     10          6           0       -0.949000   -3.298000   -5.692000
     11          6           0       -0.971000   -2.989000   -7.055000
     12          6           0       -0.185000   -1.943000   -7.544000
     13          6           0        0.619000   -1.206000   -6.677000
     14          6           0        1.655000   -0.768000   -3.036000
     15          6           0        2.030000   -0.598000    0.570000
     16          6           0        1.396000    0.506000    1.146000
     17          6           0        0.236000    0.296000    1.887000
     18          6           0       -0.271000   -0.997000    2.048000
     19          6           0        0.379000   -2.089000    1.471000
     20          6           0        1.542000   -1.896000    0.725000
     21          8           0        4.494000    0.418000    0.479000
     22          1           0        3.802000    1.458000   -1.657000
     23          1           0       -0.130000   -2.812000   -3.765000
     24          1           0       -1.556000   -4.110000   -5.308000
     25          1           0       -1.596000   -3.562000   -7.732000
     26          1           0       -0.198000   -1.699000   -8.601000
     27          1           0        1.228000   -0.393000   -7.053000
     28          1           0        1.164000   -1.400000   -2.316000
     29          1           0        1.795000    1.504000    1.014000
     30          1           0       -0.272000    1.141000    2.337000
     31          1           0       -1.175000   -1.152000    2.626000
     32          1           0       -0.015000   -3.091000    1.600000
     33          1           0        2.067000   -2.725000    0.268000
 ---------------------------------------------------------------------
                    Distance matrix (angstroms):
                    1          2          3          4          5
     1  O    0.000000
     2  S    1.468377   0.000000
     3  N    2.609442   1.700412   0.000000
     4  C    3.018181   2.708976   1.397596   0.000000
     5  N    4.043956   3.817756   2.341313   1.321005   0.000000
     6  O    4.768191   4.807117   3.489737   2.156301   1.402605
     7  C    4.390290   4.573664   3.563088   2.192949   2.254772
     8  C    5.527011   5.875199   4.992926   3.642851   3.616968
     9  C    5.757204   6.219047   5.644799   4.431556   4.733614
    10  C    7.060159   7.588853   7.033688   5.800720   5.998269
    11  C    8.006891   8.517001   7.768116   6.438045   6.355801
    12  C    7.846956   8.274221   7.314128   5.928552   5.580857
    13  C    6.700356   7.040037   5.990165   4.596683   4.189134
    14  C    3.273920   3.326782   2.535772   1.418776   2.280088
    15  C    2.636230   1.783171   2.737312   3.524759   4.809789
    16  C    3.919856   2.752748   3.225840   4.139591   5.320124
    17  C    5.033811   4.042217   4.521965   5.258213   6.451344
    18  C    5.186193   4.546170   5.244330   5.779565   7.047820
    19  C    4.303137   4.035911   4.959284   5.359123   6.670997
    20  C    2.909755   2.739064   3.815067   4.264392   5.583041
    21  O    2.543724   1.468760   2.495166   3.782913   4.656518
    22  H    3.217002   2.265288   1.021441   2.043786   2.469277
    23  H    5.129541   5.597356   5.262221   4.223613   4.820407
    24  H    7.479338   8.054770   7.676320   6.533846   6.878882
    25  H    9.017899   9.564587   8.847509   7.521983   7.429268
    26  H    8.763615   9.176679   8.128782   6.734615   6.222645
    27  H    6.863011   7.110871   5.894021   4.518817   3.815375
    28  H    3.147765   3.272109   2.964326   2.249964   3.314677
    29  H    4.276123   2.893734   3.014130   4.099688   5.116498
    30  H    6.007793   4.897985   5.192813   5.961779   7.064132
    31  H    6.236672   5.630230   6.286120   6.766949   8.014715
    32  H    4.896535   4.887667   5.858141   6.119244   7.417395
    33  H    2.454332   2.853604   4.036347   4.308131   5.577568
                    6          7          8          9         10
     6  O    0.000000
     7  C    1.355428   0.000000
     8  C    2.404812   1.458009   0.000000
     9  C    3.689143   2.480575   1.404561   0.000000
    10  C    4.828397   3.757022   2.423978   1.392002   0.000000
    11  C    5.031423   4.258940   2.800939   2.418401   1.397760
    12  C    4.188018   3.760579   2.424288   2.793618   2.418600
    13  C    2.794983   2.484581   1.403980   2.425096   2.793799
[...]
 Alpha virt. eigenvalues --    2.62888   2.64597   2.65862   2.66292   2.68780
 Alpha virt. eigenvalues --    2.69941   2.71302   2.72561   2.73809   2.74386
 Alpha virt. eigenvalues --    2.74728   2.76087   2.77573   2.81601   2.82462
 Alpha virt. eigenvalues --    2.89480   2.90045   3.00584   3.02226   3.04266
 Alpha virt. eigenvalues --    3.13478   3.26584   3.36666   3.42617   3.75495
 Alpha virt. eigenvalues --    3.78724   3.99020   4.02850   4.07022   4.07611
 Alpha virt. eigenvalues --    4.08720   4.08962   4.10723   4.12651   4.16131
 Alpha virt. eigenvalues --    4.17545   4.23371   4.31420   4.32464   4.34347
 Alpha virt. eigenvalues --    4.37839   4.39787   4.55207   4.65039   4.74002
          Condensed to atoms (all electrons):
               1          2          3          4          5          6
     1  O    8.267870   0.420988  -0.055262   0.007204  -0.000029   0.000001
     2  S    0.420988  13.666778   0.102519  -0.005482  -0.002047   0.000090
     3  N   -0.055262   0.102519   7.464302   0.235840  -0.074795   0.005440
     4  C    0.007204  -0.005482   0.235840   4.468983   0.443077  -0.048733
     5  N   -0.000029  -0.002047  -0.074795   0.443077   6.912892   0.129237
     6  O    0.000001   0.000090   0.005440  -0.048733   0.129237   8.193024
     7  C   -0.000073  -0.000165  -0.001412  -0.011972  -0.086261   0.251304
     8  C    0.000002  -0.000025  -0.000201   0.003263   0.004756  -0.037562
     9  C    0.000000  -0.000002   0.000002   0.000557  -0.000107   0.003170
    10  C    0.000000   0.000000   0.000000  -0.000007   0.000001  -0.000061
    11  C    0.000000   0.000000   0.000000   0.000000   0.000000   0.000002
    12  C    0.000000   0.000000   0.000000   0.000004   0.000001   0.000288
    13  C    0.000000   0.000000   0.000000  -0.000333   0.000158  -0.006974
    14  C    0.000161  -0.001244  -0.049826   0.444819  -0.050874  -0.088307
    15  C   -0.057883   0.196379  -0.050239  -0.008882  -0.000073   0.000002
    16  C    0.001677  -0.020232   0.000837   0.000193  -0.000003   0.000000
    17  C   -0.000046   0.002129   0.000023  -0.000007   0.000000   0.000000
    18  C   -0.000004  -0.000337   0.000011   0.000003   0.000000   0.000000
    19  C    0.000609   0.003545  -0.000112   0.000005   0.000000   0.000000
    20  C    0.002239  -0.033853   0.000596   0.000094   0.000002   0.000000
    21  O   -0.041676   0.459144  -0.053017   0.001049  -0.000010   0.000000
    22  H   -0.000015  -0.009455   0.290008  -0.018435   0.002475  -0.000164
    23  H   -0.000001  -0.000003   0.000000   0.000081  -0.000006   0.000022
    24  H    0.000000   0.000000   0.000000   0.000000   0.000000   0.000000
    25  H    0.000000   0.000000   0.000000   0.000000   0.000000   0.000000
    26  H    0.000000   0.000000   0.000000   0.000000   0.000000  -0.000003
    27  H    0.000000   0.000000   0.000000   0.000054  -0.000235   0.009729
    28  H   -0.000308   0.001610  -0.001374  -0.030341   0.004992   0.003399
    29  H    0.000052  -0.000804   0.003475   0.000156  -0.000001   0.000000
    30  H    0.000000  -0.000070   0.000000   0.000000   0.000000   0.000000
    31  H    0.000000   0.000007   0.000000   0.000000   0.000000   0.000000
    32  H    0.000002  -0.000083   0.000000   0.000000   0.000000   0.000000
    33  H    0.011736  -0.007169   0.000236  -0.000019   0.000000   0.000000
               7          8          9         10         11         12
     1  O   -0.000073   0.000002   0.000000   0.000000   0.000000   0.000000
     2  S   -0.000165  -0.000025  -0.000002   0.000000   0.000000   0.000000
     3  N   -0.001412  -0.000201   0.000002   0.000000   0.000000   0.000000
     4  C   -0.011972   0.003263   0.000557  -0.000007   0.000000   0.000004
     5  N   -0.086261   0.004756  -0.000107   0.000001   0.000000   0.000001
     6  O    0.251304  -0.037562   0.003170  -0.000061   0.000002   0.000288
     7  C    4.725525   0.343324  -0.041716   0.006337   0.000862   0.004639
     8  C    0.343324   4.791567   0.533861  -0.011132  -0.033788  -0.009560
     9  C   -0.041716   0.533861   5.014894   0.519364  -0.040260  -0.041192
    10  C    0.006337  -0.011132   0.519364   4.881406   0.539882  -0.026085
    11  C    0.000862  -0.033788  -0.040260   0.539882   4.874056   0.538723
    12  C    0.004639  -0.009560  -0.041192  -0.026085   0.538723   4.891086
    13  C   -0.040676   0.471950  -0.082037  -0.042090  -0.037981   0.505731
    14  C    0.512214  -0.058507  -0.020420   0.000220   0.000016  -0.000239
    15  C    0.000106  -0.000004   0.000001   0.000000   0.000000   0.000000
    16  C    0.000006   0.000000   0.000000   0.000000   0.000000   0.000000
    17  C    0.000000   0.000000   0.000000   0.000000   0.000000   0.000000
    18  C    0.000000   0.000000   0.000000   0.000000   0.000000   0.000000
    19  C    0.000000   0.000000   0.000000   0.000000   0.000000   0.000000
    20  C    0.000026  -0.000002   0.000000   0.000000   0.000000   0.000000
    21  O    0.000000   0.000000   0.000000   0.000000   0.000000   0.000000
    22  H    0.000223   0.000001   0.000000   0.000000   0.000000   0.000000
    23  H   -0.012310  -0.037881   0.356931  -0.040782   0.004495   0.000169
    24  H   -0.000202   0.003224  -0.037214   0.363149  -0.040570   0.004369
    25  H    0.000003   0.000483   0.004808  -0.041396   0.364558  -0.041285
    26  H   -0.000171   0.003216   0.000770   0.004375  -0.040639   0.363583
    27  H   -0.012838  -0.042938   0.005287   0.000200   0.004536  -0.040608
    28  H   -0.023327  -0.003936   0.001471   0.000086  -0.000001   0.000002
    29  H    0.000001   0.000000   0.000000   0.000000   0.000000   0.000000
    30  H    0.000000   0.000000   0.000000   0.000000   0.000000   0.000000
    31  H    0.000000   0.000000   0.000000   0.000000   0.000000   0.000000
    32  H    0.000000   0.000000   0.000000   0.000000   0.000000   0.000000
    33  H    0.000000   0.000000   0.000000   0.000000   0.000000   0.000000
              13         14         15         16         17         18
     1  O    0.000000   0.000161  -0.057883   0.001677  -0.000046  -0.000004
     2  S    0.000000  -0.001244   0.196379  -0.020232   0.002129  -0.000337
     3  N    0.000000  -0.049826  -0.050239   0.000837   0.000023   0.000011
     4  C   -0.000333   0.444819  -0.008882   0.000193  -0.000007   0.000003
     5  N    0.000158  -0.050874  -0.000073  -0.000003   0.000000   0.000000
     6  O   -0.006974  -0.088307   0.000002   0.000000   0.000000   0.000000
     7  C   -0.040676   0.512214   0.000106   0.000006   0.000000   0.000000
     8  C    0.471950  -0.058507  -0.000004   0.000000   0.000000   0.000000
     9  C   -0.082037  -0.020420   0.000001   0.000000   0.000000   0.000000
    10  C   -0.042090   0.000220   0.000000   0.000000   0.000000   0.000000
    11  C   -0.037981   0.000016   0.000000   0.000000   0.000000   0.000000
    12  C    0.505731  -0.000239   0.000000   0.000000   0.000000   0.000000
    13  C    5.059364   0.011994   0.000000   0.000000   0.000000   0.000000
    14  C    0.011994   5.219384   0.002628   0.000201   0.000006  -0.000004
    15  C    0.000000   0.002628   5.346992   0.461531  -0.026598  -0.038972
    16  C    0.000000   0.000201   0.461531   4.927312   0.523288  -0.031786
    17  C    0.000000   0.000006  -0.026598   0.523288   4.873419   0.536272
    18  C    0.000000  -0.000004  -0.038972  -0.031786   0.536272   4.854386
    19  C    0.000000  -0.000106  -0.031865  -0.037796  -0.029628   0.540610
    20  C    0.000000  -0.001548   0.510205  -0.031119  -0.039150  -0.031462
    21  O    0.000000  -0.000031  -0.061540   0.001350   0.000172  -0.000004
    22  H    0.000000   0.004128   0.002166  -0.000086   0.000003   0.000000
    23  H    0.005594   0.005965  -0.000002   0.000000   0.000000   0.000000
    24  H    0.000790   0.000000   0.000000   0.000000   0.000000   0.000000
    25  H    0.004662   0.000000   0.000000   0.000000   0.000000   0.000000
    26  H   -0.037298   0.000001   0.000000   0.000000   0.000000   0.000000
    27  H    0.362939   0.000253   0.000000   0.000000   0.000000   0.000000
    28  H   -0.000116   0.344749   0.001441  -0.000215  -0.000067  -0.000002
    29  H    0.000000  -0.000026  -0.051833   0.366079  -0.032578   0.004194
    30  H    0.000000   0.000000   0.004804  -0.040187   0.366851  -0.039499
    31  H    0.000000   0.000000   0.000449   0.004867  -0.040541   0.365645
    32  H    0.000000  -0.000002   0.004835   0.000643   0.004203  -0.039727
    33  H    0.000000  -0.000102  -0.046013   0.004699   0.000210   0.004182
              19         20         21         22         23         24
     1  O    0.000609   0.002239  -0.041676  -0.000015  -0.000001   0.000000
     2  S    0.003545  -0.033853   0.459144  -0.009455  -0.000003   0.000000
     3  N   -0.000112   0.000596  -0.053017   0.290008   0.000000   0.000000
     4  C    0.000005   0.000094   0.001049  -0.018435   0.000081   0.000000
     5  N    0.000000   0.000002  -0.000010   0.002475  -0.000006   0.000000
     6  O    0.000000   0.000000   0.000000  -0.000164   0.000022   0.000000
     7  C    0.000000   0.000026   0.000000   0.000223  -0.012310  -0.000202
     8  C    0.000000  -0.000002   0.000000   0.000001  -0.037881   0.003224
     9  C    0.000000   0.000000   0.000000   0.000000   0.356931  -0.037214
    10  C    0.000000   0.000000   0.000000   0.000000  -0.040782   0.363149
    11  C    0.000000   0.000000   0.000000   0.000000   0.004495  -0.040570
    12  C    0.000000   0.000000   0.000000   0.000000   0.000169   0.004369
    13  C    0.000000   0.000000   0.000000   0.000000   0.005594   0.000790
    14  C   -0.000106  -0.001548  -0.000031   0.004128   0.005965   0.000000
    15  C   -0.031865   0.510205  -0.061540   0.002166  -0.000002   0.000000
    16  C   -0.037796  -0.031119   0.001350  -0.000086   0.000000   0.000000
    17  C   -0.029628  -0.039150   0.000172   0.000003   0.000000   0.000000
    18  C    0.540610  -0.031462  -0.000004   0.000000   0.000000   0.000000
    19  C    4.887319   0.505048  -0.000046   0.000001   0.000000   0.000000
    20  C    0.505048   4.927574  -0.000562  -0.000033  -0.000004   0.000000
    21  O   -0.000046  -0.000562   8.256265   0.003879   0.000000   0.000000
    22  H    0.000001  -0.000033   0.003879   0.301641   0.000000   0.000000
    23  H    0.000000  -0.000004   0.000000   0.000000   0.556930  -0.004849
    24  H    0.000000   0.000000   0.000000   0.000000  -0.004849   0.555506
    25  H    0.000000   0.000000   0.000000   0.000000  -0.000154  -0.005078
    26  H    0.000000   0.000000   0.000000   0.000000   0.000015  -0.000161
    27  H    0.000000   0.000000   0.000000   0.000000  -0.000138   0.000015
    28  H    0.000287   0.004296   0.000002  -0.000115   0.001946  -0.000003
    29  H    0.000310   0.004140   0.001518  -0.000172   0.000000   0.000000
    30  H    0.004243   0.000610   0.000001   0.000000   0.000000   0.000000
    31  H   -0.040555   0.004793   0.000000   0.000000   0.000000   0.000000
    32  H    0.367446  -0.040953   0.000000   0.000000   0.000000   0.000000
    33  H   -0.033134   0.362397   0.000024  -0.000003   0.000003   0.000000
              25         26         27         28         29         30
     1  O    0.000000   0.000000   0.000000  -0.000308   0.000052   0.000000
     2  S    0.000000   0.000000   0.000000   0.001610  -0.000804  -0.000070
     3  N    0.000000   0.000000   0.000000  -0.001374   0.003475   0.000000
     4  C    0.000000   0.000000   0.000054  -0.030341   0.000156   0.000000
     5  N    0.000000   0.000000  -0.000235   0.004992  -0.000001   0.000000
     6  O    0.000000  -0.000003   0.009729   0.003399   0.000000   0.000000
     7  C    0.000003  -0.000171  -0.012838  -0.023327   0.000001   0.000000
     8  C    0.000483   0.003216  -0.042938  -0.003936   0.000000   0.000000
     9  C    0.004808   0.000770   0.005287   0.001471   0.000000   0.000000
    10  C   -0.041396   0.004375   0.000200   0.000086   0.000000   0.000000
    11  C    0.364558  -0.040639   0.004536  -0.000001   0.000000   0.000000
    12  C   -0.041285   0.363583  -0.040608   0.000002   0.000000   0.000000
    13  C    0.004662  -0.037298   0.362939  -0.000116   0.000000   0.000000
    14  C    0.000000   0.000001   0.000253   0.344749  -0.000026   0.000000
    15  C    0.000000   0.000000   0.000000   0.001441  -0.051833   0.004804
    16  C    0.000000   0.000000   0.000000  -0.000215   0.366079  -0.040187
    17  C    0.000000   0.000000   0.000000  -0.000067  -0.032578   0.366851
    18  C    0.000000   0.000000   0.000000  -0.000002   0.004194  -0.039499
    19  C    0.000000   0.000000   0.000000   0.000287   0.000310   0.004243
    20  C    0.000000   0.000000   0.000000   0.004296   0.004140   0.000610
    21  O    0.000000   0.000000   0.000000   0.000002   0.001518   0.000001
    22  H    0.000000   0.000000   0.000000  -0.000115  -0.000172   0.000000
    23  H   -0.000154   0.000015  -0.000138   0.001946   0.000000   0.000000
    24  H   -0.005078  -0.000161   0.000015  -0.000003   0.000000   0.000000
    25  H    0.558781  -0.005052  -0.000150   0.000000   0.000000   0.000000
    26  H   -0.005052   0.555652  -0.004853   0.000000   0.000000   0.000000
    27  H   -0.000150  -0.004853   0.552333  -0.000009   0.000000   0.000000
    28  H    0.000000   0.000000  -0.000009   0.506336  -0.000001   0.000000
    29  H    0.000000   0.000000   0.000000  -0.000001   0.523474  -0.005200
    30  H    0.000000   0.000000   0.000000   0.000000  -0.005200   0.540112
    31  H    0.000000   0.000000   0.000000   0.000000  -0.000141  -0.005028
    32  H    0.000000   0.000000   0.000000   0.000006   0.000014  -0.000154
    33  H    0.000000   0.000000   0.000000   0.000387  -0.000134   0.000013
              31         32         33
     1  O    0.000000   0.000002   0.011736
     2  S    0.000007  -0.000083  -0.007169
     3  N    0.000000   0.000000   0.000236
     4  C    0.000000   0.000000  -0.000019
     5  N    0.000000   0.000000   0.000000
     6  O    0.000000   0.000000   0.000000
     7  C    0.000000   0.000000   0.000000
     8  C    0.000000   0.000000   0.000000
     9  C    0.000000   0.000000   0.000000
    10  C    0.000000   0.000000   0.000000
    11  C    0.000000   0.000000   0.000000
    12  C    0.000000   0.000000   0.000000
    13  C    0.000000   0.000000   0.000000
    14  C    0.000000  -0.000002  -0.000102
    15  C    0.000449   0.004835  -0.046013
    16  C    0.004867   0.000643   0.004699
    17  C   -0.040541   0.004203   0.000210
    18  C    0.365645  -0.039727   0.004182
    19  C   -0.040555   0.367446  -0.033134
    20  C    0.004793  -0.040953   0.362397
    21  O    0.000000   0.000000   0.000024
    22  H    0.000000   0.000000  -0.000003
    23  H    0.000000   0.000000   0.000003
    24  H    0.000000   0.000000   0.000000
    25  H    0.000000   0.000000   0.000000
    26  H    0.000000   0.000000   0.000000
    27  H    0.000000   0.000000   0.000000
    28  H    0.000000   0.000006   0.000387
    29  H   -0.000141   0.000014  -0.000134
    30  H   -0.005028  -0.000154   0.000013
    31  H    0.543590  -0.005097  -0.000134
    32  H   -0.005097   0.540698  -0.004900
    33  H   -0.000134  -0.004900   0.517465
 Mulliken charges:
               1
     1  O   -0.557241
     2  S    1.227779
     3  N   -0.817052
     4  C    0.518829
     5  N   -0.283152
     6  O   -0.413903
     7  C    0.386555
     8  C    0.079889
     9  C   -0.178166
    10  C   -0.153467
    11  C   -0.133890
    12  C   -0.149626
    13  C   -0.175677
    14  C   -0.275501
    15  C   -0.157636
    16  C   -0.131259
    17  C   -0.137961
    18  C   -0.123504
    19  C   -0.136180
    20  C   -0.143335
    21  O   -0.566518
    22  H    0.423951
    23  H    0.163979
    24  H    0.161025
    25  H    0.159820
    26  H    0.160564
    27  H    0.166424
    28  H    0.188803
    29  H    0.187476
    30  H    0.173506
    31  H    0.172143
    32  H    0.173068
    33  H    0.190255
 Sum of Mulliken charges =   0.00000
 Mulliken charges with hydrogens summed into heavy atoms:
               1
     1  O   -0.557241
     2  S    1.227779
     3  N   -0.393101
     4  C    0.518829
     5  N   -0.283152
     6  O   -0.413903
     7  C    0.386555
     8  C    0.079889
     9  C   -0.014187
    10  C    0.007558
    11  C    0.025930
    12  C    0.010938
    13  C   -0.009253
    14  C   -0.086698
    15  C   -0.157636
    16  C    0.056216
    17  C    0.035545
    18  C    0.048640
    19  C    0.036888
    20  C    0.046920
    21  O   -0.566518
 Electronic spatial extent (au):  <R**2>=           7990.0360
 Charge=              0.0000 electrons
 Dipole moment (field-independent basis, Debye):
    X=             -1.2993    Y=              7.9665    Z=             -2.7207  Tot=              8.5179
 Quadrupole moment (field-independent basis, Debye-Ang):
   XX=           -112.1669   YY=           -119.2902   ZZ=           -129.1119
   XY=              8.1562   XZ=            -13.5347   YZ=              5.7934
 Traceless Quadrupole moment (field-independent basis, Debye-Ang):
   XX=              8.0228   YY=              0.8995   ZZ=             -8.9223
   XY=              8.1562   XZ=            -13.5347   YZ=              5.7934
 Octapole moment (field-independent basis, Debye-Ang**2):
  XXX=           -138.7155  YYY=             51.3183  ZZZ=            -12.5054  XYY=             24.3953
  XXY=             80.2268  XXZ=            -43.5522  XZZ=             27.9494  YZZ=              9.6036
  YYZ=              3.0356  XYZ=             -0.9442
 Hexadecapole moment (field-independent basis, Debye-Ang**3):
 XXXX=          -7219.9798 YYYY=          -2025.0958 ZZZZ=           -617.3473 XXXY=             78.3136
 XXXZ=           -121.4038 YYYX=             35.4750 YYYZ=             12.0711 ZZZX=            -33.7908
 ZZZY=              2.8496 XXYY=          -1546.9248 XXZZ=          -1417.5225 YYZZ=           -451.8680
 XXYZ=             42.3248 YYXZ=            -82.3071 ZZXY=             39.8879
 N-N= 1.716974247509D+03 E-N=-6.505087103369D+03  KE= 1.302060980750D+03
 No NMR shielding tensors so no spin-rotation constants.
 Leave Link  601 at Thu Aug  6 22:04:55 2020, MaxMem=    33554432 cpu:         0.3
 (Enter /prod/apps/gaussian/g09d1/l9999.exe)
 1\1\GINC-PIRINEUS9\SP\RB3LYP\6-31G(d)\C15H12N2O3S1\UBAFAR01\06-Aug-202
 0\0\\#p b3lyp/6-31G(d) scrf=(iefpcm,read,solvent=Water) geom=allcheck 
 guess=read\\SM42.n.3.pdb.xyz\\0,1\O,0,3.955,-1.661,-0.884\S,0,3.55,-0.
 362,-0.332\N,0,3.112,0.709,-1.578\C,0,2.617,0.248,-2.801\N,0,3.007,0.8
 45,-3.913\O,0,2.27,0.219,-4.929\C,0,1.481,-0.744,-4.393\C,0,0.644,-1.5
 12,-5.307\C,0,-0.147,-2.566,-4.821\C,0,-0.949,-3.298,-5.692\C,0,-0.971
 ,-2.989,-7.055\C,0,-0.185,-1.943,-7.544\C,0,0.619,-1.206,-6.677\C,0,1.
 655,-0.768,-3.036\C,0,2.03,-0.598,0.57\C,0,1.396,0.506,1.146\C,0,0.236
 ,0.296,1.887\C,0,-0.271,-0.997,2.048\C,0,0.379,-2.089,1.471\C,0,1.542,
 -1.896,0.725\O,0,4.494,0.418,0.479\H,0,3.802,1.458,-1.657\H,0,-0.13,-2
 .812,-3.765\H,0,-1.556,-4.11,-5.308\H,0,-1.596,-3.562,-7.732\H,0,-0.19
 8,-1.699,-8.601\H,0,1.228,-0.393,-7.053\H,0,1.164,-1.4,-2.316\H,0,1.79
 5,1.504,1.014\H,0,-0.272,1.141,2.337\H,0,-1.175,-1.152,2.626\H,0,-0.01
 5,-3.091,1.6\H,0,2.067,-2.725,0.268\\Version=AM64L-G09RevD.01\State=1-
 A\HF=-1312.088674\RMSD=7.272e-09\Dipole=-3.227922,-0.7365829,0.5182704
 \Quadrupole=-10.0895568,1.4606834,8.6288734,4.7860479,-7.3648911,5.500
 3244\PG=C01 [X(C15H12N2O3S1)]\\@


 ERWIN WITH HIS PSI CAN DO
 CALCULATIONS QUITE A FEW.
 BUT ONE THING HAS NOT BEEN SEEN
 JUST WHAT DOES PSI REALLY MEAN.
 -- WALTER HUCKEL, TRANS. BY FELIX BLOCH
 Job cpu time:       0 days  0 hours  3 minutes 32.8 seconds.
 File lengths (MBytes):  RWF=    198 Int=      0 D2E=      0 Chk=      7 Scr=      1
 Normal termination of Gaussian 09 at Thu Aug  6 22:04:55 2020.
