 Entering Gaussian System, Link 0=g09
 Initial command:
 /prod/apps/gaussian/g09d1/l1.exe "/tmp/ubafar01/1448599/Gau-122391.inp" -scrdir="/tmp/ubafar01/1448599/"
 Entering Link 1 = /prod/apps/gaussian/g09d1/l1.exe PID=    122392.
  
 Copyright (c) 1988,1990,1992,1993,1995,1998,2003,2009,2013,
            Gaussian, Inc.  All Rights Reserved.
  
 This is part of the Gaussian(R) 09 program.  It is based on
 the Gaussian(R) 03 system (copyright 2003, Gaussian, Inc.),
 the Gaussian(R) 98 system (copyright 1998, Gaussian, Inc.),
 the Gaussian(R) 94 system (copyright 1995, Gaussian, Inc.),
 the Gaussian 92(TM) system (copyright 1992, Gaussian, Inc.),
 the Gaussian 90(TM) system (copyright 1990, Gaussian, Inc.),
 the Gaussian 88(TM) system (copyright 1988, Gaussian, Inc.),
 the Gaussian 86(TM) system (copyright 1986, Carnegie Mellon
 University), and the Gaussian 82(TM) system (copyright 1983,
 Carnegie Mellon University). Gaussian is a federally registered
 trademark of Gaussian, Inc.
  
 This software contains proprietary and confidential information,
 including trade secrets, belonging to Gaussian, Inc.
  
 This software is provided under written license and may be
 used, copied, transmitted, or stored only in accord with that
 written license.
  
 The following legend is applicable only to US Government
 contracts under FAR:
  
                    RESTRICTED RIGHTS LEGEND
  
 Use, reproduction and disclosure by the US Government is
 subject to restrictions as set forth in subparagraphs (a)
 and (c) of the Commercial Computer Software - Restricted
 Rights clause in FAR 52.227-19.
  
 Gaussian, Inc.
 340 Quinnipiac St., Bldg. 40, Wallingford CT 06492
  
  
 ---------------------------------------------------------------
 Warning -- This program may not be used in any manner that
 competes with the business of Gaussian, Inc. or will provide
 assistance to any competitor of Gaussian, Inc.  The licensee
 of this program is prohibited from giving any competitor of
 Gaussian, Inc. access to this program.  By using this program,
 the user acknowledges that Gaussian, Inc. is engaged in the
 business of creating and licensing software in the field of
 computational chemistry and represents and warrants to the
 licensee that it is not a competitor of Gaussian, Inc. and that
 it will not use this program in any manner prohibited above.
 ---------------------------------------------------------------
  

 Cite this work as:
 Gaussian 09, Revision D.01,
 M. J. Frisch, G. W. Trucks, H. B. Schlegel, G. E. Scuseria, 
 M. A. Robb, J. R. Cheeseman, G. Scalmani, V. Barone, B. Mennucci, 
 G. A. Petersson, H. Nakatsuji, M. Caricato, X. Li, H. P. Hratchian, 
 A. F. Izmaylov, J. Bloino, G. Zheng, J. L. Sonnenberg, M. Hada, 
 M. Ehara, K. Toyota, R. Fukuda, J. Hasegawa, M. Ishida, T. Nakajima, 
 Y. Honda, O. Kitao, H. Nakai, T. Vreven, J. A. Montgomery, Jr., 
 J. E. Peralta, F. Ogliaro, M. Bearpark, J. J. Heyd, E. Brothers, 
 K. N. Kudin, V. N. Staroverov, T. Keith, R. Kobayashi, J. Normand, 
 K. Raghavachari, A. Rendell, J. C. Burant, S. S. Iyengar, J. Tomasi, 
 M. Cossi, N. Rega, J. M. Millam, M. Klene, J. E. Knox, J. B. Cross, 
 V. Bakken, C. Adamo, J. Jaramillo, R. Gomperts, R. E. Stratmann, 
 O. Yazyev, A. J. Austin, R. Cammi, C. Pomelli, J. W. Ochterski, 
 R. L. Martin, K. Morokuma, V. G. Zakrzewski, G. A. Voth, 
 P. Salvador, J. J. Dannenberg, S. Dapprich, A. D. Daniels, 
 O. Farkas, J. B. Foresman, J. V. Ortiz, J. Cioslowski, 
 and D. J. Fox, Gaussian, Inc., Wallingford CT, 2013.
 
 ******************************************
 Gaussian 09:  AM64L-G09RevD.01 24-Apr-2013
                 6-Aug-2020 
 ******************************************
 %nproc=1
 Will use up to    1 processors via shared memory.
 %Chk=SM42.n.8.pdb.xyz.mst.n.w.chk
 -----------------
 #p b3lyp/6-31G(d)
 -----------------
 1/38=1/1;
 2/12=2,17=6,18=5,40=1/2;
 3/5=1,6=6,7=1,11=2,16=1,25=1,30=1,74=-5/1,2,3;
 4//1;
 5/5=2,38=5/2;
 6/7=2,8=2,9=2,10=2,28=1/1;
 99/5=1,9=1/99;
 Leave Link    1 at Thu Aug  6 21:56:18 2020, MaxMem=           0 cpu:         0.0
 (Enter /prod/apps/gaussian/g09d1/l101.exe)
 ----------------
 SM42.n.8.pdb.xyz
 ----------------
 Symbolic Z-matrix:
 Charge =  0 Multiplicity = 1
 O                     4.717     2.075    -1.744 
 S                     3.371     2.555    -1.408 
 N                     2.319     1.213    -1.528 
 C                     2.082     0.599    -2.763 
 N                     2.961     0.626    -3.747 
 O                     2.369    -0.133    -4.77 
 C                     1.162    -0.592    -4.359 
 C                     0.399    -1.409    -5.296 
 C                    -0.848    -1.935    -4.92 
 C                    -1.577    -2.713    -5.814 
 C                    -1.073    -2.976    -7.091 
 C                     0.166    -2.456    -7.47 
 C                     0.901    -1.677    -6.58 
 C                     0.922    -0.156    -3.086 
 C                     3.251     2.871     0.34 
 C                     3.933     2.039     1.231 
 C                     3.847     2.31      2.594 
 C                     3.096     3.399     3.046 
 C                     2.426     4.224     2.141 
 C                     2.5       3.965     0.773 
 O                     2.838     3.713    -2.142 
 H                     1.468     1.364    -0.984 
 H                    -1.242    -1.736    -3.93 
 H                    -2.539    -3.115    -5.515 
 H                    -1.644    -3.583    -7.786 
 H                     0.563    -2.657    -8.459 
 H                     1.862    -1.272    -6.872 
 H                     0.06     -0.333    -2.464 
 H                     4.518     1.203     0.866 
 H                     4.369     1.676     3.301 
 H                     3.035     3.605     4.109 
 H                     1.849     5.07      2.497 
 H                     1.996     4.594     0.05 
 
 NAtoms=     33 NQM=       33 NQMF=       0 NMMI=      0 NMMIF=      0
                NMic=       0 NMicF=      0.
                    Isotopes and Nuclear Properties:
 (Nuclear quadrupole moments (NQMom) in fm**2, nuclear magnetic moments (NMagM)
  in nuclear magnetons)

  Atom         1           2           3           4           5           6           7           8           9          10
 IAtWgt=          16          32          14          12          14          16          12          12          12          12
 AtmWgt=  15.9949146  31.9720718  14.0030740  12.0000000  14.0030740  15.9949146  12.0000000  12.0000000  12.0000000  12.0000000
 NucSpn=           0           0           2           0           2           0           0           0           0           0
 AtZEff=   0.0000000   0.0000000   0.0000000   0.0000000   0.0000000   0.0000000   0.0000000   0.0000000   0.0000000   0.0000000
 NQMom=    0.0000000   0.0000000   2.0440000   0.0000000   2.0440000   0.0000000   0.0000000   0.0000000   0.0000000   0.0000000
 NMagM=    0.0000000   0.0000000   0.4037610   0.0000000   0.4037610   0.0000000   0.0000000   0.0000000   0.0000000   0.0000000
 AtZNuc=   8.0000000  16.0000000   7.0000000   6.0000000   7.0000000   8.0000000   6.0000000   6.0000000   6.0000000   6.0000000

  Atom        11          12          13          14          15          16          17          18          19          20
 IAtWgt=          12          12          12          12          12          12          12          12          12          12
 AtmWgt=  12.0000000  12.0000000  12.0000000  12.0000000  12.0000000  12.0000000  12.0000000  12.0000000  12.0000000  12.0000000
 NucSpn=           0           0           0           0           0           0           0           0           0           0
 AtZEff=   0.0000000   0.0000000   0.0000000   0.0000000   0.0000000   0.0000000   0.0000000   0.0000000   0.0000000   0.0000000
 NQMom=    0.0000000   0.0000000   0.0000000   0.0000000   0.0000000   0.0000000   0.0000000   0.0000000   0.0000000   0.0000000
 NMagM=    0.0000000   0.0000000   0.0000000   0.0000000   0.0000000   0.0000000   0.0000000   0.0000000   0.0000000   0.0000000
 AtZNuc=   6.0000000   6.0000000   6.0000000   6.0000000   6.0000000   6.0000000   6.0000000   6.0000000   6.0000000   6.0000000

  Atom        21          22          23          24          25          26          27          28          29          30
 IAtWgt=          16           1           1           1           1           1           1           1           1           1
 AtmWgt=  15.9949146   1.0078250   1.0078250   1.0078250   1.0078250   1.0078250   1.0078250   1.0078250   1.0078250   1.0078250
 NucSpn=           0           1           1           1           1           1           1           1           1           1
 AtZEff=   0.0000000   0.0000000   0.0000000   0.0000000   0.0000000   0.0000000   0.0000000   0.0000000   0.0000000   0.0000000
 NQMom=    0.0000000   0.0000000   0.0000000   0.0000000   0.0000000   0.0000000   0.0000000   0.0000000   0.0000000   0.0000000
 NMagM=    0.0000000   2.7928460   2.7928460   2.7928460   2.7928460   2.7928460   2.7928460   2.7928460   2.7928460   2.7928460
 AtZNuc=   8.0000000   1.0000000   1.0000000   1.0000000   1.0000000   1.0000000   1.0000000   1.0000000   1.0000000   1.0000000

  Atom        31          32          33
 IAtWgt=           1           1           1
 AtmWgt=   1.0078250   1.0078250   1.0078250
 NucSpn=           1           1           1
 AtZEff=   0.0000000   0.0000000   0.0000000
 NQMom=    0.0000000   0.0000000   0.0000000
 NMagM=    2.7928460   2.7928460   2.7928460
 AtZNuc=   1.0000000   1.0000000   1.0000000
 Leave Link  101 at Thu Aug  6 21:56:18 2020, MaxMem=    33554432 cpu:         0.1
 (Enter /prod/apps/gaussian/g09d1/l202.exe)
                          Input orientation:                          
 ---------------------------------------------------------------------
 Center     Atomic      Atomic             Coordinates (Angstroms)
 Number     Number       Type             X           Y           Z
 ---------------------------------------------------------------------
      1          8           0        4.717000    2.075000   -1.744000
      2         16           0        3.371000    2.555000   -1.408000
      3          7           0        2.319000    1.213000   -1.528000
      4          6           0        2.082000    0.599000   -2.763000
      5          7           0        2.961000    0.626000   -3.747000
      6          8           0        2.369000   -0.133000   -4.770000
      7          6           0        1.162000   -0.592000   -4.359000
      8          6           0        0.399000   -1.409000   -5.296000
      9          6           0       -0.848000   -1.935000   -4.920000
     10          6           0       -1.577000   -2.713000   -5.814000
     11          6           0       -1.073000   -2.976000   -7.091000
     12          6           0        0.166000   -2.456000   -7.470000
     13          6           0        0.901000   -1.677000   -6.580000
     14          6           0        0.922000   -0.156000   -3.086000
     15          6           0        3.251000    2.871000    0.340000
     16          6           0        3.933000    2.039000    1.231000
     17          6           0        3.847000    2.310000    2.594000
     18          6           0        3.096000    3.399000    3.046000
     19          6           0        2.426000    4.224000    2.141000
     20          6           0        2.500000    3.965000    0.773000
     21          8           0        2.838000    3.713000   -2.142000
     22          1           0        1.468000    1.364000   -0.984000
     23          1           0       -1.242000   -1.736000   -3.930000
     24          1           0       -2.539000   -3.115000   -5.515000
     25          1           0       -1.644000   -3.583000   -7.786000
     26          1           0        0.563000   -2.657000   -8.459000
     27          1           0        1.862000   -1.272000   -6.872000
     28          1           0        0.060000   -0.333000   -2.464000
     29          1           0        4.518000    1.203000    0.866000
     30          1           0        4.369000    1.676000    3.301000
     31          1           0        3.035000    3.605000    4.109000
     32          1           0        1.849000    5.070000    2.497000
     33          1           0        1.996000    4.594000    0.050000
 ---------------------------------------------------------------------
                    Distance matrix (angstroms):
                    1          2          3          4          5
     1  O    0.000000
     2  S    1.467996   0.000000
     3  N    2.557363   1.709406   0.000000
     4  C    3.187501   2.706193   1.399425   0.000000
     5  N    3.032350   3.059422   2.383421   1.319707   0.000000
     6  O    4.420978   4.419547   3.510667   2.155514   1.404662
     7  C    5.156466   4.846823   3.551230   2.193649   2.257093
     8  C    6.587874   6.297827   4.975852   3.644262   3.620010
     9  C    7.558856   7.091841   5.607625   4.433814   4.737418
    10  C    8.894059   8.464477   6.997291   5.802260   6.001238
    11  C    9.360935   9.090522   7.745990   6.439428   6.358451
    12  C    8.603990   8.492938   7.307827   5.929581   5.583142
    13  C    7.212923   7.124627   5.990453   4.598307   4.192052
    14  C    4.602211   4.020299   2.500627   1.421251   2.281659
    15  C    2.669425   1.780382   2.665898   4.019596   4.672012
    16  C    3.076780   2.747075   3.301417   4.631613   5.265153
    17  C    4.430617   4.037648   4.530902   5.894081   6.620357
    18  C    5.227305   4.541594   5.128723   6.527839   7.338433
    19  C    4.996009   4.034103   4.747539   6.108042   6.921010
    20  C    3.849997   2.739252   3.591778   4.899793   5.638425
    21  O    2.524300   1.470989   2.626092   3.264073   3.481483
    22  H    3.411616   2.284659   1.021243   2.031517   3.226122
    23  H    7.403513   6.786231   5.210271   4.226475   4.824701
    24  H    9.685354   9.162120   7.630722   6.536126   6.882652
    25  H   10.439399  10.173699   8.824372   7.523479   7.432041
    26  H    9.205366   9.206867   8.130141   6.734487   6.223459
    27  H    6.756465   6.839467   5.911211   4.520279   3.817831
    28  H    5.291929   4.518672   2.892973   2.246444   3.313845
    29  H    2.759001   2.883503   3.250683   4.412318   4.902749
    30  H    5.072704   4.893192   5.266508   6.569809   7.263558
    31  H    6.279143   5.626072   6.165232   7.560994   8.402181
    32  H    5.931402   4.887815   5.594459   6.907368   7.744238
    33  H    4.119179   2.859005   3.745073   4.886757   5.576151
                    6          7          8          9         10
     6  O    0.000000
     7  C    1.355157   0.000000
     8  C    2.405359   1.458639   0.000000
     9  C    3.690365   2.481626   1.404657   0.000000
    10  C    4.828794   3.757364   2.423493   1.391388   0.000000
    11  C    5.031606   4.259402   2.800767   2.418170   1.397825
    12  C    4.188023   3.760962   2.424206   2.793231   2.417940
    13  C    2.795543   2.485596   1.404451   2.425111   2.792944
    14  C    2.220404   1.366830   2.593769   3.108263   4.497247
    15  C    5.992832   6.199749   7.629993   8.219917   9.610534
    16  C    6.570820   6.771167   8.184106   8.745595  10.127864
    17  C    7.898179   7.998440   9.379326   9.824624  11.195748
    18  C    8.607753   8.631481   9.998982  10.366477  11.734269
    19  C    8.169983   8.187891   9.547166   9.925224  11.288401
    20  C    6.894608   6.992419   8.374177   8.856035  10.227716
    21  O    4.681673   5.124167   6.490864   7.294092   8.617963
    22  H    4.169725   3.912825   5.236949   5.633769   7.015900
    23  H    4.039125   2.696663   2.160038   1.083945   2.148537
    24  H    5.791011   4.625934   3.404444   2.146137   1.084642
    25  H    6.091217   5.344534   3.885901   3.400511   2.156426
    26  H    4.820885   4.629582   3.404257   3.877722   3.402758
    27  H    2.443926   2.695843   2.154742   3.404992   3.875896
    28  H    3.269422   2.207376   3.048429   3.069659   4.423423
    29  H    6.177993   6.464162   7.858686   8.492279   9.854262
    30  H    8.509614   8.608384   9.959244  10.384664  11.734627
    31  H    9.656751   9.634831  10.979195  11.282381  12.635410
    32  H    8.952703   8.918237  10.237714  10.552522  11.890554
    33  H    6.761365   6.857801   8.195495   8.684301  10.027217
                   11         12         13         14         15
    11  C    0.000000
    12  C    1.396124   0.000000
    13  C    2.417684   1.392539   0.000000
    14  C    5.288899   5.008093   3.810763   0.000000
    15  C   10.397314   9.944358   8.607741   5.130735   0.000000
    16  C   10.930048  10.492984   9.165882   5.702687   1.396864
    17  C   12.080870  11.728112  10.427721   6.848298   2.398010
    18  C   12.679904  12.387582  11.101517   7.413887   2.761385
    19  C   12.219363  11.920626  10.639702   6.983405   2.398924
    20  C   11.080898  10.706253   9.405082   5.862133   1.395824
    21  O    9.194087   8.578096   7.245682   4.419429   2.653273
    22  H    7.911241   7.639097   6.394090   2.650834   2.683862
    23  H    3.399718   3.877172   3.408582   2.809205   7.722979
    24  H    2.156908   3.401960   3.877585   5.160837  10.180242
    25  H    1.085134   2.155478   3.400632   6.357569  11.473753
    26  H    2.156312   1.084496   2.145993   5.937425  10.733430
    27  H    3.400853   2.153108   1.082964   4.057444   8.432480
    28  H    5.447776   5.438603   4.410791   1.077616   5.320762
    29  H   10.584761  10.090445   8.764702   5.513293   2.159673
    30  H   12.619435  12.278154  10.995626   7.485439   3.383115
    31  H   13.624435  13.380588  12.112316   8.389155   3.845877
    32  H   12.853246  12.602153  11.349566   7.703265   3.384354
    33  H   10.849772  10.469088   9.191375   5.792277   2.151245
                   16         17         18         19         20
    16  C    0.000000
    17  C    1.392338   0.000000
    18  C    2.417518   1.397936   0.000000
    19  C    2.805953   2.426488   1.395905   0.000000
    20  C    2.443917   2.805258   2.417044   1.394267   0.000000
    21  O    3.921534   5.041447   5.203893   4.333008   2.945331
    22  H    3.382022   4.399618   4.799220   4.343154   3.304130
    23  H    8.226006   9.210354   9.687675   9.264603   8.283850
    24  H   10.675159  11.660510  12.143976  11.710102  10.726456
    25  H   12.000671  13.138605  13.731284  13.268741  12.140903
    26  H   11.282970  12.554862  13.245990  12.774151  11.525306
    27  H    8.995019  10.313879  11.032122  10.571579   9.288662
    28  H    5.854873   6.849101   7.314726   6.897118   5.908009
    29  H    1.083672   2.159091   3.405422   3.889541   3.421932
    30  H    2.146338   1.083646   2.157379   3.407808   3.888890
    31  H    3.397300   2.152114   1.084493   2.151062   3.397752
    32  H    3.890087   3.408667   2.156073   1.084150   2.148721
    33  H    3.416834   3.887775   3.407938   2.166583   1.082768
                   21         22         23         24         25
    21  O    0.000000
    22  H    2.955616   0.000000
    23  H    7.038107   5.062906   0.000000
    24  H    9.322598   7.526450   2.469023   0.000000
    25  H   10.255471   8.967974   4.294386   2.485456   0.000000
    26  H    9.255107   8.535988   4.961664   4.301082   2.486213
    27  H    6.940872   6.463148   4.301799   4.960534   4.297459
    28  H    4.918443   2.655687   2.410968   4.878824   6.464503
    29  H    4.262694   3.570843   8.050897  10.448135  11.650457
    30  H    6.009957   5.184050   9.767928  12.181790  13.665095
    31  H    6.255036   5.780676  10.556729  12.994201  14.664631
    32  H    4.933548   5.098721   9.858106  12.265436  13.885804
    33  H    2.507985   3.432323   8.148248  10.533951  11.896042
                   26         27         28         29         30
    26  H    0.000000
    27  H    2.474711   0.000000
    28  H    6.449342   4.853801   0.000000
    29  H   10.839615   8.547316   5.772518   0.000000
    30  H   13.098020  10.884194   7.472536   2.484986   0.000000
    31  H   14.257561  12.072424   8.219659   4.299528   2.480617
    32  H   13.468269  11.313677   7.550129   4.973672   4.303028
    33  H   11.270917   9.074249   5.860343   4.304094   4.971404
                   31         32         33
    31  H    0.000000
    32  H    2.480195   0.000000
    33  H    4.305011   2.497197   0.000000
 Stoichiometry    C15H12N2O3S
 Framework group  C1[X(C15H12N2O3S)]
 Deg. of freedom    93
 Full point group                 C1      NOp   1
 Largest Abelian subgroup         C1      NOp   1
 Largest concise Abelian subgroup C1      NOp   1
                         Standard orientation:                         
 ---------------------------------------------------------------------
 Center     Atomic      Atomic             Coordinates (Angstroms)
 Number     Number       Type             X           Y           Z
 ---------------------------------------------------------------------
      1          8           0       -2.139331   -2.040645   -0.737114
      2         16           0       -2.172701   -0.966634    0.263085
      3          7           0       -0.974089    0.167438   -0.183321
      4          6           0        0.381720   -0.178257   -0.157480
      5          7           0        0.798108   -1.421318   -0.309291
      6          8           0        2.199347   -1.331400   -0.270327
      7          6           0        2.570269   -0.038648   -0.104015
      8          6           0        3.999170    0.248281   -0.044503
      9          6           0        4.447445    1.571439    0.101658
     10          6           0        5.810315    1.845522    0.160169
     11          6           0        6.741227    0.806376    0.073609
     12          6           0        6.301362   -0.510619   -0.072011
     13          6           0        4.938829   -0.791869   -0.131751
     14          6           0        1.453568    0.745372   -0.023294
     15          6           0       -3.627386    0.035130    0.039208
     16          6           0       -4.094933    0.277642   -1.254553
     17          6           0       -5.245323    1.045630   -1.413934
     18          6           0       -5.911475    1.550861   -0.293573
     19          6           0       -5.433804    1.293262    0.992515
     20          6           0       -4.281849    0.527938    1.169317
     21          8           0       -2.055077   -1.330004    1.683626
     22          1           0       -1.163677    1.082828    0.227841
     23          1           0        3.729587    2.380999    0.166698
     24          1           0        6.147302    2.870278    0.273148
     25          1           0        7.803447    1.023354    0.119696
     26          1           0        7.018475   -1.321288   -0.140545
     27          1           0        4.595259   -1.812737   -0.243988
     28          1           0        1.387270    1.812294    0.112864
     29          1           0       -3.572923   -0.127020   -2.113680
     30          1           0       -5.623696    1.244799   -2.409652
     31          1           0       -6.807926    2.146795   -0.425348
     32          1           0       -5.957298    1.683662    1.857919
     33          1           0       -3.895075    0.307364    2.156302
 ---------------------------------------------------------------------
 Rotational constants (GHZ):      0.9538618      0.1050409      0.1003132
 Leave Link  202 at Thu Aug  6 21:56:18 2020, MaxMem=    33554432 cpu:         0.0
 (Enter /prod/apps/gaussian/g09d1/l301.exe)
 Standard basis: 6-31G(d) (6D, 7F)
 Ernie: Thresh=  0.10000D-02 Tol=  0.10000D-05 Strict=F.
 There are   343 symmetry adapted cartesian basis functions of A   symmetry.
 There are   343 symmetry adapted basis functions of A   symmetry.
   343 basis functions,   660 primitive gaussians,   343 cartesian basis functions
    78 alpha electrons       78 beta electrons
       nuclear repulsion energy      1670.3747279214 Hartrees.
 IExCor=  402 DFT=T Ex+Corr=B3LYP ExCW=0 ScaHFX=  0.200000
 ScaDFX=  0.800000  0.720000  1.000000  0.810000 ScalE2=  1.000000  1.000000
 IRadAn=      0 IRanWt=     -1 IRanGd=            0 ICorTp=0 IEmpDi=  4
 NAtoms=   33 NActive=   33 NUniq=   33 SFac= 1.00D+00 NAtFMM=   60 NAOKFM=F Big=F
 Integral buffers will be    131072 words long.
 Raffenetti 2 integral format.
 Two-electron integral symmetry is turned on.
 Leave Link  301 at Thu Aug  6 21:56:18 2020, MaxMem=    33554432 cpu:         0.0
 (Enter /prod/apps/gaussian/g09d1/l302.exe)
 NPDir=0 NMtPBC=     1 NCelOv=     1 NCel=       1 NClECP=     1 NCelD=      1
         NCelK=      1 NCelE2=     1 NClLst=     1 CellRange=     0.0.
 One-electron integrals computed using PRISM.
 NBasis=   343 RedAO= T EigKep=  4.58D-04  NBF=   343
 NBsUse=   343 1.00D-06 EigRej= -1.00D+00 NBFU=   343
 Precomputing XC quadrature grid using
 IXCGrd= 4 IRadAn=           0 IRanWt=          -1 IRanGd=           0 AccXCQ= 0.00D+00.
 Generated NRdTot=       0 NPtTot=           0 NUsed=           0 NTot=          32
 NSgBfM=   335   335   335   335   335 MxSgAt=    33 MxSgA2=    33.
 Leave Link  302 at Thu Aug  6 21:56:19 2020, MaxMem=    33554432 cpu:         1.1
 (Enter /prod/apps/gaussian/g09d1/l303.exe)
 DipDrv:  MaxL=1.
 Leave Link  303 at Thu Aug  6 21:56:19 2020, MaxMem=    33554432 cpu:         0.0
 (Enter /prod/apps/gaussian/g09d1/l401.exe)
 ExpMin= 1.17D-01 ExpMax= 2.19D+04 ExpMxC= 3.30D+03 IAcc=1 IRadAn=         1 AccDes= 0.00D+00
 Harris functional with IExCor=  402 and IRadAn=       1 diagonalized for initial guess.
 HarFok:  IExCor=  402 AccDes= 0.00D+00 IRadAn=         1 IDoV= 1 UseB2=F ITyADJ=14
 ICtDFT=  3500011 ScaDFX=  1.000000  1.000000  1.000000  1.000000
 FoFCou: FMM=F IPFlag=           0 FMFlag=      100000 FMFlg1=           0
         NFxFlg=           0 DoJE=T BraDBF=F KetDBF=T FulRan=T
         wScrn=  0.000000 ICntrl=     500 IOpCl=  0 I1Cent=   200000004 NGrid=           0
         NMat0=    1 NMatS0=      1 NMatT0=    0 NMatD0=    1 NMtDS0=    0 NMtDT0=    0
 Petite list used in FoFCou.
 Harris En= -1312.10626183095    
 JPrj=0 DoOrth=F DoCkMO=F.
 Leave Link  401 at Thu Aug  6 21:56:23 2020, MaxMem=    33554432 cpu:         3.2
 (Enter /prod/apps/gaussian/g09d1/l502.exe)
 Closed shell SCF:
 Using DIIS extrapolation, IDIIS=  1040.
 Integral symmetry usage will be decided dynamically.
 IVT=      376131 IEndB=      376131 NGot=    33554432 MDV=    33312934
 LenX=    33312934 LenY=    33194844
 Requested convergence on RMS density matrix=1.00D-08 within 128 cycles.
 Requested convergence on MAX density matrix=1.00D-06.
 Requested convergence on             energy=1.00D-06.
 No special actions if energy rises.
 Fock matrices will be formed incrementally for  20 cycles.
 Integral accuracy reduced to 1.0D-05 until final iterations.

 Cycle   1  Pass 0  IDiag  1:
 FoFJK:  IHMeth= 1 ICntrl=       0 DoSepK=F KAlg= 0 I1Cent=   0 FoldK=F
 IRaf= 630000000 NMat=   1 IRICut=       1 DoRegI=T DoRafI=F ISym2E= 0.
 FoFCou: FMM=F IPFlag=           0 FMFlag=      100000 FMFlg1=           0
         NFxFlg=           0 DoJE=F BraDBF=F KetDBF=F FulRan=T
         wScrn=  0.000000 ICntrl=       0 IOpCl=  0 I1Cent=           0 NGrid=           0
         NMat0=    1 NMatS0=      1 NMatT0=    0 NMatD0=    1 NMtDS0=    0 NMtDT0=    0
 Symmetry not used in FoFCou.
 E= -1311.45818984107    
 DIIS: error= 3.41D-02 at cycle   1 NSaved=   1.
 NSaved= 1 IEnMin= 1 EnMin= -1311.45818984107     IErMin= 1 ErrMin= 3.41D-02
 ErrMax= 3.41D-02  0.00D+00 EMaxC= 1.00D-01 BMatC= 6.69D-01 BMatP= 6.69D-01
 IDIUse=3 WtCom= 6.59D-01 WtEn= 3.41D-01
 Coeff-Com:  0.100D+01
 Coeff-En:   0.100D+01
 Coeff:      0.100D+01
 Gap=     0.272 Goal=   None    Shift=    0.000
 GapD=    0.272 DampG=1.000 DampE=0.500 DampFc=0.5000 IDamp=-1.
 Damping current iteration by 5.00D-01
 RMSDP=6.58D-03 MaxDP=6.14D-01              OVMax= 2.35D-01

 Cycle   2  Pass 0  IDiag  1:
 RMSU=  3.29D-03    CP:  9.90D-01
 E= -1311.57411954143     Delta-E=       -0.115929700364 Rises=F Damp=T
 DIIS: error= 1.70D-02 at cycle   2 NSaved=   2.
 NSaved= 2 IEnMin= 2 EnMin= -1311.57411954143     IErMin= 2 ErrMin= 1.70D-02
 ErrMax= 1.70D-02  0.00D+00 EMaxC= 1.00D-01 BMatC= 1.36D-01 BMatP= 6.69D-01
 IDIUse=3 WtCom= 8.30D-01 WtEn= 1.70D-01
 Coeff-Com:  0.257D+00 0.743D+00
 Coeff-En:   0.403D+00 0.597D+00
 Coeff:      0.282D+00 0.718D+00
 Gap=     0.236 Goal=   None    Shift=    0.000
 RMSDP=2.17D-03 MaxDP=1.52D-01 DE=-1.16D-01 OVMax= 2.04D-01

 Cycle   3  Pass 0  IDiag  1:
 RMSU=  1.73D-03    CP:  9.76D-01  6.11D-01
 E= -1311.98568400133     Delta-E=       -0.411564459896 Rises=F Damp=F
 DIIS: error= 1.21D-02 at cycle   3 NSaved=   3.
 NSaved= 3 IEnMin= 3 EnMin= -1311.98568400133     IErMin= 3 ErrMin= 1.21D-02
 ErrMax= 1.21D-02  0.00D+00 EMaxC= 1.00D-01 BMatC= 7.91D-02 BMatP= 1.36D-01
 IDIUse=3 WtCom= 8.79D-01 WtEn= 1.21D-01
 Coeff-Com:  0.842D-01 0.428D+00 0.488D+00
 Coeff-En:   0.000D+00 0.000D+00 0.100D+01
 Coeff:      0.740D-01 0.376D+00 0.550D+00
 Gap=     0.183 Goal=   None    Shift=    0.000
 RMSDP=1.24D-03 MaxDP=5.53D-02 DE=-4.12D-01 OVMax= 6.79D-02

 Cycle   4  Pass 0  IDiag  1:
 RMSU=  7.87D-04    CP:  9.83D-01  7.29D-01  4.97D-01
 E= -1312.04402260497     Delta-E=       -0.058338603642 Rises=F Damp=F
 DIIS: error= 7.38D-03 at cycle   4 NSaved=   4.
 NSaved= 4 IEnMin= 4 EnMin= -1312.04402260497     IErMin= 4 ErrMin= 7.38D-03
 ErrMax= 7.38D-03  0.00D+00 EMaxC= 1.00D-01 BMatC= 1.64D-02 BMatP= 7.91D-02
 IDIUse=3 WtCom= 9.26D-01 WtEn= 7.38D-02
 Coeff-Com:  0.143D-01 0.108D+00 0.328D+00 0.551D+00
 Coeff-En:   0.000D+00 0.000D+00 0.191D+00 0.809D+00
 Coeff:      0.133D-01 0.996D-01 0.318D+00 0.570D+00
 Gap=     0.185 Goal=   None    Shift=    0.000
 RMSDP=4.86D-04 MaxDP=2.19D-02 DE=-5.83D-02 OVMax= 3.35D-02

 Cycle   5  Pass 0  IDiag  1:
 RMSU=  2.66D-04    CP:  9.82D-01  6.96D-01  6.29D-01  5.96D-01
 E= -1312.05692360319     Delta-E=       -0.012900998217 Rises=F Damp=F
 DIIS: error= 2.42D-03 at cycle   5 NSaved=   5.
 NSaved= 5 IEnMin= 5 EnMin= -1312.05692360319     IErMin= 5 ErrMin= 2.42D-03
 ErrMax= 2.42D-03  0.00D+00 EMaxC= 1.00D-01 BMatC= 2.24D-03 BMatP= 1.64D-02
 IDIUse=3 WtCom= 9.76D-01 WtEn= 2.42D-02
 Coeff-Com:  0.199D-03 0.259D-01 0.151D+00 0.365D+00 0.458D+00
 Coeff-En:   0.000D+00 0.000D+00 0.000D+00 0.104D+00 0.896D+00
 Coeff:      0.194D-03 0.253D-01 0.148D+00 0.358D+00 0.468D+00
 Gap=     0.181 Goal=   None    Shift=    0.000
 RMSDP=1.78D-04 MaxDP=1.01D-02 DE=-1.29D-02 OVMax= 1.69D-02

 Cycle   6  Pass 0  IDiag  1:
 RMSU=  8.64D-05    CP:  9.82D-01  7.03D-01  6.28D-01  6.65D-01  4.57D-01
 E= -1312.05882510818     Delta-E=       -0.001901504989 Rises=F Damp=F
 DIIS: error= 8.63D-04 at cycle   6 NSaved=   6.
 NSaved= 6 IEnMin= 6 EnMin= -1312.05882510818     IErMin= 6 ErrMin= 8.63D-04
 ErrMax= 8.63D-04  0.00D+00 EMaxC= 1.00D-01 BMatC= 2.63D-04 BMatP= 2.24D-03
 IDIUse=3 WtCom= 9.91D-01 WtEn= 8.63D-03
 Coeff-Com: -0.156D-02 0.399D-02 0.512D-01 0.150D+00 0.301D+00 0.495D+00
 Coeff-En:   0.000D+00 0.000D+00 0.000D+00 0.000D+00 0.937D-01 0.906D+00
 Coeff:     -0.154D-02 0.396D-02 0.507D-01 0.149D+00 0.299D+00 0.499D+00
 Gap=     0.181 Goal=   None    Shift=    0.000
 RMSDP=5.28D-05 MaxDP=3.02D-03 DE=-1.90D-03 OVMax= 5.12D-03

 Cycle   7  Pass 0  IDiag  1:
 RMSU=  2.79D-05    CP:  9.81D-01  7.03D-01  6.29D-01  6.65D-01  5.40D-01
                    CP:  5.52D-01
 E= -1312.05905043974     Delta-E=       -0.000225331558 Rises=F Damp=F
 DIIS: error= 2.50D-04 at cycle   7 NSaved=   7.
 NSaved= 7 IEnMin= 7 EnMin= -1312.05905043974     IErMin= 7 ErrMin= 2.50D-04
 ErrMax= 2.50D-04  0.00D+00 EMaxC= 1.00D-01 BMatC= 1.63D-05 BMatP= 2.63D-04
 IDIUse=3 WtCom= 9.98D-01 WtEn= 2.50D-03
 Coeff-Com: -0.894D-03-0.703D-04 0.162D-01 0.535D-01 0.130D+00 0.287D+00
 Coeff-Com:  0.514D+00
 Coeff-En:   0.000D+00 0.000D+00 0.000D+00 0.000D+00 0.000D+00 0.000D+00
 Coeff-En:   0.100D+01
 Coeff:     -0.891D-03-0.702D-04 0.162D-01 0.534D-01 0.129D+00 0.286D+00
 Coeff:      0.516D+00
 Gap=     0.181 Goal=   None    Shift=    0.000
 RMSDP=1.43D-05 MaxDP=5.03D-04 DE=-2.25D-04 OVMax= 1.32D-03

 Cycle   8  Pass 0  IDiag  1:
 RMSU=  9.00D-06    CP:  9.82D-01  7.03D-01  6.29D-01  6.66D-01  5.45D-01
                    CP:  5.83D-01  6.24D-01
 E= -1312.05906457923     Delta-E=       -0.000014139490 Rises=F Damp=F
 DIIS: error= 1.14D-04 at cycle   8 NSaved=   8.
 NSaved= 8 IEnMin= 8 EnMin= -1312.05906457923     IErMin= 8 ErrMin= 1.14D-04
 ErrMax= 1.14D-04  0.00D+00 EMaxC= 1.00D-01 BMatC= 1.53D-06 BMatP= 1.63D-05
 IDIUse=3 WtCom= 9.99D-01 WtEn= 1.14D-03
 Coeff-Com: -0.339D-03-0.464D-03 0.379D-02 0.146D-01 0.425D-01 0.116D+00
 Coeff-Com:  0.294D+00 0.530D+00
 Coeff-En:   0.000D+00 0.000D+00 0.000D+00 0.000D+00 0.000D+00 0.000D+00
 Coeff-En:   0.256D-01 0.974D+00
 Coeff:     -0.338D-03-0.463D-03 0.379D-02 0.146D-01 0.424D-01 0.116D+00
 Coeff:      0.293D+00 0.531D+00
 Gap=     0.181 Goal=   None    Shift=    0.000
 RMSDP=5.15D-06 MaxDP=1.82D-04 DE=-1.41D-05 OVMax= 5.37D-04

 Initial convergence to 1.0D-05 achieved.  Increase integral accuracy.
 Cycle   9  Pass 1  IDiag  1:
 E= -1312.05902319615     Delta-E=        0.000041383077 Rises=F Damp=F
 DIIS: error= 7.61D-05 at cycle   1 NSaved=   1.
 NSaved= 1 IEnMin= 1 EnMin= -1312.05902319615     IErMin= 1 ErrMin= 7.61D-05
 ErrMax= 7.61D-05  0.00D+00 EMaxC= 1.00D-01 BMatC= 9.65D-07 BMatP= 9.65D-07
 IDIUse=1 WtCom= 1.00D+00 WtEn= 0.00D+00
 Coeff-Com:  0.100D+01
 Coeff:      0.100D+01
 Gap=     0.181 Goal=   None    Shift=    0.000
 RMSDP=5.15D-06 MaxDP=1.82D-04 DE= 4.14D-05 OVMax= 3.33D-04

 Cycle  10  Pass 1  IDiag  1:
 RMSU=  4.21D-05    CP:  1.00D+00
 E= -1312.05902363101     Delta-E=       -0.000000434858 Rises=F Damp=F
 DIIS: error= 5.52D-05 at cycle   2 NSaved=   2.
 NSaved= 2 IEnMin= 2 EnMin= -1312.05902363101     IErMin= 2 ErrMin= 5.52D-05
 ErrMax= 5.52D-05  0.00D+00 EMaxC= 1.00D-01 BMatC= 4.75D-07 BMatP= 9.65D-07
 IDIUse=1 WtCom= 1.00D+00 WtEn= 0.00D+00
 Coeff-Com:  0.372D+00 0.628D+00
 Coeff:      0.372D+00 0.628D+00
 Gap=     0.181 Goal=   None    Shift=    0.000
 RMSDP=4.04D-06 MaxDP=1.33D-04 DE=-4.35D-07 OVMax= 3.88D-04

 Cycle  11  Pass 1  IDiag  1:
 RMSU=  4.04D-06    CP:  1.00D+00  1.00D+00
 E= -1312.05902370817     Delta-E=       -0.000000077159 Rises=F Damp=F
 DIIS: error= 4.98D-05 at cycle   3 NSaved=   3.
 NSaved= 3 IEnMin= 3 EnMin= -1312.05902370817     IErMin= 3 ErrMin= 4.98D-05
 ErrMax= 4.98D-05  0.00D+00 EMaxC= 1.00D-01 BMatC= 4.06D-07 BMatP= 4.75D-07
 IDIUse=1 WtCom= 1.00D+00 WtEn= 0.00D+00
 Coeff-Com:  0.101D-01 0.478D+00 0.512D+00
 Coeff:      0.101D-01 0.478D+00 0.512D+00
 Gap=     0.181 Goal=   None    Shift=    0.000
 RMSDP=2.06D-06 MaxDP=9.42D-05 DE=-7.72D-08 OVMax= 1.75D-04

 Cycle  12  Pass 1  IDiag  1:
 RMSU=  6.29D-07    CP:  1.00D+00  1.01D+00  5.20D-01
 E= -1312.05902412719     Delta-E=       -0.000000419026 Rises=F Damp=F
 DIIS: error= 5.37D-06 at cycle   4 NSaved=   4.
 NSaved= 4 IEnMin= 4 EnMin= -1312.05902412719     IErMin= 4 ErrMin= 5.37D-06
 ErrMax= 5.37D-06  0.00D+00 EMaxC= 1.00D-01 BMatC= 1.43D-08 BMatP= 4.06D-07
 IDIUse=1 WtCom= 1.00D+00 WtEn= 0.00D+00
 Coeff-Com: -0.378D-02 0.284D+00 0.323D+00 0.396D+00
 Coeff:     -0.378D-02 0.284D+00 0.323D+00 0.396D+00
 Gap=     0.181 Goal=   None    Shift=    0.000
 RMSDP=3.73D-07 MaxDP=2.56D-05 DE=-4.19D-07 OVMax= 3.56D-05

 Cycle  13  Pass 1  IDiag  1:
 RMSU=  1.80D-07    CP:  1.00D+00  1.01D+00  5.31D-01  4.85D-01
 E= -1312.05902413940     Delta-E=       -0.000000012203 Rises=F Damp=F
 DIIS: error= 1.32D-06 at cycle   5 NSaved=   5.
 NSaved= 5 IEnMin= 5 EnMin= -1312.05902413940     IErMin= 5 ErrMin= 1.32D-06
 ErrMax= 1.32D-06  0.00D+00 EMaxC= 1.00D-01 BMatC= 6.11D-10 BMatP= 1.43D-08
 IDIUse=1 WtCom= 1.00D+00 WtEn= 0.00D+00
 Coeff-Com: -0.284D-02 0.140D+00 0.161D+00 0.237D+00 0.465D+00
 Coeff:     -0.284D-02 0.140D+00 0.161D+00 0.237D+00 0.465D+00
 Gap=     0.181 Goal=   None    Shift=    0.000
 RMSDP=9.35D-08 MaxDP=5.38D-06 DE=-1.22D-08 OVMax= 8.45D-06

 Cycle  14  Pass 1  IDiag  1:
 RMSU=  6.31D-08    CP:  1.00D+00  1.01D+00  5.32D-01  4.96D-01  6.20D-01
 E= -1312.05902413995     Delta-E=       -0.000000000551 Rises=F Damp=F
 DIIS: error= 3.66D-07 at cycle   6 NSaved=   6.
 NSaved= 6 IEnMin= 6 EnMin= -1312.05902413995     IErMin= 6 ErrMin= 3.66D-07
 ErrMax= 3.66D-07  0.00D+00 EMaxC= 1.00D-01 BMatC= 3.08D-11 BMatP= 6.11D-10
 IDIUse=1 WtCom= 1.00D+00 WtEn= 0.00D+00
 Coeff-Com: -0.116D-02 0.498D-01 0.579D-01 0.908D-01 0.242D+00 0.561D+00
 Coeff:     -0.116D-02 0.498D-01 0.579D-01 0.908D-01 0.242D+00 0.561D+00
 Gap=     0.181 Goal=   None    Shift=    0.000
 RMSDP=2.37D-08 MaxDP=9.19D-07 DE=-5.51D-10 OVMax= 1.68D-06

 Cycle  15  Pass 1  IDiag  1:
 RMSU=  1.89D-08    CP:  1.00D+00  1.01D+00  5.31D-01  4.98D-01  6.74D-01
                    CP:  8.37D-01
 E= -1312.05902413997     Delta-E=       -0.000000000028 Rises=F Damp=F
 DIIS: error= 1.61D-07 at cycle   7 NSaved=   7.
 NSaved= 7 IEnMin= 7 EnMin= -1312.05902413997     IErMin= 7 ErrMin= 1.61D-07
 ErrMax= 1.61D-07  0.00D+00 EMaxC= 1.00D-01 BMatC= 8.53D-12 BMatP= 3.08D-11
 IDIUse=1 WtCom= 1.00D+00 WtEn= 0.00D+00
 Coeff-Com: -0.257D-03 0.717D-02 0.858D-02 0.163D-01 0.748D-01 0.371D+00
 Coeff-Com:  0.523D+00
 Coeff:     -0.257D-03 0.717D-02 0.858D-02 0.163D-01 0.748D-01 0.371D+00
 Coeff:      0.523D+00
 Gap=     0.181 Goal=   None    Shift=    0.000
 RMSDP=1.06D-08 MaxDP=6.63D-07 DE=-2.82D-11 OVMax= 6.08D-07

 Cycle  16  Pass 1  IDiag  1:
 RMSU=  6.14D-09    CP:  1.00D+00  1.01D+00  5.32D-01  4.99D-01  6.79D-01
                    CP:  8.80D-01  5.82D-01
 E= -1312.05902413996     Delta-E=        0.000000000019 Rises=F Damp=F
 DIIS: error= 4.35D-08 at cycle   8 NSaved=   8.
 NSaved= 8 IEnMin= 7 EnMin= -1312.05902413997     IErMin= 8 ErrMin= 4.35D-08
 ErrMax= 4.35D-08  0.00D+00 EMaxC= 1.00D-01 BMatC= 9.48D-13 BMatP= 8.53D-12
 IDIUse=1 WtCom= 1.00D+00 WtEn= 0.00D+00
 Coeff-Com:  0.170D-04-0.273D-02-0.301D-02-0.295D-02 0.112D-01 0.148D+00
 Coeff-Com:  0.315D+00 0.535D+00
 Coeff:      0.170D-04-0.273D-02-0.301D-02-0.295D-02 0.112D-01 0.148D+00
 Coeff:      0.315D+00 0.535D+00
 Gap=     0.181 Goal=   None    Shift=    0.000
 RMSDP=3.43D-09 MaxDP=2.08D-07 DE= 1.91D-11 OVMax= 1.83D-07

 SCF Done:  E(RB3LYP) =  -1312.05902414     A.U. after   16 cycles
            NFock= 16  Conv=0.34D-08     -V/T= 2.0077
 KE= 1.302050466815D+03 PE=-6.411901557497D+03 EE= 2.127417338620D+03
 Leave Link  502 at Thu Aug  6 22:01:05 2020, MaxMem=    33554432 cpu:       282.2
 (Enter /prod/apps/gaussian/g09d1/l601.exe)
 Copying SCF densities to generalized density rwf, IOpCl= 0 IROHF=0.

 **********************************************************************

            Population analysis using the SCF density.

 **********************************************************************

 Orbital symmetries:
       Occupied  (A) (A) (A) (A) (A) (A) (A) (A) (A) (A) (A) (A)
                 (A) (A) (A) (A) (A) (A) (A) (A) (A) (A) (A) (A)
                 (A) (A) (A) (A) (A) (A) (A) (A) (A) (A) (A) (A)
                 (A) (A) (A) (A) (A) (A) (A) (A) (A) (A) (A) (A)
                 (A) (A) (A) (A) (A) (A) (A) (A) (A) (A) (A) (A)
                 (A) (A) (A) (A) (A) (A) (A) (A) (A) (A) (A) (A)
                 (A) (A) (A) (A) (A) (A)
       Virtual   (A) (A) (A) (A) (A) (A) (A) (A) (A) (A) (A) (A)
                 (A) (A) (A) (A) (A) (A) (A) (A) (A) (A) (A) (A)
                 (A) (A) (A) (A) (A) (A) (A) (A) (A) (A) (A) (A)
                 (A) (A) (A) (A) (A) (A) (A) (A) (A) (A) (A) (A)
                 (A) (A) (A) (A) (A) (A) (A) (A) (A) (A) (A) (A)
                 (A) (A) (A) (A) (A) (A) (A) (A) (A) (A) (A) (A)
                 (A) (A) (A) (A) (A) (A) (A) (A) (A) (A) (A) (A)
                 (A) (A) (A) (A) (A) (A) (A) (A) (A) (A) (A) (A)
                 (A) (A) (A) (A) (A) (A) (A) (A) (A) (A) (A) (A)
                 (A) (A) (A) (A) (A) (A) (A) (A) (A) (A) (A) (A)
                 (A) (A) (A) (A) (A) (A) (A) (A) (A) (A) (A) (A)
                 (A) (A) (A) (A) (A) (A) (A) (A) (A) (A) (A) (A)
                 (A) (A) (A) (A) (A) (A) (A) (A) (A) (A) (A) (A)
                 (A) (A) (A) (A) (A) (A) (A) (A) (A) (A) (A) (A)
                 (A) (A) (A) (A) (A) (A) (A) (A) (A) (A) (A) (A)
                 (A) (A) (A) (A) (A) (A) (A) (A) (A) (A) (A) (A)
                 (A) (A) (A) (A) (A) (A) (A) (A) (A) (A) (A) (A)
                 (A) (A) (A) (A) (A) (A) (A) (A) (A) (A) (A) (A)
                 (A) (A) (A) (A) (A) (A) (A) (A) (A) (A) (A) (A)
                 (A) (A) (A) (A) (A) (A) (A) (A) (A) (A) (A) (A)
                 (A) (A) (A) (A) (A) (A) (A) (A) (A) (A) (A) (A)
                 (A) (A) (A) (A) (A) (A) (A) (A) (A) (A) (A) (A)
                 (A)
 The electronic state is 1-A.
 Alpha  occ. eigenvalues --  -89.11766 -19.23180 -19.14305 -19.13815 -14.39119
 Alpha  occ. eigenvalues --  -14.37140 -10.27080 -10.26591 -10.23943 -10.22435
 Alpha  occ. eigenvalues --  -10.22421 -10.22118 -10.21852 -10.21830 -10.21726
 Alpha  occ. eigenvalues --  -10.20640 -10.20356 -10.20286 -10.20231 -10.20136
 Alpha  occ. eigenvalues --  -10.20050  -8.14291  -6.10836  -6.10650  -6.10600
 Alpha  occ. eigenvalues --   -1.13622  -1.10836  -0.99410  -0.96029  -0.88738
 Alpha  occ. eigenvalues --   -0.87440  -0.84927  -0.80945  -0.78860  -0.77609
 Alpha  occ. eigenvalues --   -0.75745  -0.75329  -0.69496  -0.64942  -0.63538
 Alpha  occ. eigenvalues --   -0.63006  -0.61649  -0.60303  -0.57387  -0.56179
 Alpha  occ. eigenvalues --   -0.55042  -0.52364  -0.50295  -0.48759  -0.48622
 Alpha  occ. eigenvalues --   -0.47844  -0.47182  -0.46767  -0.46386  -0.45153
 Alpha  occ. eigenvalues --   -0.45070  -0.44163  -0.43493  -0.42957  -0.39771
 Alpha  occ. eigenvalues --   -0.39201  -0.39053  -0.38456  -0.37520  -0.37209
 Alpha  occ. eigenvalues --   -0.36484  -0.35415  -0.33926  -0.31954  -0.31245
 Alpha  occ. eigenvalues --   -0.29916  -0.29654  -0.29201  -0.28168  -0.27939
 Alpha  occ. eigenvalues --   -0.26298  -0.25236  -0.23126
 Alpha virt. eigenvalues --   -0.05055  -0.04883  -0.02882  -0.01149   0.02432
 Alpha virt. eigenvalues --    0.04704   0.05643   0.07332   0.07839   0.08366
 Alpha virt. eigenvalues --    0.10235   0.10644   0.11365   0.12041   0.12599
 Alpha virt. eigenvalues --    0.13060   0.14352   0.14712   0.15930   0.16100
 Alpha virt. eigenvalues --    0.16774   0.16985   0.17431   0.18410   0.18572
 Alpha virt. eigenvalues --    0.22702   0.24550   0.25202   0.26520   0.27879
 Alpha virt. eigenvalues --    0.28193   0.29447   0.29644   0.30635   0.32288
 Alpha virt. eigenvalues --    0.32870   0.35571   0.37792   0.39058   0.40416
 Alpha virt. eigenvalues --    0.42744   0.43920   0.44799   0.47447   0.48644
 Alpha virt. eigenvalues --    0.49797   0.50187   0.51040   0.52023   0.52503
 Alpha virt. eigenvalues --    0.53286   0.53471   0.54021   0.55466   0.55590
 Alpha virt. eigenvalues --    0.56416   0.56661   0.56886   0.57648   0.57925
 Alpha virt. eigenvalues --    0.58239   0.58583   0.58799   0.59394   0.60111
 Alpha virt. eigenvalues --    0.60529   0.61150   0.61564   0.62383   0.62687
 Alpha virt. eigenvalues --    0.63854   0.65227   0.65414   0.67881   0.69079
 Alpha virt. eigenvalues --    0.70457   0.71606   0.74913   0.75884   0.76223
 Alpha virt. eigenvalues --    0.77027   0.78378   0.79026   0.79329   0.80066
 Alpha virt. eigenvalues --    0.81870   0.82152   0.82479   0.82881   0.83376
 Alpha virt. eigenvalues --    0.83929   0.84488   0.84615   0.85775   0.86097
 Alpha virt. eigenvalues --    0.87587   0.88600   0.88900   0.89853   0.90263
 Alpha virt. eigenvalues --    0.91498   0.91918   0.92475   0.94555   0.95519
 Alpha virt. eigenvalues --    0.96827   0.97449   0.97778   0.99987   1.00258
 Alpha virt. eigenvalues --    1.01884   1.03862   1.05221   1.06282   1.08036
 Alpha virt. eigenvalues --    1.09513   1.09692   1.11090   1.12757   1.14806
 Alpha virt. eigenvalues --    1.14923   1.16438   1.17404   1.17913   1.19539
 Alpha virt. eigenvalues --    1.21337   1.23593   1.23657   1.24351   1.27230
 Alpha virt. eigenvalues --    1.28353   1.30627   1.31465   1.32206   1.34833
 Alpha virt. eigenvalues --    1.36578   1.37755   1.40565   1.41224   1.41450
 Alpha virt. eigenvalues --    1.42069   1.42167   1.43999   1.44905   1.45975
 Alpha virt. eigenvalues --    1.47024   1.47672   1.47852   1.48010   1.49888
 Alpha virt. eigenvalues --    1.50137   1.52363   1.54443   1.55168   1.58273
 Alpha virt. eigenvalues --    1.62609   1.66470   1.68907   1.72184   1.75460
 Alpha virt. eigenvalues --    1.75978   1.77791   1.78720   1.79339   1.81445
 Alpha virt. eigenvalues --    1.82310   1.83016   1.84276   1.85323   1.85865
 Alpha virt. eigenvalues --    1.88098   1.88711   1.90035   1.92051   1.92655
 Alpha virt. eigenvalues --    1.93988   1.95057   1.96216   1.96401   1.96763
 Alpha virt. eigenvalues --    1.98181   2.00371   2.04180   2.05359   2.07330
 Alpha virt. eigenvalues --    2.08919   2.10487   2.10828   2.11706   2.12023
 Alpha virt. eigenvalues --    2.12240   2.12499   2.13142   2.13497   2.14330
 Alpha virt. eigenvalues --    2.15446   2.17629   2.20045   2.21873   2.23081
 Alpha virt. eigenvalues --    2.26356   2.26911   2.27462   2.27831   2.28537
 Alpha virt. eigenvalues --    2.29775   2.30194   2.31197   2.32644   2.35777
 Alpha virt. eigenvalues --    2.42687   2.50374   2.52127   2.53047   2.53868
 Alpha virt. eigenvalues --    2.56123   2.57788   2.57932   2.60046   2.61897
 Alpha virt. eigenvalues --    2.62248   2.64243   2.66043   2.66380   2.68843
 Alpha virt. eigenvalues --    2.70822   2.71485   2.72909   2.73652   2.73885
 Alpha virt. eigenvalues --    2.74311   2.75501   2.80510   2.84403   2.86372
 Alpha virt. eigenvalues --    2.89835   2.91342   3.00680   3.02692   3.06138
 Alpha virt. eigenvalues --    3.13467   3.27234   3.36049   3.42630   3.80891
 Alpha virt. eigenvalues --    3.91645   3.96052   4.03387   4.05058   4.07334
 Alpha virt. eigenvalues --    4.07515   4.09024   4.10094   4.10647   4.13988
 Alpha virt. eigenvalues --    4.18016   4.23033   4.30392   4.31237   4.33354
 Alpha virt. eigenvalues --    4.37116   4.40473   4.56241   4.64340   4.73986
          Condensed to atoms (all electrons):
               1          2          3          4          5          6
     1  O    8.218143   0.444907  -0.045468  -0.006584   0.002410   0.000049
     2  S    0.444907  13.713907   0.066811  -0.014542   0.009023  -0.000392
     3  N   -0.045468   0.066811   7.484477   0.237157  -0.075683   0.005901
     4  C   -0.006584  -0.014542   0.237157   4.531163   0.390076  -0.023038
     5  N    0.002410   0.009023  -0.075683   0.390076   6.874887   0.100902
     6  O    0.000049  -0.000392   0.005901  -0.023038   0.100902   8.199758
     7  C   -0.000009   0.000358  -0.001016  -0.026758  -0.073099   0.246516
     8  C    0.000000  -0.000007  -0.000225   0.003607   0.003997  -0.038167
     9  C    0.000000   0.000000   0.000003   0.000562  -0.000092   0.003186
    10  C    0.000000   0.000000   0.000000  -0.000006   0.000001  -0.000059
    11  C    0.000000   0.000000   0.000000   0.000000   0.000000   0.000001
    12  C    0.000000   0.000000   0.000000   0.000005   0.000000   0.000307
    13  C    0.000000   0.000000  -0.000001  -0.000307   0.000110  -0.006278
    14  C   -0.000050   0.001025  -0.059623   0.430991  -0.034539  -0.098615
    15  C   -0.058750   0.144522  -0.047908   0.003360  -0.000016   0.000000
    16  C    0.001501  -0.015513   0.002328   0.000046   0.000001   0.000000
    17  C    0.000340   0.002175  -0.000077   0.000003   0.000000   0.000000
    18  C   -0.000005  -0.000338   0.000009   0.000000   0.000000   0.000000
    19  C   -0.000042   0.003358  -0.000139  -0.000001   0.000000   0.000000
    20  C    0.000619  -0.021123  -0.001606  -0.000044   0.000001   0.000000
    21  O   -0.047475   0.447125  -0.058584   0.003400  -0.001267  -0.000007
    22  H    0.001720  -0.006025   0.288805  -0.024145   0.003281  -0.000067
    23  H    0.000000   0.000000  -0.000001   0.000073  -0.000004   0.000020
    24  H    0.000000   0.000000   0.000000   0.000000   0.000000   0.000000
    25  H    0.000000   0.000000   0.000000   0.000000   0.000000   0.000000
    26  H    0.000000   0.000000   0.000000   0.000000   0.000000  -0.000002
    27  H    0.000000   0.000000   0.000000   0.000070  -0.000261   0.009732
    28  H    0.000001  -0.000125  -0.001947  -0.031315   0.004780   0.003641
    29  H    0.004612   0.000994   0.001061  -0.000058  -0.000002   0.000000
    30  H    0.000001  -0.000034  -0.000001   0.000000   0.000000   0.000000
    31  H    0.000000   0.000005   0.000000   0.000000   0.000000   0.000000
    32  H    0.000000  -0.000046   0.000001   0.000000   0.000000   0.000000
    33  H    0.000068  -0.002513   0.000186  -0.000013   0.000001   0.000000
               7          8          9         10         11         12
     1  O   -0.000009   0.000000   0.000000   0.000000   0.000000   0.000000
     2  S    0.000358  -0.000007   0.000000   0.000000   0.000000   0.000000
     3  N   -0.001016  -0.000225   0.000003   0.000000   0.000000   0.000000
     4  C   -0.026758   0.003607   0.000562  -0.000006   0.000000   0.000005
     5  N   -0.073099   0.003997  -0.000092   0.000001   0.000000   0.000000
     6  O    0.246516  -0.038167   0.003186  -0.000059   0.000001   0.000307
     7  C    4.724080   0.342173  -0.042016   0.006411   0.000947   0.004686
     8  C    0.342173   4.774853   0.536353  -0.007905  -0.033804  -0.008194
     9  C   -0.042016   0.536353   5.006631   0.522578  -0.038527  -0.041135
    10  C    0.006411  -0.007905   0.522578   4.862091   0.545469  -0.023851
    11  C    0.000947  -0.033804  -0.038527   0.545469   4.853171   0.543749
    12  C    0.004686  -0.008194  -0.041135  -0.023851   0.543749   4.875352
    13  C   -0.039225   0.477016  -0.085078  -0.042512  -0.035842   0.503827
    14  C    0.509685  -0.061660  -0.021877   0.000196   0.000015  -0.000244
    15  C    0.000003   0.000000   0.000000   0.000000   0.000000   0.000000
    16  C    0.000000   0.000000   0.000000   0.000000   0.000000   0.000000
    17  C    0.000000   0.000000   0.000000   0.000000   0.000000   0.000000
    18  C    0.000000   0.000000   0.000000   0.000000   0.000000   0.000000
    19  C    0.000000   0.000000   0.000000   0.000000   0.000000   0.000000
    20  C    0.000000   0.000000   0.000000   0.000000   0.000000   0.000000
    21  O    0.000012   0.000000   0.000000   0.000000   0.000000   0.000000
    22  H   -0.000024  -0.000003   0.000000   0.000000   0.000000   0.000000
    23  H   -0.013706  -0.037806   0.351101  -0.045151   0.004740   0.000201
    24  H   -0.000213   0.003336  -0.039107   0.358762  -0.041920   0.004513
    25  H    0.000003   0.000549   0.004911  -0.042925   0.360719  -0.042562
    26  H   -0.000184   0.003138   0.000888   0.004485  -0.042310   0.359898
    27  H   -0.013086  -0.037730   0.005373   0.000285   0.004419  -0.042828
    28  H   -0.023748  -0.003667   0.001386   0.000089  -0.000001   0.000002
    29  H    0.000000   0.000000   0.000000   0.000000   0.000000   0.000000
    30  H    0.000000   0.000000   0.000000   0.000000   0.000000   0.000000
    31  H    0.000000   0.000000   0.000000   0.000000   0.000000   0.000000
    32  H    0.000000   0.000000   0.000000   0.000000   0.000000   0.000000
    33  H    0.000000   0.000000   0.000000   0.000000   0.000000   0.000000
              13         14         15         16         17         18
     1  O    0.000000  -0.000050  -0.058750   0.001501   0.000340  -0.000005
     2  S    0.000000   0.001025   0.144522  -0.015513   0.002175  -0.000338
     3  N   -0.000001  -0.059623  -0.047908   0.002328  -0.000077   0.000009
     4  C   -0.000307   0.430991   0.003360   0.000046   0.000003   0.000000
     5  N    0.000110  -0.034539  -0.000016   0.000001   0.000000   0.000000
     6  O   -0.006278  -0.098615   0.000000   0.000000   0.000000   0.000000
     7  C   -0.039225   0.509685   0.000003   0.000000   0.000000   0.000000
     8  C    0.477016  -0.061660   0.000000   0.000000   0.000000   0.000000
     9  C   -0.085078  -0.021877   0.000000   0.000000   0.000000   0.000000
    10  C   -0.042512   0.000196   0.000000   0.000000   0.000000   0.000000
    11  C   -0.035842   0.000015   0.000000   0.000000   0.000000   0.000000
    12  C    0.503827  -0.000244   0.000000   0.000000   0.000000   0.000000
    13  C    5.044885   0.012557   0.000000   0.000000   0.000000   0.000000
    14  C    0.012557   5.283030  -0.000154  -0.000003   0.000000   0.000000
    15  C    0.000000  -0.000154   5.406298   0.478141  -0.027911  -0.038860
    16  C    0.000000  -0.000003   0.478141   4.920201   0.509930  -0.029467
    17  C    0.000000   0.000000  -0.027911   0.509930   4.881754   0.540744
    18  C    0.000000   0.000000  -0.038860  -0.029467   0.540744   4.842224
    19  C    0.000000   0.000000  -0.031788  -0.035756  -0.029388   0.544953
    20  C    0.000000   0.000000   0.501895  -0.042955  -0.037642  -0.030100
    21  O    0.000000  -0.000045  -0.057969   0.001590  -0.000042  -0.000005
    22  H    0.000000  -0.006127   0.003912   0.000314  -0.000084   0.000001
    23  H    0.006135   0.006246   0.000000   0.000000   0.000000   0.000000
    24  H    0.000857   0.000000   0.000000   0.000000   0.000000   0.000000
    25  H    0.004714   0.000000   0.000000   0.000000   0.000000   0.000000
    26  H   -0.037727   0.000001   0.000000   0.000000   0.000000   0.000000
    27  H    0.360639   0.000269   0.000000   0.000000   0.000000   0.000000
    28  H   -0.000126   0.344306  -0.000002   0.000000   0.000000   0.000000
    29  H    0.000000   0.000002  -0.045058   0.362959  -0.037100   0.004133
    30  H    0.000000   0.000000   0.005042  -0.041594   0.363724  -0.041745
    31  H    0.000000   0.000000   0.000441   0.004913  -0.042280   0.362457
    32  H    0.000000   0.000000   0.004870   0.000659   0.004382  -0.041638
    33  H    0.000000   0.000001  -0.043349   0.004572   0.000260   0.004104
              19         20         21         22         23         24
     1  O   -0.000042   0.000619  -0.047475   0.001720   0.000000   0.000000
     2  S    0.003358  -0.021123   0.447125  -0.006025   0.000000   0.000000
     3  N   -0.000139  -0.001606  -0.058584   0.288805  -0.000001   0.000000
     4  C   -0.000001  -0.000044   0.003400  -0.024145   0.000073   0.000000
     5  N    0.000000   0.000001  -0.001267   0.003281  -0.000004   0.000000
     6  O    0.000000   0.000000  -0.000007  -0.000067   0.000020   0.000000
     7  C    0.000000   0.000000   0.000012  -0.000024  -0.013706  -0.000213
     8  C    0.000000   0.000000   0.000000  -0.000003  -0.037806   0.003336
     9  C    0.000000   0.000000   0.000000   0.000000   0.351101  -0.039107
    10  C    0.000000   0.000000   0.000000   0.000000  -0.045151   0.358762
    11  C    0.000000   0.000000   0.000000   0.000000   0.004740  -0.041920
    12  C    0.000000   0.000000   0.000000   0.000000   0.000201   0.004513
    13  C    0.000000   0.000000   0.000000   0.000000   0.006135   0.000857
    14  C    0.000000   0.000000  -0.000045  -0.006127   0.006246   0.000000
    15  C   -0.031788   0.501895  -0.057969   0.003912   0.000000   0.000000
    16  C   -0.035756  -0.042955   0.001590   0.000314   0.000000   0.000000
    17  C   -0.029388  -0.037642  -0.000042  -0.000084   0.000000   0.000000
    18  C    0.544953  -0.030100  -0.000005   0.000001   0.000000   0.000000
    19  C    4.887485   0.498045   0.000627   0.000010   0.000000   0.000000
    20  C    0.498045   4.940064   0.003163   0.000728   0.000000   0.000000
    21  O    0.000627   0.003163   8.205091  -0.000056   0.000000   0.000000
    22  H    0.000010   0.000728  -0.000056   0.383155   0.000000   0.000000
    23  H    0.000000   0.000000   0.000000   0.000000   0.598498  -0.005359
    24  H    0.000000   0.000000   0.000000   0.000000  -0.005359   0.587935
    25  H    0.000000   0.000000   0.000000   0.000000  -0.000173  -0.005449
    26  H    0.000000   0.000000   0.000000   0.000000   0.000016  -0.000177
    27  H    0.000000   0.000000   0.000000   0.000000  -0.000149   0.000015
    28  H    0.000000   0.000000   0.000001   0.002279   0.002273  -0.000003
    29  H    0.000332   0.004332   0.000064   0.000000   0.000000   0.000000
    30  H    0.004388   0.000654   0.000000   0.000000   0.000000   0.000000
    31  H   -0.042237   0.004847   0.000000   0.000000   0.000000   0.000000
    32  H    0.364152  -0.042251   0.000002   0.000000   0.000000   0.000000
    33  H   -0.036484   0.360046   0.010622   0.000043   0.000000   0.000000
              25         26         27         28         29         30
     1  O    0.000000   0.000000   0.000000   0.000001   0.004612   0.000001
     2  S    0.000000   0.000000   0.000000  -0.000125   0.000994  -0.000034
     3  N    0.000000   0.000000   0.000000  -0.001947   0.001061  -0.000001
     4  C    0.000000   0.000000   0.000070  -0.031315  -0.000058   0.000000
     5  N    0.000000   0.000000  -0.000261   0.004780  -0.000002   0.000000
     6  O    0.000000  -0.000002   0.009732   0.003641   0.000000   0.000000
     7  C    0.000003  -0.000184  -0.013086  -0.023748   0.000000   0.000000
     8  C    0.000549   0.003138  -0.037730  -0.003667   0.000000   0.000000
     9  C    0.004911   0.000888   0.005373   0.001386   0.000000   0.000000
    10  C   -0.042925   0.004485   0.000285   0.000089   0.000000   0.000000
    11  C    0.360719  -0.042310   0.004419  -0.000001   0.000000   0.000000
    12  C   -0.042562   0.359898  -0.042828   0.000002   0.000000   0.000000
    13  C    0.004714  -0.037727   0.360639  -0.000126   0.000000   0.000000
    14  C    0.000000   0.000001   0.000269   0.344306   0.000002   0.000000
    15  C    0.000000   0.000000   0.000000  -0.000002  -0.045058   0.005042
    16  C    0.000000   0.000000   0.000000   0.000000   0.362959  -0.041594
    17  C    0.000000   0.000000   0.000000   0.000000  -0.037100   0.363724
    18  C    0.000000   0.000000   0.000000   0.000000   0.004133  -0.041745
    19  C    0.000000   0.000000   0.000000   0.000000   0.000332   0.004388
    20  C    0.000000   0.000000   0.000000   0.000000   0.004332   0.000654
    21  O    0.000000   0.000000   0.000000   0.000001   0.000064   0.000000
    22  H    0.000000   0.000000   0.000000   0.002279   0.000000   0.000000
    23  H   -0.000173   0.000016  -0.000149   0.002273   0.000000   0.000000
    24  H   -0.005449  -0.000177   0.000015  -0.000003   0.000000   0.000000
    25  H    0.588274  -0.005383  -0.000158   0.000000   0.000000   0.000000
    26  H   -0.005383   0.580920  -0.004860   0.000000   0.000000   0.000000
    27  H   -0.000158  -0.004860   0.550315  -0.000009   0.000000   0.000000
    28  H    0.000000   0.000000  -0.000009   0.552044   0.000000   0.000000
    29  H    0.000000   0.000000   0.000000   0.000000   0.521247  -0.005185
    30  H    0.000000   0.000000   0.000000   0.000000  -0.005185   0.568873
    31  H    0.000000   0.000000   0.000000   0.000000  -0.000146  -0.005398
    32  H    0.000000   0.000000   0.000000   0.000000   0.000014  -0.000167
    33  H    0.000000   0.000000   0.000000   0.000000  -0.000142   0.000014
              31         32         33
     1  O    0.000000   0.000000   0.000068
     2  S    0.000005  -0.000046  -0.002513
     3  N    0.000000   0.000001   0.000186
     4  C    0.000000   0.000000  -0.000013
     5  N    0.000000   0.000000   0.000001
     6  O    0.000000   0.000000   0.000000
     7  C    0.000000   0.000000   0.000000
     8  C    0.000000   0.000000   0.000000
     9  C    0.000000   0.000000   0.000000
    10  C    0.000000   0.000000   0.000000
    11  C    0.000000   0.000000   0.000000
    12  C    0.000000   0.000000   0.000000
    13  C    0.000000   0.000000   0.000000
    14  C    0.000000   0.000000   0.000001
    15  C    0.000441   0.004870  -0.043349
    16  C    0.004913   0.000659   0.004572
    17  C   -0.042280   0.004382   0.000260
    18  C    0.362457  -0.041638   0.004104
    19  C   -0.042237   0.364152  -0.036484
    20  C    0.004847  -0.042251   0.360046
    21  O    0.000000   0.000002   0.010622
    22  H    0.000000   0.000000   0.000043
    23  H    0.000000   0.000000   0.000000
    24  H    0.000000   0.000000   0.000000
    25  H    0.000000   0.000000   0.000000
    26  H    0.000000   0.000000   0.000000
    27  H    0.000000   0.000000   0.000000
    28  H    0.000000   0.000000   0.000000
    29  H   -0.000146   0.000014  -0.000142
    30  H   -0.005398  -0.000167   0.000014
    31  H    0.574422  -0.005453  -0.000142
    32  H   -0.005453   0.569993  -0.004968
    33  H   -0.000142  -0.004968   0.518904
 Mulliken charges:
               1
     1  O   -0.515988
     2  S    1.226449
     3  N   -0.794462
     4  C    0.526299
     5  N   -0.204506
     6  O   -0.403389
     7  C    0.398211
     8  C    0.084146
     9  C   -0.165141
    10  C   -0.137958
    11  C   -0.120827
    12  C   -0.133726
    13  C   -0.163643
    14  C   -0.305390
    15  C   -0.196717
    16  C   -0.121866
    17  C   -0.128788
    18  C   -0.116468
    19  C   -0.127514
    20  C   -0.138674
    21  O   -0.506248
    22  H    0.352283
    23  H    0.133045
    24  H    0.136810
    25  H    0.137480
    26  H    0.141295
    27  H    0.167966
    28  H    0.150141
    29  H    0.187941
    30  H    0.151429
    31  H    0.148572
    32  H    0.150449
    33  H    0.188792
 Sum of Mulliken charges =   0.00000
 Mulliken charges with hydrogens summed into heavy atoms:
               1
     1  O   -0.515988
     2  S    1.226449
     3  N   -0.442178
     4  C    0.526299
     5  N   -0.204506
     6  O   -0.403389
     7  C    0.398211
     8  C    0.084146
     9  C   -0.032096
    10  C   -0.001148
    11  C    0.016653
    12  C    0.007569
    13  C    0.004323
    14  C   -0.155250
    15  C   -0.196717
    16  C    0.066074
    17  C    0.022640
    18  C    0.032104
    19  C    0.022935
    20  C    0.050118
    21  O   -0.506248
 Electronic spatial extent (au):  <R**2>=          10194.4903
 Charge=              0.0000 electrons
 Dipole moment (field-independent basis, Debye):
    X=             -0.5324    Y=              7.6181    Z=             -0.1549  Tot=              7.6383
 Quadrupole moment (field-independent basis, Debye-Ang):
   XX=            -84.5272   YY=           -128.9435   ZZ=           -127.9819
   XY=            -11.8448   XZ=              2.5186   YZ=              1.8460
 Traceless Quadrupole moment (field-independent basis, Debye-Ang):
   XX=             29.2903   YY=            -15.1260   ZZ=            -14.1644
   XY=            -11.8448   XZ=              2.5186   YZ=              1.8460
 Octapole moment (field-independent basis, Debye-Ang**2):
  XXX=            -10.5855  YYY=             13.0060  ZZZ=             -7.1839  XYY=             23.6958
  XXY=             66.5591  XXZ=             -4.6826  XZZ=            -40.9373  YZZ=              3.4301
  YYZ=              5.7269  XYZ=              1.2540
 Hexadecapole moment (field-independent basis, Debye-Ang**3):
 XXXX=         -10318.3593 YYYY=          -1073.9168 ZZZZ=           -488.2483 XXXY=           -330.1376
 XXXZ=             40.4264 YYYX=             17.7967 YYYZ=             -0.3131 ZZZX=             15.1627
 ZZZY=              8.9427 XXYY=          -2068.6010 XXZZ=          -2125.4305 YYZZ=           -278.1780
 XXYZ=             25.4081 YYXZ=             -1.5655 ZZXY=            -50.0309
 N-N= 1.670374727921D+03 E-N=-6.411901556423D+03  KE= 1.302050466815D+03
 No NMR shielding tensors so no spin-rotation constants.
 Leave Link  601 at Thu Aug  6 22:01:05 2020, MaxMem=    33554432 cpu:         0.3
 (Enter /prod/apps/gaussian/g09d1/l9999.exe)
 1\1\GINC-PIRINEUS9\SP\RB3LYP\6-31G(d)\C15H12N2O3S1\UBAFAR01\06-Aug-202
 0\0\\#p b3lyp/6-31G(d)\\SM42.n.8.pdb.xyz\\0,1\O,0,4.717,2.075,-1.744\S
 ,0,3.371,2.555,-1.408\N,0,2.319,1.213,-1.528\C,0,2.082,0.599,-2.763\N,
 0,2.961,0.626,-3.747\O,0,2.369,-0.133,-4.77\C,0,1.162,-0.592,-4.359\C,
 0,0.399,-1.409,-5.296\C,0,-0.848,-1.935,-4.92\C,0,-1.577,-2.713,-5.814
 \C,0,-1.073,-2.976,-7.091\C,0,0.166,-2.456,-7.47\C,0,0.901,-1.677,-6.5
 8\C,0,0.922,-0.156,-3.086\C,0,3.251,2.871,0.34\C,0,3.933,2.039,1.231\C
 ,0,3.847,2.31,2.594\C,0,3.096,3.399,3.046\C,0,2.426,4.224,2.141\C,0,2.
 5,3.965,0.773\O,0,2.838,3.713,-2.142\H,0,1.468,1.364,-0.984\H,0,-1.242
 ,-1.736,-3.93\H,0,-2.539,-3.115,-5.515\H,0,-1.644,-3.583,-7.786\H,0,0.
 563,-2.657,-8.459\H,0,1.862,-1.272,-6.872\H,0,0.06,-0.333,-2.464\H,0,4
 .518,1.203,0.866\H,0,4.369,1.676,3.301\H,0,3.035,3.605,4.109\H,0,1.849
 ,5.07,2.497\H,0,1.996,4.594,0.05\\Version=AM64L-G09RevD.01\State=1-A\H
 F=-1312.0590241\RMSD=3.430e-09\Dipole=-2.1736287,-0.8320807,1.900982\Q
 uadrupole=-9.7441908,-6.1408596,15.8850504,0.9750336,6.6988485,14.1567
 378\PG=C01 [X(C15H12N2O3S1)]\\@


 GROWING OLD ISN'T SO BAD -- WHEN YOU CONSIDER THE ALTERNATIVE.

                     -- MAURICE CHEVALIER
 Job cpu time:       0 days  0 hours  4 minutes 47.0 seconds.
 File lengths (MBytes):  RWF=     66 Int=      0 D2E=      0 Chk=      5 Scr=      1
 Normal termination of Gaussian 09 at Thu Aug  6 22:01:05 2020.
 Initial command:
 /prod/apps/gaussian/g09d1/l1.exe "/tmp/ubafar01/1448599/Gau-122391.inp" -scrdir="/tmp/ubafar01/1448599/"
 Entering Link 1 = /prod/apps/gaussian/g09d1/l1.exe PID=    123584.
  
 Copyright (c) 1988,1990,1992,1993,1995,1998,2003,2009,2013,
            Gaussian, Inc.  All Rights Reserved.
  
 This is part of the Gaussian(R) 09 program.  It is based on
 the Gaussian(R) 03 system (copyright 2003, Gaussian, Inc.),
 the Gaussian(R) 98 system (copyright 1998, Gaussian, Inc.),
 the Gaussian(R) 94 system (copyright 1995, Gaussian, Inc.),
 the Gaussian 92(TM) system (copyright 1992, Gaussian, Inc.),
 the Gaussian 90(TM) system (copyright 1990, Gaussian, Inc.),
 the Gaussian 88(TM) system (copyright 1988, Gaussian, Inc.),
 the Gaussian 86(TM) system (copyright 1986, Carnegie Mellon
 University), and the Gaussian 82(TM) system (copyright 1983,
 Carnegie Mellon University). Gaussian is a federally registered
 trademark of Gaussian, Inc.
  
 This software contains proprietary and confidential information,
 including trade secrets, belonging to Gaussian, Inc.
  
 This software is provided under written license and may be
 used, copied, transmitted, or stored only in accord with that
 written license.
  
 The following legend is applicable only to US Government
 contracts under FAR:
  
                    RESTRICTED RIGHTS LEGEND
  
 Use, reproduction and disclosure by the US Government is
 subject to restrictions as set forth in subparagraphs (a)
 and (c) of the Commercial Computer Software - Restricted
 Rights clause in FAR 52.227-19.
  
 Gaussian, Inc.
 340 Quinnipiac St., Bldg. 40, Wallingford CT 06492
  
  
 ---------------------------------------------------------------
 Warning -- This program may not be used in any manner that
 competes with the business of Gaussian, Inc. or will provide
 assistance to any competitor of Gaussian, Inc.  The licensee
 of this program is prohibited from giving any competitor of
 Gaussian, Inc. access to this program.  By using this program,
 the user acknowledges that Gaussian, Inc. is engaged in the
 business of creating and licensing software in the field of
 computational chemistry and represents and warrants to the
 licensee that it is not a competitor of Gaussian, Inc. and that
 it will not use this program in any manner prohibited above.
 ---------------------------------------------------------------
  

 Cite this work as:
 Gaussian 09, Revision D.01,
 M. J. Frisch, G. W. Trucks, H. B. Schlegel, G. E. Scuseria, 
 M. A. Robb, J. R. Cheeseman, G. Scalmani, V. Barone, B. Mennucci, 
 G. A. Petersson, H. Nakatsuji, M. Caricato, X. Li, H. P. Hratchian, 
 A. F. Izmaylov, J. Bloino, G. Zheng, J. L. Sonnenberg, M. Hada, 
 M. Ehara, K. Toyota, R. Fukuda, J. Hasegawa, M. Ishida, T. Nakajima, 
 Y. Honda, O. Kitao, H. Nakai, T. Vreven, J. A. Montgomery, Jr., 
 J. E. Peralta, F. Ogliaro, M. Bearpark, J. J. Heyd, E. Brothers, 
 K. N. Kudin, V. N. Staroverov, T. Keith, R. Kobayashi, J. Normand, 
 K. Raghavachari, A. Rendell, J. C. Burant, S. S. Iyengar, J. Tomasi, 
 M. Cossi, N. Rega, J. M. Millam, M. Klene, J. E. Knox, J. B. Cross, 
 V. Bakken, C. Adamo, J. Jaramillo, R. Gomperts, R. E. Stratmann, 
 O. Yazyev, A. J. Austin, R. Cammi, C. Pomelli, J. W. Ochterski, 
 R. L. Martin, K. Morokuma, V. G. Zakrzewski, G. A. Voth, 
 P. Salvador, J. J. Dannenberg, S. Dapprich, A. D. Daniels, 
 O. Farkas, J. B. Foresman, J. V. Ortiz, J. Cioslowski, 
 and D. J. Fox, Gaussian, Inc., Wallingford CT, 2013.
 
 ******************************************
 Gaussian 09:  AM64L-G09RevD.01 24-Apr-2013
                 6-Aug-2020 
 ******************************************
 %nproc=1
 Will use up to    1 processors via shared memory.
 %Chk=SM42.n.8.pdb.xyz.mst.n.w.chk
 %subst l502 /dades/curu/work_g09D01_MST_AddSphPartition_ReadGammas/exe-dir/
 ----------------------------------------------------------------------
 #p b3lyp/6-31G(d) scrf=(iefpcm,read,solvent=Water) geom=allcheck guess
 =read
 ----------------------------------------------------------------------
 1/29=7,38=1,40=2/1;
 2/12=2,40=1/2;
 3/5=1,6=6,7=1,11=2,14=-4,16=1,25=1,30=1,70=2203,72=1,74=-5,116=-2/1,2,3;
 4/5=1/1;
 5/5=2,38=6,53=1/2;
 6/7=2,8=2,9=2,10=2,28=1/1;
 99/5=1,9=1/99;
 Leave Link    1 at Thu Aug  6 22:01:05 2020, MaxMem=           0 cpu:         0.0
 (Enter /prod/apps/gaussian/g09d1/l101.exe)
 Structure from the checkpoint file:  "SM42.n.8.pdb.xyz.mst.n.w.chk"
 ----------------
 SM42.n.8.pdb.xyz
 ----------------
 Charge =  0 Multiplicity = 1
 Z-Matrix found in file.
 O,0,4.717,2.075,-1.744
 S,0,3.371,2.555,-1.408
 N,0,2.319,1.213,-1.528
 C,0,2.082,0.599,-2.763
 N,0,2.961,0.626,-3.747
 O,0,2.369,-0.133,-4.77
 C,0,1.162,-0.592,-4.359
 C,0,0.399,-1.409,-5.296
 C,0,-0.848,-1.935,-4.92
 C,0,-1.577,-2.713,-5.814
 C,0,-1.073,-2.976,-7.091
 C,0,0.166,-2.456,-7.47
 C,0,0.901,-1.677,-6.58
 C,0,0.922,-0.156,-3.086
 C,0,3.251,2.871,0.34
 C,0,3.933,2.039,1.231
 C,0,3.847,2.31,2.594
 C,0,3.096,3.399,3.046
 C,0,2.426,4.224,2.141
 C,0,2.5,3.965,0.773
 O,0,2.838,3.713,-2.142
 H,0,1.468,1.364,-0.984
 H,0,-1.242,-1.736,-3.93
 H,0,-2.539,-3.115,-5.515
 H,0,-1.644,-3.583,-7.786
 H,0,0.563,-2.657,-8.459
 H,0,1.862,-1.272,-6.872
 H,0,0.06,-0.333,-2.464
 H,0,4.518,1.203,0.866
 H,0,4.369,1.676,3.301
 H,0,3.035,3.605,4.109
 H,0,1.849,5.07,2.497
 H,0,1.996,4.594,0.05
 Recover connectivity data from disk.
 NAtoms=     33 NQM=       33 NQMF=       0 NMMI=      0 NMMIF=      0
                NMic=       0 NMicF=      0.
                    Isotopes and Nuclear Properties:
 (Nuclear quadrupole moments (NQMom) in fm**2, nuclear magnetic moments (NMagM)
  in nuclear magnetons)

  Atom         1           2           3           4           5           6           7           8           9          10
 IAtWgt=          16          32          14          12          14          16          12          12          12          12
 AtmWgt=  15.9949146  31.9720718  14.0030740  12.0000000  14.0030740  15.9949146  12.0000000  12.0000000  12.0000000  12.0000000
 NucSpn=           0           0           2           0           2           0           0           0           0           0
 AtZEff=  -5.6000000 -13.6000000  -4.5500000  -3.6000000  -4.5500000  -5.6000000  -3.6000000  -3.6000000  -3.6000000  -3.6000000
 NQMom=    0.0000000   0.0000000   2.0440000   0.0000000   2.0440000   0.0000000   0.0000000   0.0000000   0.0000000   0.0000000
 NMagM=    0.0000000   0.0000000   0.4037610   0.0000000   0.4037610   0.0000000   0.0000000   0.0000000   0.0000000   0.0000000
 AtZNuc=   8.0000000  16.0000000   7.0000000   6.0000000   7.0000000   8.0000000   6.0000000   6.0000000   6.0000000   6.0000000

  Atom        11          12          13          14          15          16          17          18          19          20
 IAtWgt=          12          12          12          12          12          12          12          12          12          12
 AtmWgt=  12.0000000  12.0000000  12.0000000  12.0000000  12.0000000  12.0000000  12.0000000  12.0000000  12.0000000  12.0000000
 NucSpn=           0           0           0           0           0           0           0           0           0           0
 AtZEff=  -3.6000000  -3.6000000  -3.6000000  -3.6000000  -3.6000000  -3.6000000  -3.6000000  -3.6000000  -3.6000000  -3.6000000
 NQMom=    0.0000000   0.0000000   0.0000000   0.0000000   0.0000000   0.0000000   0.0000000   0.0000000   0.0000000   0.0000000
 NMagM=    0.0000000   0.0000000   0.0000000   0.0000000   0.0000000   0.0000000   0.0000000   0.0000000   0.0000000   0.0000000
 AtZNuc=   6.0000000   6.0000000   6.0000000   6.0000000   6.0000000   6.0000000   6.0000000   6.0000000   6.0000000   6.0000000

  Atom        21          22          23          24          25          26          27          28          29          30
 IAtWgt=          16           1           1           1           1           1           1           1           1           1
 AtmWgt=  15.9949146   1.0078250   1.0078250   1.0078250   1.0078250   1.0078250   1.0078250   1.0078250   1.0078250   1.0078250
 NucSpn=           0           1           1           1           1           1           1           1           1           1
 AtZEff=  -5.6000000  -1.0000000  -1.0000000  -1.0000000  -1.0000000  -1.0000000  -1.0000000  -1.0000000  -1.0000000  -1.0000000
 NQMom=    0.0000000   0.0000000   0.0000000   0.0000000   0.0000000   0.0000000   0.0000000   0.0000000   0.0000000   0.0000000
 NMagM=    0.0000000   2.7928460   2.7928460   2.7928460   2.7928460   2.7928460   2.7928460   2.7928460   2.7928460   2.7928460
 AtZNuc=   8.0000000   1.0000000   1.0000000   1.0000000   1.0000000   1.0000000   1.0000000   1.0000000   1.0000000   1.0000000

  Atom        31          32          33
 IAtWgt=           1           1           1
 AtmWgt=   1.0078250   1.0078250   1.0078250
 NucSpn=           1           1           1
 AtZEff=  -1.0000000  -1.0000000  -1.0000000
 NQMom=    0.0000000   0.0000000   0.0000000
 NMagM=    2.7928460   2.7928460   2.7928460
 AtZNuc=   1.0000000   1.0000000   1.0000000
 Leave Link  101 at Thu Aug  6 22:01:05 2020, MaxMem=    33554432 cpu:         0.1
 (Enter /prod/apps/gaussian/g09d1/l202.exe)
                          Input orientation:                          
 ---------------------------------------------------------------------
 Center     Atomic      Atomic             Coordinates (Angstroms)
 Number     Number       Type             X           Y           Z
 ---------------------------------------------------------------------
      1          8           0        4.717000    2.075000   -1.744000
      2         16           0        3.371000    2.555000   -1.408000
      3          7           0        2.319000    1.213000   -1.528000
      4          6           0        2.082000    0.599000   -2.763000
      5          7           0        2.961000    0.626000   -3.747000
      6          8           0        2.369000   -0.133000   -4.770000
      7          6           0        1.162000   -0.592000   -4.359000
      8          6           0        0.399000   -1.409000   -5.296000
      9          6           0       -0.848000   -1.935000   -4.920000
     10          6           0       -1.577000   -2.713000   -5.814000
     11          6           0       -1.073000   -2.976000   -7.091000
     12          6           0        0.166000   -2.456000   -7.470000
     13          6           0        0.901000   -1.677000   -6.580000
     14          6           0        0.922000   -0.156000   -3.086000
     15          6           0        3.251000    2.871000    0.340000
     16          6           0        3.933000    2.039000    1.231000
     17          6           0        3.847000    2.310000    2.594000
     18          6           0        3.096000    3.399000    3.046000
     19          6           0        2.426000    4.224000    2.141000
     20          6           0        2.500000    3.965000    0.773000
     21          8           0        2.838000    3.713000   -2.142000
     22          1           0        1.468000    1.364000   -0.984000
     23          1           0       -1.242000   -1.736000   -3.930000
     24          1           0       -2.539000   -3.115000   -5.515000
     25          1           0       -1.644000   -3.583000   -7.786000
     26          1           0        0.563000   -2.657000   -8.459000
     27          1           0        1.862000   -1.272000   -6.872000
     28          1           0        0.060000   -0.333000   -2.464000
     29          1           0        4.518000    1.203000    0.866000
     30          1           0        4.369000    1.676000    3.301000
     31          1           0        3.035000    3.605000    4.109000
     32          1           0        1.849000    5.070000    2.497000
     33          1           0        1.996000    4.594000    0.050000
 ---------------------------------------------------------------------
                    Distance matrix (angstroms):
                    1          2          3          4          5
     1  O    0.000000
     2  S    1.467996   0.000000
     3  N    2.557363   1.709406   0.000000
     4  C    3.187501   2.706193   1.399425   0.000000
     5  N    3.032350   3.059422   2.383421   1.319707   0.000000
     6  O    4.420978   4.419547   3.510667   2.155514   1.404662
     7  C    5.156466   4.846823   3.551230   2.193649   2.257093
     8  C    6.587874   6.297827   4.975852   3.644262   3.620010
     9  C    7.558856   7.091841   5.607625   4.433814   4.737418
    10  C    8.894059   8.464477   6.997291   5.802260   6.001238
    11  C    9.360935   9.090522   7.745990   6.439428   6.358451
    12  C    8.603990   8.492938   7.307827   5.929581   5.583142
    13  C    7.212923   7.124627   5.990453   4.598307   4.192052
    14  C    4.602211   4.020299   2.500627   1.421251   2.281659
    15  C    2.669425   1.780382   2.665898   4.019596   4.672012
    16  C    3.076780   2.747075   3.301417   4.631613   5.265153
    17  C    4.430617   4.037648   4.530902   5.894081   6.620357
    18  C    5.227305   4.541594   5.128723   6.527839   7.338433
    19  C    4.996009   4.034103   4.747539   6.108042   6.921010
    20  C    3.849997   2.739252   3.591778   4.899793   5.638425
    21  O    2.524300   1.470989   2.626092   3.264073   3.481483
    22  H    3.411616   2.284659   1.021243   2.031517   3.226122
    23  H    7.403513   6.786231   5.210271   4.226475   4.824701
    24  H    9.685354   9.162120   7.630722   6.536126   6.882652
    25  H   10.439399  10.173699   8.824372   7.523479   7.432041
    26  H    9.205366   9.206867   8.130141   6.734487   6.223459
    27  H    6.756465   6.839467   5.911211   4.520279   3.817831
    28  H    5.291929   4.518672   2.892973   2.246444   3.313845
    29  H    2.759001   2.883503   3.250683   4.412318   4.902749
    30  H    5.072704   4.893192   5.266508   6.569809   7.263558
    31  H    6.279143   5.626072   6.165232   7.560994   8.402181
    32  H    5.931402   4.887815   5.594459   6.907368   7.744238
    33  H    4.119179   2.859005   3.745073   4.886757   5.576151
                    6          7          8          9         10
     6  O    0.000000
     7  C    1.355157   0.000000
     8  C    2.405359   1.458639   0.000000
     9  C    3.690365   2.481626   1.404657   0.000000
    10  C    4.828794   3.757364   2.423493   1.391388   0.000000
    11  C    5.031606   4.259402   2.800767   2.418170   1.397825
    12  C    4.188023   3.760962   2.424206   2.793231   2.417940
    13  C    2.795543   2.485596   1.404451   2.425111   2.792944
[...]
 Alpha virt. eigenvalues --    2.56757   2.57179   2.57994   2.59512   2.61485
 Alpha virt. eigenvalues --    2.62899   2.64644   2.65944   2.66271   2.69496
 Alpha virt. eigenvalues --    2.70371   2.71667   2.72380   2.73882   2.73942
 Alpha virt. eigenvalues --    2.74525   2.75504   2.79820   2.82242   2.85447
 Alpha virt. eigenvalues --    2.89246   2.90897   3.00888   3.02321   3.05026
 Alpha virt. eigenvalues --    3.13137   3.26675   3.36775   3.42733   3.79168
 Alpha virt. eigenvalues --    3.89932   3.94002   4.01894   4.04946   4.07445
 Alpha virt. eigenvalues --    4.08021   4.09256   4.10255   4.10777   4.12932
 Alpha virt. eigenvalues --    4.18098   4.22685   4.31111   4.31337   4.33782
 Alpha virt. eigenvalues --    4.36731   4.40064   4.55732   4.65023   4.73896
          Condensed to atoms (all electrons):
               1          2          3          4          5          6
     1  O    8.274761   0.442779  -0.047926  -0.006081   0.002386   0.000054
     2  S    0.442779  13.657389   0.103443  -0.010571   0.010425  -0.000446
     3  N   -0.047926   0.103443   7.447183   0.242973  -0.076425   0.005692
     4  C   -0.006081  -0.010571   0.242973   4.471661   0.413122  -0.039175
     5  N    0.002386   0.010425  -0.076425   0.413122   6.940185   0.106363
     6  O    0.000054  -0.000446   0.005692  -0.039175   0.106363   8.220240
     7  C   -0.000010   0.000381  -0.001327  -0.015420  -0.081700   0.244249
     8  C    0.000000  -0.000006  -0.000230   0.002786   0.004357  -0.037798
     9  C    0.000000   0.000000   0.000003   0.000610  -0.000100   0.003123
    10  C    0.000000   0.000000   0.000000  -0.000007   0.000001  -0.000061
    11  C    0.000000   0.000000   0.000000   0.000000   0.000000   0.000002
    12  C    0.000000   0.000000   0.000000   0.000005   0.000000   0.000284
    13  C    0.000000   0.000000  -0.000001  -0.000343   0.000129  -0.006786
    14  C   -0.000048   0.000895  -0.050522   0.457406  -0.043810  -0.089966
    15  C   -0.060181   0.174847  -0.051294   0.002923  -0.000009   0.000000
    16  C    0.001784  -0.015606   0.002129   0.000051   0.000000   0.000000
    17  C    0.000323   0.001967  -0.000067   0.000003   0.000000   0.000000
    18  C   -0.000005  -0.000321   0.000008   0.000000   0.000000   0.000000
    19  C   -0.000041   0.003365  -0.000130  -0.000002   0.000000   0.000000
    20  C    0.000454  -0.024373  -0.001360  -0.000027   0.000001   0.000000
    21  O   -0.046578   0.448747  -0.058441   0.003252  -0.001307  -0.000007
    22  H    0.001254  -0.007184   0.293080  -0.017893   0.002768  -0.000053
    23  H    0.000000   0.000000  -0.000001   0.000079  -0.000005   0.000023
    24  H    0.000000   0.000000   0.000000   0.000000   0.000000   0.000000
    25  H    0.000000   0.000000   0.000000   0.000000   0.000000   0.000000
    26  H    0.000000   0.000000   0.000000   0.000000   0.000000  -0.000003
    27  H    0.000000   0.000000   0.000000   0.000053  -0.000253   0.009794
    28  H    0.000000  -0.000119  -0.002019  -0.028088   0.004891   0.003330
    29  H    0.004031   0.001021   0.000912  -0.000051  -0.000003   0.000000
    30  H    0.000001  -0.000053  -0.000001   0.000000   0.000000   0.000000
    31  H    0.000000   0.000005   0.000000   0.000000   0.000000   0.000000
    32  H    0.000000  -0.000062   0.000000   0.000000   0.000000   0.000000
    33  H    0.000060  -0.003529   0.000152  -0.000012   0.000000   0.000000
               7          8          9         10         11         12
     1  O   -0.000010   0.000000   0.000000   0.000000   0.000000   0.000000
     2  S    0.000381  -0.000006   0.000000   0.000000   0.000000   0.000000
     3  N   -0.001327  -0.000230   0.000003   0.000000   0.000000   0.000000
     4  C   -0.015420   0.002786   0.000610  -0.000007   0.000000   0.000005
     5  N   -0.081700   0.004357  -0.000100   0.000001   0.000000   0.000000
     6  O    0.244249  -0.037798   0.003123  -0.000061   0.000002   0.000284
     7  C    4.723753   0.346199  -0.042753   0.006379   0.000864   0.004712
     8  C    0.346199   4.787397   0.535849  -0.011160  -0.033856  -0.009809
     9  C   -0.042753   0.535849   5.014321   0.518933  -0.040213  -0.041332
    10  C    0.006379  -0.011160   0.518933   4.882685   0.539822  -0.026129
    11  C    0.000864  -0.033856  -0.040213   0.539822   4.874178   0.539171
    12  C    0.004712  -0.009809  -0.041332  -0.026129   0.539171   4.890684
    13  C   -0.041194   0.472408  -0.082015  -0.042125  -0.038087   0.506057
    14  C    0.507515  -0.058109  -0.019817   0.000221   0.000015  -0.000229
    15  C    0.000003   0.000000   0.000000   0.000000   0.000000   0.000000
    16  C    0.000000   0.000000   0.000000   0.000000   0.000000   0.000000
    17  C    0.000000   0.000000   0.000000   0.000000   0.000000   0.000000
    18  C    0.000000   0.000000   0.000000   0.000000   0.000000   0.000000
    19  C    0.000000   0.000000   0.000000   0.000000   0.000000   0.000000
    20  C    0.000000   0.000000   0.000000   0.000000   0.000000   0.000000
    21  O    0.000013   0.000000   0.000000   0.000000   0.000000   0.000000
    22  H    0.000029  -0.000001   0.000000   0.000000   0.000000   0.000000
    23  H   -0.012374  -0.037147   0.357232  -0.041142   0.004489   0.000168
    24  H   -0.000204   0.003216  -0.037259   0.363026  -0.040577   0.004373
    25  H    0.000003   0.000486   0.004805  -0.041431   0.364542  -0.041322
    26  H   -0.000173   0.003233   0.000768   0.004392  -0.040731   0.363570
    27  H   -0.012888  -0.042901   0.005287   0.000200   0.004559  -0.040756
    28  H   -0.026120  -0.003285   0.001182   0.000087  -0.000001   0.000001
    29  H    0.000000   0.000000   0.000000   0.000000   0.000000   0.000000
    30  H    0.000000   0.000000   0.000000   0.000000   0.000000   0.000000
    31  H    0.000000   0.000000   0.000000   0.000000   0.000000   0.000000
    32  H    0.000000   0.000000   0.000000   0.000000   0.000000   0.000000
    33  H    0.000000   0.000000   0.000000   0.000000   0.000000   0.000000
              13         14         15         16         17         18
     1  O    0.000000  -0.000048  -0.060181   0.001784   0.000323  -0.000005
     2  S    0.000000   0.000895   0.174847  -0.015606   0.001967  -0.000321
     3  N   -0.000001  -0.050522  -0.051294   0.002129  -0.000067   0.000008
     4  C   -0.000343   0.457406   0.002923   0.000051   0.000003   0.000000
     5  N    0.000129  -0.043810  -0.000009   0.000000   0.000000   0.000000
     6  O   -0.006786  -0.089966   0.000000   0.000000   0.000000   0.000000
     7  C   -0.041194   0.507515   0.000003   0.000000   0.000000   0.000000
     8  C    0.472408  -0.058109   0.000000   0.000000   0.000000   0.000000
     9  C   -0.082015  -0.019817   0.000000   0.000000   0.000000   0.000000
    10  C   -0.042125   0.000221   0.000000   0.000000   0.000000   0.000000
    11  C   -0.038087   0.000015   0.000000   0.000000   0.000000   0.000000
    12  C    0.506057  -0.000229   0.000000   0.000000   0.000000   0.000000
    13  C    5.059348   0.011856   0.000000   0.000000   0.000000   0.000000
    14  C    0.011856   5.227383  -0.000164  -0.000003   0.000000   0.000000
    15  C    0.000000  -0.000164   5.392585   0.472665  -0.029471  -0.039099
    16  C    0.000000  -0.000003   0.472665   4.920358   0.517960  -0.031321
    17  C    0.000000   0.000000  -0.029471   0.517960   4.879025   0.536939
    18  C    0.000000   0.000000  -0.039099  -0.031321   0.536939   4.854256
    19  C    0.000000   0.000000  -0.031681  -0.037066  -0.030179   0.539613
    20  C    0.000000   0.000000   0.500721  -0.036854  -0.037742  -0.031720
    21  O    0.000000  -0.000037  -0.059928   0.001407  -0.000042  -0.000005
    22  H    0.000000  -0.004925   0.002146   0.000142  -0.000062   0.000002
    23  H    0.005599   0.005945   0.000000   0.000000   0.000000   0.000000
    24  H    0.000791  -0.000001   0.000000   0.000000   0.000000   0.000000
    25  H    0.004669   0.000000   0.000000   0.000000   0.000000   0.000000
    26  H   -0.037394   0.000001   0.000000   0.000000   0.000000   0.000000
    27  H    0.362969   0.000267   0.000000   0.000000   0.000000   0.000000
    28  H   -0.000102   0.353632  -0.000003   0.000000   0.000000   0.000000
    29  H    0.000000   0.000002  -0.050441   0.364842  -0.032743   0.004173
    30  H    0.000000   0.000000   0.004980  -0.040463   0.367075  -0.039617
    31  H    0.000000   0.000000   0.000441   0.004846  -0.040551   0.365582
    32  H    0.000000   0.000000   0.004855   0.000614   0.004216  -0.039769
    33  H    0.000000   0.000001  -0.047411   0.004295   0.000239   0.004205
              19         20         21         22         23         24
     1  O   -0.000041   0.000454  -0.046578   0.001254   0.000000   0.000000
     2  S    0.003365  -0.024373   0.448747  -0.007184   0.000000   0.000000
     3  N   -0.000130  -0.001360  -0.058441   0.293080  -0.000001   0.000000
     4  C   -0.000002  -0.000027   0.003252  -0.017893   0.000079   0.000000
     5  N    0.000000   0.000001  -0.001307   0.002768  -0.000005   0.000000
     6  O    0.000000   0.000000  -0.000007  -0.000053   0.000023   0.000000
     7  C    0.000000   0.000000   0.000013   0.000029  -0.012374  -0.000204
     8  C    0.000000   0.000000   0.000000  -0.000001  -0.037147   0.003216
     9  C    0.000000   0.000000   0.000000   0.000000   0.357232  -0.037259
    10  C    0.000000   0.000000   0.000000   0.000000  -0.041142   0.363026
    11  C    0.000000   0.000000   0.000000   0.000000   0.004489  -0.040577
    12  C    0.000000   0.000000   0.000000   0.000000   0.000168   0.004373
    13  C    0.000000   0.000000   0.000000   0.000000   0.005599   0.000791
    14  C    0.000000   0.000000  -0.000037  -0.004925   0.005945  -0.000001
    15  C   -0.031681   0.500721  -0.059928   0.002146   0.000000   0.000000
    16  C   -0.037066  -0.036854   0.001407   0.000142   0.000000   0.000000
    17  C   -0.030179  -0.037742  -0.000042  -0.000062   0.000000   0.000000
    18  C    0.539613  -0.031720  -0.000005   0.000002   0.000000   0.000000
    19  C    4.886063   0.508298   0.000564   0.000008   0.000000   0.000000
    20  C    0.508298   4.918409   0.002862   0.000481   0.000000   0.000000
    21  O    0.000564   0.002862   8.244846  -0.000139   0.000000   0.000000
    22  H    0.000008   0.000481  -0.000139   0.302402   0.000000   0.000000
    23  H    0.000000   0.000000   0.000000   0.000000   0.555056  -0.004845
    24  H    0.000000   0.000000   0.000000   0.000000  -0.004845   0.556146
    25  H    0.000000   0.000000   0.000000   0.000000  -0.000154  -0.005084
    26  H    0.000000   0.000000   0.000000   0.000000   0.000015  -0.000161
    27  H    0.000000   0.000000   0.000000   0.000000  -0.000138   0.000015
    28  H    0.000000   0.000000   0.000000   0.001653   0.001889  -0.000002
    29  H    0.000313   0.003954   0.000055   0.000003   0.000000   0.000000
    30  H    0.004216   0.000613   0.000000   0.000000   0.000000   0.000000
    31  H   -0.040451   0.004758   0.000000   0.000000   0.000000   0.000000
    32  H    0.367562  -0.040806   0.000002   0.000001   0.000000   0.000000
    33  H   -0.033213   0.363272   0.009443   0.000039   0.000000   0.000000
              25         26         27         28         29         30
     1  O    0.000000   0.000000   0.000000   0.000000   0.004031   0.000001
     2  S    0.000000   0.000000   0.000000  -0.000119   0.001021  -0.000053
     3  N    0.000000   0.000000   0.000000  -0.002019   0.000912  -0.000001
     4  C    0.000000   0.000000   0.000053  -0.028088  -0.000051   0.000000
     5  N    0.000000   0.000000  -0.000253   0.004891  -0.000003   0.000000
     6  O    0.000000  -0.000003   0.009794   0.003330   0.000000   0.000000
     7  C    0.000003  -0.000173  -0.012888  -0.026120   0.000000   0.000000
     8  C    0.000486   0.003233  -0.042901  -0.003285   0.000000   0.000000
     9  C    0.004805   0.000768   0.005287   0.001182   0.000000   0.000000
    10  C   -0.041431   0.004392   0.000200   0.000087   0.000000   0.000000
    11  C    0.364542  -0.040731   0.004559  -0.000001   0.000000   0.000000
    12  C   -0.041322   0.363570  -0.040756   0.000001   0.000000   0.000000
    13  C    0.004669  -0.037394   0.362969  -0.000102   0.000000   0.000000
    14  C    0.000000   0.000001   0.000267   0.353632   0.000002   0.000000
    15  C    0.000000   0.000000   0.000000  -0.000003  -0.050441   0.004980
    16  C    0.000000   0.000000   0.000000   0.000000   0.364842  -0.040463
    17  C    0.000000   0.000000   0.000000   0.000000  -0.032743   0.367075
    18  C    0.000000   0.000000   0.000000   0.000000   0.004173  -0.039617
    19  C    0.000000   0.000000   0.000000   0.000000   0.000313   0.004216
    20  C    0.000000   0.000000   0.000000   0.000000   0.003954   0.000613
    21  O    0.000000   0.000000   0.000000   0.000000   0.000055   0.000000
    22  H    0.000000   0.000000   0.000000   0.001653   0.000003   0.000000
    23  H   -0.000154   0.000015  -0.000138   0.001889   0.000000   0.000000
    24  H   -0.005084  -0.000161   0.000015  -0.000002   0.000000   0.000000
    25  H    0.559229  -0.005069  -0.000150   0.000000   0.000000   0.000000
    26  H   -0.005069   0.556225  -0.004892   0.000000   0.000000   0.000000
    27  H   -0.000150  -0.004892   0.552613  -0.000008   0.000000   0.000000
    28  H    0.000000   0.000000  -0.000008   0.496644   0.000000   0.000000
    29  H    0.000000   0.000000   0.000000   0.000000   0.519722  -0.005189
    30  H    0.000000   0.000000   0.000000   0.000000  -0.005189   0.540148
    31  H    0.000000   0.000000   0.000000   0.000000  -0.000140  -0.005046
    32  H    0.000000   0.000000   0.000000   0.000000   0.000013  -0.000154
    33  H    0.000000   0.000000   0.000000   0.000000  -0.000139   0.000013
              31         32         33
     1  O    0.000000   0.000000   0.000060
     2  S    0.000005  -0.000062  -0.003529
     3  N    0.000000   0.000000   0.000152
     4  C    0.000000   0.000000  -0.000012
     5  N    0.000000   0.000000   0.000000
     6  O    0.000000   0.000000   0.000000
     7  C    0.000000   0.000000   0.000000
     8  C    0.000000   0.000000   0.000000
     9  C    0.000000   0.000000   0.000000
    10  C    0.000000   0.000000   0.000000
    11  C    0.000000   0.000000   0.000000
    12  C    0.000000   0.000000   0.000000
    13  C    0.000000   0.000000   0.000000
    14  C    0.000000   0.000000   0.000001
    15  C    0.000441   0.004855  -0.047411
    16  C    0.004846   0.000614   0.004295
    17  C   -0.040551   0.004216   0.000239
    18  C    0.365582  -0.039769   0.004205
    19  C   -0.040451   0.367562  -0.033213
    20  C    0.004758  -0.040806   0.363272
    21  O    0.000000   0.000002   0.009443
    22  H    0.000000   0.000001   0.000039
    23  H    0.000000   0.000000   0.000000
    24  H    0.000000   0.000000   0.000000
    25  H    0.000000   0.000000   0.000000
    26  H    0.000000   0.000000   0.000000
    27  H    0.000000   0.000000   0.000000
    28  H    0.000000   0.000000   0.000000
    29  H   -0.000140   0.000013  -0.000139
    30  H   -0.005046  -0.000154   0.000013
    31  H    0.543423  -0.005091  -0.000135
    32  H   -0.005091   0.540623  -0.005005
    33  H   -0.000135  -0.005005   0.517982
 Mulliken charges:
               1
     1  O   -0.567015
     2  S    1.217006
     3  N   -0.805832
     4  C    0.522744
     5  N   -0.281017
     6  O   -0.418859
     7  C    0.400063
     8  C    0.078371
     9  C   -0.178625
    10  C   -0.153692
    11  C   -0.134178
    12  C   -0.149449
    13  C   -0.175781
    14  C   -0.297509
    15  C   -0.186483
    16  C   -0.129780
    17  C   -0.136890
    18  C   -0.122921
    19  C   -0.137238
    20  C   -0.130939
    21  O   -0.544705
    22  H    0.426248
    23  H    0.165311
    24  H    0.160566
    25  H    0.159478
    26  H    0.160219
    27  H    0.166229
    28  H    0.196436
    29  H    0.189666
    30  H    0.173475
    31  H    0.172359
    32  H    0.173000
    33  H    0.189742
 Sum of Mulliken charges =   0.00000
 Mulliken charges with hydrogens summed into heavy atoms:
               1
     1  O   -0.567015
     2  S    1.217006
     3  N   -0.379583
     4  C    0.522744
     5  N   -0.281017
     6  O   -0.418859
     7  C    0.400063
     8  C    0.078371
     9  C   -0.013314
    10  C    0.006874
    11  C    0.025300
    12  C    0.010771
    13  C   -0.009551
    14  C   -0.101073
    15  C   -0.186483
    16  C    0.059885
    17  C    0.036585
    18  C    0.049437
    19  C    0.035762
    20  C    0.058803
    21  O   -0.544705
 Electronic spatial extent (au):  <R**2>=          10185.6115
 Charge=              0.0000 electrons
 Dipole moment (field-independent basis, Debye):
    X=             -0.8387    Y=             10.8123    Z=              0.0288  Tot=             10.8449
 Quadrupole moment (field-independent basis, Debye-Ang):
   XX=            -72.3359   YY=           -129.2644   ZZ=           -127.9100
   XY=            -14.0100   XZ=              3.0607   YZ=              1.9063
 Traceless Quadrupole moment (field-independent basis, Debye-Ang):
   XX=             37.5008   YY=            -19.4276   ZZ=            -18.0732
   XY=            -14.0100   XZ=              3.0607   YZ=              1.9063
 Octapole moment (field-independent basis, Debye-Ang**2):
  XXX=            -18.2124  YYY=             28.9185  ZZZ=             -8.2710  XYY=             27.3393
  XXY=            100.6380  XXZ=             -4.7256  XZZ=            -44.5694  YZZ=              7.5120
  YYZ=              6.7019  XYZ=              1.5447
 Hexadecapole moment (field-independent basis, Debye-Ang**3):
 XXXX=          -9643.3153 YYYY=          -1072.5725 ZZZZ=           -485.3207 XXXY=           -389.4619
 XXXZ=             56.6092 YYYX=             14.8267 YYYZ=             -0.7404 ZZZX=             20.2881
 ZZZY=             10.0346 XXYY=          -2005.0648 XXZZ=          -2098.2713 YYZZ=           -279.1077
 XXYZ=             27.4999 YYXZ=              0.1260 ZZXY=            -59.9791
 N-N= 1.670377616288D+03 E-N=-6.412697303595D+03  KE= 1.302061241990D+03
 No NMR shielding tensors so no spin-rotation constants.
 Leave Link  601 at Thu Aug  6 22:04:39 2020, MaxMem=    33554432 cpu:         0.3
 (Enter /prod/apps/gaussian/g09d1/l9999.exe)
 1\1\GINC-PIRINEUS9\SP\RB3LYP\6-31G(d)\C15H12N2O3S1\UBAFAR01\06-Aug-202
 0\0\\#p b3lyp/6-31G(d) scrf=(iefpcm,read,solvent=Water) geom=allcheck 
 guess=read\\SM42.n.8.pdb.xyz\\0,1\O,0,4.717,2.075,-1.744\S,0,3.371,2.5
 55,-1.408\N,0,2.319,1.213,-1.528\C,0,2.082,0.599,-2.763\N,0,2.961,0.62
 6,-3.747\O,0,2.369,-0.133,-4.77\C,0,1.162,-0.592,-4.359\C,0,0.399,-1.4
 09,-5.296\C,0,-0.848,-1.935,-4.92\C,0,-1.577,-2.713,-5.814\C,0,-1.073,
 -2.976,-7.091\C,0,0.166,-2.456,-7.47\C,0,0.901,-1.677,-6.58\C,0,0.922,
 -0.156,-3.086\C,0,3.251,2.871,0.34\C,0,3.933,2.039,1.231\C,0,3.847,2.3
 1,2.594\C,0,3.096,3.399,3.046\C,0,2.426,4.224,2.141\C,0,2.5,3.965,0.77
 3\O,0,2.838,3.713,-2.142\H,0,1.468,1.364,-0.984\H,0,-1.242,-1.736,-3.9
 3\H,0,-2.539,-3.115,-5.515\H,0,-1.644,-3.583,-7.786\H,0,0.563,-2.657,-
 8.459\H,0,1.862,-1.272,-6.872\H,0,0.06,-0.333,-2.464\H,0,4.518,1.203,0
 .866\H,0,4.369,1.676,3.301\H,0,3.035,3.605,4.109\H,0,1.849,5.07,2.497\
 H,0,1.996,4.594,0.05\\Version=AM64L-G09RevD.01\State=1-A\HF=-1312.0864
 423\RMSD=3.356e-09\Dipole=-3.1261453,-1.0865046,2.6928516\Quadrupole=-
 12.3467107,-7.2945359,19.6412467,1.8127544,8.8859384,17.9160715\PG=C01
  [X(C15H12N2O3S1)]\\@


 A MAN BEGINS CUTTING HIS WISDOM TEETH THE 1ST
 TIME HE BITES OFF MORE THAN HE CAN CHEW.
 Job cpu time:       0 days  0 hours  3 minutes 33.6 seconds.
 File lengths (MBytes):  RWF=    195 Int=      0 D2E=      0 Chk=      7 Scr=      1
 Normal termination of Gaussian 09 at Thu Aug  6 22:04:39 2020.
