 Entering Gaussian System, Link 0=g09
 Initial command:
 /prod/apps/gaussian/g09d1/l1.exe "/tmp/ubafar01/1448597/Gau-122400.inp" -scrdir="/tmp/ubafar01/1448597/"
 Entering Link 1 = /prod/apps/gaussian/g09d1/l1.exe PID=    122402.
  
 Copyright (c) 1988,1990,1992,1993,1995,1998,2003,2009,2013,
            Gaussian, Inc.  All Rights Reserved.
  
 This is part of the Gaussian(R) 09 program.  It is based on
 the Gaussian(R) 03 system (copyright 2003, Gaussian, Inc.),
 the Gaussian(R) 98 system (copyright 1998, Gaussian, Inc.),
 the Gaussian(R) 94 system (copyright 1995, Gaussian, Inc.),
 the Gaussian 92(TM) system (copyright 1992, Gaussian, Inc.),
 the Gaussian 90(TM) system (copyright 1990, Gaussian, Inc.),
 the Gaussian 88(TM) system (copyright 1988, Gaussian, Inc.),
 the Gaussian 86(TM) system (copyright 1986, Carnegie Mellon
 University), and the Gaussian 82(TM) system (copyright 1983,
 Carnegie Mellon University). Gaussian is a federally registered
 trademark of Gaussian, Inc.
  
 This software contains proprietary and confidential information,
 including trade secrets, belonging to Gaussian, Inc.
  
 This software is provided under written license and may be
 used, copied, transmitted, or stored only in accord with that
 written license.
  
 The following legend is applicable only to US Government
 contracts under FAR:
  
                    RESTRICTED RIGHTS LEGEND
  
 Use, reproduction and disclosure by the US Government is
 subject to restrictions as set forth in subparagraphs (a)
 and (c) of the Commercial Computer Software - Restricted
 Rights clause in FAR 52.227-19.
  
 Gaussian, Inc.
 340 Quinnipiac St., Bldg. 40, Wallingford CT 06492
  
  
 ---------------------------------------------------------------
 Warning -- This program may not be used in any manner that
 competes with the business of Gaussian, Inc. or will provide
 assistance to any competitor of Gaussian, Inc.  The licensee
 of this program is prohibited from giving any competitor of
 Gaussian, Inc. access to this program.  By using this program,
 the user acknowledges that Gaussian, Inc. is engaged in the
 business of creating and licensing software in the field of
 computational chemistry and represents and warrants to the
 licensee that it is not a competitor of Gaussian, Inc. and that
 it will not use this program in any manner prohibited above.
 ---------------------------------------------------------------
  

 Cite this work as:
 Gaussian 09, Revision D.01,
 M. J. Frisch, G. W. Trucks, H. B. Schlegel, G. E. Scuseria, 
 M. A. Robb, J. R. Cheeseman, G. Scalmani, V. Barone, B. Mennucci, 
 G. A. Petersson, H. Nakatsuji, M. Caricato, X. Li, H. P. Hratchian, 
 A. F. Izmaylov, J. Bloino, G. Zheng, J. L. Sonnenberg, M. Hada, 
 M. Ehara, K. Toyota, R. Fukuda, J. Hasegawa, M. Ishida, T. Nakajima, 
 Y. Honda, O. Kitao, H. Nakai, T. Vreven, J. A. Montgomery, Jr., 
 J. E. Peralta, F. Ogliaro, M. Bearpark, J. J. Heyd, E. Brothers, 
 K. N. Kudin, V. N. Staroverov, T. Keith, R. Kobayashi, J. Normand, 
 K. Raghavachari, A. Rendell, J. C. Burant, S. S. Iyengar, J. Tomasi, 
 M. Cossi, N. Rega, J. M. Millam, M. Klene, J. E. Knox, J. B. Cross, 
 V. Bakken, C. Adamo, J. Jaramillo, R. Gomperts, R. E. Stratmann, 
 O. Yazyev, A. J. Austin, R. Cammi, C. Pomelli, J. W. Ochterski, 
 R. L. Martin, K. Morokuma, V. G. Zakrzewski, G. A. Voth, 
 P. Salvador, J. J. Dannenberg, S. Dapprich, A. D. Daniels, 
 O. Farkas, J. B. Foresman, J. V. Ortiz, J. Cioslowski, 
 and D. J. Fox, Gaussian, Inc., Wallingford CT, 2013.
 
 ******************************************
 Gaussian 09:  AM64L-G09RevD.01 24-Apr-2013
                 6-Aug-2020 
 ******************************************
 %nproc=1
 Will use up to    1 processors via shared memory.
 %Chk=SM42.n.6.pdb.xyz.mst.n.w.chk
 -----------------
 #p b3lyp/6-31G(d)
 -----------------
 1/38=1/1;
 2/12=2,17=6,18=5,40=1/2;
 3/5=1,6=6,7=1,11=2,16=1,25=1,30=1,74=-5/1,2,3;
 4//1;
 5/5=2,38=5/2;
 6/7=2,8=2,9=2,10=2,28=1/1;
 99/5=1,9=1/99;
 Leave Link    1 at Thu Aug  6 21:56:18 2020, MaxMem=           0 cpu:         0.0
 (Enter /prod/apps/gaussian/g09d1/l101.exe)
 ----------------
 SM42.n.6.pdb.xyz
 ----------------
 Symbolic Z-matrix:
 Charge =  0 Multiplicity = 1
 O                     3.723     1.235     1.143 
 S                     3.507     0.316     0.022 
 N                     2.901     1.308    -1.208 
 C                     2.516     0.799    -2.452 
 N                     2.782     1.502    -3.538 
 O                     2.191     0.778    -4.583 
 C                     1.611    -0.344    -4.089 
 C                     0.95     -1.23     -5.04 
 C                     0.331    -2.409    -4.592 
 C                    -0.301    -3.255    -5.499 
 C                    -0.324    -2.936    -6.86 
 C                     0.29     -1.765    -7.31 
 C                     0.924    -0.915    -6.408 
 C                     1.781    -0.382    -2.732 
 C                     5.085    -0.322    -0.508 
 C                     6.226     0.466    -0.336 
 C                     7.452    -0.031    -0.771 
 C                     7.527    -1.293    -1.366 
 C                     6.378    -2.069    -1.527 
 C                     5.142    -1.587    -1.097 
 O                     2.572    -0.807     0.143 
 H                     3.409     2.194    -1.261 
 H                     0.346    -2.66     -3.538 
 H                    -0.776    -4.163    -5.144 
 H                    -0.817    -3.597    -7.564 
 H                     0.275    -1.513    -8.365 
 H                     1.401    -0.005    -6.754 
 H                     1.44     -1.118    -2.025 
 H                     6.154     1.437     0.137 
 H                     8.348     0.565    -0.641 
 H                     8.486    -1.674    -1.702 
 H                     6.44     -3.052    -1.981 
 H                     4.241    -2.177    -1.2 
 
 NAtoms=     33 NQM=       33 NQMF=       0 NMMI=      0 NMMIF=      0
                NMic=       0 NMicF=      0.
                    Isotopes and Nuclear Properties:
 (Nuclear quadrupole moments (NQMom) in fm**2, nuclear magnetic moments (NMagM)
  in nuclear magnetons)

  Atom         1           2           3           4           5           6           7           8           9          10
 IAtWgt=          16          32          14          12          14          16          12          12          12          12
 AtmWgt=  15.9949146  31.9720718  14.0030740  12.0000000  14.0030740  15.9949146  12.0000000  12.0000000  12.0000000  12.0000000
 NucSpn=           0           0           2           0           2           0           0           0           0           0
 AtZEff=   0.0000000   0.0000000   0.0000000   0.0000000   0.0000000   0.0000000   0.0000000   0.0000000   0.0000000   0.0000000
 NQMom=    0.0000000   0.0000000   2.0440000   0.0000000   2.0440000   0.0000000   0.0000000   0.0000000   0.0000000   0.0000000
 NMagM=    0.0000000   0.0000000   0.4037610   0.0000000   0.4037610   0.0000000   0.0000000   0.0000000   0.0000000   0.0000000
 AtZNuc=   8.0000000  16.0000000   7.0000000   6.0000000   7.0000000   8.0000000   6.0000000   6.0000000   6.0000000   6.0000000

  Atom        11          12          13          14          15          16          17          18          19          20
 IAtWgt=          12          12          12          12          12          12          12          12          12          12
 AtmWgt=  12.0000000  12.0000000  12.0000000  12.0000000  12.0000000  12.0000000  12.0000000  12.0000000  12.0000000  12.0000000
 NucSpn=           0           0           0           0           0           0           0           0           0           0
 AtZEff=   0.0000000   0.0000000   0.0000000   0.0000000   0.0000000   0.0000000   0.0000000   0.0000000   0.0000000   0.0000000
 NQMom=    0.0000000   0.0000000   0.0000000   0.0000000   0.0000000   0.0000000   0.0000000   0.0000000   0.0000000   0.0000000
 NMagM=    0.0000000   0.0000000   0.0000000   0.0000000   0.0000000   0.0000000   0.0000000   0.0000000   0.0000000   0.0000000
 AtZNuc=   6.0000000   6.0000000   6.0000000   6.0000000   6.0000000   6.0000000   6.0000000   6.0000000   6.0000000   6.0000000

  Atom        21          22          23          24          25          26          27          28          29          30
 IAtWgt=          16           1           1           1           1           1           1           1           1           1
 AtmWgt=  15.9949146   1.0078250   1.0078250   1.0078250   1.0078250   1.0078250   1.0078250   1.0078250   1.0078250   1.0078250
 NucSpn=           0           1           1           1           1           1           1           1           1           1
 AtZEff=   0.0000000   0.0000000   0.0000000   0.0000000   0.0000000   0.0000000   0.0000000   0.0000000   0.0000000   0.0000000
 NQMom=    0.0000000   0.0000000   0.0000000   0.0000000   0.0000000   0.0000000   0.0000000   0.0000000   0.0000000   0.0000000
 NMagM=    0.0000000   2.7928460   2.7928460   2.7928460   2.7928460   2.7928460   2.7928460   2.7928460   2.7928460   2.7928460
 AtZNuc=   8.0000000   1.0000000   1.0000000   1.0000000   1.0000000   1.0000000   1.0000000   1.0000000   1.0000000   1.0000000

  Atom        31          32          33
 IAtWgt=           1           1           1
 AtmWgt=   1.0078250   1.0078250   1.0078250
 NucSpn=           1           1           1
 AtZEff=   0.0000000   0.0000000   0.0000000
 NQMom=    0.0000000   0.0000000   0.0000000
 NMagM=    2.7928460   2.7928460   2.7928460
 AtZNuc=   1.0000000   1.0000000   1.0000000
 Leave Link  101 at Thu Aug  6 21:56:18 2020, MaxMem=    33554432 cpu:         0.1
 (Enter /prod/apps/gaussian/g09d1/l202.exe)
                          Input orientation:                          
 ---------------------------------------------------------------------
 Center     Atomic      Atomic             Coordinates (Angstroms)
 Number     Number       Type             X           Y           Z
 ---------------------------------------------------------------------
      1          8           0        3.723000    1.235000    1.143000
      2         16           0        3.507000    0.316000    0.022000
      3          7           0        2.901000    1.308000   -1.208000
      4          6           0        2.516000    0.799000   -2.452000
      5          7           0        2.782000    1.502000   -3.538000
      6          8           0        2.191000    0.778000   -4.583000
      7          6           0        1.611000   -0.344000   -4.089000
      8          6           0        0.950000   -1.230000   -5.040000
      9          6           0        0.331000   -2.409000   -4.592000
     10          6           0       -0.301000   -3.255000   -5.499000
     11          6           0       -0.324000   -2.936000   -6.860000
     12          6           0        0.290000   -1.765000   -7.310000
     13          6           0        0.924000   -0.915000   -6.408000
     14          6           0        1.781000   -0.382000   -2.732000
     15          6           0        5.085000   -0.322000   -0.508000
     16          6           0        6.226000    0.466000   -0.336000
     17          6           0        7.452000   -0.031000   -0.771000
     18          6           0        7.527000   -1.293000   -1.366000
     19          6           0        6.378000   -2.069000   -1.527000
     20          6           0        5.142000   -1.587000   -1.097000
     21          8           0        2.572000   -0.807000    0.143000
     22          1           0        3.409000    2.194000   -1.261000
     23          1           0        0.346000   -2.660000   -3.538000
     24          1           0       -0.776000   -4.163000   -5.144000
     25          1           0       -0.817000   -3.597000   -7.564000
     26          1           0        0.275000   -1.513000   -8.365000
     27          1           0        1.401000   -0.005000   -6.754000
     28          1           0        1.440000   -1.118000   -2.025000
     29          1           0        6.154000    1.437000    0.137000
     30          1           0        8.348000    0.565000   -0.641000
     31          1           0        8.486000   -1.674000   -1.702000
     32          1           0        6.440000   -3.052000   -1.981000
     33          1           0        4.241000   -2.177000   -1.200000
 ---------------------------------------------------------------------
                    Distance matrix (angstroms):
                    1          2          3          4          5
     1  O    0.000000
     2  S    1.465557   0.000000
     3  N    2.491629   1.692395   0.000000
     4  C    3.817194   2.708514   1.398157   0.000000
     5  N    4.782105   3.821756   2.341089   1.320743   0.000000
     6  O    5.944994   4.811582   3.489359   2.155743   1.401956
     7  C    5.858977   4.575012   3.562775   2.192086   2.254453
     8  C    7.210773   5.878113   4.993202   3.642381   3.616082
     9  C    7.594381   6.229093   5.645569   4.432278   4.734368
    10  C    8.970443   7.598312   7.034661   5.801260   5.998288
    11  C    9.890574   8.521384   7.768994   6.437879   6.354429
    12  C    9.604098   8.272719   7.314031   5.927001   5.577754
    13  C    8.335137   7.037908   5.990848   4.595889   4.186998
    14  C    4.626195   3.324274   2.536351   1.418938   2.280590
    15  C    2.646714   1.782702   2.813673   3.411090   4.220389
    16  C    3.007293   2.746566   3.539064   4.283975   4.815313
    17  C    4.378538   4.038847   4.763978   5.280034   5.640503
    18  C    5.211169   4.547068   5.309429   5.537687   5.919851
    19  C    5.009425   4.041073   4.857512   4.898581   5.452282
    20  C    3.872318   2.747143   3.662708   3.798012   4.590207
    21  O    2.548444   1.466286   2.531139   3.052277   4.350327
    22  H    2.607200   2.276527   1.022677   2.040087   2.461041
    23  H    6.963255   5.614454   5.263264   4.225278   4.822483
    24  H    9.428986   8.068029   7.677517   6.534950   6.879740
    25  H   10.944025   9.568487   8.847671   7.521054   7.427064
    26  H   10.480566   9.172395   8.128749   6.732830   6.218939
    27  H    8.324175   7.102989   5.893393   4.516287   3.810625
    28  H    4.559048   3.243309   2.947454   2.239418   3.309763
    29  H    2.638674   2.876886   3.522453   4.510544   4.988009
    30  H    5.002218   4.892530   5.526604   6.111195   6.344362
    31  H    6.264381   5.632292   6.350479   6.505315   6.781850
    32  H    5.959852   4.894683   5.668479   5.518135   6.045174
    33  H    4.171297   2.871775   3.733750   3.660561   4.596734
                    6          7          8          9         10
     6  O    0.000000
     7  C    1.356215   0.000000
     8  C    2.404370   1.458190   0.000000
     9  C    3.690075   2.481055   1.404958   0.000000
    10  C    4.828479   3.757361   2.424110   1.392045   0.000000
    11  C    5.030283   4.259241   2.801056   2.418797   1.398074
    12  C    4.185353   3.760203   2.423783   2.793553   2.418492
    13  C    2.793235   2.485110   1.404039   2.425189   2.793297
    14  C    2.222589   1.368135   2.595482   3.109796   4.499460
    15  C    5.117701   4.989261   6.201751   6.605690   7.907058
    16  C    5.866479   6.003277   7.269127   7.818580   9.116147
    17  C    6.547056   6.724907   7.870068   8.423988   9.636242
    18  C    6.565899   6.581367   7.533868   7.964606   9.066902
    19  C    5.914010   5.680120   6.519837   6.787933   7.860816
    20  C    5.143328   4.792189   5.766070   6.003035   7.196254
    21  O    4.999246   4.364369   5.447321   5.478021   6.788151
    22  H    3.811071   4.203788   5.661387   6.461985   7.836858
    23  H    4.039294   2.695864   2.160028   1.083578   2.148989
    24  H    5.790621   4.625533   3.404759   2.146315   1.084488
    25  H    6.088928   5.343484   3.885300   3.400299   2.155793
    26  H    4.819052   4.629863   3.404606   3.878335   3.402983
    27  H    2.439350   2.694670   2.154489   3.405637   3.877413
    28  H    3.271419   2.210976   3.056611   3.079943   4.434696
    29  H    6.198230   6.455222   7.809983   8.429857   9.769667
    30  H    7.313917   7.622477   8.792248   9.419520  10.630041
    31  H    7.344351   7.398128   8.254131   8.683107   9.701966
    32  H    6.284370   5.924202   6.543490   6.674627   7.606485
    33  H    4.937531   4.315450   5.145201   5.181466   6.346121
                   11         12         13         14         15
    11  C    0.000000
    12  C    1.396688   0.000000
    13  C    2.417902   1.392142   0.000000
    14  C    5.290966   5.009377   3.812022   0.000000
    15  C    8.742893   8.446388   7.244002   3.983239   0.000000
    16  C    9.850821   9.426035   8.178481   5.120346   1.397286
    17  C   10.294713   9.851879   8.670179   6.010737   2.399279
    18  C    9.722226   9.376998   8.316505   5.975985   2.764483
    19  C    8.608681   8.402336   7.409588   5.042857   2.400462
    20  C    8.056620   7.885110   6.815411   3.927031   1.396565
    21  O    7.871561   7.853184   6.755973   3.011965   2.640870
    22  H    8.461737   7.873515   6.506360   3.383785   3.115484
    23  H    3.400112   3.877131   3.408227   2.810364   6.091409
    24  H    2.157426   3.402692   3.877783   5.162553   8.402208
    25  H    1.084244   2.155502   3.400080   6.358778   9.764546
    26  H    2.156097   1.084783   2.146778   5.939519   9.289081
    27  H    3.402590   2.154311   1.084133   4.057464   7.258434
    28  H    5.458392   5.447232   4.417935   1.076023   4.027522
    29  H   10.490263  10.004854   8.701829   5.537423   2.157051
    30  H   11.231053  10.716148   9.516536   6.956621   3.384025
    31  H   10.286579   9.931383   8.939036   6.905591   3.849720
    32  H    8.340851   8.238757   7.388596   5.422101   3.385063
    33  H    7.311013   7.287815   6.302253   3.408907   2.152260
                   16         17         18         19         20
    16  C    0.000000
    17  C    1.392591   0.000000
    18  C    2.418177   1.397245   0.000000
    19  C    2.804962   2.424553   1.395814   0.000000
    20  C    2.443151   2.804195   2.418062   1.394604   0.000000
    21  O    3.898934   5.025134   5.202432   4.343637   2.958192
    22  H    3.431778   4.640751   5.397047   5.201816   4.162469
    23  H    7.389119   8.066174   7.625814   6.385799   5.487388
    24  H    9.673288  10.192965   9.562949   8.285363   7.618183
    25  H   10.879145  11.279963  10.646406   9.515681   9.020636
    26  H   10.188017  10.553411  10.080967   9.182265   8.747399
    27  H    8.043208   8.509499   8.259380   7.506807   6.964155
    28  H    5.316726   6.236844   6.125069   5.053340   3.845250
    29  H    1.082476   2.159697   3.405442   3.887301   3.419280
    30  H    2.146092   1.083943   2.156810   3.406443   3.888120
    31  H    3.398993   2.152990   1.085236   2.151816   3.399401
    32  H    3.889492   3.408032   2.157284   1.084550   2.147670
    33  H    3.416456   3.885856   3.406877   2.164570   1.081901
                   21         22         23         24         25
    21  O    0.000000
    22  H    3.417278   0.000000
    23  H    4.683849   6.174789   0.000000
    24  H    7.101001   8.544201   2.469237   0.000000
    25  H    8.869457   9.545814   4.294091   2.485646   0.000000
    26  H    8.840855   8.604105   4.961913   4.301388   2.485381
    27  H    7.041524   6.248257   4.301710   4.961894   4.298615
    28  H    2.465435   3.928104   2.421522   4.889871   6.474566
    29  H    4.226854   3.172141   8.001493  10.357310  11.543024
    30  H    5.988257   5.237534   9.100837  11.219553  12.216685
    31  H    6.255486   6.397799   8.402541  10.189560  11.162741
    32  H    4.951043   6.101301   6.301964   7.956730   9.172293
    33  H    2.542855   4.449897   4.568431   6.683534   8.252288
                   26         27         28         29         30
    26  H    0.000000
    27  H    2.477350   0.000000
    28  H    6.458239   4.858367   0.000000
    29  H   10.749379   8.494484   5.781355   0.000000
    30  H   11.364488   9.271164   7.243508   2.485821   0.000000
    31  H   10.575538   8.860332   7.075280   4.300984   2.481509
    32  H    9.007286   7.580057   5.361184   4.971805   4.303342
    33  H    8.216281   6.605308   3.106076   4.302108   4.969758
                   31         32         33
    31  H    0.000000
    32  H    2.482507   0.000000
    33  H    4.304072   2.492225   0.000000
 Stoichiometry    C15H12N2O3S
 Framework group  C1[X(C15H12N2O3S)]
 Deg. of freedom    93
 Full point group                 C1      NOp   1
 Largest Abelian subgroup         C1      NOp   1
 Largest concise Abelian subgroup C1      NOp   1
                         Standard orientation:                         
 ---------------------------------------------------------------------
 Center     Atomic      Atomic             Coordinates (Angstroms)
 Number     Number       Type             X           Y           Z
 ---------------------------------------------------------------------
      1          8           0        3.554348   -2.150731   -0.484587
      2         16           0        2.387294   -1.276653   -0.632339
      3          7           0        1.328587   -1.801157    0.579368
      4          6           0        0.057151   -1.244522    0.748041
      5          7           0       -0.400104   -1.060003    1.973288
      6          8           0       -1.709120   -0.590192    1.796547
      7          6           0       -1.982032   -0.489050    0.471930
      8          6           0       -3.305069   -0.004515    0.096275
      9          6           0       -3.649767    0.124046   -1.259660
     10          6           0       -4.912842    0.585707   -1.619246
     11          6           0       -5.845264    0.923116   -0.633672
     12          6           0       -5.507090    0.796923    0.715569
     13          6           0       -4.245445    0.336164    1.081646
     14          6           0       -0.892968   -0.898976   -0.247578
     15          6           0        2.873619    0.396760   -0.256568
     16          6           0        3.916877    0.611526    0.647809
     17          6           0        4.277506    1.921850    0.951629
     18          6           0        3.602447    2.991615    0.358171
     19          6           0        2.564793    2.759598   -0.546118
     20          6           0        2.190616    1.453797   -0.862021
     21          8           0        1.613337   -1.263946   -1.877660
     22          1           0        1.821816   -1.983435    1.456505
     23          1           0       -2.930397   -0.136711   -2.026898
     24          1           0       -5.169936    0.681849   -2.668423
     25          1           0       -6.828226    1.282478   -0.916922
     26          1           0       -6.226959    1.057467    1.484113
     27          1           0       -3.980047    0.236502    2.128057
     28          1           0       -0.767682   -0.960678   -1.314500
     29          1           0        4.438113   -0.227358    1.090912
     30          1           0        5.087819    2.106616    1.647465
     31          1           0        3.889429    4.010062    0.599304
     32          1           0        2.048173    3.591459   -1.012338
     33          1           0        1.398114    1.251045   -1.570076
 ---------------------------------------------------------------------
 Rotational constants (GHZ):      0.5483265      0.1459848      0.1357754
 Leave Link  202 at Thu Aug  6 21:56:18 2020, MaxMem=    33554432 cpu:         0.0
 (Enter /prod/apps/gaussian/g09d1/l301.exe)
 Standard basis: 6-31G(d) (6D, 7F)
 Ernie: Thresh=  0.10000D-02 Tol=  0.10000D-05 Strict=F.
 There are   343 symmetry adapted cartesian basis functions of A   symmetry.
 There are   343 symmetry adapted basis functions of A   symmetry.
   343 basis functions,   660 primitive gaussians,   343 cartesian basis functions
    78 alpha electrons       78 beta electrons
       nuclear repulsion energy      1720.6511332705 Hartrees.
 IExCor=  402 DFT=T Ex+Corr=B3LYP ExCW=0 ScaHFX=  0.200000
 ScaDFX=  0.800000  0.720000  1.000000  0.810000 ScalE2=  1.000000  1.000000
 IRadAn=      0 IRanWt=     -1 IRanGd=            0 ICorTp=0 IEmpDi=  4
 NAtoms=   33 NActive=   33 NUniq=   33 SFac= 1.00D+00 NAtFMM=   60 NAOKFM=F Big=F
 Integral buffers will be    131072 words long.
 Raffenetti 2 integral format.
 Two-electron integral symmetry is turned on.
 Leave Link  301 at Thu Aug  6 21:56:18 2020, MaxMem=    33554432 cpu:         0.0
 (Enter /prod/apps/gaussian/g09d1/l302.exe)
 NPDir=0 NMtPBC=     1 NCelOv=     1 NCel=       1 NClECP=     1 NCelD=      1
         NCelK=      1 NCelE2=     1 NClLst=     1 CellRange=     0.0.
 One-electron integrals computed using PRISM.
 NBasis=   343 RedAO= T EigKep=  4.58D-04  NBF=   343
 NBsUse=   343 1.00D-06 EigRej= -1.00D+00 NBFU=   343
 Precomputing XC quadrature grid using
 IXCGrd= 4 IRadAn=           0 IRanWt=          -1 IRanGd=           0 AccXCQ= 0.00D+00.
 Generated NRdTot=       0 NPtTot=           0 NUsed=           0 NTot=          32
 NSgBfM=   335   338   338   338   338 MxSgAt=    33 MxSgA2=    33.
 Leave Link  302 at Thu Aug  6 21:56:20 2020, MaxMem=    33554432 cpu:         1.2
 (Enter /prod/apps/gaussian/g09d1/l303.exe)
 DipDrv:  MaxL=1.
 Leave Link  303 at Thu Aug  6 21:56:20 2020, MaxMem=    33554432 cpu:         0.0
 (Enter /prod/apps/gaussian/g09d1/l401.exe)
 ExpMin= 1.17D-01 ExpMax= 2.19D+04 ExpMxC= 3.30D+03 IAcc=1 IRadAn=         1 AccDes= 0.00D+00
 Harris functional with IExCor=  402 and IRadAn=       1 diagonalized for initial guess.
 HarFok:  IExCor=  402 AccDes= 0.00D+00 IRadAn=         1 IDoV= 1 UseB2=F ITyADJ=14
 ICtDFT=  3500011 ScaDFX=  1.000000  1.000000  1.000000  1.000000
 FoFCou: FMM=F IPFlag=           0 FMFlag=      100000 FMFlg1=           0
         NFxFlg=           0 DoJE=T BraDBF=F KetDBF=T FulRan=T
         wScrn=  0.000000 ICntrl=     500 IOpCl=  0 I1Cent=   200000004 NGrid=           0
         NMat0=    1 NMatS0=      1 NMatT0=    0 NMatD0=    1 NMtDS0=    0 NMtDT0=    0
 Petite list used in FoFCou.
 Harris En= -1312.10693793211    
 JPrj=0 DoOrth=F DoCkMO=F.
 Leave Link  401 at Thu Aug  6 21:56:23 2020, MaxMem=    33554432 cpu:         3.6
 (Enter /prod/apps/gaussian/g09d1/l502.exe)
 Closed shell SCF:
 Using DIIS extrapolation, IDIIS=  1040.
 Integral symmetry usage will be decided dynamically.
 IVT=      376131 IEndB=      376131 NGot=    33554432 MDV=    33312934
 LenX=    33312934 LenY=    33194844
 Requested convergence on RMS density matrix=1.00D-08 within 128 cycles.
 Requested convergence on MAX density matrix=1.00D-06.
 Requested convergence on             energy=1.00D-06.
 No special actions if energy rises.
 Fock matrices will be formed incrementally for  20 cycles.
 Integral accuracy reduced to 1.0D-05 until final iterations.

 Cycle   1  Pass 0  IDiag  1:
 FoFJK:  IHMeth= 1 ICntrl=       0 DoSepK=F KAlg= 0 I1Cent=   0 FoldK=F
 IRaf= 700000000 NMat=   1 IRICut=       1 DoRegI=T DoRafI=F ISym2E= 0.
 FoFCou: FMM=F IPFlag=           0 FMFlag=      100000 FMFlg1=           0
         NFxFlg=           0 DoJE=F BraDBF=F KetDBF=F FulRan=T
         wScrn=  0.000000 ICntrl=       0 IOpCl=  0 I1Cent=           0 NGrid=           0
         NMat0=    1 NMatS0=      1 NMatT0=    0 NMatD0=    1 NMtDS0=    0 NMtDT0=    0
 Symmetry not used in FoFCou.
 E= -1311.47861621644    
 DIIS: error= 3.85D-02 at cycle   1 NSaved=   1.
 NSaved= 1 IEnMin= 1 EnMin= -1311.47861621644     IErMin= 1 ErrMin= 3.85D-02
 ErrMax= 3.85D-02  0.00D+00 EMaxC= 1.00D-01 BMatC= 6.62D-01 BMatP= 6.62D-01
 IDIUse=3 WtCom= 6.15D-01 WtEn= 3.85D-01
 Coeff-Com:  0.100D+01
 Coeff-En:   0.100D+01
 Coeff:      0.100D+01
 Gap=     0.283 Goal=   None    Shift=    0.000
 GapD=    0.283 DampG=1.000 DampE=0.500 DampFc=0.5000 IDamp=-1.
 Damping current iteration by 5.00D-01
 RMSDP=6.34D-03 MaxDP=5.95D-01              OVMax= 2.63D-01

 Cycle   2  Pass 0  IDiag  1:
 RMSU=  3.16D-03    CP:  9.89D-01
 E= -1311.60178592883     Delta-E=       -0.123169712388 Rises=F Damp=T
 DIIS: error= 1.33D-02 at cycle   2 NSaved=   2.
 NSaved= 2 IEnMin= 2 EnMin= -1311.60178592883     IErMin= 2 ErrMin= 1.33D-02
 ErrMax= 1.33D-02  0.00D+00 EMaxC= 1.00D-01 BMatC= 1.26D-01 BMatP= 6.62D-01
 IDIUse=3 WtCom= 8.67D-01 WtEn= 1.33D-01
 Coeff-Com:  0.249D+00 0.751D+00
 Coeff-En:   0.393D+00 0.607D+00
 Coeff:      0.268D+00 0.732D+00
 Gap=     0.232 Goal=   None    Shift=    0.000
 RMSDP=2.09D-03 MaxDP=1.51D-01 DE=-1.23D-01 OVMax= 2.23D-01

 Cycle   3  Pass 0  IDiag  1:
 RMSU=  1.70D-03    CP:  9.75D-01  6.25D-01
 E= -1312.00225952133     Delta-E=       -0.400473592498 Rises=F Damp=F
 DIIS: error= 9.45D-03 at cycle   3 NSaved=   3.
 NSaved= 3 IEnMin= 3 EnMin= -1312.00225952133     IErMin= 3 ErrMin= 9.45D-03
 ErrMax= 9.45D-03  0.00D+00 EMaxC= 1.00D-01 BMatC= 7.50D-02 BMatP= 1.26D-01
 IDIUse=3 WtCom= 9.05D-01 WtEn= 9.45D-02
 Coeff-Com:  0.753D-01 0.432D+00 0.493D+00
 Coeff-En:   0.000D+00 0.000D+00 0.100D+01
 Coeff:      0.682D-01 0.391D+00 0.541D+00
 Gap=     0.184 Goal=   None    Shift=    0.000
 RMSDP=1.17D-03 MaxDP=5.25D-02 DE=-4.00D-01 OVMax= 7.17D-02

 Cycle   4  Pass 0  IDiag  1:
 RMSU=  7.38D-04    CP:  9.81D-01  7.29D-01  5.11D-01
 E= -1312.06017720128     Delta-E=       -0.057917679946 Rises=F Damp=F
 DIIS: error= 4.23D-03 at cycle   4 NSaved=   4.
 NSaved= 4 IEnMin= 4 EnMin= -1312.06017720128     IErMin= 4 ErrMin= 4.23D-03
 ErrMax= 4.23D-03  0.00D+00 EMaxC= 1.00D-01 BMatC= 1.25D-02 BMatP= 7.50D-02
 IDIUse=3 WtCom= 9.58D-01 WtEn= 4.23D-02
 Coeff-Com:  0.839D-02 0.110D+00 0.310D+00 0.571D+00
 Coeff-En:   0.000D+00 0.000D+00 0.151D+00 0.849D+00
 Coeff:      0.803D-02 0.106D+00 0.304D+00 0.583D+00
 Gap=     0.185 Goal=   None    Shift=    0.000
 RMSDP=4.18D-04 MaxDP=1.93D-02 DE=-5.79D-02 OVMax= 3.21D-02

 Cycle   5  Pass 0  IDiag  1:
 RMSU=  2.37D-04    CP:  9.80D-01  7.11D-01  6.30D-01  6.32D-01
 E= -1312.07004120057     Delta-E=       -0.009863999294 Rises=F Damp=F
 DIIS: error= 2.19D-03 at cycle   5 NSaved=   5.
 NSaved= 5 IEnMin= 5 EnMin= -1312.07004120057     IErMin= 5 ErrMin= 2.19D-03
 ErrMax= 2.19D-03  0.00D+00 EMaxC= 1.00D-01 BMatC= 1.81D-03 BMatP= 1.25D-02
 IDIUse=3 WtCom= 9.78D-01 WtEn= 2.19D-02
 Coeff-Com: -0.232D-02 0.297D-01 0.142D+00 0.367D+00 0.464D+00
 Coeff-En:   0.000D+00 0.000D+00 0.000D+00 0.106D+00 0.894D+00
 Coeff:     -0.226D-02 0.291D-01 0.139D+00 0.361D+00 0.474D+00
 Gap=     0.181 Goal=   None    Shift=    0.000
 RMSDP=1.60D-04 MaxDP=8.88D-03 DE=-9.86D-03 OVMax= 1.45D-02

 Cycle   6  Pass 0  IDiag  1:
 RMSU=  8.63D-05    CP:  9.80D-01  7.16D-01  6.28D-01  6.82D-01  4.58D-01
 E= -1312.07157589125     Delta-E=       -0.001534690682 Rises=F Damp=F
 DIIS: error= 1.00D-03 at cycle   6 NSaved=   6.
 NSaved= 6 IEnMin= 6 EnMin= -1312.07157589125     IErMin= 6 ErrMin= 1.00D-03
 ErrMax= 1.00D-03  0.00D+00 EMaxC= 1.00D-01 BMatC= 2.35D-04 BMatP= 1.81D-03
 IDIUse=3 WtCom= 9.90D-01 WtEn= 1.00D-02
 Coeff-Com: -0.239D-02 0.567D-02 0.462D-01 0.147D+00 0.305D+00 0.499D+00
 Coeff-En:   0.000D+00 0.000D+00 0.000D+00 0.000D+00 0.111D+00 0.889D+00
 Coeff:     -0.237D-02 0.561D-02 0.458D-01 0.145D+00 0.303D+00 0.503D+00
 Gap=     0.181 Goal=   None    Shift=    0.000
 RMSDP=5.19D-05 MaxDP=2.89D-03 DE=-1.53D-03 OVMax= 4.49D-03

 Cycle   7  Pass 0  IDiag  1:
 RMSU=  2.68D-05    CP:  9.80D-01  7.15D-01  6.30D-01  6.86D-01  5.50D-01
                    CP:  5.56D-01
 E= -1312.07178009260     Delta-E=       -0.000204201345 Rises=F Damp=F
 DIIS: error= 1.73D-04 at cycle   7 NSaved=   7.
 NSaved= 7 IEnMin= 7 EnMin= -1312.07178009260     IErMin= 7 ErrMin= 1.73D-04
 ErrMax= 1.73D-04  0.00D+00 EMaxC= 1.00D-01 BMatC= 1.52D-05 BMatP= 2.35D-04
 IDIUse=3 WtCom= 9.98D-01 WtEn= 1.73D-03
 Coeff-Com: -0.125D-02 0.778D-03 0.155D-01 0.556D-01 0.138D+00 0.295D+00
 Coeff-Com:  0.496D+00
 Coeff-En:   0.000D+00 0.000D+00 0.000D+00 0.000D+00 0.000D+00 0.000D+00
 Coeff-En:   0.100D+01
 Coeff:     -0.125D-02 0.777D-03 0.155D-01 0.555D-01 0.138D+00 0.295D+00
 Coeff:      0.497D+00
 Gap=     0.181 Goal=   None    Shift=    0.000
 RMSDP=1.37D-05 MaxDP=5.35D-04 DE=-2.04D-04 OVMax= 1.13D-03

 Cycle   8  Pass 0  IDiag  1:
 RMSU=  8.84D-06    CP:  9.80D-01  7.15D-01  6.30D-01  6.87D-01  5.54D-01
                    CP:  5.83D-01  6.24D-01
 E= -1312.07179298290     Delta-E=       -0.000012890299 Rises=F Damp=F
 DIIS: error= 5.59D-05 at cycle   8 NSaved=   8.
 NSaved= 8 IEnMin= 8 EnMin= -1312.07179298290     IErMin= 8 ErrMin= 5.59D-05
 ErrMax= 5.59D-05  0.00D+00 EMaxC= 1.00D-01 BMatC= 1.50D-06 BMatP= 1.52D-05
 IDIUse=1 WtCom= 1.00D+00 WtEn= 0.00D+00
 Coeff-Com: -0.454D-03-0.229D-03 0.341D-02 0.150D-01 0.448D-01 0.118D+00
 Coeff-Com:  0.288D+00 0.531D+00
 Coeff:     -0.454D-03-0.229D-03 0.341D-02 0.150D-01 0.448D-01 0.118D+00
 Coeff:      0.288D+00 0.531D+00
 Gap=     0.181 Goal=   None    Shift=    0.000
 RMSDP=5.00D-06 MaxDP=1.91D-04 DE=-1.29D-05 OVMax= 4.51D-04

 Initial convergence to 1.0D-05 achieved.  Increase integral accuracy.
 Cycle   9  Pass 1  IDiag  1:
 E= -1312.07177816466     Delta-E=        0.000014818234 Rises=F Damp=F
 DIIS: error= 5.17D-05 at cycle   1 NSaved=   1.
 NSaved= 1 IEnMin= 1 EnMin= -1312.07177816466     IErMin= 1 ErrMin= 5.17D-05
 ErrMax= 5.17D-05  0.00D+00 EMaxC= 1.00D-01 BMatC= 8.47D-07 BMatP= 8.47D-07
 IDIUse=1 WtCom= 1.00D+00 WtEn= 0.00D+00
 Coeff-Com:  0.100D+01
 Coeff:      0.100D+01
 Gap=     0.181 Goal=   None    Shift=    0.000
 RMSDP=5.00D-06 MaxDP=1.91D-04 DE= 1.48D-05 OVMax= 2.51D-04

 Cycle  10  Pass 1  IDiag  1:
 RMSU=  3.26D-05    CP:  1.00D+00
 E= -1312.07177840203     Delta-E=       -0.000000237369 Rises=F Damp=F
 DIIS: error= 3.01D-05 at cycle   2 NSaved=   2.
 NSaved= 2 IEnMin= 2 EnMin= -1312.07177840203     IErMin= 2 ErrMin= 3.01D-05
 ErrMax= 3.01D-05  0.00D+00 EMaxC= 1.00D-01 BMatC= 6.68D-07 BMatP= 8.47D-07
 IDIUse=1 WtCom= 1.00D+00 WtEn= 0.00D+00
 Coeff-Com:  0.458D+00 0.542D+00
 Coeff:      0.458D+00 0.542D+00
 Gap=     0.181 Goal=   None    Shift=    0.000
 RMSDP=4.14D-06 MaxDP=1.65D-04 DE=-2.37D-07 OVMax= 2.62D-04

 Cycle  11  Pass 1  IDiag  1:
 RMSU=  4.13D-06    CP:  1.00D+00  9.92D-01
 E= -1312.07177866828     Delta-E=       -0.000000266255 Rises=F Damp=F
 DIIS: error= 2.24D-05 at cycle   3 NSaved=   3.
 NSaved= 3 IEnMin= 3 EnMin= -1312.07177866828     IErMin= 3 ErrMin= 2.24D-05
 ErrMax= 2.24D-05  0.00D+00 EMaxC= 1.00D-01 BMatC= 3.81D-07 BMatP= 6.68D-07
 IDIUse=1 WtCom= 1.00D+00 WtEn= 0.00D+00
 Coeff-Com:  0.100D-01 0.428D+00 0.562D+00
 Coeff:      0.100D-01 0.428D+00 0.562D+00
 Gap=     0.181 Goal=   None    Shift=    0.000
 RMSDP=1.94D-06 MaxDP=8.08D-05 DE=-2.66D-07 OVMax= 1.33D-04

 Cycle  12  Pass 1  IDiag  1:
 RMSU=  6.33D-07    CP:  1.00D+00  1.00D+00  5.69D-01
 E= -1312.07177899862     Delta-E=       -0.000000330334 Rises=F Damp=F
 DIIS: error= 3.60D-06 at cycle   4 NSaved=   4.
 NSaved= 4 IEnMin= 4 EnMin= -1312.07177899862     IErMin= 4 ErrMin= 3.60D-06
 ErrMax= 3.60D-06  0.00D+00 EMaxC= 1.00D-01 BMatC= 1.24D-08 BMatP= 3.81D-07
 IDIUse=1 WtCom= 1.00D+00 WtEn= 0.00D+00
 Coeff-Com: -0.485D-02 0.248D+00 0.345D+00 0.412D+00
 Coeff:     -0.485D-02 0.248D+00 0.345D+00 0.412D+00
 Gap=     0.181 Goal=   None    Shift=    0.000
 RMSDP=3.81D-07 MaxDP=1.20D-05 DE=-3.30D-07 OVMax= 2.88D-05

 Cycle  13  Pass 1  IDiag  1:
 RMSU=  1.78D-07    CP:  1.00D+00  1.00D+00  5.78D-01  4.73D-01
 E= -1312.07177900971     Delta-E=       -0.000000011093 Rises=F Damp=F
 DIIS: error= 1.20D-06 at cycle   5 NSaved=   5.
 NSaved= 5 IEnMin= 5 EnMin= -1312.07177900971     IErMin= 5 ErrMin= 1.20D-06
 ErrMax= 1.20D-06  0.00D+00 EMaxC= 1.00D-01 BMatC= 6.00D-10 BMatP= 1.24D-08
 IDIUse=1 WtCom= 1.00D+00 WtEn= 0.00D+00
 Coeff-Com: -0.361D-02 0.118D+00 0.166D+00 0.242D+00 0.478D+00
 Coeff:     -0.361D-02 0.118D+00 0.166D+00 0.242D+00 0.478D+00
 Gap=     0.181 Goal=   None    Shift=    0.000
 RMSDP=8.93D-08 MaxDP=3.59D-06 DE=-1.11D-08 OVMax= 7.49D-06

 Cycle  14  Pass 1  IDiag  1:
 RMSU=  6.48D-08    CP:  1.00D+00  1.00D+00  5.80D-01  5.00D-01  6.72D-01
 E= -1312.07177901028     Delta-E=       -0.000000000571 Rises=F Damp=F
 DIIS: error= 2.65D-07 at cycle   6 NSaved=   6.
 NSaved= 6 IEnMin= 6 EnMin= -1312.07177901028     IErMin= 6 ErrMin= 2.65D-07
 ErrMax= 2.65D-07  0.00D+00 EMaxC= 1.00D-01 BMatC= 3.47D-11 BMatP= 6.00D-10
 IDIUse=1 WtCom= 1.00D+00 WtEn= 0.00D+00
 Coeff-Com: -0.148D-02 0.419D-01 0.595D-01 0.946D-01 0.254D+00 0.552D+00
 Coeff:     -0.148D-02 0.419D-01 0.595D-01 0.946D-01 0.254D+00 0.552D+00
 Gap=     0.181 Goal=   None    Shift=    0.000
 RMSDP=2.57D-08 MaxDP=9.82D-07 DE=-5.71D-10 OVMax= 2.12D-06

 Cycle  15  Pass 1  IDiag  1:
 RMSU=  2.10D-08    CP:  1.00D+00  1.00D+00  5.79D-01  5.00D-01  7.18D-01
                    CP:  8.11D-01
 E= -1312.07177901037     Delta-E=       -0.000000000087 Rises=F Damp=F
 DIIS: error= 1.25D-07 at cycle   7 NSaved=   7.
 NSaved= 7 IEnMin= 7 EnMin= -1312.07177901037     IErMin= 7 ErrMin= 1.25D-07
 ErrMax= 1.25D-07  0.00D+00 EMaxC= 1.00D-01 BMatC= 1.12D-11 BMatP= 3.47D-11
 IDIUse=1 WtCom= 1.00D+00 WtEn= 0.00D+00
 Coeff-Com: -0.285D-03 0.473D-02 0.693D-02 0.155D-01 0.783D-01 0.387D+00
 Coeff-Com:  0.508D+00
 Coeff:     -0.285D-03 0.473D-02 0.693D-02 0.155D-01 0.783D-01 0.387D+00
 Coeff:      0.508D+00
 Gap=     0.181 Goal=   None    Shift=    0.000
 RMSDP=1.13D-08 MaxDP=6.17D-07 DE=-8.73D-11 OVMax= 7.56D-07

 Cycle  16  Pass 1  IDiag  1:
 RMSU=  5.76D-09    CP:  1.00D+00  1.00D+00  5.79D-01  5.02D-01  7.27D-01
                    CP:  8.44D-01  5.64D-01
 E= -1312.07177901038     Delta-E=       -0.000000000007 Rises=F Damp=F
 DIIS: error= 2.98D-08 at cycle   8 NSaved=   8.
 NSaved= 8 IEnMin= 8 EnMin= -1312.07177901038     IErMin= 8 ErrMin= 2.98D-08
 ErrMax= 2.98D-08  0.00D+00 EMaxC= 1.00D-01 BMatC= 6.24D-13 BMatP= 1.12D-11
 IDIUse=1 WtCom= 1.00D+00 WtEn= 0.00D+00
 Coeff-Com:  0.826D-06-0.177D-02-0.238D-02-0.126D-02 0.156D-01 0.154D+00
 Coeff-Com:  0.272D+00 0.564D+00
 Coeff:      0.826D-06-0.177D-02-0.238D-02-0.126D-02 0.156D-01 0.154D+00
 Coeff:      0.272D+00 0.564D+00
 Gap=     0.181 Goal=   None    Shift=    0.000
 RMSDP=2.88D-09 MaxDP=1.89D-07 DE=-7.28D-12 OVMax= 1.88D-07

 SCF Done:  E(RB3LYP) =  -1312.07177901     A.U. after   16 cycles
            NFock= 16  Conv=0.29D-08     -V/T= 2.0077
 KE= 1.302067348923D+03 PE=-6.511962807022D+03 EE= 2.177172545818D+03
 Leave Link  502 at Thu Aug  6 22:01:32 2020, MaxMem=    33554432 cpu:       308.8
 (Enter /prod/apps/gaussian/g09d1/l601.exe)
 Copying SCF densities to generalized density rwf, IOpCl= 0 IROHF=0.

 **********************************************************************

            Population analysis using the SCF density.

 **********************************************************************

 Orbital symmetries:
       Occupied  (A) (A) (A) (A) (A) (A) (A) (A) (A) (A) (A) (A)
                 (A) (A) (A) (A) (A) (A) (A) (A) (A) (A) (A) (A)
                 (A) (A) (A) (A) (A) (A) (A) (A) (A) (A) (A) (A)
                 (A) (A) (A) (A) (A) (A) (A) (A) (A) (A) (A) (A)
                 (A) (A) (A) (A) (A) (A) (A) (A) (A) (A) (A) (A)
                 (A) (A) (A) (A) (A) (A) (A) (A) (A) (A) (A) (A)
                 (A) (A) (A) (A) (A) (A)
       Virtual   (A) (A) (A) (A) (A) (A) (A) (A) (A) (A) (A) (A)
                 (A) (A) (A) (A) (A) (A) (A) (A) (A) (A) (A) (A)
                 (A) (A) (A) (A) (A) (A) (A) (A) (A) (A) (A) (A)
                 (A) (A) (A) (A) (A) (A) (A) (A) (A) (A) (A) (A)
                 (A) (A) (A) (A) (A) (A) (A) (A) (A) (A) (A) (A)
                 (A) (A) (A) (A) (A) (A) (A) (A) (A) (A) (A) (A)
                 (A) (A) (A) (A) (A) (A) (A) (A) (A) (A) (A) (A)
                 (A) (A) (A) (A) (A) (A) (A) (A) (A) (A) (A) (A)
                 (A) (A) (A) (A) (A) (A) (A) (A) (A) (A) (A) (A)
                 (A) (A) (A) (A) (A) (A) (A) (A) (A) (A) (A) (A)
                 (A) (A) (A) (A) (A) (A) (A) (A) (A) (A) (A) (A)
                 (A) (A) (A) (A) (A) (A) (A) (A) (A) (A) (A) (A)
                 (A) (A) (A) (A) (A) (A) (A) (A) (A) (A) (A) (A)
                 (A) (A) (A) (A) (A) (A) (A) (A) (A) (A) (A) (A)
                 (A) (A) (A) (A) (A) (A) (A) (A) (A) (A) (A) (A)
                 (A) (A) (A) (A) (A) (A) (A) (A) (A) (A) (A) (A)
                 (A) (A) (A) (A) (A) (A) (A) (A) (A) (A) (A) (A)
                 (A) (A) (A) (A) (A) (A) (A) (A) (A) (A) (A) (A)
                 (A) (A) (A) (A) (A) (A) (A) (A) (A) (A) (A) (A)
                 (A) (A) (A) (A) (A) (A) (A) (A) (A) (A) (A) (A)
                 (A) (A) (A) (A) (A) (A) (A) (A) (A) (A) (A) (A)
                 (A) (A) (A) (A) (A) (A) (A) (A) (A) (A) (A) (A)
                 (A)
 The electronic state is 1-A.
 Alpha  occ. eigenvalues --  -89.12553 -19.23762 -19.15276 -19.15073 -14.39387
 Alpha  occ. eigenvalues --  -14.38052 -10.27356 -10.26785 -10.24061 -10.22427
 Alpha  occ. eigenvalues --  -10.22329 -10.21975 -10.21882 -10.21789 -10.21763
 Alpha  occ. eigenvalues --  -10.20706 -10.20417 -10.20360 -10.20351 -10.20243
 Alpha  occ. eigenvalues --  -10.20061  -8.15050  -6.11579  -6.11452  -6.11343
 Alpha  occ. eigenvalues --   -1.14265  -1.12131  -1.00990  -0.96468  -0.88627
 Alpha  occ. eigenvalues --   -0.87628  -0.85166  -0.81014  -0.78900  -0.77544
 Alpha  occ. eigenvalues --   -0.75886  -0.75472  -0.69192  -0.64972  -0.63872
 Alpha  occ. eigenvalues --   -0.63436  -0.61726  -0.59996  -0.59339  -0.56469
 Alpha  occ. eigenvalues --   -0.55074  -0.52328  -0.50476  -0.49390  -0.48837
 Alpha  occ. eigenvalues --   -0.48217  -0.47499  -0.46811  -0.46769  -0.45325
 Alpha  occ. eigenvalues --   -0.45127  -0.44368  -0.43609  -0.42809  -0.40368
 Alpha  occ. eigenvalues --   -0.39419  -0.39372  -0.38418  -0.37463  -0.36812
 Alpha  occ. eigenvalues --   -0.36522  -0.35548  -0.34599  -0.32535  -0.31988
 Alpha  occ. eigenvalues --   -0.31460  -0.31089  -0.29929  -0.28445  -0.27883
 Alpha  occ. eigenvalues --   -0.26490  -0.25983  -0.23471
 Alpha virt. eigenvalues --   -0.05387  -0.04874  -0.02812  -0.01304   0.01771
 Alpha virt. eigenvalues --    0.04557   0.06563   0.06935   0.08370   0.08921
 Alpha virt. eigenvalues --    0.09512   0.10339   0.11568   0.12011   0.12967
 Alpha virt. eigenvalues --    0.13532   0.14293   0.14796   0.15757   0.16202
 Alpha virt. eigenvalues --    0.16608   0.17129   0.17518   0.18384   0.18543
 Alpha virt. eigenvalues --    0.23372   0.23828   0.25601   0.26379   0.27810
 Alpha virt. eigenvalues --    0.28044   0.29188   0.29453   0.30831   0.31592
 Alpha virt. eigenvalues --    0.32766   0.34414   0.35790   0.37053   0.38967
 Alpha virt. eigenvalues --    0.41424   0.43855   0.44109   0.46779   0.48542
 Alpha virt. eigenvalues --    0.49825   0.50808   0.50961   0.51719   0.53021
 Alpha virt. eigenvalues --    0.53138   0.54027   0.55386   0.55886   0.56181
 Alpha virt. eigenvalues --    0.56581   0.56767   0.57574   0.57851   0.58184
 Alpha virt. eigenvalues --    0.58439   0.58800   0.59243   0.59934   0.60213
 Alpha virt. eigenvalues --    0.60811   0.61133   0.61663   0.62386   0.63167
 Alpha virt. eigenvalues --    0.63856   0.64409   0.65565   0.67480   0.69106
 Alpha virt. eigenvalues --    0.69658   0.70145   0.73694   0.74519   0.75454
 Alpha virt. eigenvalues --    0.75938   0.77597   0.78463   0.79499   0.80573
 Alpha virt. eigenvalues --    0.81141   0.81699   0.82219   0.82736   0.82844
 Alpha virt. eigenvalues --    0.83676   0.84072   0.84236   0.86286   0.86855
 Alpha virt. eigenvalues --    0.87423   0.88739   0.89324   0.89563   0.90454
 Alpha virt. eigenvalues --    0.91126   0.92005   0.92301   0.93036   0.94599
 Alpha virt. eigenvalues --    0.97022   0.98101   0.98284   0.99654   1.01359
 Alpha virt. eigenvalues --    1.03022   1.03752   1.06304   1.07203   1.09346
 Alpha virt. eigenvalues --    1.09978   1.10472   1.12723   1.14034   1.14875
 Alpha virt. eigenvalues --    1.15749   1.16088   1.17254   1.17839   1.19245
 Alpha virt. eigenvalues --    1.21789   1.22951   1.23816   1.24253   1.24942
 Alpha virt. eigenvalues --    1.28389   1.28833   1.31104   1.32043   1.35293
 Alpha virt. eigenvalues --    1.35965   1.36471   1.40213   1.40770   1.41378
 Alpha virt. eigenvalues --    1.41981   1.42028   1.43685   1.44535   1.45438
 Alpha virt. eigenvalues --    1.46470   1.46877   1.47849   1.47954   1.48620
 Alpha virt. eigenvalues --    1.49743   1.51757   1.53944   1.55157   1.56296
 Alpha virt. eigenvalues --    1.60763   1.65488   1.69568   1.73184   1.75148
 Alpha virt. eigenvalues --    1.76197   1.77314   1.78685   1.79023   1.80773
 Alpha virt. eigenvalues --    1.81386   1.82475   1.84258   1.85265   1.86132
 Alpha virt. eigenvalues --    1.87156   1.88546   1.89213   1.90482   1.92021
 Alpha virt. eigenvalues --    1.94108   1.95186   1.96056   1.96511   1.96920
 Alpha virt. eigenvalues --    1.98787   2.01667   2.02703   2.04190   2.06031
 Alpha virt. eigenvalues --    2.07908   2.09985   2.10872   2.11726   2.12106
 Alpha virt. eigenvalues --    2.12548   2.12950   2.13107   2.13267   2.14112
 Alpha virt. eigenvalues --    2.14650   2.17157   2.18816   2.20489   2.22449
 Alpha virt. eigenvalues --    2.24915   2.26856   2.27550   2.28331   2.28745
 Alpha virt. eigenvalues --    2.29657   2.30240   2.31663   2.32566   2.33651
 Alpha virt. eigenvalues --    2.43528   2.50672   2.52188   2.52883   2.54247
 Alpha virt. eigenvalues --    2.56381   2.56883   2.57744   2.59436   2.62022
 Alpha virt. eigenvalues --    2.62185   2.64482   2.65817   2.66520   2.69064
 Alpha virt. eigenvalues --    2.69249   2.71801   2.72326   2.73527   2.74096
 Alpha virt. eigenvalues --    2.74497   2.76773   2.77140   2.81262   2.85627
 Alpha virt. eigenvalues --    2.90188   2.90735   3.00815   3.01253   3.05330
 Alpha virt. eigenvalues --    3.13731   3.27054   3.36012   3.42451   3.78009
 Alpha virt. eigenvalues --    3.79026   3.96562   4.03669   4.05740   4.07024
 Alpha virt. eigenvalues --    4.08027   4.08978   4.09736   4.10508   4.13960
 Alpha virt. eigenvalues --    4.17110   4.24218   4.30342   4.31163   4.33899
 Alpha virt. eigenvalues --    4.38049   4.39917   4.55052   4.64396   4.73914
          Condensed to atoms (all electrons):
               1          2          3          4          5          6
     1  O    8.213014   0.451986  -0.053896   0.001489  -0.000012   0.000000
     2  S    0.451986  13.722405   0.113830  -0.014456  -0.003496   0.000144
     3  N   -0.053896   0.113830   7.419285   0.229866  -0.078746   0.005638
     4  C    0.001489  -0.014456   0.229866   4.546427   0.423608  -0.040571
     5  N   -0.000012  -0.003496  -0.078746   0.423608   6.876516   0.135183
     6  O    0.000000   0.000144   0.005638  -0.040571   0.135183   8.171529
     7  C    0.000000   0.000145  -0.000893  -0.019711  -0.081828   0.249584
     8  C    0.000000  -0.000023  -0.000192   0.003996   0.004760  -0.037711
     9  C    0.000000  -0.000001   0.000002   0.000595  -0.000107   0.003166
    10  C    0.000000   0.000000   0.000000  -0.000007   0.000001  -0.000060
    11  C    0.000000   0.000000   0.000000   0.000000   0.000000   0.000001
    12  C    0.000000   0.000000   0.000000   0.000005   0.000001   0.000308
    13  C    0.000000   0.000000  -0.000001  -0.000384   0.000169  -0.006494
    14  C   -0.000029  -0.000434  -0.055476   0.438717  -0.048461  -0.091462
    15  C   -0.059184   0.171174  -0.061583   0.001539  -0.000010   0.000002
    16  C    0.003044  -0.020727  -0.001711   0.000153   0.000027   0.000000
    17  C    0.000447   0.002916  -0.000104  -0.000019   0.000001   0.000000
    18  C   -0.000005  -0.000273   0.000004   0.000001   0.000000   0.000000
    19  C   -0.000040   0.002580  -0.000110   0.000039   0.000003   0.000000
    20  C    0.001207  -0.023621  -0.002142   0.001025   0.000041  -0.000008
    21  O   -0.041677   0.406493  -0.049761  -0.003368   0.000102   0.000000
    22  H    0.001135  -0.003508   0.286816  -0.027654   0.004773  -0.000209
    23  H    0.000000  -0.000005   0.000000   0.000067  -0.000004   0.000028
    24  H    0.000000   0.000000   0.000000   0.000000   0.000000   0.000000
    25  H    0.000000   0.000000   0.000000   0.000000   0.000000   0.000000
    26  H    0.000000   0.000000   0.000000   0.000000   0.000000  -0.000002
    27  H    0.000000   0.000000   0.000000   0.000061  -0.000238   0.009850
    28  H    0.000014   0.000891  -0.001418  -0.025245   0.004899   0.003167
    29  H    0.007431  -0.000701   0.000045   0.000000   0.000002   0.000000
    30  H    0.000001  -0.000051   0.000002   0.000000   0.000000   0.000000
    31  H    0.000000   0.000007   0.000000   0.000000   0.000000   0.000000
    32  H    0.000000  -0.000051   0.000001   0.000000   0.000000   0.000000
    33  H    0.000064  -0.004053   0.000101   0.000029   0.000006  -0.000002
               7          8          9         10         11         12
     1  O    0.000000   0.000000   0.000000   0.000000   0.000000   0.000000
     2  S    0.000145  -0.000023  -0.000001   0.000000   0.000000   0.000000
     3  N   -0.000893  -0.000192   0.000002   0.000000   0.000000   0.000000
     4  C   -0.019711   0.003996   0.000595  -0.000007   0.000000   0.000005
     5  N   -0.081828   0.004760  -0.000107   0.000001   0.000000   0.000001
     6  O    0.249584  -0.037711   0.003166  -0.000060   0.000001   0.000308
     7  C    4.773387   0.338658  -0.041815   0.006361   0.000930   0.004702
     8  C    0.338658   4.772826   0.536637  -0.008134  -0.033622  -0.008128
     9  C   -0.041815   0.536637   5.006946   0.520870  -0.038291  -0.041492
    10  C    0.006361  -0.008134   0.520870   4.862943   0.545016  -0.023816
    11  C    0.000930  -0.033622  -0.038291   0.545016   4.853322   0.543794
    12  C    0.004702  -0.008128  -0.041492  -0.023816   0.543794   4.875034
    13  C   -0.039368   0.478389  -0.083844  -0.042234  -0.036151   0.505203
    14  C    0.483559  -0.060300  -0.021477   0.000250   0.000013  -0.000237
    15  C   -0.000164   0.000000   0.000000   0.000000   0.000000   0.000000
    16  C    0.000001   0.000000   0.000000   0.000000   0.000000   0.000000
    17  C    0.000000   0.000000   0.000000   0.000000   0.000000   0.000000
    18  C    0.000000   0.000000   0.000000   0.000000   0.000000   0.000000
    19  C   -0.000003   0.000000   0.000000   0.000000   0.000000   0.000000
    20  C   -0.000045   0.000001   0.000000   0.000000   0.000000   0.000000
    21  O    0.000556  -0.000003   0.000002   0.000000   0.000000   0.000000
    22  H    0.000276   0.000001   0.000000   0.000000   0.000000   0.000000
    23  H   -0.013371  -0.037134   0.352705  -0.044079   0.004620   0.000218
    24  H   -0.000211   0.003282  -0.038526   0.359181  -0.041932   0.004481
    25  H    0.000003   0.000536   0.004915  -0.042862   0.360922  -0.042694
    26  H   -0.000184   0.003165   0.000871   0.004493  -0.042277   0.359842
    27  H   -0.013336  -0.038190   0.005472   0.000269   0.004444  -0.043093
    28  H   -0.032325  -0.002686   0.000781   0.000076   0.000000   0.000000
    29  H    0.000000   0.000000   0.000000   0.000000   0.000000   0.000000
    30  H    0.000000   0.000000   0.000000   0.000000   0.000000   0.000000
    31  H    0.000000   0.000000   0.000000   0.000000   0.000000   0.000000
    32  H    0.000000   0.000000   0.000000   0.000000   0.000000   0.000000
    33  H    0.000039   0.000000  -0.000001   0.000000   0.000000   0.000000
              13         14         15         16         17         18
     1  O    0.000000  -0.000029  -0.059184   0.003044   0.000447  -0.000005
     2  S    0.000000  -0.000434   0.171174  -0.020727   0.002916  -0.000273
     3  N   -0.000001  -0.055476  -0.061583  -0.001711  -0.000104   0.000004
     4  C   -0.000384   0.438717   0.001539   0.000153  -0.000019   0.000001
     5  N    0.000169  -0.048461  -0.000010   0.000027   0.000001   0.000000
     6  O   -0.006494  -0.091462   0.000002   0.000000   0.000000   0.000000
     7  C   -0.039368   0.483559  -0.000164   0.000001   0.000000   0.000000
     8  C    0.478389  -0.060300   0.000000   0.000000   0.000000   0.000000
     9  C   -0.083844  -0.021477   0.000000   0.000000   0.000000   0.000000
    10  C   -0.042234   0.000250   0.000000   0.000000   0.000000   0.000000
    11  C   -0.036151   0.000013   0.000000   0.000000   0.000000   0.000000
    12  C    0.505203  -0.000237   0.000000   0.000000   0.000000   0.000000
    13  C    5.044040   0.011952   0.000000   0.000000   0.000000   0.000000
    14  C    0.011952   5.258912  -0.000809   0.000006   0.000001   0.000001
    15  C    0.000000  -0.000809   5.344423   0.476314  -0.027286  -0.038153
    16  C    0.000000   0.000006   0.476314   4.944521   0.510876  -0.029885
    17  C    0.000000   0.000001  -0.027286   0.510876   4.872559   0.543174
    18  C    0.000000   0.000001  -0.038153  -0.029885   0.543174   4.839159
    19  C    0.000000  -0.000013  -0.028849  -0.037092  -0.029118   0.545039
    20  C    0.000000   0.000461   0.500219  -0.037711  -0.037449  -0.030368
    21  O    0.000000  -0.000049  -0.055667   0.001834  -0.000043  -0.000005
    22  H    0.000000   0.005030  -0.000025   0.000417   0.000030   0.000000
    23  H    0.005948   0.006831   0.000000   0.000000   0.000000   0.000000
    24  H    0.000868  -0.000001   0.000000   0.000000   0.000000   0.000000
    25  H    0.004749   0.000000   0.000000   0.000000   0.000000   0.000000
    26  H   -0.038102   0.000001   0.000000   0.000000   0.000000   0.000000
    27  H    0.359914   0.000213   0.000000   0.000000   0.000000   0.000000
    28  H   -0.000078   0.349546   0.000097  -0.000006   0.000000   0.000000
    29  H    0.000000  -0.000001  -0.048792   0.361724  -0.035737   0.004156
    30  H    0.000000   0.000000   0.004824  -0.041671   0.363402  -0.041346
    31  H    0.000000   0.000000   0.000476   0.004917  -0.042083   0.362163
    32  H    0.000000  -0.000003   0.004774   0.000675   0.004390  -0.041492
    33  H    0.000000   0.001226  -0.043804   0.004820   0.000271   0.004181
              19         20         21         22         23         24
     1  O   -0.000040   0.001207  -0.041677   0.001135   0.000000   0.000000
     2  S    0.002580  -0.023621   0.406493  -0.003508  -0.000005   0.000000
     3  N   -0.000110  -0.002142  -0.049761   0.286816   0.000000   0.000000
     4  C    0.000039   0.001025  -0.003368  -0.027654   0.000067   0.000000
     5  N    0.000003   0.000041   0.000102   0.004773  -0.000004   0.000000
     6  O    0.000000  -0.000008   0.000000  -0.000209   0.000028   0.000000
     7  C   -0.000003  -0.000045   0.000556   0.000276  -0.013371  -0.000211
     8  C    0.000000   0.000001  -0.000003   0.000001  -0.037134   0.003282
     9  C    0.000000   0.000000   0.000002   0.000000   0.352705  -0.038526
    10  C    0.000000   0.000000   0.000000   0.000000  -0.044079   0.359181
    11  C    0.000000   0.000000   0.000000   0.000000   0.004620  -0.041932
    12  C    0.000000   0.000000   0.000000   0.000000   0.000218   0.004481
    13  C    0.000000   0.000000   0.000000   0.000000   0.005948   0.000868
    14  C   -0.000013   0.000461  -0.000049   0.005030   0.006831  -0.000001
    15  C   -0.028849   0.500219  -0.055667  -0.000025   0.000000   0.000000
    16  C   -0.037092  -0.037711   0.001834   0.000417   0.000000   0.000000
    17  C   -0.029118  -0.037449  -0.000043   0.000030   0.000000   0.000000
    18  C    0.545039  -0.030368  -0.000005   0.000000   0.000000   0.000000
    19  C    4.877945   0.505195   0.000552  -0.000001   0.000000   0.000000
    20  C    0.505195   4.926499   0.003083   0.000039  -0.000001   0.000000
    21  O    0.000552   0.003083   8.261867   0.001558  -0.000012   0.000000
    22  H   -0.000001   0.000039   0.001558   0.362170   0.000000   0.000000
    23  H    0.000000  -0.000001  -0.000012   0.000000   0.584181  -0.005171
    24  H    0.000000   0.000000   0.000000   0.000000  -0.005171   0.584170
    25  H    0.000000   0.000000   0.000000   0.000000  -0.000169  -0.005412
    26  H    0.000000   0.000000   0.000000   0.000000   0.000016  -0.000176
    27  H    0.000000   0.000000   0.000000   0.000000  -0.000148   0.000016
    28  H    0.000005  -0.000215   0.009315  -0.000162   0.002260  -0.000002
    29  H    0.000358   0.004436   0.000081   0.000172   0.000000   0.000000
    30  H    0.004398   0.000671   0.000000   0.000000   0.000000   0.000000
    31  H   -0.042098   0.004857   0.000000   0.000000   0.000000   0.000000
    32  H    0.363551  -0.041721   0.000002   0.000000   0.000000   0.000000
    33  H   -0.036188   0.359256   0.009702  -0.000017   0.000004   0.000000
              25         26         27         28         29         30
     1  O    0.000000   0.000000   0.000000   0.000014   0.007431   0.000001
     2  S    0.000000   0.000000   0.000000   0.000891  -0.000701  -0.000051
     3  N    0.000000   0.000000   0.000000  -0.001418   0.000045   0.000002
     4  C    0.000000   0.000000   0.000061  -0.025245   0.000000   0.000000
     5  N    0.000000   0.000000  -0.000238   0.004899   0.000002   0.000000
     6  O    0.000000  -0.000002   0.009850   0.003167   0.000000   0.000000
     7  C    0.000003  -0.000184  -0.013336  -0.032325   0.000000   0.000000
     8  C    0.000536   0.003165  -0.038190  -0.002686   0.000000   0.000000
     9  C    0.004915   0.000871   0.005472   0.000781   0.000000   0.000000
    10  C   -0.042862   0.004493   0.000269   0.000076   0.000000   0.000000
    11  C    0.360922  -0.042277   0.004444   0.000000   0.000000   0.000000
    12  C   -0.042694   0.359842  -0.043093   0.000000   0.000000   0.000000
    13  C    0.004749  -0.038102   0.359914  -0.000078   0.000000   0.000000
    14  C    0.000000   0.000001   0.000213   0.349546  -0.000001   0.000000
    15  C    0.000000   0.000000   0.000000   0.000097  -0.048792   0.004824
    16  C    0.000000   0.000000   0.000000  -0.000006   0.361724  -0.041671
    17  C    0.000000   0.000000   0.000000   0.000000  -0.035737   0.363402
    18  C    0.000000   0.000000   0.000000   0.000000   0.004156  -0.041346
    19  C    0.000000   0.000000   0.000000   0.000005   0.000358   0.004398
    20  C    0.000000   0.000000   0.000000  -0.000215   0.004436   0.000671
    21  O    0.000000   0.000000   0.000000   0.009315   0.000081   0.000000
    22  H    0.000000   0.000000   0.000000  -0.000162   0.000172   0.000000
    23  H   -0.000169   0.000016  -0.000148   0.002260   0.000000   0.000000
    24  H   -0.005412  -0.000176   0.000016  -0.000002   0.000000   0.000000
    25  H    0.587577  -0.005400  -0.000158   0.000000   0.000000   0.000000
    26  H   -0.005400   0.582507  -0.004909   0.000000   0.000000   0.000000
    27  H   -0.000158  -0.004909   0.556588  -0.000007   0.000000   0.000000
    28  H    0.000000   0.000000  -0.000007   0.499399   0.000000   0.000000
    29  H    0.000000   0.000000   0.000000   0.000000   0.534084  -0.005229
    30  H    0.000000   0.000000   0.000000   0.000000  -0.005229   0.569814
    31  H    0.000000   0.000000   0.000000   0.000000  -0.000150  -0.005396
    32  H    0.000000   0.000000   0.000000  -0.000001   0.000015  -0.000168
    33  H    0.000000   0.000000   0.000000   0.000453  -0.000147   0.000014
              31         32         33
     1  O    0.000000   0.000000   0.000064
     2  S    0.000007  -0.000051  -0.004053
     3  N    0.000000   0.000001   0.000101
     4  C    0.000000   0.000000   0.000029
     5  N    0.000000   0.000000   0.000006
     6  O    0.000000   0.000000  -0.000002
     7  C    0.000000   0.000000   0.000039
     8  C    0.000000   0.000000   0.000000
     9  C    0.000000   0.000000  -0.000001
    10  C    0.000000   0.000000   0.000000
    11  C    0.000000   0.000000   0.000000
    12  C    0.000000   0.000000   0.000000
    13  C    0.000000   0.000000   0.000000
    14  C    0.000000  -0.000003   0.001226
    15  C    0.000476   0.004774  -0.043804
    16  C    0.004917   0.000675   0.004820
    17  C   -0.042083   0.004390   0.000271
    18  C    0.362163  -0.041492   0.004181
    19  C   -0.042098   0.363551  -0.036188
    20  C    0.004857  -0.041721   0.359256
    21  O    0.000000   0.000002   0.009702
    22  H    0.000000   0.000000  -0.000017
    23  H    0.000000   0.000000   0.000004
    24  H    0.000000   0.000000   0.000000
    25  H    0.000000   0.000000   0.000000
    26  H    0.000000   0.000000   0.000000
    27  H    0.000000   0.000000   0.000000
    28  H    0.000000  -0.000001   0.000453
    29  H   -0.000150   0.000015  -0.000147
    30  H   -0.005396  -0.000168   0.000014
    31  H    0.574121  -0.005421  -0.000145
    32  H   -0.005421   0.570198  -0.005093
    33  H   -0.000145  -0.005093   0.529372
 Mulliken charges:
               1
     1  O   -0.524988
     2  S    1.198830
     3  N   -0.749557
     4  C    0.483797
     5  N   -0.237189
     6  O   -0.402081
     7  C    0.385052
     8  C    0.083873
     9  C   -0.167409
    10  C   -0.138270
    11  C   -0.120790
    12  C   -0.134129
    13  C   -0.164578
    14  C   -0.277968
    15  C   -0.139516
    16  C   -0.140527
    17  C   -0.126228
    18  C   -0.116352
    19  C   -0.126154
    20  C   -0.133709
    21  O   -0.544563
    22  H    0.369160
    23  H    0.143215
    24  H    0.139434
    25  H    0.137993
    26  H    0.140156
    27  H    0.163253
    28  H    0.191241
    29  H    0.178256
    30  H    0.150736
    31  H    0.148753
    32  H    0.150344
    33  H    0.179913
 Sum of Mulliken charges =   0.00000
 Mulliken charges with hydrogens summed into heavy atoms:
               1
     1  O   -0.524988
     2  S    1.198830
     3  N   -0.380397
     4  C    0.483797
     5  N   -0.237189
     6  O   -0.402081
     7  C    0.385052
     8  C    0.083873
     9  C   -0.024193
    10  C    0.001165
    11  C    0.017203
    12  C    0.006027
    13  C   -0.001325
    14  C   -0.086727
    15  C   -0.139516
    16  C    0.037729
    17  C    0.024508
    18  C    0.032400
    19  C    0.024190
    20  C    0.046204
    21  O   -0.544563
 Electronic spatial extent (au):  <R**2>=           8005.7503
 Charge=              0.0000 electrons
 Dipole moment (field-independent basis, Debye):
    X=             -1.4426    Y=              4.9285    Z=              0.6087  Tot=              5.1712
 Quadrupole moment (field-independent basis, Debye-Ang):
   XX=           -108.9903   YY=           -126.1117   ZZ=           -128.0185
   XY=              9.6299   XZ=             14.0656   YZ=             -3.9990
 Traceless Quadrupole moment (field-independent basis, Debye-Ang):
   XX=             12.0499   YY=             -5.0715   ZZ=             -6.9783
   XY=              9.6299   XZ=             14.0656   YZ=             -3.9990
 Octapole moment (field-independent basis, Debye-Ang**2):
  XXX=            -65.2389  YYY=             24.6839  ZZZ=            -10.4601  XYY=             20.5631
  XXY=             73.3410  XXZ=             40.2256  XZZ=             -9.0039  YZZ=              4.3687
  YYZ=              9.3060  XYZ=             -8.9058
 Hexadecapole moment (field-independent basis, Debye-Ang**3):
 XXXX=          -7515.7319 YYYY=          -1537.9949 ZZZZ=           -967.9226 XXXY=            -44.0627
 XXXZ=            175.7517 YYYX=            121.4609 YYYZ=            -10.1640 ZZZX=             29.0787
 ZZZY=              2.0401 XXYY=          -1659.2485 XXZZ=          -1407.4669 YYZZ=           -429.9465
 XXYZ=              6.9431 YYXZ=             35.9346 ZZXY=            -28.4882
 N-N= 1.720651133270D+03 E-N=-6.511962808813D+03  KE= 1.302067348923D+03
 No NMR shielding tensors so no spin-rotation constants.
 Leave Link  601 at Thu Aug  6 22:01:32 2020, MaxMem=    33554432 cpu:         0.3
 (Enter /prod/apps/gaussian/g09d1/l9999.exe)
 1\1\GINC-PIRINEUS9\SP\RB3LYP\6-31G(d)\C15H12N2O3S1\UBAFAR01\06-Aug-202
 0\0\\#p b3lyp/6-31G(d)\\SM42.n.6.pdb.xyz\\0,1\O,0,3.723,1.235,1.143\S,
 0,3.507,0.316,0.022\N,0,2.901,1.308,-1.208\C,0,2.516,0.799,-2.452\N,0,
 2.782,1.502,-3.538\O,0,2.191,0.778,-4.583\C,0,1.611,-0.344,-4.089\C,0,
 0.95,-1.23,-5.04\C,0,0.331,-2.409,-4.592\C,0,-0.301,-3.255,-5.499\C,0,
 -0.324,-2.936,-6.86\C,0,0.29,-1.765,-7.31\C,0,0.924,-0.915,-6.408\C,0,
 1.781,-0.382,-2.732\C,0,5.085,-0.322,-0.508\C,0,6.226,0.466,-0.336\C,0
 ,7.452,-0.031,-0.771\C,0,7.527,-1.293,-1.366\C,0,6.378,-2.069,-1.527\C
 ,0,5.142,-1.587,-1.097\O,0,2.572,-0.807,0.143\H,0,3.409,2.194,-1.261\H
 ,0,0.346,-2.66,-3.538\H,0,-0.776,-4.163,-5.144\H,0,-0.817,-3.597,-7.56
 4\H,0,0.275,-1.513,-8.365\H,0,1.401,-0.005,-6.754\H,0,1.44,-1.118,-2.0
 25\H,0,6.154,1.437,0.137\H,0,8.348,0.565,-0.641\H,0,8.486,-1.674,-1.70
 2\H,0,6.44,-3.052,-1.981\H,0,4.241,-2.177,-1.2\\Version=AM64L-G09RevD.
 01\State=1-A\HF=-1312.071779\RMSD=2.885e-09\Dipole=1.0282655,-1.146852
 2,-1.3291496\Quadrupole=10.9831698,0.4490907,-11.4322605,4.8513428,8.4
 310506,3.1261165\PG=C01 [X(C15H12N2O3S1)]\\@


 IT IS BY LOGIC THAT WE PROVE, BUT BY INTUITION THAT WE DISCOVER.
     -- J.H.POINCARE (1854-1912)
 Job cpu time:       0 days  0 hours  5 minutes 14.2 seconds.
 File lengths (MBytes):  RWF=     66 Int=      0 D2E=      0 Chk=      5 Scr=      1
 Normal termination of Gaussian 09 at Thu Aug  6 22:01:32 2020.
 Initial command:
 /prod/apps/gaussian/g09d1/l1.exe "/tmp/ubafar01/1448597/Gau-122400.inp" -scrdir="/tmp/ubafar01/1448597/"
 Entering Link 1 = /prod/apps/gaussian/g09d1/l1.exe PID=    123638.
  
 Copyright (c) 1988,1990,1992,1993,1995,1998,2003,2009,2013,
            Gaussian, Inc.  All Rights Reserved.
  
 This is part of the Gaussian(R) 09 program.  It is based on
 the Gaussian(R) 03 system (copyright 2003, Gaussian, Inc.),
 the Gaussian(R) 98 system (copyright 1998, Gaussian, Inc.),
 the Gaussian(R) 94 system (copyright 1995, Gaussian, Inc.),
 the Gaussian 92(TM) system (copyright 1992, Gaussian, Inc.),
 the Gaussian 90(TM) system (copyright 1990, Gaussian, Inc.),
 the Gaussian 88(TM) system (copyright 1988, Gaussian, Inc.),
 the Gaussian 86(TM) system (copyright 1986, Carnegie Mellon
 University), and the Gaussian 82(TM) system (copyright 1983,
 Carnegie Mellon University). Gaussian is a federally registered
 trademark of Gaussian, Inc.
  
 This software contains proprietary and confidential information,
 including trade secrets, belonging to Gaussian, Inc.
  
 This software is provided under written license and may be
 used, copied, transmitted, or stored only in accord with that
 written license.
  
 The following legend is applicable only to US Government
 contracts under FAR:
  
                    RESTRICTED RIGHTS LEGEND
  
 Use, reproduction and disclosure by the US Government is
 subject to restrictions as set forth in subparagraphs (a)
 and (c) of the Commercial Computer Software - Restricted
 Rights clause in FAR 52.227-19.
  
 Gaussian, Inc.
 340 Quinnipiac St., Bldg. 40, Wallingford CT 06492
  
  
 ---------------------------------------------------------------
 Warning -- This program may not be used in any manner that
 competes with the business of Gaussian, Inc. or will provide
 assistance to any competitor of Gaussian, Inc.  The licensee
 of this program is prohibited from giving any competitor of
 Gaussian, Inc. access to this program.  By using this program,
 the user acknowledges that Gaussian, Inc. is engaged in the
 business of creating and licensing software in the field of
 computational chemistry and represents and warrants to the
 licensee that it is not a competitor of Gaussian, Inc. and that
 it will not use this program in any manner prohibited above.
 ---------------------------------------------------------------
  

 Cite this work as:
 Gaussian 09, Revision D.01,
 M. J. Frisch, G. W. Trucks, H. B. Schlegel, G. E. Scuseria, 
 M. A. Robb, J. R. Cheeseman, G. Scalmani, V. Barone, B. Mennucci, 
 G. A. Petersson, H. Nakatsuji, M. Caricato, X. Li, H. P. Hratchian, 
 A. F. Izmaylov, J. Bloino, G. Zheng, J. L. Sonnenberg, M. Hada, 
 M. Ehara, K. Toyota, R. Fukuda, J. Hasegawa, M. Ishida, T. Nakajima, 
 Y. Honda, O. Kitao, H. Nakai, T. Vreven, J. A. Montgomery, Jr., 
 J. E. Peralta, F. Ogliaro, M. Bearpark, J. J. Heyd, E. Brothers, 
 K. N. Kudin, V. N. Staroverov, T. Keith, R. Kobayashi, J. Normand, 
 K. Raghavachari, A. Rendell, J. C. Burant, S. S. Iyengar, J. Tomasi, 
 M. Cossi, N. Rega, J. M. Millam, M. Klene, J. E. Knox, J. B. Cross, 
 V. Bakken, C. Adamo, J. Jaramillo, R. Gomperts, R. E. Stratmann, 
 O. Yazyev, A. J. Austin, R. Cammi, C. Pomelli, J. W. Ochterski, 
 R. L. Martin, K. Morokuma, V. G. Zakrzewski, G. A. Voth, 
 P. Salvador, J. J. Dannenberg, S. Dapprich, A. D. Daniels, 
 O. Farkas, J. B. Foresman, J. V. Ortiz, J. Cioslowski, 
 and D. J. Fox, Gaussian, Inc., Wallingford CT, 2013.
 
 ******************************************
 Gaussian 09:  AM64L-G09RevD.01 24-Apr-2013
                 6-Aug-2020 
 ******************************************
 %nproc=1
 Will use up to    1 processors via shared memory.
 %Chk=SM42.n.6.pdb.xyz.mst.n.w.chk
 %subst l502 /dades/curu/work_g09D01_MST_AddSphPartition_ReadGammas/exe-dir/
 ----------------------------------------------------------------------
 #p b3lyp/6-31G(d) scrf=(iefpcm,read,solvent=Water) geom=allcheck guess
 =read
 ----------------------------------------------------------------------
 1/29=7,38=1,40=2/1;
 2/12=2,40=1/2;
 3/5=1,6=6,7=1,11=2,14=-4,16=1,25=1,30=1,70=2203,72=1,74=-5,116=-2/1,2,3;
 4/5=1/1;
 5/5=2,38=6,53=1/2;
 6/7=2,8=2,9=2,10=2,28=1/1;
 99/5=1,9=1/99;
 Leave Link    1 at Thu Aug  6 22:01:32 2020, MaxMem=           0 cpu:         0.0
 (Enter /prod/apps/gaussian/g09d1/l101.exe)
 Structure from the checkpoint file:  "SM42.n.6.pdb.xyz.mst.n.w.chk"
 ----------------
 SM42.n.6.pdb.xyz
 ----------------
 Charge =  0 Multiplicity = 1
 Z-Matrix found in file.
 O,0,3.723,1.235,1.143
 S,0,3.507,0.316,0.022
 N,0,2.901,1.308,-1.208
 C,0,2.516,0.799,-2.452
 N,0,2.782,1.502,-3.538
 O,0,2.191,0.778,-4.583
 C,0,1.611,-0.344,-4.089
 C,0,0.95,-1.23,-5.04
 C,0,0.331,-2.409,-4.592
 C,0,-0.301,-3.255,-5.499
 C,0,-0.324,-2.936,-6.86
 C,0,0.29,-1.765,-7.31
 C,0,0.924,-0.915,-6.408
 C,0,1.781,-0.382,-2.732
 C,0,5.085,-0.322,-0.508
 C,0,6.226,0.466,-0.336
 C,0,7.452,-0.031,-0.771
 C,0,7.527,-1.293,-1.366
 C,0,6.378,-2.069,-1.527
 C,0,5.142,-1.587,-1.097
 O,0,2.572,-0.807,0.143
 H,0,3.409,2.194,-1.261
 H,0,0.346,-2.66,-3.538
 H,0,-0.776,-4.163,-5.144
 H,0,-0.817,-3.597,-7.564
 H,0,0.275,-1.513,-8.365
 H,0,1.401,-0.005,-6.754
 H,0,1.44,-1.118,-2.025
 H,0,6.154,1.437,0.137
 H,0,8.348,0.565,-0.641
 H,0,8.486,-1.674,-1.702
 H,0,6.44,-3.052,-1.981
 H,0,4.241,-2.177,-1.2
 Recover connectivity data from disk.
 NAtoms=     33 NQM=       33 NQMF=       0 NMMI=      0 NMMIF=      0
                NMic=       0 NMicF=      0.
                    Isotopes and Nuclear Properties:
 (Nuclear quadrupole moments (NQMom) in fm**2, nuclear magnetic moments (NMagM)
  in nuclear magnetons)

  Atom         1           2           3           4           5           6           7           8           9          10
 IAtWgt=          16          32          14          12          14          16          12          12          12          12
 AtmWgt=  15.9949146  31.9720718  14.0030740  12.0000000  14.0030740  15.9949146  12.0000000  12.0000000  12.0000000  12.0000000
 NucSpn=           0           0           2           0           2           0           0           0           0           0
 AtZEff=  -5.6000000 -13.6000000  -4.5500000  -3.6000000  -4.5500000  -5.6000000  -3.6000000  -3.6000000  -3.6000000  -3.6000000
 NQMom=    0.0000000   0.0000000   2.0440000   0.0000000   2.0440000   0.0000000   0.0000000   0.0000000   0.0000000   0.0000000
 NMagM=    0.0000000   0.0000000   0.4037610   0.0000000   0.4037610   0.0000000   0.0000000   0.0000000   0.0000000   0.0000000
 AtZNuc=   8.0000000  16.0000000   7.0000000   6.0000000   7.0000000   8.0000000   6.0000000   6.0000000   6.0000000   6.0000000

  Atom        11          12          13          14          15          16          17          18          19          20
 IAtWgt=          12          12          12          12          12          12          12          12          12          12
 AtmWgt=  12.0000000  12.0000000  12.0000000  12.0000000  12.0000000  12.0000000  12.0000000  12.0000000  12.0000000  12.0000000
 NucSpn=           0           0           0           0           0           0           0           0           0           0
 AtZEff=  -3.6000000  -3.6000000  -3.6000000  -3.6000000  -3.6000000  -3.6000000  -3.6000000  -3.6000000  -3.6000000  -3.6000000
 NQMom=    0.0000000   0.0000000   0.0000000   0.0000000   0.0000000   0.0000000   0.0000000   0.0000000   0.0000000   0.0000000
 NMagM=    0.0000000   0.0000000   0.0000000   0.0000000   0.0000000   0.0000000   0.0000000   0.0000000   0.0000000   0.0000000
 AtZNuc=   6.0000000   6.0000000   6.0000000   6.0000000   6.0000000   6.0000000   6.0000000   6.0000000   6.0000000   6.0000000

  Atom        21          22          23          24          25          26          27          28          29          30
 IAtWgt=          16           1           1           1           1           1           1           1           1           1
 AtmWgt=  15.9949146   1.0078250   1.0078250   1.0078250   1.0078250   1.0078250   1.0078250   1.0078250   1.0078250   1.0078250
 NucSpn=           0           1           1           1           1           1           1           1           1           1
 AtZEff=  -5.6000000  -1.0000000  -1.0000000  -1.0000000  -1.0000000  -1.0000000  -1.0000000  -1.0000000  -1.0000000  -1.0000000
 NQMom=    0.0000000   0.0000000   0.0000000   0.0000000   0.0000000   0.0000000   0.0000000   0.0000000   0.0000000   0.0000000
 NMagM=    0.0000000   2.7928460   2.7928460   2.7928460   2.7928460   2.7928460   2.7928460   2.7928460   2.7928460   2.7928460
 AtZNuc=   8.0000000   1.0000000   1.0000000   1.0000000   1.0000000   1.0000000   1.0000000   1.0000000   1.0000000   1.0000000

  Atom        31          32          33
 IAtWgt=           1           1           1
 AtmWgt=   1.0078250   1.0078250   1.0078250
 NucSpn=           1           1           1
 AtZEff=  -1.0000000  -1.0000000  -1.0000000
 NQMom=    0.0000000   0.0000000   0.0000000
 NMagM=    2.7928460   2.7928460   2.7928460
 AtZNuc=   1.0000000   1.0000000   1.0000000
 Leave Link  101 at Thu Aug  6 22:01:32 2020, MaxMem=    33554432 cpu:         0.1
 (Enter /prod/apps/gaussian/g09d1/l202.exe)
                          Input orientation:                          
 ---------------------------------------------------------------------
 Center     Atomic      Atomic             Coordinates (Angstroms)
 Number     Number       Type             X           Y           Z
 ---------------------------------------------------------------------
      1          8           0        3.723000    1.235000    1.143000
      2         16           0        3.507000    0.316000    0.022000
      3          7           0        2.901000    1.308000   -1.208000
      4          6           0        2.516000    0.799000   -2.452000
      5          7           0        2.782000    1.502000   -3.538000
      6          8           0        2.191000    0.778000   -4.583000
      7          6           0        1.611000   -0.344000   -4.089000
      8          6           0        0.950000   -1.230000   -5.040000
      9          6           0        0.331000   -2.409000   -4.592000
     10          6           0       -0.301000   -3.255000   -5.499000
     11          6           0       -0.324000   -2.936000   -6.860000
     12          6           0        0.290000   -1.765000   -7.310000
     13          6           0        0.924000   -0.915000   -6.408000
     14          6           0        1.781000   -0.382000   -2.732000
     15          6           0        5.085000   -0.322000   -0.508000
     16          6           0        6.226000    0.466000   -0.336000
     17          6           0        7.452000   -0.031000   -0.771000
     18          6           0        7.527000   -1.293000   -1.366000
     19          6           0        6.378000   -2.069000   -1.527000
     20          6           0        5.142000   -1.587000   -1.097000
     21          8           0        2.572000   -0.807000    0.143000
     22          1           0        3.409000    2.194000   -1.261000
     23          1           0        0.346000   -2.660000   -3.538000
     24          1           0       -0.776000   -4.163000   -5.144000
     25          1           0       -0.817000   -3.597000   -7.564000
     26          1           0        0.275000   -1.513000   -8.365000
     27          1           0        1.401000   -0.005000   -6.754000
     28          1           0        1.440000   -1.118000   -2.025000
     29          1           0        6.154000    1.437000    0.137000
     30          1           0        8.348000    0.565000   -0.641000
     31          1           0        8.486000   -1.674000   -1.702000
     32          1           0        6.440000   -3.052000   -1.981000
     33          1           0        4.241000   -2.177000   -1.200000
 ---------------------------------------------------------------------
                    Distance matrix (angstroms):
                    1          2          3          4          5
     1  O    0.000000
     2  S    1.465557   0.000000
     3  N    2.491629   1.692395   0.000000
     4  C    3.817194   2.708514   1.398157   0.000000
     5  N    4.782105   3.821756   2.341089   1.320743   0.000000
     6  O    5.944994   4.811582   3.489359   2.155743   1.401956
     7  C    5.858977   4.575012   3.562775   2.192086   2.254453
     8  C    7.210773   5.878113   4.993202   3.642381   3.616082
     9  C    7.594381   6.229093   5.645569   4.432278   4.734368
    10  C    8.970443   7.598312   7.034661   5.801260   5.998288
    11  C    9.890574   8.521384   7.768994   6.437879   6.354429
    12  C    9.604098   8.272719   7.314031   5.927001   5.577754
    13  C    8.335137   7.037908   5.990848   4.595889   4.186998
    14  C    4.626195   3.324274   2.536351   1.418938   2.280590
    15  C    2.646714   1.782702   2.813673   3.411090   4.220389
    16  C    3.007293   2.746566   3.539064   4.283975   4.815313
    17  C    4.378538   4.038847   4.763978   5.280034   5.640503
    18  C    5.211169   4.547068   5.309429   5.537687   5.919851
    19  C    5.009425   4.041073   4.857512   4.898581   5.452282
    20  C    3.872318   2.747143   3.662708   3.798012   4.590207
    21  O    2.548444   1.466286   2.531139   3.052277   4.350327
    22  H    2.607200   2.276527   1.022677   2.040087   2.461041
    23  H    6.963255   5.614454   5.263264   4.225278   4.822483
    24  H    9.428986   8.068029   7.677517   6.534950   6.879740
    25  H   10.944025   9.568487   8.847671   7.521054   7.427064
    26  H   10.480566   9.172395   8.128749   6.732830   6.218939
    27  H    8.324175   7.102989   5.893393   4.516287   3.810625
    28  H    4.559048   3.243309   2.947454   2.239418   3.309763
    29  H    2.638674   2.876886   3.522453   4.510544   4.988009
    30  H    5.002218   4.892530   5.526604   6.111195   6.344362
    31  H    6.264381   5.632292   6.350479   6.505315   6.781850
    32  H    5.959852   4.894683   5.668479   5.518135   6.045174
    33  H    4.171297   2.871775   3.733750   3.660561   4.596734
                    6          7          8          9         10
     6  O    0.000000
     7  C    1.356215   0.000000
     8  C    2.404370   1.458190   0.000000
     9  C    3.690075   2.481055   1.404958   0.000000
    10  C    4.828479   3.757361   2.424110   1.392045   0.000000
    11  C    5.030283   4.259241   2.801056   2.418797   1.398074
    12  C    4.185353   3.760203   2.423783   2.793553   2.418492
    13  C    2.793235   2.485110   1.404039   2.425189   2.793297
    14  C    2.222589   1.368135   2.595482   3.109796   4.499460
[...]
 Alpha virt. eigenvalues --    2.43175   2.50167   2.52310   2.53119   2.54021
 Alpha virt. eigenvalues --    2.56447   2.57081   2.57940   2.59192   2.61712
 Alpha virt. eigenvalues --    2.62885   2.64938   2.65920   2.66551   2.69091
 Alpha virt. eigenvalues --    2.69775   2.71495   2.72450   2.73790   2.74403
 Alpha virt. eigenvalues --    2.74922   2.76509   2.77136   2.80492   2.84562
 Alpha virt. eigenvalues --    2.89977   2.90378   3.00867   3.01536   3.04682
 Alpha virt. eigenvalues --    3.13460   3.26743   3.36741   3.42673   3.76813
 Alpha virt. eigenvalues --    3.77991   3.95228   4.02628   4.05856   4.07426
 Alpha virt. eigenvalues --    4.08305   4.09068   4.10272   4.10765   4.13853
 Alpha virt. eigenvalues --    4.17012   4.23960   4.31089   4.31394   4.34404
 Alpha virt. eigenvalues --    4.37611   4.39699   4.54824   4.65071   4.73947
          Condensed to atoms (all electrons):
               1          2          3          4          5          6
     1  O    8.250677   0.451428  -0.054001   0.001391  -0.000013   0.000000
     2  S    0.451428  13.684241   0.134920  -0.013899  -0.003383   0.000132
     3  N   -0.054001   0.134920   7.413069   0.235225  -0.074595   0.005462
     4  C    0.001391  -0.013899   0.235225   4.503700   0.437487  -0.048400
     5  N   -0.000013  -0.003383  -0.074595   0.437487   6.914902   0.129913
     6  O    0.000000   0.000132   0.005462  -0.048400   0.129913   8.192071
     7  C   -0.000001   0.000069  -0.001008  -0.014792  -0.086201   0.249189
     8  C    0.000000  -0.000024  -0.000194   0.003200   0.004717  -0.037180
     9  C    0.000000  -0.000001   0.000002   0.000606  -0.000109   0.003133
    10  C    0.000000   0.000000   0.000000  -0.000007   0.000002  -0.000061
    11  C    0.000000   0.000000   0.000000   0.000000   0.000000   0.000002
    12  C    0.000000   0.000000   0.000000   0.000005   0.000001   0.000286
    13  C    0.000000   0.000000   0.000000  -0.000369   0.000177  -0.006998
    14  C   -0.000033  -0.001048  -0.054154   0.454106  -0.051113  -0.087270
    15  C   -0.060593   0.192711  -0.064425   0.001040   0.000035   0.000002
    16  C    0.003112  -0.022767  -0.001443   0.000109   0.000028   0.000000
    17  C    0.000422   0.002791  -0.000091  -0.000017   0.000001   0.000000
    18  C   -0.000005  -0.000299   0.000005   0.000002   0.000000   0.000000
    19  C   -0.000040   0.002447  -0.000103   0.000032   0.000003   0.000000
    20  C    0.001098  -0.025310  -0.002145   0.001011   0.000030  -0.000007
    21  O   -0.040468   0.409629  -0.051163  -0.003001   0.000101   0.000000
    22  H    0.000679  -0.003511   0.287355  -0.022526   0.003520  -0.000182
    23  H    0.000000  -0.000004   0.000000   0.000083  -0.000006   0.000027
    24  H    0.000000   0.000000   0.000000   0.000000   0.000000   0.000000
    25  H    0.000000   0.000000   0.000000   0.000000   0.000000   0.000000
    26  H    0.000000   0.000000   0.000000   0.000000   0.000000  -0.000003
    27  H    0.000000   0.000000   0.000000   0.000053  -0.000235   0.009795
    28  H    0.000013   0.000967  -0.001402  -0.027565   0.005064   0.003182
    29  H    0.006830  -0.001474   0.000022   0.000004   0.000002   0.000000
    30  H    0.000001  -0.000058   0.000001   0.000000   0.000000   0.000000
    31  H    0.000000   0.000007   0.000000   0.000000   0.000000   0.000000
    32  H    0.000000  -0.000057   0.000001   0.000000   0.000000   0.000000
    33  H    0.000055  -0.004199   0.000074   0.000011   0.000005  -0.000002
               7          8          9         10         11         12
     1  O   -0.000001   0.000000   0.000000   0.000000   0.000000   0.000000
     2  S    0.000069  -0.000024  -0.000001   0.000000   0.000000   0.000000
     3  N   -0.001008  -0.000194   0.000002   0.000000   0.000000   0.000000
     4  C   -0.014792   0.003200   0.000606  -0.000007   0.000000   0.000005
     5  N   -0.086201   0.004717  -0.000109   0.000002   0.000000   0.000001
     6  O    0.249189  -0.037180   0.003133  -0.000061   0.000002   0.000286
     7  C    4.749147   0.344223  -0.042178   0.006327   0.000851   0.004669
     8  C    0.344223   4.787647   0.534771  -0.010902  -0.033798  -0.009635
     9  C   -0.042178   0.534771   5.016133   0.518510  -0.040076  -0.041375
    10  C    0.006327  -0.010902   0.518510   4.882593   0.539685  -0.026034
    11  C    0.000851  -0.033798  -0.040076   0.539685   4.874133   0.538870
    12  C    0.004669  -0.009635  -0.041375  -0.026034   0.538870   4.890547
    13  C   -0.040761   0.472653  -0.081677  -0.042093  -0.038107   0.506336
    14  C    0.492418  -0.058245  -0.020473   0.000237   0.000015  -0.000234
    15  C   -0.000162   0.000000   0.000000   0.000000   0.000000   0.000000
    16  C    0.000001   0.000000   0.000000   0.000000   0.000000   0.000000
    17  C    0.000000   0.000000   0.000000   0.000000   0.000000   0.000000
    18  C    0.000000   0.000000   0.000000   0.000000   0.000000   0.000000
    19  C   -0.000002   0.000000   0.000000   0.000000   0.000000   0.000000
    20  C   -0.000051   0.000001  -0.000001   0.000000   0.000000   0.000000
    21  O    0.000518  -0.000003   0.000002   0.000000   0.000000   0.000000
    22  H    0.000259   0.000001   0.000000   0.000000   0.000000   0.000000
    23  H   -0.012479  -0.037423   0.357217  -0.040978   0.004484   0.000167
    24  H   -0.000201   0.003215  -0.037230   0.363105  -0.040556   0.004363
    25  H    0.000003   0.000481   0.004810  -0.041466   0.364668  -0.041318
    26  H   -0.000172   0.003221   0.000767   0.004387  -0.040726   0.363592
    27  H   -0.012942  -0.042716   0.005307   0.000198   0.004530  -0.040633
    28  H   -0.029316  -0.003072   0.001007   0.000078  -0.000001   0.000001
    29  H    0.000000   0.000000   0.000000   0.000000   0.000000   0.000000
    30  H    0.000000   0.000000   0.000000   0.000000   0.000000   0.000000
    31  H    0.000000   0.000000   0.000000   0.000000   0.000000   0.000000
    32  H    0.000000   0.000000   0.000000   0.000000   0.000000   0.000000
    33  H    0.000030  -0.000001  -0.000001   0.000000   0.000000   0.000000
              13         14         15         16         17         18
     1  O    0.000000  -0.000033  -0.060593   0.003112   0.000422  -0.000005
     2  S    0.000000  -0.001048   0.192711  -0.022767   0.002791  -0.000299
     3  N    0.000000  -0.054154  -0.064425  -0.001443  -0.000091   0.000005
     4  C   -0.000369   0.454106   0.001040   0.000109  -0.000017   0.000002
     5  N    0.000177  -0.051113   0.000035   0.000028   0.000001   0.000000
     6  O   -0.006998  -0.087270   0.000002   0.000000   0.000000   0.000000
     7  C   -0.040761   0.492418  -0.000162   0.000001   0.000000   0.000000
     8  C    0.472653  -0.058245   0.000000   0.000000   0.000000   0.000000
     9  C   -0.081677  -0.020473   0.000000   0.000000   0.000000   0.000000
    10  C   -0.042093   0.000237   0.000000   0.000000   0.000000   0.000000
    11  C   -0.038107   0.000015   0.000000   0.000000   0.000000   0.000000
    12  C    0.506336  -0.000234   0.000000   0.000000   0.000000   0.000000
    13  C    5.058575   0.011749   0.000000   0.000000   0.000000   0.000000
    14  C    0.011749   5.230586  -0.000821   0.000010   0.000001   0.000001
    15  C    0.000000  -0.000821   5.352750   0.473810  -0.028584  -0.038453
    16  C    0.000000   0.000010   0.473810   4.940093   0.515671  -0.031657
    17  C    0.000000   0.000001  -0.028584   0.515671   4.878711   0.537759
    18  C    0.000000   0.000001  -0.038453  -0.031657   0.537759   4.854621
    19  C    0.000000  -0.000009  -0.030490  -0.037364  -0.030220   0.540430
    20  C    0.000000   0.000460   0.493127  -0.033836  -0.037911  -0.032372
    21  O    0.000000  -0.000179  -0.056650   0.001668  -0.000043  -0.000004
    22  H    0.000000   0.004116  -0.000305   0.000378   0.000025   0.000000
    23  H    0.005587   0.006360   0.000000   0.000000   0.000000   0.000000
    24  H    0.000792  -0.000001   0.000000   0.000000   0.000000   0.000000
    25  H    0.004683   0.000000   0.000000   0.000000   0.000000   0.000000
    26  H   -0.037351   0.000001   0.000000   0.000000   0.000000   0.000000
    27  H    0.362683   0.000232   0.000000   0.000000   0.000000   0.000000
    28  H   -0.000082   0.350465   0.000096  -0.000005   0.000000   0.000000
    29  H    0.000000  -0.000001  -0.051286   0.364695  -0.032191   0.004183
    30  H    0.000000   0.000000   0.004790  -0.040373   0.366976  -0.039724
    31  H    0.000000   0.000000   0.000451   0.004833  -0.040515   0.365446
    32  H    0.000000  -0.000003   0.004735   0.000610   0.004237  -0.039670
    33  H    0.000000   0.001142  -0.048082   0.004456   0.000243   0.004179
              19         20         21         22         23         24
     1  O   -0.000040   0.001098  -0.040468   0.000679   0.000000   0.000000
     2  S    0.002447  -0.025310   0.409629  -0.003511  -0.000004   0.000000
     3  N   -0.000103  -0.002145  -0.051163   0.287355   0.000000   0.000000
     4  C    0.000032   0.001011  -0.003001  -0.022526   0.000083   0.000000
     5  N    0.000003   0.000030   0.000101   0.003520  -0.000006   0.000000
     6  O    0.000000  -0.000007   0.000000  -0.000182   0.000027   0.000000
     7  C   -0.000002  -0.000051   0.000518   0.000259  -0.012479  -0.000201
     8  C    0.000000   0.000001  -0.000003   0.000001  -0.037423   0.003215
     9  C    0.000000  -0.000001   0.000002   0.000000   0.357217  -0.037230
    10  C    0.000000   0.000000   0.000000   0.000000  -0.040978   0.363105
    11  C    0.000000   0.000000   0.000000   0.000000   0.004484  -0.040556
    12  C    0.000000   0.000000   0.000000   0.000000   0.000167   0.004363
    13  C    0.000000   0.000000   0.000000   0.000000   0.005587   0.000792
    14  C   -0.000009   0.000460  -0.000179   0.004116   0.006360  -0.000001
    15  C   -0.030490   0.493127  -0.056650  -0.000305   0.000000   0.000000
    16  C   -0.037364  -0.033836   0.001668   0.000378   0.000000   0.000000
    17  C   -0.030220  -0.037911  -0.000043   0.000025   0.000000   0.000000
    18  C    0.540430  -0.032372  -0.000004   0.000000   0.000000   0.000000
    19  C    4.881340   0.511410   0.000516  -0.000001   0.000000   0.000000
    20  C    0.511410   4.932420   0.003098   0.000026   0.000000   0.000000
    21  O    0.000516   0.003098   8.286866   0.001257  -0.000012   0.000000
    22  H   -0.000001   0.000026   0.001257   0.304400   0.000000   0.000000
    23  H    0.000000   0.000000  -0.000012   0.000000   0.554579  -0.004825
    24  H    0.000000   0.000000   0.000000   0.000000  -0.004825   0.555701
    25  H    0.000000   0.000000   0.000000   0.000000  -0.000154  -0.005075
    26  H    0.000000   0.000000   0.000000   0.000000   0.000015  -0.000161
    27  H    0.000000   0.000000   0.000000   0.000000  -0.000138   0.000015
    28  H    0.000005  -0.000204   0.009061  -0.000131   0.001812  -0.000002
    29  H    0.000302   0.004179   0.000072   0.000136   0.000000   0.000000
    30  H    0.004257   0.000607   0.000000   0.000000   0.000000   0.000000
    31  H   -0.040560   0.004805   0.000000   0.000000   0.000000   0.000000
    32  H    0.367035  -0.040395   0.000002   0.000000   0.000000   0.000000
    33  H   -0.032246   0.362476   0.008764  -0.000012   0.000004   0.000000
              25         26         27         28         29         30
     1  O    0.000000   0.000000   0.000000   0.000013   0.006830   0.000001
     2  S    0.000000   0.000000   0.000000   0.000967  -0.001474  -0.000058
     3  N    0.000000   0.000000   0.000000  -0.001402   0.000022   0.000001
     4  C    0.000000   0.000000   0.000053  -0.027565   0.000004   0.000000
     5  N    0.000000   0.000000  -0.000235   0.005064   0.000002   0.000000
     6  O    0.000000  -0.000003   0.009795   0.003182   0.000000   0.000000
     7  C    0.000003  -0.000172  -0.012942  -0.029316   0.000000   0.000000
     8  C    0.000481   0.003221  -0.042716  -0.003072   0.000000   0.000000
     9  C    0.004810   0.000767   0.005307   0.001007   0.000000   0.000000
    10  C   -0.041466   0.004387   0.000198   0.000078   0.000000   0.000000
    11  C    0.364668  -0.040726   0.004530  -0.000001   0.000000   0.000000
    12  C   -0.041318   0.363592  -0.040633   0.000001   0.000000   0.000000
    13  C    0.004683  -0.037351   0.362683  -0.000082   0.000000   0.000000
    14  C    0.000000   0.000001   0.000232   0.350465  -0.000001   0.000000
    15  C    0.000000   0.000000   0.000000   0.000096  -0.051286   0.004790
    16  C    0.000000   0.000000   0.000000  -0.000005   0.364695  -0.040373
    17  C    0.000000   0.000000   0.000000   0.000000  -0.032191   0.366976
    18  C    0.000000   0.000000   0.000000   0.000000   0.004183  -0.039724
    19  C    0.000000   0.000000   0.000000   0.000005   0.000302   0.004257
    20  C    0.000000   0.000000   0.000000  -0.000204   0.004179   0.000607
    21  O    0.000000   0.000000   0.000000   0.009061   0.000072   0.000000
    22  H    0.000000   0.000000   0.000000  -0.000131   0.000136   0.000000
    23  H   -0.000154   0.000015  -0.000138   0.001812   0.000000   0.000000
    24  H   -0.005075  -0.000161   0.000015  -0.000002   0.000000   0.000000
    25  H    0.558884  -0.005070  -0.000150   0.000000   0.000000   0.000000
    26  H   -0.005070   0.556036  -0.004868   0.000000   0.000000   0.000000
    27  H   -0.000150  -0.004868   0.552628  -0.000008   0.000000   0.000000
    28  H    0.000000   0.000000  -0.000008   0.488184   0.000000   0.000000
    29  H    0.000000   0.000000   0.000000   0.000000   0.521621  -0.005137
    30  H    0.000000   0.000000   0.000000   0.000000  -0.005137   0.541074
    31  H    0.000000   0.000000   0.000000   0.000000  -0.000139  -0.005061
    32  H    0.000000   0.000000   0.000000  -0.000001   0.000014  -0.000154
    33  H    0.000000   0.000000   0.000000   0.000412  -0.000139   0.000013
              31         32         33
     1  O    0.000000   0.000000   0.000055
     2  S    0.000007  -0.000057  -0.004199
     3  N    0.000000   0.000001   0.000074
     4  C    0.000000   0.000000   0.000011
     5  N    0.000000   0.000000   0.000005
     6  O    0.000000   0.000000  -0.000002
     7  C    0.000000   0.000000   0.000030
     8  C    0.000000   0.000000  -0.000001
     9  C    0.000000   0.000000  -0.000001
    10  C    0.000000   0.000000   0.000000
    11  C    0.000000   0.000000   0.000000
    12  C    0.000000   0.000000   0.000000
    13  C    0.000000   0.000000   0.000000
    14  C    0.000000  -0.000003   0.001142
    15  C    0.000451   0.004735  -0.048082
    16  C    0.004833   0.000610   0.004456
    17  C   -0.040515   0.004237   0.000243
    18  C    0.365446  -0.039670   0.004179
    19  C   -0.040560   0.367035  -0.032246
    20  C    0.004805  -0.040395   0.362476
    21  O    0.000000   0.000002   0.008764
    22  H    0.000000   0.000000  -0.000012
    23  H    0.000000   0.000000   0.000004
    24  H    0.000000   0.000000   0.000000
    25  H    0.000000   0.000000   0.000000
    26  H    0.000000   0.000000   0.000000
    27  H    0.000000   0.000000   0.000000
    28  H    0.000000  -0.000001   0.000412
    29  H   -0.000139   0.000014  -0.000139
    30  H   -0.005061  -0.000154   0.000013
    31  H    0.544269  -0.005078  -0.000137
    32  H   -0.005078   0.541063  -0.005014
    33  H   -0.000137  -0.005014   0.520526
 Mulliken charges:
               1
     1  O   -0.560552
     2  S    1.196693
     3  N   -0.771412
     4  C    0.492514
     5  N   -0.280329
     6  O   -0.413088
     7  C    0.392562
     8  C    0.079064
     9  C   -0.179144
    10  C   -0.153581
    11  C   -0.133974
    12  C   -0.149608
    13  C   -0.175795
    14  C   -0.278313
    15  C   -0.143695
    16  C   -0.142028
    17  C   -0.137264
    18  C   -0.124442
    19  C   -0.136741
    20  C   -0.142516
    21  O   -0.570031
    22  H    0.424516
    23  H    0.165686
    24  H    0.160860
    25  H    0.159703
    26  H    0.160331
    27  H    0.166249
    28  H    0.201444
    29  H    0.188309
    30  H    0.172788
    31  H    0.171679
    32  H    0.172675
    33  H    0.187441
 Sum of Mulliken charges =   0.00000
 Mulliken charges with hydrogens summed into heavy atoms:
               1
     1  O   -0.560552
     2  S    1.196693
     3  N   -0.346897
     4  C    0.492514
     5  N   -0.280329
     6  O   -0.413088
     7  C    0.392562
     8  C    0.079064
     9  C   -0.013457
    10  C    0.007279
    11  C    0.025729
    12  C    0.010723
    13  C   -0.009546
    14  C   -0.076869
    15  C   -0.143695
    16  C    0.046281
    17  C    0.035524
    18  C    0.047238
    19  C    0.035934
    20  C    0.044925
    21  O   -0.570031
 Electronic spatial extent (au):  <R**2>=           8001.2026
 Charge=              0.0000 electrons
 Dipole moment (field-independent basis, Debye):
    X=             -1.7280    Y=              6.1918    Z=              0.6979  Tot=              6.4662
 Quadrupole moment (field-independent basis, Debye-Ang):
   XX=           -103.9760   YY=           -124.7523   ZZ=           -128.2755
   XY=             11.9777   XZ=             17.9273   YZ=             -4.7025
 Traceless Quadrupole moment (field-independent basis, Debye-Ang):
   XX=             15.0253   YY=             -5.7511   ZZ=             -9.2742
   XY=             11.9777   XZ=             17.9273   YZ=             -4.7025
 Octapole moment (field-independent basis, Debye-Ang**2):
  XXX=            -86.9793  YYY=             37.6010  ZZZ=            -12.5420  XYY=             24.2131
  XXY=             92.9328  XXZ=             44.3244  XZZ=            -11.3331  YZZ=              7.6797
  YYZ=             11.4791  XYZ=            -10.3969
 Hexadecapole moment (field-independent basis, Debye-Ang**3):
 XXXX=          -7269.6710 YYYY=          -1507.1046 ZZZZ=           -971.0557 XXXY=            -27.6807
 XXXZ=            233.7820 YYYX=            159.4267 YYYZ=            -14.5824 ZZZX=             48.2460
 ZZZY=              0.7028 XXYY=          -1632.8411 XXZZ=          -1380.2201 YYZZ=           -428.0540
 XXYZ=              5.4257 YYXZ=             47.8594 ZZXY=            -27.2663
 N-N= 1.720654015596D+03 E-N=-6.512498707775D+03  KE= 1.302082355918D+03
 No NMR shielding tensors so no spin-rotation constants.
 Leave Link  601 at Thu Aug  6 22:05:06 2020, MaxMem=    33554432 cpu:         0.3
 (Enter /prod/apps/gaussian/g09d1/l9999.exe)
 1\1\GINC-PIRINEUS9\SP\RB3LYP\6-31G(d)\C15H12N2O3S1\UBAFAR01\06-Aug-202
 0\0\\#p b3lyp/6-31G(d) scrf=(iefpcm,read,solvent=Water) geom=allcheck 
 guess=read\\SM42.n.6.pdb.xyz\\0,1\O,0,3.723,1.235,1.143\S,0,3.507,0.31
 6,0.022\N,0,2.901,1.308,-1.208\C,0,2.516,0.799,-2.452\N,0,2.782,1.502,
 -3.538\O,0,2.191,0.778,-4.583\C,0,1.611,-0.344,-4.089\C,0,0.95,-1.23,-
 5.04\C,0,0.331,-2.409,-4.592\C,0,-0.301,-3.255,-5.499\C,0,-0.324,-2.93
 6,-6.86\C,0,0.29,-1.765,-7.31\C,0,0.924,-0.915,-6.408\C,0,1.781,-0.382
 ,-2.732\C,0,5.085,-0.322,-0.508\C,0,6.226,0.466,-0.336\C,0,7.452,-0.03
 1,-0.771\C,0,7.527,-1.293,-1.366\C,0,6.378,-2.069,-1.527\C,0,5.142,-1.
 587,-1.097\O,0,2.572,-0.807,0.143\H,0,3.409,2.194,-1.261\H,0,0.346,-2.
 66,-3.538\H,0,-0.776,-4.163,-5.144\H,0,-0.817,-3.597,-7.564\H,0,0.275,
 -1.513,-8.365\H,0,1.401,-0.005,-6.754\H,0,1.44,-1.118,-2.025\H,0,6.154
 ,1.437,0.137\H,0,8.348,0.565,-0.641\H,0,8.486,-1.674,-1.702\H,0,6.44,-
 3.052,-1.981\H,0,4.241,-2.177,-1.2\\Version=AM64L-G09RevD.01\State=1-A
 \HF=-1312.0907961\RMSD=7.913e-09\Dipole=1.3039217,-1.4529852,-1.631124
 9\Quadrupole=14.0503666,0.3912537,-14.4416202,5.9879334,10.3379555,4.3
 232057\PG=C01 [X(C15H12N2O3S1)]\\@


 COMMON SENSE IS NOT SO COMMON.   -- VOLTAIRE
 Job cpu time:       0 days  0 hours  3 minutes 33.8 seconds.
 File lengths (MBytes):  RWF=    198 Int=      0 D2E=      0 Chk=      7 Scr=      1
 Normal termination of Gaussian 09 at Thu Aug  6 22:05:06 2020.
