 Entering Gaussian System, Link 0=g09
 Initial command:
 /prod/apps/gaussian/g09d1/l1.exe "/tmp/ubafar01/1448600/Gau-122393.inp" -scrdir="/tmp/ubafar01/1448600/"
 Entering Link 1 = /prod/apps/gaussian/g09d1/l1.exe PID=    122394.
  
 Copyright (c) 1988,1990,1992,1993,1995,1998,2003,2009,2013,
            Gaussian, Inc.  All Rights Reserved.
  
 This is part of the Gaussian(R) 09 program.  It is based on
 the Gaussian(R) 03 system (copyright 2003, Gaussian, Inc.),
 the Gaussian(R) 98 system (copyright 1998, Gaussian, Inc.),
 the Gaussian(R) 94 system (copyright 1995, Gaussian, Inc.),
 the Gaussian 92(TM) system (copyright 1992, Gaussian, Inc.),
 the Gaussian 90(TM) system (copyright 1990, Gaussian, Inc.),
 the Gaussian 88(TM) system (copyright 1988, Gaussian, Inc.),
 the Gaussian 86(TM) system (copyright 1986, Carnegie Mellon
 University), and the Gaussian 82(TM) system (copyright 1983,
 Carnegie Mellon University). Gaussian is a federally registered
 trademark of Gaussian, Inc.
  
 This software contains proprietary and confidential information,
 including trade secrets, belonging to Gaussian, Inc.
  
 This software is provided under written license and may be
 used, copied, transmitted, or stored only in accord with that
 written license.
  
 The following legend is applicable only to US Government
 contracts under FAR:
  
                    RESTRICTED RIGHTS LEGEND
  
 Use, reproduction and disclosure by the US Government is
 subject to restrictions as set forth in subparagraphs (a)
 and (c) of the Commercial Computer Software - Restricted
 Rights clause in FAR 52.227-19.
  
 Gaussian, Inc.
 340 Quinnipiac St., Bldg. 40, Wallingford CT 06492
  
  
 ---------------------------------------------------------------
 Warning -- This program may not be used in any manner that
 competes with the business of Gaussian, Inc. or will provide
 assistance to any competitor of Gaussian, Inc.  The licensee
 of this program is prohibited from giving any competitor of
 Gaussian, Inc. access to this program.  By using this program,
 the user acknowledges that Gaussian, Inc. is engaged in the
 business of creating and licensing software in the field of
 computational chemistry and represents and warrants to the
 licensee that it is not a competitor of Gaussian, Inc. and that
 it will not use this program in any manner prohibited above.
 ---------------------------------------------------------------
  

 Cite this work as:
 Gaussian 09, Revision D.01,
 M. J. Frisch, G. W. Trucks, H. B. Schlegel, G. E. Scuseria, 
 M. A. Robb, J. R. Cheeseman, G. Scalmani, V. Barone, B. Mennucci, 
 G. A. Petersson, H. Nakatsuji, M. Caricato, X. Li, H. P. Hratchian, 
 A. F. Izmaylov, J. Bloino, G. Zheng, J. L. Sonnenberg, M. Hada, 
 M. Ehara, K. Toyota, R. Fukuda, J. Hasegawa, M. Ishida, T. Nakajima, 
 Y. Honda, O. Kitao, H. Nakai, T. Vreven, J. A. Montgomery, Jr., 
 J. E. Peralta, F. Ogliaro, M. Bearpark, J. J. Heyd, E. Brothers, 
 K. N. Kudin, V. N. Staroverov, T. Keith, R. Kobayashi, J. Normand, 
 K. Raghavachari, A. Rendell, J. C. Burant, S. S. Iyengar, J. Tomasi, 
 M. Cossi, N. Rega, J. M. Millam, M. Klene, J. E. Knox, J. B. Cross, 
 V. Bakken, C. Adamo, J. Jaramillo, R. Gomperts, R. E. Stratmann, 
 O. Yazyev, A. J. Austin, R. Cammi, C. Pomelli, J. W. Ochterski, 
 R. L. Martin, K. Morokuma, V. G. Zakrzewski, G. A. Voth, 
 P. Salvador, J. J. Dannenberg, S. Dapprich, A. D. Daniels, 
 O. Farkas, J. B. Foresman, J. V. Ortiz, J. Cioslowski, 
 and D. J. Fox, Gaussian, Inc., Wallingford CT, 2013.
 
 ******************************************
 Gaussian 09:  AM64L-G09RevD.01 24-Apr-2013
                 6-Aug-2020 
 ******************************************
 %nproc=1
 Will use up to    1 processors via shared memory.
 %Chk=SM42.n.9.pdb.xyz.mst.n.w.chk
 -----------------
 #p b3lyp/6-31G(d)
 -----------------
 1/38=1/1;
 2/12=2,17=6,18=5,40=1/2;
 3/5=1,6=6,7=1,11=2,16=1,25=1,30=1,74=-5/1,2,3;
 4//1;
 5/5=2,38=5/2;
 6/7=2,8=2,9=2,10=2,28=1/1;
 99/5=1,9=1/99;
 Leave Link    1 at Thu Aug  6 21:56:18 2020, MaxMem=           0 cpu:         0.0
 (Enter /prod/apps/gaussian/g09d1/l101.exe)
 ----------------
 SM42.n.9.pdb.xyz
 ----------------
 Symbolic Z-matrix:
 Charge =  0 Multiplicity = 1
 O                     2.958     2.698    -0.426 
 S                     3.168     2.283    -1.817 
 N                     2.229     0.882    -1.949 
 C                     2.014     0.181    -3.133 
 N                     2.82      0.278    -4.174 
 O                     2.272    -0.595    -5.127 
 C                     1.164    -1.188    -4.621 
 C                     0.462    -2.137    -5.478 
 C                    -0.689    -2.793    -5.012 
 C                    -1.359    -3.697    -5.831 
 C                    -0.891    -3.957    -7.122 
 C                     0.254    -3.307    -7.59 
 C                     0.928    -2.402    -6.776 
 C                     0.947    -0.732    -3.352 
 C                     2.46      3.51     -2.9 
 C                     1.339     4.223    -2.468 
 C                     0.785     5.176    -3.319 
 C                     1.348     5.405    -4.577 
 C                     2.471     4.687    -4.992 
 C                     3.038     3.728    -4.152 
 O                     4.514     1.962    -2.298 
 H                     1.441     0.89     -1.302 
 H                    -1.057    -2.595    -4.011 
 H                    -2.247    -4.198    -5.462 
 H                    -1.415    -4.662    -7.758 
 H                     0.622    -3.506    -8.591 
 H                     1.816    -1.896    -7.136 
 H                     0.156    -0.992    -2.668 
 H                     0.92      4.043    -1.486 
 H                    -0.082     5.741    -2.997 
 H                     0.913     6.15     -5.234 
 H                     2.91      4.872    -5.966 
 H                     3.913     3.165    -4.449 
 
 NAtoms=     33 NQM=       33 NQMF=       0 NMMI=      0 NMMIF=      0
                NMic=       0 NMicF=      0.
                    Isotopes and Nuclear Properties:
 (Nuclear quadrupole moments (NQMom) in fm**2, nuclear magnetic moments (NMagM)
  in nuclear magnetons)

  Atom         1           2           3           4           5           6           7           8           9          10
 IAtWgt=          16          32          14          12          14          16          12          12          12          12
 AtmWgt=  15.9949146  31.9720718  14.0030740  12.0000000  14.0030740  15.9949146  12.0000000  12.0000000  12.0000000  12.0000000
 NucSpn=           0           0           2           0           2           0           0           0           0           0
 AtZEff=   0.0000000   0.0000000   0.0000000   0.0000000   0.0000000   0.0000000   0.0000000   0.0000000   0.0000000   0.0000000
 NQMom=    0.0000000   0.0000000   2.0440000   0.0000000   2.0440000   0.0000000   0.0000000   0.0000000   0.0000000   0.0000000
 NMagM=    0.0000000   0.0000000   0.4037610   0.0000000   0.4037610   0.0000000   0.0000000   0.0000000   0.0000000   0.0000000
 AtZNuc=   8.0000000  16.0000000   7.0000000   6.0000000   7.0000000   8.0000000   6.0000000   6.0000000   6.0000000   6.0000000

  Atom        11          12          13          14          15          16          17          18          19          20
 IAtWgt=          12          12          12          12          12          12          12          12          12          12
 AtmWgt=  12.0000000  12.0000000  12.0000000  12.0000000  12.0000000  12.0000000  12.0000000  12.0000000  12.0000000  12.0000000
 NucSpn=           0           0           0           0           0           0           0           0           0           0
 AtZEff=   0.0000000   0.0000000   0.0000000   0.0000000   0.0000000   0.0000000   0.0000000   0.0000000   0.0000000   0.0000000
 NQMom=    0.0000000   0.0000000   0.0000000   0.0000000   0.0000000   0.0000000   0.0000000   0.0000000   0.0000000   0.0000000
 NMagM=    0.0000000   0.0000000   0.0000000   0.0000000   0.0000000   0.0000000   0.0000000   0.0000000   0.0000000   0.0000000
 AtZNuc=   6.0000000   6.0000000   6.0000000   6.0000000   6.0000000   6.0000000   6.0000000   6.0000000   6.0000000   6.0000000

  Atom        21          22          23          24          25          26          27          28          29          30
 IAtWgt=          16           1           1           1           1           1           1           1           1           1
 AtmWgt=  15.9949146   1.0078250   1.0078250   1.0078250   1.0078250   1.0078250   1.0078250   1.0078250   1.0078250   1.0078250
 NucSpn=           0           1           1           1           1           1           1           1           1           1
 AtZEff=   0.0000000   0.0000000   0.0000000   0.0000000   0.0000000   0.0000000   0.0000000   0.0000000   0.0000000   0.0000000
 NQMom=    0.0000000   0.0000000   0.0000000   0.0000000   0.0000000   0.0000000   0.0000000   0.0000000   0.0000000   0.0000000
 NMagM=    0.0000000   2.7928460   2.7928460   2.7928460   2.7928460   2.7928460   2.7928460   2.7928460   2.7928460   2.7928460
 AtZNuc=   8.0000000   1.0000000   1.0000000   1.0000000   1.0000000   1.0000000   1.0000000   1.0000000   1.0000000   1.0000000

  Atom        31          32          33
 IAtWgt=           1           1           1
 AtmWgt=   1.0078250   1.0078250   1.0078250
 NucSpn=           1           1           1
 AtZEff=   0.0000000   0.0000000   0.0000000
 NQMom=    0.0000000   0.0000000   0.0000000
 NMagM=    2.7928460   2.7928460   2.7928460
 AtZNuc=   1.0000000   1.0000000   1.0000000
 Leave Link  101 at Thu Aug  6 21:56:18 2020, MaxMem=    33554432 cpu:         0.1
 (Enter /prod/apps/gaussian/g09d1/l202.exe)
                          Input orientation:                          
 ---------------------------------------------------------------------
 Center     Atomic      Atomic             Coordinates (Angstroms)
 Number     Number       Type             X           Y           Z
 ---------------------------------------------------------------------
      1          8           0        2.958000    2.698000   -0.426000
      2         16           0        3.168000    2.283000   -1.817000
      3          7           0        2.229000    0.882000   -1.949000
      4          6           0        2.014000    0.181000   -3.133000
      5          7           0        2.820000    0.278000   -4.174000
      6          8           0        2.272000   -0.595000   -5.127000
      7          6           0        1.164000   -1.188000   -4.621000
      8          6           0        0.462000   -2.137000   -5.478000
      9          6           0       -0.689000   -2.793000   -5.012000
     10          6           0       -1.359000   -3.697000   -5.831000
     11          6           0       -0.891000   -3.957000   -7.122000
     12          6           0        0.254000   -3.307000   -7.590000
     13          6           0        0.928000   -2.402000   -6.776000
     14          6           0        0.947000   -0.732000   -3.352000
     15          6           0        2.460000    3.510000   -2.900000
     16          6           0        1.339000    4.223000   -2.468000
     17          6           0        0.785000    5.176000   -3.319000
     18          6           0        1.348000    5.405000   -4.577000
     19          6           0        2.471000    4.687000   -4.992000
     20          6           0        3.038000    3.728000   -4.152000
     21          8           0        4.514000    1.962000   -2.298000
     22          1           0        1.441000    0.890000   -1.302000
     23          1           0       -1.057000   -2.595000   -4.011000
     24          1           0       -2.247000   -4.198000   -5.462000
     25          1           0       -1.415000   -4.662000   -7.758000
     26          1           0        0.622000   -3.506000   -8.591000
     27          1           0        1.816000   -1.896000   -7.136000
     28          1           0        0.156000   -0.992000   -2.668000
     29          1           0        0.920000    4.043000   -1.486000
     30          1           0       -0.082000    5.741000   -2.997000
     31          1           0        0.913000    6.150000   -5.234000
     32          1           0        2.910000    4.872000   -5.966000
     33          1           0        3.913000    3.165000   -4.449000
 ---------------------------------------------------------------------
                    Distance matrix (angstroms):
                    1          2          3          4          5
     1  O    0.000000
     2  S    1.466699   0.000000
     3  N    2.479683   1.691729   0.000000
     4  C    3.815006   2.735320   1.392653   0.000000
     5  N    4.463513   3.113933   2.380068   1.320123   0.000000
     6  O    5.780471   4.476807   3.504720   2.155174   1.403796
     7  C    5.993117   4.891449   3.543827   2.193355   2.256391
     8  C    7.424954   6.345215   4.968953   3.644290   3.618398
     9  C    8.030136   7.130936   5.603777   4.436387   4.737760
    10  C    9.420538   8.506840   6.993633   5.804758   6.000860
    11  C   10.195109   9.140903   7.740171   6.440046   6.355899
    12  C    9.731112   8.547925   7.298577   5.926938   5.577243
    13  C    8.393652   7.180425   5.981403   4.595948   4.187179
    14  C    4.936648   4.047134   2.493377   1.421274   2.281209
    15  C    2.651042   1.783166   2.804308   3.366815   3.492635
    16  C    3.019363   2.744566   3.496247   4.151580   4.546078
    17  C    4.385415   4.037839   4.732914   5.147335   5.372397
    18  C    5.210638   4.547184   5.304722   5.460666   5.349329
    19  C    5.004163   4.042975   4.878159   4.895791   4.497800
    20  C    3.866572   2.749027   3.688822   3.829902   3.456951
    21  O    2.543072   1.464963   2.551358   3.181067   3.037247
    22  H    2.517445   2.277763   1.019616   2.045378   3.244159
    23  H    7.549059   6.816095   5.209527   4.231796   4.828232
    24  H   10.000407   9.198457   7.627722   6.538807   6.882442
    25  H   11.271688  10.224109   8.818115   7.523517   7.428585
    26  H   10.517307   9.267239   8.121155   6.732117   6.217696
    27  H    8.211766   6.898094   5.898544   4.514105   3.808902
    28  H    5.147219   4.530118   2.885510   2.245956   3.313281
    29  H    2.661967   2.874137   3.452502   4.338720   5.001057
    30  H    5.011137   4.890058   5.481688   5.943510   6.296928
    31  H    6.262204   5.631572   6.346251   6.423034   6.264234
    32  H    5.951486   4.897314   5.702644   5.552854   4.931957
    33  H    4.161087   2.874086   3.781262   3.773899   3.099200
                    6          7          8          9         10
     6  O    0.000000
     7  C    1.354751   0.000000
     8  C    2.403553   1.458717   0.000000
     9  C    3.689438   2.482441   1.404383   0.000000
    10  C    4.827233   3.758286   2.423685   1.391717   0.000000
    11  C    5.028682   4.259740   2.801026   2.418222   1.397607
    12  C    4.182540   3.759418   2.423367   2.792764   2.418254
    13  C    2.791198   2.484656   1.404345   2.424720   2.792923
    14  C    2.219238   1.365791   2.594056   3.111240   4.500478
    15  C    4.673960   5.168429   6.521250   7.355580   8.666970
    16  C    5.581567   5.826230   7.090757   7.733626   9.017504
    17  C    6.227718   6.506869   7.631879   8.279124   9.467682
    18  C    6.095595   6.595714   7.647128   8.458475   9.578453
    19  C    5.287471   6.030051   7.130165   8.120123   9.255500
    20  C    4.497300   5.281940   6.541581   7.559998   8.791091
    21  O    4.423579   5.151828   6.582773   7.552948   8.888110
    22  H    4.186456   3.925630   5.249776   5.644953   7.027973
    23  H    4.040755   2.698998   2.160836   1.084725   2.148955
    24  H    5.789231   4.626262   3.403918   2.145667   1.084300
    25  H    6.087415   5.344220   3.885506   3.400111   2.155850
    26  H    4.816193   4.629016   3.404487   3.877671   3.402711
    27  H    2.436518   2.692878   2.154150   3.404557   3.876500
    28  H    3.268294   2.206511   3.049715   3.074404   4.429088
    29  H    6.049449   6.103370   7.371447   7.858273   9.164086
    30  H    7.086827   7.225021   8.277329   8.789643   9.936706
    31  H    6.881377   7.367836   8.302849   9.088066  10.123330
    32  H    5.567679   6.448344   7.440224   8.521452   9.574463
    33  H    4.158144   5.151232   6.409325   7.549380   8.763045
                   11         12         13         14         15
    11  C    0.000000
    12  C    1.397336   0.000000
    13  C    2.417954   1.391365   0.000000
    14  C    5.290725   5.007147   3.809598   0.000000
    15  C    9.209266   8.563529   7.233405   4.526371   0.000000
    16  C    9.671867   9.171314   7.913180   5.048479   1.397009
    17  C   10.034116   9.512344   8.330509   5.910313   2.399321
    18  C    9.956766   9.282992   8.121653   6.270901   2.764037
    19  C    9.516232   8.693028   7.471106   5.863253   2.400399
    20  C    9.127824   8.310338   6.993881   4.990379   1.396106
    21  O    9.355189   8.597396   7.208077   4.592607   2.641519
    22  H    7.924900   7.652628   6.408206   2.660342   3.233630
    23  H    3.400135   3.877487   3.409208   2.814439   7.132646
    24  H    2.156946   3.402538   3.877220   5.164000   9.387915
    25  H    1.084480   2.156342   3.400231   6.358992  10.266322
    26  H    2.156509   1.084908   2.146317   5.936988   9.219001
    27  H    3.402318   2.153342   1.083596   4.053235   6.898063
    28  H    5.452114   5.440121   4.411320   1.077561   5.062632
    29  H    9.952096   9.577310   8.337997   5.126725   2.157565
    30  H   10.569830  10.152578   9.033792   6.563886   3.383568
    31  H   10.438889   9.768309   8.689919   7.134774   3.848424
    32  H    9.681693   8.751443   7.582579   6.487772   3.384952
    33  H    8.997012   8.070994   6.731764   5.018682   2.151659
                   16         17         18         19         20
    16  C    0.000000
    17  C    1.392597   0.000000
    18  C    2.417661   1.397131   0.000000
    19  C    2.804870   2.425004   1.396022   0.000000
    20  C    2.442843   2.804746   2.418482   1.395267   0.000000
    21  O    3.901493   5.027691   5.203042   4.342477   2.955444
    22  H    3.532541   4.782094   5.578485   5.393905   4.327488
    23  H    7.389641   8.016250   8.372836   8.150869   7.534536
    24  H    9.629988  10.082527  10.291980  10.070931   9.616070
    25  H   10.701021  11.015034  10.913176  10.495502  10.159948
    26  H    9.886489  10.158626   9.800265   9.137661   8.824542
    27  H    7.711025   8.102199   7.750620   6.954254   6.482817
    28  H    5.351235   6.234073   6.781353   6.558296   5.725957
    29  H    1.082721   2.159121   3.404777   3.887464   3.419460
    30  H    2.145555   1.083789   2.157359   3.407162   3.888521
    31  H    3.397876   2.152274   1.084389   2.150883   3.398887
    32  H    3.889119   3.408027   2.157140   1.084261   2.148422
    33  H    3.416021   3.886567   3.407816   2.165802   1.082037
                   21         22         23         24         25
    21  O    0.000000
    22  H    3.403605   0.000000
    23  H    7.398423   5.071874   0.000000
    24  H    9.678203   7.536225   2.468017   0.000000
    25  H   10.432738   8.981168   4.294259   2.485787   0.000000
    26  H    9.200464   8.551321   4.962395   4.301240   2.485879
    27  H    6.750527   6.475954   4.302134   4.960791   4.298488
    28  H    5.277801   2.656898   2.417566   4.884596   6.468774
    29  H    4.231636   3.201048   7.372055   9.682590  10.980311
    30  H    5.991048   5.359548   8.453858  10.466478  11.518091
    31  H    6.255129   6.588400   9.047190  10.822139  11.344140
    32  H    4.949257   6.306123   8.678433  10.445744  10.621396
    33  H    2.536772   4.603262   7.620390   9.653266  10.029905
                   26         27         28         29         30
    26  H    0.000000
    27  H    2.476845   0.000000
    28  H    6.451301   4.851375   0.000000
    29  H   10.370980   8.246032   5.228006   0.000000
    30  H   10.830303   8.891428   6.745233   2.484015   0.000000
    31  H   10.227046   8.316918   7.626635   4.299651   2.482232
    32  H    9.072842   6.954967   7.269650   4.971694   4.303741
    33  H    8.514052   6.101729   5.879427   4.302128   4.970322
                   31         32         33
    31  H    0.000000
    32  H    2.481354   0.000000
    33  H    4.304236   2.494223   0.000000
 Stoichiometry    C15H12N2O3S
 Framework group  C1[X(C15H12N2O3S)]
 Deg. of freedom    93
 Full point group                 C1      NOp   1
 Largest Abelian subgroup         C1      NOp   1
 Largest concise Abelian subgroup C1      NOp   1
                         Standard orientation:                         
 ---------------------------------------------------------------------
 Center     Atomic      Atomic             Coordinates (Angstroms)
 Number     Number       Type             X           Y           Z
 ---------------------------------------------------------------------
      1          8           0        3.578880   -2.135517    0.729688
      2         16           0        2.689287   -1.378412   -0.157229
      3          7           0        1.151566   -1.699864    0.470490
      4          6           0       -0.025809   -1.102445    0.027364
      5          7           0       -0.137450   -0.547994   -1.165467
      6          8           0       -1.466517   -0.099779   -1.223155
      7          6           0       -2.104076   -0.407835   -0.068179
      8          6           0       -3.505097   -0.018472    0.047531
      9          6           0       -4.227046   -0.314813    1.215120
     10          6           0       -5.563218    0.058555    1.325207
     11          6           0       -6.194386    0.730990    0.275082
     12          6           0       -5.480305    1.027755   -0.888777
     13          6           0       -4.144181    0.657294   -1.004656
     14          6           0       -1.236205   -1.047488    0.770290
     15          6           0        3.004948    0.363543    0.056391
     16          6           0        3.421739    0.823811    1.307819
     17          6           0        3.661229    2.185727    1.472612
     18          6           0        3.484419    3.063849    0.400412
     19          6           0        3.071587    2.587233   -0.845094
     20          6           0        2.826524    1.225761   -1.027055
     21          8           0        2.652522   -1.669876   -1.592435
     22          1           0        1.183520   -1.904428    1.468863
     23          1           0       -3.742351   -0.836305    2.033500
     24          1           0       -6.111767   -0.174513    2.231010
     25          1           0       -7.235719    1.020641    0.363532
     26          1           0       -5.965835    1.548706   -1.707250
     27          1           0       -3.587494    0.886229   -1.905694
     28          1           0       -1.412880   -1.424264    1.764254
     29          1           0        3.565462    0.130321    2.126782
     30          1           0        3.989576    2.558257    2.435943
     31          1           0        3.674643    4.122923    0.534861
     32          1           0        2.942145    3.270171   -1.677237
     33          1           0        2.513479    0.832440   -1.985233
 ---------------------------------------------------------------------
 Rotational constants (GHZ):      0.5777229      0.1371516      0.1258941
 Leave Link  202 at Thu Aug  6 21:56:18 2020, MaxMem=    33554432 cpu:         0.0
 (Enter /prod/apps/gaussian/g09d1/l301.exe)
 Standard basis: 6-31G(d) (6D, 7F)
 Ernie: Thresh=  0.10000D-02 Tol=  0.10000D-05 Strict=F.
 There are   343 symmetry adapted cartesian basis functions of A   symmetry.
 There are   343 symmetry adapted basis functions of A   symmetry.
   343 basis functions,   660 primitive gaussians,   343 cartesian basis functions
    78 alpha electrons       78 beta electrons
       nuclear repulsion energy      1710.3459818119 Hartrees.
 IExCor=  402 DFT=T Ex+Corr=B3LYP ExCW=0 ScaHFX=  0.200000
 ScaDFX=  0.800000  0.720000  1.000000  0.810000 ScalE2=  1.000000  1.000000
 IRadAn=      0 IRanWt=     -1 IRanGd=            0 ICorTp=0 IEmpDi=  4
 NAtoms=   33 NActive=   33 NUniq=   33 SFac= 1.00D+00 NAtFMM=   60 NAOKFM=F Big=F
 Integral buffers will be    131072 words long.
 Raffenetti 2 integral format.
 Two-electron integral symmetry is turned on.
 Leave Link  301 at Thu Aug  6 21:56:18 2020, MaxMem=    33554432 cpu:         0.0
 (Enter /prod/apps/gaussian/g09d1/l302.exe)
 NPDir=0 NMtPBC=     1 NCelOv=     1 NCel=       1 NClECP=     1 NCelD=      1
         NCelK=      1 NCelE2=     1 NClLst=     1 CellRange=     0.0.
 One-electron integrals computed using PRISM.
 NBasis=   343 RedAO= T EigKep=  4.58D-04  NBF=   343
 NBsUse=   343 1.00D-06 EigRej= -1.00D+00 NBFU=   343
 Precomputing XC quadrature grid using
 IXCGrd= 4 IRadAn=           0 IRanWt=          -1 IRanGd=           0 AccXCQ= 0.00D+00.
 Generated NRdTot=       0 NPtTot=           0 NUsed=           0 NTot=          32
 NSgBfM=   337   337   337   337   337 MxSgAt=    33 MxSgA2=    33.
 Leave Link  302 at Thu Aug  6 21:56:19 2020, MaxMem=    33554432 cpu:         1.2
 (Enter /prod/apps/gaussian/g09d1/l303.exe)
 DipDrv:  MaxL=1.
 Leave Link  303 at Thu Aug  6 21:56:19 2020, MaxMem=    33554432 cpu:         0.0
 (Enter /prod/apps/gaussian/g09d1/l401.exe)
 ExpMin= 1.17D-01 ExpMax= 2.19D+04 ExpMxC= 3.30D+03 IAcc=1 IRadAn=         1 AccDes= 0.00D+00
 Harris functional with IExCor=  402 and IRadAn=       1 diagonalized for initial guess.
 HarFok:  IExCor=  402 AccDes= 0.00D+00 IRadAn=         1 IDoV= 1 UseB2=F ITyADJ=14
 ICtDFT=  3500011 ScaDFX=  1.000000  1.000000  1.000000  1.000000
 FoFCou: FMM=F IPFlag=           0 FMFlag=      100000 FMFlg1=           0
         NFxFlg=           0 DoJE=T BraDBF=F KetDBF=T FulRan=T
         wScrn=  0.000000 ICntrl=     500 IOpCl=  0 I1Cent=   200000004 NGrid=           0
         NMat0=    1 NMatS0=      1 NMatT0=    0 NMatD0=    1 NMtDS0=    0 NMtDT0=    0
 Petite list used in FoFCou.
 Harris En= -1312.10834218147    
 JPrj=0 DoOrth=F DoCkMO=F.
 Leave Link  401 at Thu Aug  6 21:56:23 2020, MaxMem=    33554432 cpu:         3.5
 (Enter /prod/apps/gaussian/g09d1/l502.exe)
 Closed shell SCF:
 Using DIIS extrapolation, IDIIS=  1040.
 Integral symmetry usage will be decided dynamically.
 IVT=      376131 IEndB=      376131 NGot=    33554432 MDV=    33312934
 LenX=    33312934 LenY=    33194844
 Requested convergence on RMS density matrix=1.00D-08 within 128 cycles.
 Requested convergence on MAX density matrix=1.00D-06.
 Requested convergence on             energy=1.00D-06.
 No special actions if energy rises.
 Fock matrices will be formed incrementally for  20 cycles.
 Integral accuracy reduced to 1.0D-05 until final iterations.

 Cycle   1  Pass 0  IDiag  1:
 FoFJK:  IHMeth= 1 ICntrl=       0 DoSepK=F KAlg= 0 I1Cent=   0 FoldK=F
 IRaf= 690000000 NMat=   1 IRICut=       1 DoRegI=T DoRafI=F ISym2E= 0.
 FoFCou: FMM=F IPFlag=           0 FMFlag=      100000 FMFlg1=           0
         NFxFlg=           0 DoJE=F BraDBF=F KetDBF=F FulRan=T
         wScrn=  0.000000 ICntrl=       0 IOpCl=  0 I1Cent=           0 NGrid=           0
         NMat0=    1 NMatS0=      1 NMatT0=    0 NMatD0=    1 NMtDS0=    0 NMtDT0=    0
 Symmetry not used in FoFCou.
 E= -1311.46804727372    
 DIIS: error= 3.52D-02 at cycle   1 NSaved=   1.
 NSaved= 1 IEnMin= 1 EnMin= -1311.46804727372     IErMin= 1 ErrMin= 3.52D-02
 ErrMax= 3.52D-02  0.00D+00 EMaxC= 1.00D-01 BMatC= 6.66D-01 BMatP= 6.66D-01
 IDIUse=3 WtCom= 6.48D-01 WtEn= 3.52D-01
 Coeff-Com:  0.100D+01
 Coeff-En:   0.100D+01
 Coeff:      0.100D+01
 Gap=     0.280 Goal=   None    Shift=    0.000
 GapD=    0.280 DampG=1.000 DampE=0.500 DampFc=0.5000 IDamp=-1.
 Damping current iteration by 5.00D-01
 RMSDP=6.42D-03 MaxDP=6.03D-01              OVMax= 2.45D-01

 Cycle   2  Pass 0  IDiag  1:
 RMSU=  3.20D-03    CP:  9.89D-01
 E= -1311.58842078089     Delta-E=       -0.120373507166 Rises=F Damp=T
 DIIS: error= 1.57D-02 at cycle   2 NSaved=   2.
 NSaved= 2 IEnMin= 2 EnMin= -1311.58842078089     IErMin= 2 ErrMin= 1.57D-02
 ErrMax= 1.57D-02  0.00D+00 EMaxC= 1.00D-01 BMatC= 1.31D-01 BMatP= 6.66D-01
 IDIUse=3 WtCom= 8.43D-01 WtEn= 1.57D-01
 Coeff-Com:  0.252D+00 0.748D+00
 Coeff-En:   0.397D+00 0.603D+00
 Coeff:      0.275D+00 0.725D+00
 Gap=     0.237 Goal=   None    Shift=    0.000
 RMSDP=2.12D-03 MaxDP=1.52D-01 DE=-1.20D-01 OVMax= 2.23D-01

 Cycle   3  Pass 0  IDiag  1:
 RMSU=  1.72D-03    CP:  9.75D-01  6.26D-01
 E= -1311.99434225321     Delta-E=       -0.405921472326 Rises=F Damp=F
 DIIS: error= 1.12D-02 at cycle   3 NSaved=   3.
 NSaved= 3 IEnMin= 3 EnMin= -1311.99434225321     IErMin= 3 ErrMin= 1.12D-02
 ErrMax= 1.12D-02  0.00D+00 EMaxC= 1.00D-01 BMatC= 7.69D-02 BMatP= 1.31D-01
 IDIUse=3 WtCom= 8.88D-01 WtEn= 1.12D-01
 Coeff-Com:  0.799D-01 0.429D+00 0.491D+00
 Coeff-En:   0.000D+00 0.000D+00 0.100D+01
 Coeff:      0.709D-01 0.381D+00 0.548D+00
 Gap=     0.186 Goal=   None    Shift=    0.000
 RMSDP=1.21D-03 MaxDP=5.21D-02 DE=-4.06D-01 OVMax= 6.27D-02

 Cycle   4  Pass 0  IDiag  1:
 RMSU=  7.61D-04    CP:  9.82D-01  7.30D-01  4.99D-01
 E= -1312.05190581954     Delta-E=       -0.057563566326 Rises=F Damp=F
 DIIS: error= 5.45D-03 at cycle   4 NSaved=   4.
 NSaved= 4 IEnMin= 4 EnMin= -1312.05190581954     IErMin= 4 ErrMin= 5.45D-03
 ErrMax= 5.45D-03  0.00D+00 EMaxC= 1.00D-01 BMatC= 1.48D-02 BMatP= 7.69D-02
 IDIUse=3 WtCom= 9.45D-01 WtEn= 5.45D-02
 Coeff-Com:  0.122D-01 0.110D+00 0.322D+00 0.556D+00
 Coeff-En:   0.000D+00 0.000D+00 0.177D+00 0.823D+00
 Coeff:      0.115D-01 0.104D+00 0.314D+00 0.571D+00
 Gap=     0.182 Goal=   None    Shift=    0.000
 RMSDP=4.55D-04 MaxDP=2.02D-02 DE=-5.76D-02 OVMax= 3.32D-02

 Cycle   5  Pass 0  IDiag  1:
 RMSU=  2.55D-04    CP:  9.81D-01  7.06D-01  6.26D-01  6.11D-01
 E= -1312.06350754850     Delta-E=       -0.011601728965 Rises=F Damp=F
 DIIS: error= 1.97D-03 at cycle   5 NSaved=   5.
 NSaved= 5 IEnMin= 5 EnMin= -1312.06350754850     IErMin= 5 ErrMin= 1.97D-03
 ErrMax= 1.97D-03  0.00D+00 EMaxC= 1.00D-01 BMatC= 2.12D-03 BMatP= 1.48D-02
 IDIUse=3 WtCom= 9.80D-01 WtEn= 1.97D-02
 Coeff-Com: -0.742D-03 0.274D-01 0.149D+00 0.367D+00 0.458D+00
 Coeff-En:   0.000D+00 0.000D+00 0.000D+00 0.108D+00 0.892D+00
 Coeff:     -0.727D-03 0.269D-01 0.146D+00 0.362D+00 0.466D+00
 Gap=     0.181 Goal=   None    Shift=    0.000
 RMSDP=1.72D-04 MaxDP=8.88D-03 DE=-1.16D-02 OVMax= 1.55D-02

 Cycle   6  Pass 0  IDiag  1:
 RMSU=  8.71D-05    CP:  9.81D-01  7.12D-01  6.25D-01  6.67D-01  4.49D-01
 E= -1312.06531306556     Delta-E=       -0.001805517055 Rises=F Damp=F
 DIIS: error= 6.40D-04 at cycle   6 NSaved=   6.
 NSaved= 6 IEnMin= 6 EnMin= -1312.06531306556     IErMin= 6 ErrMin= 6.40D-04
 ErrMax= 6.40D-04  0.00D+00 EMaxC= 1.00D-01 BMatC= 2.34D-04 BMatP= 2.12D-03
 IDIUse=3 WtCom= 9.94D-01 WtEn= 6.40D-03
 Coeff-Com: -0.187D-02 0.470D-02 0.492D-01 0.147D+00 0.295D+00 0.506D+00
 Coeff-En:   0.000D+00 0.000D+00 0.000D+00 0.000D+00 0.851D-01 0.915D+00
 Coeff:     -0.186D-02 0.467D-02 0.489D-01 0.146D+00 0.293D+00 0.509D+00
 Gap=     0.181 Goal=   None    Shift=    0.000
 RMSDP=5.16D-05 MaxDP=2.56D-03 DE=-1.81D-03 OVMax= 4.37D-03

 Cycle   7  Pass 0  IDiag  1:
 RMSU=  2.75D-05    CP:  9.81D-01  7.11D-01  6.26D-01  6.71D-01  5.36D-01
                    CP:  5.72D-01
 E= -1312.06551196590     Delta-E=       -0.000198900340 Rises=F Damp=F
 DIIS: error= 1.78D-04 at cycle   7 NSaved=   7.
 NSaved= 7 IEnMin= 7 EnMin= -1312.06551196590     IErMin= 7 ErrMin= 1.78D-04
 ErrMax= 1.78D-04  0.00D+00 EMaxC= 1.00D-01 BMatC= 1.63D-05 BMatP= 2.34D-04
 IDIUse=3 WtCom= 9.98D-01 WtEn= 1.78D-03
 Coeff-Com: -0.103D-02 0.317D-03 0.164D-01 0.552D-01 0.133D+00 0.298D+00
 Coeff-Com:  0.498D+00
 Coeff-En:   0.000D+00 0.000D+00 0.000D+00 0.000D+00 0.000D+00 0.000D+00
 Coeff-En:   0.100D+01
 Coeff:     -0.103D-02 0.317D-03 0.164D-01 0.551D-01 0.132D+00 0.298D+00
 Coeff:      0.499D+00
 Gap=     0.181 Goal=   None    Shift=    0.000
 RMSDP=1.46D-05 MaxDP=4.96D-04 DE=-1.99D-04 OVMax= 1.53D-03

 Cycle   8  Pass 0  IDiag  1:
 RMSU=  9.29D-06    CP:  9.81D-01  7.11D-01  6.26D-01  6.72D-01  5.39D-01
                    CP:  5.99D-01  6.09D-01
 E= -1312.06552627163     Delta-E=       -0.000014305725 Rises=F Damp=F
 DIIS: error= 7.72D-05 at cycle   8 NSaved=   8.
 NSaved= 8 IEnMin= 8 EnMin= -1312.06552627163     IErMin= 8 ErrMin= 7.72D-05
 ErrMax= 7.72D-05  0.00D+00 EMaxC= 1.00D-01 BMatC= 1.69D-06 BMatP= 1.63D-05
 IDIUse=1 WtCom= 1.00D+00 WtEn= 0.00D+00
 Coeff-Com: -0.394D-03-0.385D-03 0.380D-02 0.152D-01 0.441D-01 0.121D+00
 Coeff-Com:  0.294D+00 0.522D+00
 Coeff:     -0.394D-03-0.385D-03 0.380D-02 0.152D-01 0.441D-01 0.121D+00
 Coeff:      0.294D+00 0.522D+00
 Gap=     0.181 Goal=   None    Shift=    0.000
 RMSDP=5.36D-06 MaxDP=1.98D-04 DE=-1.43D-05 OVMax= 5.18D-04

 Initial convergence to 1.0D-05 achieved.  Increase integral accuracy.
 Cycle   9  Pass 1  IDiag  1:
 E= -1312.06547689516     Delta-E=        0.000049376466 Rises=F Damp=F
 DIIS: error= 7.43D-05 at cycle   1 NSaved=   1.
 NSaved= 1 IEnMin= 1 EnMin= -1312.06547689516     IErMin= 1 ErrMin= 7.43D-05
 ErrMax= 7.43D-05  0.00D+00 EMaxC= 1.00D-01 BMatC= 1.05D-06 BMatP= 1.05D-06
 IDIUse=1 WtCom= 1.00D+00 WtEn= 0.00D+00
 Coeff-Com:  0.100D+01
 Coeff:      0.100D+01
 Gap=     0.181 Goal=   None    Shift=    0.000
 RMSDP=5.36D-06 MaxDP=1.98D-04 DE= 4.94D-05 OVMax= 3.47D-04

 Cycle  10  Pass 1  IDiag  1:
 RMSU=  4.50D-05    CP:  1.00D+00
 E= -1312.06547726686     Delta-E=       -0.000000371697 Rises=F Damp=F
 DIIS: error= 2.88D-05 at cycle   2 NSaved=   2.
 NSaved= 2 IEnMin= 2 EnMin= -1312.06547726686     IErMin= 2 ErrMin= 2.88D-05
 ErrMax= 2.88D-05  0.00D+00 EMaxC= 1.00D-01 BMatC= 6.65D-07 BMatP= 1.05D-06
 IDIUse=1 WtCom= 1.00D+00 WtEn= 0.00D+00
 Coeff-Com:  0.417D+00 0.583D+00
 Coeff:      0.417D+00 0.583D+00
 Gap=     0.181 Goal=   None    Shift=    0.000
 RMSDP=4.46D-06 MaxDP=2.74D-04 DE=-3.72D-07 OVMax= 4.44D-04

 Cycle  11  Pass 1  IDiag  1:
 RMSU=  4.46D-06    CP:  1.00D+00  9.99D-01
 E= -1312.06547740007     Delta-E=       -0.000000133211 Rises=F Damp=F
 DIIS: error= 2.91D-05 at cycle   3 NSaved=   3.
 NSaved= 3 IEnMin= 3 EnMin= -1312.06547740007     IErMin= 2 ErrMin= 2.88D-05
 ErrMax= 2.91D-05  0.00D+00 EMaxC= 1.00D-01 BMatC= 5.31D-07 BMatP= 6.65D-07
 IDIUse=1 WtCom= 1.00D+00 WtEn= 0.00D+00
 Coeff-Com:  0.993D-02 0.469D+00 0.521D+00
 Coeff:      0.993D-02 0.469D+00 0.521D+00
 Gap=     0.181 Goal=   None    Shift=    0.000
 RMSDP=2.23D-06 MaxDP=1.48D-04 DE=-1.33D-07 OVMax= 2.44D-04

 Cycle  12  Pass 1  IDiag  1:
 RMSU=  6.31D-07    CP:  1.00D+00  1.01D+00  5.28D-01
 E= -1312.06547790184     Delta-E=       -0.000000501778 Rises=F Damp=F
 DIIS: error= 4.48D-06 at cycle   4 NSaved=   4.
 NSaved= 4 IEnMin= 4 EnMin= -1312.06547790184     IErMin= 4 ErrMin= 4.48D-06
 ErrMax= 4.48D-06  0.00D+00 EMaxC= 1.00D-01 BMatC= 1.44D-08 BMatP= 5.31D-07
 IDIUse=1 WtCom= 1.00D+00 WtEn= 0.00D+00
 Coeff-Com: -0.340D-02 0.277D+00 0.323D+00 0.403D+00
 Coeff:     -0.340D-02 0.277D+00 0.323D+00 0.403D+00
 Gap=     0.181 Goal=   None    Shift=    0.000
 RMSDP=3.84D-07 MaxDP=1.51D-05 DE=-5.02D-07 OVMax= 2.88D-05

 Cycle  13  Pass 1  IDiag  1:
 RMSU=  1.91D-07    CP:  1.00D+00  1.01D+00  5.38D-01  4.77D-01
 E= -1312.06547791429     Delta-E=       -0.000000012449 Rises=F Damp=F
 DIIS: error= 1.05D-06 at cycle   5 NSaved=   5.
 NSaved= 5 IEnMin= 5 EnMin= -1312.06547791429     IErMin= 5 ErrMin= 1.05D-06
 ErrMax= 1.05D-06  0.00D+00 EMaxC= 1.00D-01 BMatC= 6.04D-10 BMatP= 1.44D-08
 IDIUse=1 WtCom= 1.00D+00 WtEn= 0.00D+00
 Coeff-Com: -0.266D-02 0.134D+00 0.157D+00 0.238D+00 0.474D+00
 Coeff:     -0.266D-02 0.134D+00 0.157D+00 0.238D+00 0.474D+00
 Gap=     0.181 Goal=   None    Shift=    0.000
 RMSDP=9.17D-08 MaxDP=3.35D-06 DE=-1.24D-08 OVMax= 6.16D-06

 Cycle  14  Pass 1  IDiag  1:
 RMSU=  6.17D-08    CP:  1.00D+00  1.01D+00  5.37D-01  4.96D-01  6.51D-01
 E= -1312.06547791477     Delta-E=       -0.000000000473 Rises=F Damp=F
 DIIS: error= 2.77D-07 at cycle   6 NSaved=   6.
 NSaved= 6 IEnMin= 6 EnMin= -1312.06547791477     IErMin= 6 ErrMin= 2.77D-07
 ErrMax= 2.77D-07  0.00D+00 EMaxC= 1.00D-01 BMatC= 3.98D-11 BMatP= 6.04D-10
 IDIUse=1 WtCom= 1.00D+00 WtEn= 0.00D+00
 Coeff-Com: -0.126D-02 0.571D-01 0.674D-01 0.108D+00 0.268D+00 0.501D+00
 Coeff:     -0.126D-02 0.571D-01 0.674D-01 0.108D+00 0.268D+00 0.501D+00
 Gap=     0.181 Goal=   None    Shift=    0.000
 RMSDP=2.45D-08 MaxDP=1.00D-06 DE=-4.73D-10 OVMax= 1.64D-06

 Cycle  15  Pass 1  IDiag  1:
 RMSU=  2.03D-08    CP:  1.00D+00  1.01D+00  5.37D-01  4.98D-01  6.92D-01
                    CP:  8.18D-01
 E= -1312.06547791484     Delta-E=       -0.000000000075 Rises=F Damp=F
 DIIS: error= 1.17D-07 at cycle   7 NSaved=   7.
 NSaved= 7 IEnMin= 7 EnMin= -1312.06547791484     IErMin= 7 ErrMin= 1.17D-07
 ErrMax= 1.17D-07  0.00D+00 EMaxC= 1.00D-01 BMatC= 7.95D-12 BMatP= 3.98D-11
 IDIUse=1 WtCom= 1.00D+00 WtEn= 0.00D+00
 Coeff-Com: -0.284D-03 0.101D-01 0.120D-01 0.218D-01 0.777D-01 0.328D+00
 Coeff-Com:  0.551D+00
 Coeff:     -0.284D-03 0.101D-01 0.120D-01 0.218D-01 0.777D-01 0.328D+00
 Coeff:      0.551D+00
 Gap=     0.181 Goal=   None    Shift=    0.000
 RMSDP=1.03D-08 MaxDP=5.92D-07 DE=-7.50D-11 OVMax= 5.58D-07

 Cycle  16  Pass 1  IDiag  1:
 RMSU=  6.10D-09    CP:  1.00D+00  1.01D+00  5.37D-01  4.99D-01  6.99D-01
                    CP:  8.66D-01  6.32D-01
 E= -1312.06547791483     Delta-E=        0.000000000008 Rises=F Damp=F
 DIIS: error= 3.01D-08 at cycle   8 NSaved=   8.
 NSaved= 8 IEnMin= 7 EnMin= -1312.06547791484     IErMin= 8 ErrMin= 3.01D-08
 ErrMax= 3.01D-08  0.00D+00 EMaxC= 1.00D-01 BMatC= 6.48D-13 BMatP= 7.95D-12
 IDIUse=1 WtCom= 1.00D+00 WtEn= 0.00D+00
 Coeff-Com: -0.264D-05-0.145D-02-0.161D-02-0.130D-02 0.903D-02 0.118D+00
 Coeff-Com:  0.299D+00 0.578D+00
 Coeff:     -0.264D-05-0.145D-02-0.161D-02-0.130D-02 0.903D-02 0.118D+00
 Coeff:      0.299D+00 0.578D+00
 Gap=     0.181 Goal=   None    Shift=    0.000
 RMSDP=3.01D-09 MaxDP=1.97D-07 DE= 7.73D-12 OVMax= 1.83D-07

 SCF Done:  E(RB3LYP) =  -1312.06547791     A.U. after   16 cycles
            NFock= 16  Conv=0.30D-08     -V/T= 2.0077
 KE= 1.302063533773D+03 PE=-6.491690423710D+03 EE= 2.167215430210D+03
 Leave Link  502 at Thu Aug  6 22:01:27 2020, MaxMem=    33554432 cpu:       304.0
 (Enter /prod/apps/gaussian/g09d1/l601.exe)
 Copying SCF densities to generalized density rwf, IOpCl= 0 IROHF=0.

 **********************************************************************

            Population analysis using the SCF density.

 **********************************************************************

 Orbital symmetries:
       Occupied  (A) (A) (A) (A) (A) (A) (A) (A) (A) (A) (A) (A)
                 (A) (A) (A) (A) (A) (A) (A) (A) (A) (A) (A) (A)
                 (A) (A) (A) (A) (A) (A) (A) (A) (A) (A) (A) (A)
                 (A) (A) (A) (A) (A) (A) (A) (A) (A) (A) (A) (A)
                 (A) (A) (A) (A) (A) (A) (A) (A) (A) (A) (A) (A)
                 (A) (A) (A) (A) (A) (A) (A) (A) (A) (A) (A) (A)
                 (A) (A) (A) (A) (A) (A)
       Virtual   (A) (A) (A) (A) (A) (A) (A) (A) (A) (A) (A) (A)
                 (A) (A) (A) (A) (A) (A) (A) (A) (A) (A) (A) (A)
                 (A) (A) (A) (A) (A) (A) (A) (A) (A) (A) (A) (A)
                 (A) (A) (A) (A) (A) (A) (A) (A) (A) (A) (A) (A)
                 (A) (A) (A) (A) (A) (A) (A) (A) (A) (A) (A) (A)
                 (A) (A) (A) (A) (A) (A) (A) (A) (A) (A) (A) (A)
                 (A) (A) (A) (A) (A) (A) (A) (A) (A) (A) (A) (A)
                 (A) (A) (A) (A) (A) (A) (A) (A) (A) (A) (A) (A)
                 (A) (A) (A) (A) (A) (A) (A) (A) (A) (A) (A) (A)
                 (A) (A) (A) (A) (A) (A) (A) (A) (A) (A) (A) (A)
                 (A) (A) (A) (A) (A) (A) (A) (A) (A) (A) (A) (A)
                 (A) (A) (A) (A) (A) (A) (A) (A) (A) (A) (A) (A)
                 (A) (A) (A) (A) (A) (A) (A) (A) (A) (A) (A) (A)
                 (A) (A) (A) (A) (A) (A) (A) (A) (A) (A) (A) (A)
                 (A) (A) (A) (A) (A) (A) (A) (A) (A) (A) (A) (A)
                 (A) (A) (A) (A) (A) (A) (A) (A) (A) (A) (A) (A)
                 (A) (A) (A) (A) (A) (A) (A) (A) (A) (A) (A) (A)
                 (A) (A) (A) (A) (A) (A) (A) (A) (A) (A) (A) (A)
                 (A) (A) (A) (A) (A) (A) (A) (A) (A) (A) (A) (A)
                 (A) (A) (A) (A) (A) (A) (A) (A) (A) (A) (A) (A)
                 (A) (A) (A) (A) (A) (A) (A) (A) (A) (A) (A) (A)
                 (A) (A) (A) (A) (A) (A) (A) (A) (A) (A) (A) (A)
                 (A)
 The electronic state is 1-A.
 Alpha  occ. eigenvalues --  -89.11885 -19.23778 -19.14370 -19.14088 -14.39344
 Alpha  occ. eigenvalues --  -14.37793 -10.27651 -10.27151 -10.23317 -10.22172
 Alpha  occ. eigenvalues --  -10.21872 -10.21409 -10.21369 -10.21204 -10.21067
 Alpha  occ. eigenvalues --  -10.21005 -10.20826 -10.20690 -10.20636 -10.20590
 Alpha  occ. eigenvalues --  -10.20481  -8.14356  -6.10909  -6.10745  -6.10643
 Alpha  occ. eigenvalues --   -1.14287  -1.11281  -0.99975  -0.96364  -0.87973
 Alpha  occ. eigenvalues --   -0.87849  -0.85286  -0.81383  -0.78295  -0.76831
 Alpha  occ. eigenvalues --   -0.76174  -0.75795  -0.69036  -0.65305  -0.63957
 Alpha  occ. eigenvalues --   -0.62766  -0.61971  -0.60724  -0.57959  -0.55737
 Alpha  occ. eigenvalues --   -0.55394  -0.52177  -0.50845  -0.49182  -0.48598
 Alpha  occ. eigenvalues --   -0.47670  -0.47579  -0.47022  -0.46133  -0.45514
 Alpha  occ. eigenvalues --   -0.44377  -0.44000  -0.43688  -0.43353  -0.39782
 Alpha  occ. eigenvalues --   -0.39639  -0.38818  -0.38419  -0.36977  -0.36873
 Alpha  occ. eigenvalues --   -0.36718  -0.35828  -0.34210  -0.31751  -0.31524
 Alpha  occ. eigenvalues --   -0.30632  -0.30187  -0.29481  -0.27886  -0.27151
 Alpha  occ. eigenvalues --   -0.26721  -0.25748  -0.23683
 Alpha virt. eigenvalues --   -0.05552  -0.04203  -0.02062  -0.01557   0.02202
 Alpha virt. eigenvalues --    0.04531   0.06294   0.07465   0.07632   0.08623
 Alpha virt. eigenvalues --    0.09698   0.10373   0.11129   0.11958   0.13412
 Alpha virt. eigenvalues --    0.13593   0.14040   0.15357   0.15722   0.16350
 Alpha virt. eigenvalues --    0.16478   0.17228   0.17861   0.18121   0.19491
 Alpha virt. eigenvalues --    0.22263   0.24525   0.24791   0.26969   0.28052
 Alpha virt. eigenvalues --    0.28626   0.29035   0.29864   0.31121   0.32086
 Alpha virt. eigenvalues --    0.32519   0.35049   0.35634   0.37870   0.39518
 Alpha virt. eigenvalues --    0.42454   0.43545   0.44326   0.47030   0.48920
 Alpha virt. eigenvalues --    0.49701   0.51017   0.51648   0.51941   0.52834
 Alpha virt. eigenvalues --    0.53107   0.54303   0.54904   0.55313   0.56131
 Alpha virt. eigenvalues --    0.56568   0.56923   0.57420   0.57542   0.57635
 Alpha virt. eigenvalues --    0.58213   0.59134   0.59309   0.59769   0.59999
 Alpha virt. eigenvalues --    0.60428   0.60777   0.61439   0.62047   0.62596
 Alpha virt. eigenvalues --    0.63746   0.64492   0.64867   0.67366   0.68859
 Alpha virt. eigenvalues --    0.70867   0.71090   0.74319   0.75121   0.75619
 Alpha virt. eigenvalues --    0.76777   0.77489   0.79004   0.79780   0.80926
 Alpha virt. eigenvalues --    0.82153   0.82467   0.82508   0.83032   0.83800
 Alpha virt. eigenvalues --    0.83992   0.85394   0.85643   0.86253   0.87676
 Alpha virt. eigenvalues --    0.88175   0.88277   0.89243   0.89676   0.89965
 Alpha virt. eigenvalues --    0.91116   0.91874   0.92677   0.94104   0.95643
 Alpha virt. eigenvalues --    0.96170   0.97441   0.99179   1.00141   1.02382
 Alpha virt. eigenvalues --    1.03476   1.04240   1.05847   1.07541   1.08229
 Alpha virt. eigenvalues --    1.09170   1.10984   1.12374   1.13885   1.15193
 Alpha virt. eigenvalues --    1.16066   1.16449   1.17224   1.18622   1.18881
 Alpha virt. eigenvalues --    1.20214   1.22602   1.23599   1.24166   1.25862
 Alpha virt. eigenvalues --    1.26531   1.28678   1.30519   1.31818   1.34800
 Alpha virt. eigenvalues --    1.36213   1.38551   1.39184   1.41352   1.41690
 Alpha virt. eigenvalues --    1.41717   1.42548   1.44011   1.45140   1.45617
 Alpha virt. eigenvalues --    1.46633   1.47018   1.47574   1.48650   1.49472
 Alpha virt. eigenvalues --    1.49717   1.51620   1.54101   1.54994   1.56489
 Alpha virt. eigenvalues --    1.61115   1.66649   1.72507   1.73148   1.76175
 Alpha virt. eigenvalues --    1.77293   1.77605   1.78411   1.78718   1.81395
 Alpha virt. eigenvalues --    1.81518   1.83700   1.84533   1.85770   1.87271
 Alpha virt. eigenvalues --    1.87752   1.88814   1.90189   1.91330   1.92100
 Alpha virt. eigenvalues --    1.93894   1.95006   1.96173   1.96735   1.98010
 Alpha virt. eigenvalues --    1.99622   1.99804   2.02542   2.03861   2.06803
 Alpha virt. eigenvalues --    2.09594   2.10035   2.10800   2.11324   2.12106
 Alpha virt. eigenvalues --    2.12740   2.13103   2.13362   2.13506   2.14655
 Alpha virt. eigenvalues --    2.15117   2.17056   2.21096   2.21929   2.23345
 Alpha virt. eigenvalues --    2.24619   2.26614   2.27322   2.28432   2.28498
 Alpha virt. eigenvalues --    2.29445   2.31166   2.32106   2.32695   2.34781
 Alpha virt. eigenvalues --    2.43536   2.50934   2.52268   2.53382   2.53503
 Alpha virt. eigenvalues --    2.56844   2.57054   2.57535   2.60284   2.62088
 Alpha virt. eigenvalues --    2.62876   2.64985   2.65704   2.65993   2.69718
 Alpha virt. eigenvalues --    2.71172   2.72042   2.72644   2.73429   2.73963
 Alpha virt. eigenvalues --    2.75088   2.77434   2.78474   2.84314   2.87248
 Alpha virt. eigenvalues --    2.89486   2.90851   3.01368   3.02905   3.05674
 Alpha virt. eigenvalues --    3.13160   3.26898   3.36782   3.42219   3.78322
 Alpha virt. eigenvalues --    3.82471   4.01316   4.04766   4.06770   4.07273
 Alpha virt. eigenvalues --    4.09200   4.09310   4.10224   4.10635   4.15155
 Alpha virt. eigenvalues --    4.20510   4.23466   4.30819   4.31156   4.35337
 Alpha virt. eigenvalues --    4.36847   4.40541   4.56690   4.65436   4.73669
          Condensed to atoms (all electrons):
               1          2          3          4          5          6
     1  O    8.233611   0.443768  -0.052917   0.001374   0.000007   0.000000
     2  S    0.443768  13.695394   0.087937  -0.011928   0.007098  -0.000247
     3  N   -0.052917   0.087937   7.464438   0.224633  -0.077910   0.005747
     4  C    0.001374  -0.011928   0.224633   4.533399   0.396874  -0.026283
     5  N    0.000007   0.007098  -0.077910   0.396874   6.893484   0.103840
     6  O    0.000000  -0.000247   0.005747  -0.026283   0.103840   8.200320
     7  C    0.000000   0.000290  -0.000475  -0.026222  -0.074487   0.247343
     8  C    0.000000  -0.000008  -0.000201   0.003453   0.003985  -0.038016
     9  C    0.000000   0.000000   0.000003   0.000565  -0.000096   0.003201
    10  C    0.000000   0.000000   0.000000  -0.000006   0.000001  -0.000059
    11  C    0.000000   0.000000   0.000000   0.000000   0.000000   0.000001
    12  C    0.000000   0.000000   0.000000   0.000005   0.000000   0.000309
    13  C    0.000000   0.000000  -0.000001  -0.000320   0.000130  -0.006535
    14  C   -0.000060   0.000759  -0.058532   0.425813  -0.040184  -0.096619
    15  C   -0.058226   0.178674  -0.060410   0.002890  -0.002956   0.000009
    16  C    0.003152  -0.019564  -0.000749   0.000172   0.000049   0.000000
    17  C    0.000448   0.003014  -0.000115  -0.000019  -0.000001   0.000000
    18  C   -0.000005  -0.000267   0.000002   0.000005   0.000003   0.000000
    19  C   -0.000041   0.002914  -0.000072  -0.000002  -0.000148   0.000001
    20  C    0.001012  -0.023972  -0.001584   0.000698   0.001214  -0.000065
    21  O   -0.042615   0.425226  -0.046003  -0.003683   0.000864   0.000045
    22  H    0.003345  -0.004916   0.297020  -0.024317   0.003204  -0.000064
    23  H    0.000000   0.000000  -0.000001   0.000071  -0.000004   0.000020
    24  H    0.000000   0.000000   0.000000   0.000000   0.000000   0.000000
    25  H    0.000000   0.000000   0.000000   0.000000   0.000000   0.000000
    26  H    0.000000   0.000000   0.000000   0.000000   0.000000  -0.000003
    27  H    0.000000   0.000000   0.000000   0.000070  -0.000266   0.009879
    28  H    0.000000  -0.000142  -0.002045  -0.030443   0.004844   0.003611
    29  H    0.006960  -0.000076   0.000171   0.000014  -0.000001   0.000000
    30  H    0.000001  -0.000055   0.000002   0.000000   0.000000   0.000000
    31  H    0.000000   0.000008   0.000000   0.000000   0.000000   0.000000
    32  H    0.000000  -0.000057   0.000001  -0.000001  -0.000008   0.000000
    33  H    0.000058  -0.004234   0.000186  -0.000071   0.002592  -0.000034
               7          8          9         10         11         12
     1  O    0.000000   0.000000   0.000000   0.000000   0.000000   0.000000
     2  S    0.000290  -0.000008   0.000000   0.000000   0.000000   0.000000
     3  N   -0.000475  -0.000201   0.000003   0.000000   0.000000   0.000000
     4  C   -0.026222   0.003453   0.000565  -0.000006   0.000000   0.000005
     5  N   -0.074487   0.003985  -0.000096   0.000001   0.000000   0.000000
     6  O    0.247343  -0.038016   0.003201  -0.000059   0.000001   0.000309
     7  C    4.718348   0.345592  -0.042168   0.006389   0.000949   0.004713
     8  C    0.345592   4.771689   0.536884  -0.007941  -0.033770  -0.008179
     9  C   -0.042168   0.536884   5.005918   0.522389  -0.038521  -0.041261
    10  C    0.006389  -0.007941   0.522389   4.860962   0.545655  -0.023807
    11  C    0.000949  -0.033770  -0.038521   0.545655   4.852716   0.543038
    12  C    0.004713  -0.008179  -0.041261  -0.023807   0.543038   4.875450
    13  C   -0.039169   0.476860  -0.085006  -0.042463  -0.035843   0.504641
    14  C    0.508939  -0.061070  -0.021820   0.000191   0.000015  -0.000245
    15  C   -0.000001   0.000000   0.000000   0.000000   0.000000   0.000000
    16  C   -0.000001   0.000000   0.000000   0.000000   0.000000   0.000000
    17  C    0.000000   0.000000   0.000000   0.000000   0.000000   0.000000
    18  C    0.000000   0.000000   0.000000   0.000000   0.000000   0.000000
    19  C    0.000001   0.000000   0.000000   0.000000   0.000000   0.000000
    20  C    0.000018   0.000000   0.000000   0.000000   0.000000   0.000000
    21  O   -0.000011   0.000000   0.000000   0.000000   0.000000   0.000000
    22  H    0.000004  -0.000002   0.000000   0.000000   0.000000   0.000000
    23  H   -0.013545  -0.037870   0.351461  -0.044673   0.004712   0.000205
    24  H   -0.000213   0.003317  -0.038858   0.359059  -0.041755   0.004493
    25  H    0.000003   0.000551   0.004901  -0.042730   0.360979  -0.042419
    26  H   -0.000185   0.003147   0.000885   0.004474  -0.042126   0.359927
    27  H   -0.013227  -0.038192   0.005404   0.000276   0.004428  -0.042895
    28  H   -0.023773  -0.003599   0.001381   0.000086  -0.000001   0.000002
    29  H    0.000000   0.000000   0.000000   0.000000   0.000000   0.000000
    30  H    0.000000   0.000000   0.000000   0.000000   0.000000   0.000000
    31  H    0.000000   0.000000   0.000000   0.000000   0.000000   0.000000
    32  H    0.000000   0.000000   0.000000   0.000000   0.000000   0.000000
    33  H    0.000008   0.000000   0.000000   0.000000   0.000000   0.000000
              13         14         15         16         17         18
     1  O    0.000000  -0.000060  -0.058226   0.003152   0.000448  -0.000005
     2  S    0.000000   0.000759   0.178674  -0.019564   0.003014  -0.000267
     3  N   -0.000001  -0.058532  -0.060410  -0.000749  -0.000115   0.000002
     4  C   -0.000320   0.425813   0.002890   0.000172  -0.000019   0.000005
     5  N    0.000130  -0.040184  -0.002956   0.000049  -0.000001   0.000003
     6  O   -0.006535  -0.096619   0.000009   0.000000   0.000000   0.000000
     7  C   -0.039169   0.508939  -0.000001  -0.000001   0.000000   0.000000
     8  C    0.476860  -0.061070   0.000000   0.000000   0.000000   0.000000
     9  C   -0.085006  -0.021820   0.000000   0.000000   0.000000   0.000000
    10  C   -0.042463   0.000191   0.000000   0.000000   0.000000   0.000000
    11  C   -0.035843   0.000015   0.000000   0.000000   0.000000   0.000000
    12  C    0.504641  -0.000245   0.000000   0.000000   0.000000   0.000000
    13  C    5.044144   0.012560   0.000000   0.000000   0.000000   0.000000
    14  C    0.012560   5.293815  -0.000172  -0.000027   0.000000   0.000000
    15  C    0.000000  -0.000172   5.343106   0.468648  -0.026686  -0.038181
    16  C    0.000000  -0.000027   0.468648   4.957378   0.510161  -0.029980
    17  C    0.000000   0.000000  -0.026686   0.510161   4.876978   0.543448
    18  C    0.000000   0.000000  -0.038181  -0.029980   0.543448   4.842639
    19  C    0.000000   0.000000  -0.028888  -0.036982  -0.029611   0.543194
    20  C    0.000000   0.000043   0.508393  -0.041227  -0.036825  -0.029597
    21  O    0.000000   0.000020  -0.054698   0.001965  -0.000044  -0.000005
    22  H    0.000000  -0.005656   0.000285   0.000318   0.000020   0.000000
    23  H    0.006073   0.006178   0.000000   0.000000   0.000000   0.000000
    24  H    0.000861   0.000000   0.000000   0.000000   0.000000   0.000000
    25  H    0.004701   0.000000   0.000000   0.000000   0.000000   0.000000
    26  H   -0.037781   0.000001   0.000000   0.000000   0.000000   0.000000
    27  H    0.360428   0.000269   0.000000   0.000000   0.000000   0.000000
    28  H   -0.000125   0.344828   0.000004   0.000001   0.000000   0.000000
    29  H    0.000000   0.000002  -0.050056   0.360877  -0.036689   0.004219
    30  H    0.000000   0.000000   0.004857  -0.042588   0.362971  -0.041703
    31  H    0.000000   0.000000   0.000468   0.004998  -0.042784   0.361797
    32  H    0.000000   0.000000   0.004757   0.000699   0.004397  -0.042522
    33  H    0.000000   0.000014  -0.038810   0.004665   0.000269   0.004038
              19         20         21         22         23         24
     1  O   -0.000041   0.001012  -0.042615   0.003345   0.000000   0.000000
     2  S    0.002914  -0.023972   0.425226  -0.004916   0.000000   0.000000
     3  N   -0.000072  -0.001584  -0.046003   0.297020  -0.000001   0.000000
     4  C   -0.000002   0.000698  -0.003683  -0.024317   0.000071   0.000000
     5  N   -0.000148   0.001214   0.000864   0.003204  -0.000004   0.000000
     6  O    0.000001  -0.000065   0.000045  -0.000064   0.000020   0.000000
     7  C    0.000001   0.000018  -0.000011   0.000004  -0.013545  -0.000213
     8  C    0.000000   0.000000   0.000000  -0.000002  -0.037870   0.003317
     9  C    0.000000   0.000000   0.000000   0.000000   0.351461  -0.038858
    10  C    0.000000   0.000000   0.000000   0.000000  -0.044673   0.359059
    11  C    0.000000   0.000000   0.000000   0.000000   0.004712  -0.041755
    12  C    0.000000   0.000000   0.000000   0.000000   0.000205   0.004493
    13  C    0.000000   0.000000   0.000000   0.000000   0.006073   0.000861
    14  C    0.000000   0.000043   0.000020  -0.005656   0.006178   0.000000
    15  C   -0.028888   0.508393  -0.054698   0.000285   0.000000   0.000000
    16  C   -0.036982  -0.041227   0.001965   0.000318   0.000000   0.000000
    17  C   -0.029611  -0.036825  -0.000044   0.000020   0.000000   0.000000
    18  C    0.543194  -0.029597  -0.000005   0.000000   0.000000   0.000000
    19  C    4.887124   0.501667   0.000526   0.000002   0.000000   0.000000
    20  C    0.501667   4.909813   0.002265  -0.000008   0.000000   0.000000
    21  O    0.000526   0.002265   8.222913   0.001673   0.000000   0.000000
    22  H    0.000002  -0.000008   0.001673   0.362635   0.000000   0.000000
    23  H    0.000000   0.000000   0.000000   0.000000   0.595662  -0.005321
    24  H    0.000000   0.000000   0.000000   0.000000  -0.005321   0.585171
    25  H    0.000000   0.000000   0.000000   0.000000  -0.000172  -0.005405
    26  H    0.000000   0.000000   0.000000   0.000000   0.000016  -0.000176
    27  H    0.000000   0.000000   0.000000   0.000000  -0.000149   0.000015
    28  H    0.000000  -0.000001   0.000001   0.002308   0.002228  -0.000002
    29  H    0.000359   0.004473   0.000081   0.000158   0.000000   0.000000
    30  H    0.004441   0.000641   0.000000   0.000000   0.000000   0.000000
    31  H   -0.042381   0.004842   0.000000   0.000000   0.000000   0.000000
    32  H    0.363942  -0.041185   0.000002   0.000000   0.000000   0.000000
    33  H   -0.036292   0.360449   0.009321  -0.000012   0.000000   0.000000
              25         26         27         28         29         30
     1  O    0.000000   0.000000   0.000000   0.000000   0.006960   0.000001
     2  S    0.000000   0.000000   0.000000  -0.000142  -0.000076  -0.000055
     3  N    0.000000   0.000000   0.000000  -0.002045   0.000171   0.000002
     4  C    0.000000   0.000000   0.000070  -0.030443   0.000014   0.000000
     5  N    0.000000   0.000000  -0.000266   0.004844  -0.000001   0.000000
     6  O    0.000000  -0.000003   0.009879   0.003611   0.000000   0.000000
     7  C    0.000003  -0.000185  -0.013227  -0.023773   0.000000   0.000000
     8  C    0.000551   0.003147  -0.038192  -0.003599   0.000000   0.000000
     9  C    0.004901   0.000885   0.005404   0.001381   0.000000   0.000000
    10  C   -0.042730   0.004474   0.000276   0.000086   0.000000   0.000000
    11  C    0.360979  -0.042126   0.004428  -0.000001   0.000000   0.000000
    12  C   -0.042419   0.359927  -0.042895   0.000002   0.000000   0.000000
    13  C    0.004701  -0.037781   0.360428  -0.000125   0.000000   0.000000
    14  C    0.000000   0.000001   0.000269   0.344828   0.000002   0.000000
    15  C    0.000000   0.000000   0.000000   0.000004  -0.050056   0.004857
    16  C    0.000000   0.000000   0.000000   0.000001   0.360877  -0.042588
    17  C    0.000000   0.000000   0.000000   0.000000  -0.036689   0.362971
    18  C    0.000000   0.000000   0.000000   0.000000   0.004219  -0.041703
    19  C    0.000000   0.000000   0.000000   0.000000   0.000359   0.004441
    20  C    0.000000   0.000000   0.000000  -0.000001   0.004473   0.000641
    21  O    0.000000   0.000000   0.000000   0.000001   0.000081   0.000000
    22  H    0.000000   0.000000   0.000000   0.002308   0.000158   0.000000
    23  H   -0.000172   0.000016  -0.000149   0.002228   0.000000   0.000000
    24  H   -0.005405  -0.000176   0.000015  -0.000002   0.000000   0.000000
    25  H    0.586002  -0.005349  -0.000157   0.000000   0.000000   0.000000
    26  H   -0.005349   0.580313  -0.004884   0.000000   0.000000   0.000000
    27  H   -0.000157  -0.004884   0.553074  -0.000009   0.000000   0.000000
    28  H    0.000000   0.000000  -0.000009   0.546739   0.000000   0.000000
    29  H    0.000000   0.000000   0.000000   0.000000   0.545305  -0.005385
    30  H    0.000000   0.000000   0.000000   0.000000  -0.005385   0.577074
    31  H    0.000000   0.000000   0.000000   0.000000  -0.000154  -0.005480
    32  H    0.000000   0.000000   0.000000   0.000000   0.000015  -0.000169
    33  H    0.000000   0.000000   0.000000   0.000000  -0.000143   0.000013
              31         32         33
     1  O    0.000000   0.000000   0.000058
     2  S    0.000008  -0.000057  -0.004234
     3  N    0.000000   0.000001   0.000186
     4  C    0.000000  -0.000001  -0.000071
     5  N    0.000000  -0.000008   0.002592
     6  O    0.000000   0.000000  -0.000034
     7  C    0.000000   0.000000   0.000008
     8  C    0.000000   0.000000   0.000000
     9  C    0.000000   0.000000   0.000000
    10  C    0.000000   0.000000   0.000000
    11  C    0.000000   0.000000   0.000000
    12  C    0.000000   0.000000   0.000000
    13  C    0.000000   0.000000   0.000000
    14  C    0.000000   0.000000   0.000014
    15  C    0.000468   0.004757  -0.038810
    16  C    0.004998   0.000699   0.004665
    17  C   -0.042784   0.004397   0.000269
    18  C    0.361797  -0.042522   0.004038
    19  C   -0.042381   0.363942  -0.036292
    20  C    0.004842  -0.041185   0.360449
    21  O    0.000000   0.000002   0.009321
    22  H    0.000000   0.000000  -0.000012
    23  H    0.000000   0.000000   0.000000
    24  H    0.000000   0.000000   0.000000
    25  H    0.000000   0.000000   0.000000
    26  H    0.000000   0.000000   0.000000
    27  H    0.000000   0.000000   0.000000
    28  H    0.000000   0.000000   0.000000
    29  H   -0.000154   0.000015  -0.000143
    30  H   -0.005480  -0.000169   0.000013
    31  H    0.579253  -0.005476  -0.000139
    32  H   -0.005476   0.570666  -0.004861
    33  H   -0.000139  -0.004861   0.502859
 Mulliken charges:
               1
     1  O   -0.539872
     2  S    1.220384
     3  N   -0.779126
     4  C    0.533259
     5  N   -0.222129
     6  O   -0.406402
     7  C    0.400881
     8  C    0.083370
     9  C   -0.165259
    10  C   -0.137803
    11  C   -0.120476
    12  C   -0.133978
    13  C   -0.163156
    14  C   -0.309064
    15  C   -0.153007
    16  C   -0.141964
    17  C   -0.128932
    18  C   -0.117084
    19  C   -0.129754
    20  C   -0.121067
    21  O   -0.517845
    22  H    0.364000
    23  H    0.135108
    24  H    0.138813
    25  H    0.139097
    26  H    0.141739
    27  H    0.165936
    28  H    0.154109
    29  H    0.169870
    30  H    0.145381
    31  H    0.145048
    32  H    0.149798
    33  H    0.200124
 Sum of Mulliken charges =   0.00000
 Mulliken charges with hydrogens summed into heavy atoms:
               1
     1  O   -0.539872
     2  S    1.220384
     3  N   -0.415126
     4  C    0.533259
     5  N   -0.222129
     6  O   -0.406402
     7  C    0.400881
     8  C    0.083370
     9  C   -0.030152
    10  C    0.001010
    11  C    0.018621
    12  C    0.007761
    13  C    0.002780
    14  C   -0.154955
    15  C   -0.153007
    16  C    0.027906
    17  C    0.016449
    18  C    0.027964
    19  C    0.020045
    20  C    0.079057
    21  O   -0.517845
 Electronic spatial extent (au):  <R**2>=           8452.6505
 Charge=              0.0000 electrons
 Dipole moment (field-independent basis, Debye):
    X=             -4.0882    Y=              4.4128    Z=              4.4645  Tot=              7.4912
 Quadrupole moment (field-independent basis, Debye-Ang):
   XX=           -117.6449   YY=           -126.0117   ZZ=           -119.8521
   XY=             15.8216   XZ=              2.9041   YZ=             -8.5414
 Traceless Quadrupole moment (field-independent basis, Debye-Ang):
   XX=              3.5246   YY=             -4.8421   ZZ=              1.3175
   XY=             15.8216   XZ=              2.9041   YZ=             -8.5414
 Octapole moment (field-independent basis, Debye-Ang**2):
  XXX=           -140.4853  YYY=             25.9482  ZZZ=             13.7805  XYY=             11.8962
  XXY=             80.9637  XXZ=             19.1766  XZZ=             -0.6941  YZZ=              4.2537
  YYZ=              1.8023  XYZ=             13.2294
 Hexadecapole moment (field-independent basis, Debye-Ang**3):
 XXXX=          -8360.5851 YYYY=          -1575.3297 ZZZZ=           -791.0221 XXXY=            -36.8354
 XXXZ=            -27.3482 YYYX=            121.2829 YYYZ=            -10.3400 ZZZX=             29.5738
 ZZZY=            -37.4360 XXYY=          -1798.9079 XXZZ=          -1512.4737 YYZZ=           -390.8877
 XXYZ=            -34.1721 YYXZ=             24.7166 ZZXY=             30.0571
 N-N= 1.710345981812D+03 E-N=-6.491690424883D+03  KE= 1.302063533773D+03
 No NMR shielding tensors so no spin-rotation constants.
 Leave Link  601 at Thu Aug  6 22:01:27 2020, MaxMem=    33554432 cpu:         0.3
 (Enter /prod/apps/gaussian/g09d1/l9999.exe)
 1\1\GINC-PIRINEUS9\SP\RB3LYP\6-31G(d)\C15H12N2O3S1\UBAFAR01\06-Aug-202
 0\0\\#p b3lyp/6-31G(d)\\SM42.n.9.pdb.xyz\\0,1\O,0,2.958,2.698,-0.426\S
 ,0,3.168,2.283,-1.817\N,0,2.229,0.882,-1.949\C,0,2.014,0.181,-3.133\N,
 0,2.82,0.278,-4.174\O,0,2.272,-0.595,-5.127\C,0,1.164,-1.188,-4.621\C,
 0,0.462,-2.137,-5.478\C,0,-0.689,-2.793,-5.012\C,0,-1.359,-3.697,-5.83
 1\C,0,-0.891,-3.957,-7.122\C,0,0.254,-3.307,-7.59\C,0,0.928,-2.402,-6.
 776\C,0,0.947,-0.732,-3.352\C,0,2.46,3.51,-2.9\C,0,1.339,4.223,-2.468\
 C,0,0.785,5.176,-3.319\C,0,1.348,5.405,-4.577\C,0,2.471,4.687,-4.992\C
 ,0,3.038,3.728,-4.152\O,0,4.514,1.962,-2.298\H,0,1.441,0.89,-1.302\H,0
 ,-1.057,-2.595,-4.011\H,0,-2.247,-4.198,-5.462\H,0,-1.415,-4.662,-7.75
 8\H,0,0.622,-3.506,-8.591\H,0,1.816,-1.896,-7.136\H,0,0.156,-0.992,-2.
 668\H,0,0.92,4.043,-1.486\H,0,-0.082,5.741,-2.997\H,0,0.913,6.15,-5.23
 4\H,0,2.91,4.872,-5.966\H,0,3.913,3.165,-4.449\\Version=AM64L-G09RevD.
 01\State=1-A\HF=-1312.0654779\RMSD=3.013e-09\Dipole=-2.6867418,-0.2414
 402,-1.1872351\Quadrupole=-7.4362098,11.1267065,-3.6904967,1.6154503,-
 9.4278672,-2.4277744\PG=C01 [X(C15H12N2O3S1)]\\@


 "A LITTLE BIT GOES A LONG WAY"
 R.S. MULLIKEN AS QUOTED BY K. RUEDENBERG
 Job cpu time:       0 days  0 hours  5 minutes  9.3 seconds.
 File lengths (MBytes):  RWF=     66 Int=      0 D2E=      0 Chk=      5 Scr=      1
 Normal termination of Gaussian 09 at Thu Aug  6 22:01:27 2020.
 Initial command:
 /prod/apps/gaussian/g09d1/l1.exe "/tmp/ubafar01/1448600/Gau-122393.inp" -scrdir="/tmp/ubafar01/1448600/"
 Entering Link 1 = /prod/apps/gaussian/g09d1/l1.exe PID=    123590.
  
 Copyright (c) 1988,1990,1992,1993,1995,1998,2003,2009,2013,
            Gaussian, Inc.  All Rights Reserved.
  
 This is part of the Gaussian(R) 09 program.  It is based on
 the Gaussian(R) 03 system (copyright 2003, Gaussian, Inc.),
 the Gaussian(R) 98 system (copyright 1998, Gaussian, Inc.),
 the Gaussian(R) 94 system (copyright 1995, Gaussian, Inc.),
 the Gaussian 92(TM) system (copyright 1992, Gaussian, Inc.),
 the Gaussian 90(TM) system (copyright 1990, Gaussian, Inc.),
 the Gaussian 88(TM) system (copyright 1988, Gaussian, Inc.),
 the Gaussian 86(TM) system (copyright 1986, Carnegie Mellon
 University), and the Gaussian 82(TM) system (copyright 1983,
 Carnegie Mellon University). Gaussian is a federally registered
 trademark of Gaussian, Inc.
  
 This software contains proprietary and confidential information,
 including trade secrets, belonging to Gaussian, Inc.
  
 This software is provided under written license and may be
 used, copied, transmitted, or stored only in accord with that
 written license.
  
 The following legend is applicable only to US Government
 contracts under FAR:
  
                    RESTRICTED RIGHTS LEGEND
  
 Use, reproduction and disclosure by the US Government is
 subject to restrictions as set forth in subparagraphs (a)
 and (c) of the Commercial Computer Software - Restricted
 Rights clause in FAR 52.227-19.
  
 Gaussian, Inc.
 340 Quinnipiac St., Bldg. 40, Wallingford CT 06492
  
  
 ---------------------------------------------------------------
 Warning -- This program may not be used in any manner that
 competes with the business of Gaussian, Inc. or will provide
 assistance to any competitor of Gaussian, Inc.  The licensee
 of this program is prohibited from giving any competitor of
 Gaussian, Inc. access to this program.  By using this program,
 the user acknowledges that Gaussian, Inc. is engaged in the
 business of creating and licensing software in the field of
 computational chemistry and represents and warrants to the
 licensee that it is not a competitor of Gaussian, Inc. and that
 it will not use this program in any manner prohibited above.
 ---------------------------------------------------------------
  

 Cite this work as:
 Gaussian 09, Revision D.01,
 M. J. Frisch, G. W. Trucks, H. B. Schlegel, G. E. Scuseria, 
 M. A. Robb, J. R. Cheeseman, G. Scalmani, V. Barone, B. Mennucci, 
 G. A. Petersson, H. Nakatsuji, M. Caricato, X. Li, H. P. Hratchian, 
 A. F. Izmaylov, J. Bloino, G. Zheng, J. L. Sonnenberg, M. Hada, 
 M. Ehara, K. Toyota, R. Fukuda, J. Hasegawa, M. Ishida, T. Nakajima, 
 Y. Honda, O. Kitao, H. Nakai, T. Vreven, J. A. Montgomery, Jr., 
 J. E. Peralta, F. Ogliaro, M. Bearpark, J. J. Heyd, E. Brothers, 
 K. N. Kudin, V. N. Staroverov, T. Keith, R. Kobayashi, J. Normand, 
 K. Raghavachari, A. Rendell, J. C. Burant, S. S. Iyengar, J. Tomasi, 
 M. Cossi, N. Rega, J. M. Millam, M. Klene, J. E. Knox, J. B. Cross, 
 V. Bakken, C. Adamo, J. Jaramillo, R. Gomperts, R. E. Stratmann, 
 O. Yazyev, A. J. Austin, R. Cammi, C. Pomelli, J. W. Ochterski, 
 R. L. Martin, K. Morokuma, V. G. Zakrzewski, G. A. Voth, 
 P. Salvador, J. J. Dannenberg, S. Dapprich, A. D. Daniels, 
 O. Farkas, J. B. Foresman, J. V. Ortiz, J. Cioslowski, 
 and D. J. Fox, Gaussian, Inc., Wallingford CT, 2013.
 
 ******************************************
 Gaussian 09:  AM64L-G09RevD.01 24-Apr-2013
                 6-Aug-2020 
 ******************************************
 %nproc=1
 Will use up to    1 processors via shared memory.
 %Chk=SM42.n.9.pdb.xyz.mst.n.w.chk
 %subst l502 /dades/curu/work_g09D01_MST_AddSphPartition_ReadGammas/exe-dir/
 ----------------------------------------------------------------------
 #p b3lyp/6-31G(d) scrf=(iefpcm,read,solvent=Water) geom=allcheck guess
 =read
 ----------------------------------------------------------------------
 1/29=7,38=1,40=2/1;
 2/12=2,40=1/2;
 3/5=1,6=6,7=1,11=2,14=-4,16=1,25=1,30=1,70=2203,72=1,74=-5,116=-2/1,2,3;
 4/5=1/1;
 5/5=2,38=6,53=1/2;
 6/7=2,8=2,9=2,10=2,28=1/1;
 99/5=1,9=1/99;
 Leave Link    1 at Thu Aug  6 22:01:27 2020, MaxMem=           0 cpu:         0.0
 (Enter /prod/apps/gaussian/g09d1/l101.exe)
 Structure from the checkpoint file:  "SM42.n.9.pdb.xyz.mst.n.w.chk"
 ----------------
 SM42.n.9.pdb.xyz
 ----------------
 Charge =  0 Multiplicity = 1
 Z-Matrix found in file.
 O,0,2.958,2.698,-0.426
 S,0,3.168,2.283,-1.817
 N,0,2.229,0.882,-1.949
 C,0,2.014,0.181,-3.133
 N,0,2.82,0.278,-4.174
 O,0,2.272,-0.595,-5.127
 C,0,1.164,-1.188,-4.621
 C,0,0.462,-2.137,-5.478
 C,0,-0.689,-2.793,-5.012
 C,0,-1.359,-3.697,-5.831
 C,0,-0.891,-3.957,-7.122
 C,0,0.254,-3.307,-7.59
 C,0,0.928,-2.402,-6.776
 C,0,0.947,-0.732,-3.352
 C,0,2.46,3.51,-2.9
 C,0,1.339,4.223,-2.468
 C,0,0.785,5.176,-3.319
 C,0,1.348,5.405,-4.577
 C,0,2.471,4.687,-4.992
 C,0,3.038,3.728,-4.152
 O,0,4.514,1.962,-2.298
 H,0,1.441,0.89,-1.302
 H,0,-1.057,-2.595,-4.011
 H,0,-2.247,-4.198,-5.462
 H,0,-1.415,-4.662,-7.758
 H,0,0.622,-3.506,-8.591
 H,0,1.816,-1.896,-7.136
 H,0,0.156,-0.992,-2.668
 H,0,0.92,4.043,-1.486
 H,0,-0.082,5.741,-2.997
 H,0,0.913,6.15,-5.234
 H,0,2.91,4.872,-5.966
 H,0,3.913,3.165,-4.449
 Recover connectivity data from disk.
 NAtoms=     33 NQM=       33 NQMF=       0 NMMI=      0 NMMIF=      0
                NMic=       0 NMicF=      0.
                    Isotopes and Nuclear Properties:
 (Nuclear quadrupole moments (NQMom) in fm**2, nuclear magnetic moments (NMagM)
  in nuclear magnetons)

  Atom         1           2           3           4           5           6           7           8           9          10
 IAtWgt=          16          32          14          12          14          16          12          12          12          12
 AtmWgt=  15.9949146  31.9720718  14.0030740  12.0000000  14.0030740  15.9949146  12.0000000  12.0000000  12.0000000  12.0000000
 NucSpn=           0           0           2           0           2           0           0           0           0           0
 AtZEff=  -5.6000000 -13.6000000  -4.5500000  -3.6000000  -4.5500000  -5.6000000  -3.6000000  -3.6000000  -3.6000000  -3.6000000
 NQMom=    0.0000000   0.0000000   2.0440000   0.0000000   2.0440000   0.0000000   0.0000000   0.0000000   0.0000000   0.0000000
 NMagM=    0.0000000   0.0000000   0.4037610   0.0000000   0.4037610   0.0000000   0.0000000   0.0000000   0.0000000   0.0000000
 AtZNuc=   8.0000000  16.0000000   7.0000000   6.0000000   7.0000000   8.0000000   6.0000000   6.0000000   6.0000000   6.0000000

  Atom        11          12          13          14          15          16          17          18          19          20
 IAtWgt=          12          12          12          12          12          12          12          12          12          12
 AtmWgt=  12.0000000  12.0000000  12.0000000  12.0000000  12.0000000  12.0000000  12.0000000  12.0000000  12.0000000  12.0000000
 NucSpn=           0           0           0           0           0           0           0           0           0           0
 AtZEff=  -3.6000000  -3.6000000  -3.6000000  -3.6000000  -3.6000000  -3.6000000  -3.6000000  -3.6000000  -3.6000000  -3.6000000
 NQMom=    0.0000000   0.0000000   0.0000000   0.0000000   0.0000000   0.0000000   0.0000000   0.0000000   0.0000000   0.0000000
 NMagM=    0.0000000   0.0000000   0.0000000   0.0000000   0.0000000   0.0000000   0.0000000   0.0000000   0.0000000   0.0000000
 AtZNuc=   6.0000000   6.0000000   6.0000000   6.0000000   6.0000000   6.0000000   6.0000000   6.0000000   6.0000000   6.0000000

  Atom        21          22          23          24          25          26          27          28          29          30
 IAtWgt=          16           1           1           1           1           1           1           1           1           1
 AtmWgt=  15.9949146   1.0078250   1.0078250   1.0078250   1.0078250   1.0078250   1.0078250   1.0078250   1.0078250   1.0078250
 NucSpn=           0           1           1           1           1           1           1           1           1           1
 AtZEff=  -5.6000000  -1.0000000  -1.0000000  -1.0000000  -1.0000000  -1.0000000  -1.0000000  -1.0000000  -1.0000000  -1.0000000
 NQMom=    0.0000000   0.0000000   0.0000000   0.0000000   0.0000000   0.0000000   0.0000000   0.0000000   0.0000000   0.0000000
 NMagM=    0.0000000   2.7928460   2.7928460   2.7928460   2.7928460   2.7928460   2.7928460   2.7928460   2.7928460   2.7928460
 AtZNuc=   8.0000000   1.0000000   1.0000000   1.0000000   1.0000000   1.0000000   1.0000000   1.0000000   1.0000000   1.0000000

  Atom        31          32          33
 IAtWgt=           1           1           1
 AtmWgt=   1.0078250   1.0078250   1.0078250
 NucSpn=           1           1           1
 AtZEff=  -1.0000000  -1.0000000  -1.0000000
 NQMom=    0.0000000   0.0000000   0.0000000
 NMagM=    2.7928460   2.7928460   2.7928460
 AtZNuc=   1.0000000   1.0000000   1.0000000
 Leave Link  101 at Thu Aug  6 22:01:28 2020, MaxMem=    33554432 cpu:         0.1
 (Enter /prod/apps/gaussian/g09d1/l202.exe)
                          Input orientation:                          
 ---------------------------------------------------------------------
 Center     Atomic      Atomic             Coordinates (Angstroms)
 Number     Number       Type             X           Y           Z
 ---------------------------------------------------------------------
      1          8           0        2.958000    2.698000   -0.426000
      2         16           0        3.168000    2.283000   -1.817000
      3          7           0        2.229000    0.882000   -1.949000
      4          6           0        2.014000    0.181000   -3.133000
      5          7           0        2.820000    0.278000   -4.174000
      6          8           0        2.272000   -0.595000   -5.127000
      7          6           0        1.164000   -1.188000   -4.621000
      8          6           0        0.462000   -2.137000   -5.478000
      9          6           0       -0.689000   -2.793000   -5.012000
     10          6           0       -1.359000   -3.697000   -5.831000
     11          6           0       -0.891000   -3.957000   -7.122000
     12          6           0        0.254000   -3.307000   -7.590000
     13          6           0        0.928000   -2.402000   -6.776000
     14          6           0        0.947000   -0.732000   -3.352000
     15          6           0        2.460000    3.510000   -2.900000
     16          6           0        1.339000    4.223000   -2.468000
     17          6           0        0.785000    5.176000   -3.319000
     18          6           0        1.348000    5.405000   -4.577000
     19          6           0        2.471000    4.687000   -4.992000
     20          6           0        3.038000    3.728000   -4.152000
     21          8           0        4.514000    1.962000   -2.298000
     22          1           0        1.441000    0.890000   -1.302000
     23          1           0       -1.057000   -2.595000   -4.011000
     24          1           0       -2.247000   -4.198000   -5.462000
     25          1           0       -1.415000   -4.662000   -7.758000
     26          1           0        0.622000   -3.506000   -8.591000
     27          1           0        1.816000   -1.896000   -7.136000
     28          1           0        0.156000   -0.992000   -2.668000
     29          1           0        0.920000    4.043000   -1.486000
     30          1           0       -0.082000    5.741000   -2.997000
     31          1           0        0.913000    6.150000   -5.234000
     32          1           0        2.910000    4.872000   -5.966000
     33          1           0        3.913000    3.165000   -4.449000
 ---------------------------------------------------------------------
                    Distance matrix (angstroms):
                    1          2          3          4          5
     1  O    0.000000
     2  S    1.466699   0.000000
     3  N    2.479683   1.691729   0.000000
     4  C    3.815006   2.735320   1.392653   0.000000
     5  N    4.463513   3.113933   2.380068   1.320123   0.000000
     6  O    5.780471   4.476807   3.504720   2.155174   1.403796
     7  C    5.993117   4.891449   3.543827   2.193355   2.256391
     8  C    7.424954   6.345215   4.968953   3.644290   3.618398
     9  C    8.030136   7.130936   5.603777   4.436387   4.737760
    10  C    9.420538   8.506840   6.993633   5.804758   6.000860
    11  C   10.195109   9.140903   7.740171   6.440046   6.355899
    12  C    9.731112   8.547925   7.298577   5.926938   5.577243
    13  C    8.393652   7.180425   5.981403   4.595948   4.187179
    14  C    4.936648   4.047134   2.493377   1.421274   2.281209
    15  C    2.651042   1.783166   2.804308   3.366815   3.492635
    16  C    3.019363   2.744566   3.496247   4.151580   4.546078
    17  C    4.385415   4.037839   4.732914   5.147335   5.372397
    18  C    5.210638   4.547184   5.304722   5.460666   5.349329
    19  C    5.004163   4.042975   4.878159   4.895791   4.497800
    20  C    3.866572   2.749027   3.688822   3.829902   3.456951
    21  O    2.543072   1.464963   2.551358   3.181067   3.037247
    22  H    2.517445   2.277763   1.019616   2.045378   3.244159
    23  H    7.549059   6.816095   5.209527   4.231796   4.828232
    24  H   10.000407   9.198457   7.627722   6.538807   6.882442
    25  H   11.271688  10.224109   8.818115   7.523517   7.428585
    26  H   10.517307   9.267239   8.121155   6.732117   6.217696
    27  H    8.211766   6.898094   5.898544   4.514105   3.808902
    28  H    5.147219   4.530118   2.885510   2.245956   3.313281
    29  H    2.661967   2.874137   3.452502   4.338720   5.001057
    30  H    5.011137   4.890058   5.481688   5.943510   6.296928
    31  H    6.262204   5.631572   6.346251   6.423034   6.264234
    32  H    5.951486   4.897314   5.702644   5.552854   4.931957
    33  H    4.161087   2.874086   3.781262   3.773899   3.099200
                    6          7          8          9         10
     6  O    0.000000
     7  C    1.354751   0.000000
     8  C    2.403553   1.458717   0.000000
     9  C    3.689438   2.482441   1.404383   0.000000
    10  C    4.827233   3.758286   2.423685   1.391717   0.000000
    11  C    5.028682   4.259740   2.801026   2.418222   1.397607
    12  C    4.182540   3.759418   2.423367   2.792764   2.418254
    13  C    2.791198   2.484656   1.404345   2.424720   2.792923
    14  C    2.219238   1.365791   2.594056   3.111240   4.500478
[...]
 Alpha virt. eigenvalues --    2.56726   2.57123   2.58074   2.60103   2.62084
 Alpha virt. eigenvalues --    2.63016   2.64951   2.66038   2.66326   2.69845
 Alpha virt. eigenvalues --    2.71153   2.71273   2.72145   2.73946   2.74456
 Alpha virt. eigenvalues --    2.75110   2.77148   2.78156   2.82532   2.86696
 Alpha virt. eigenvalues --    2.89352   2.90872   3.01421   3.02722   3.05091
 Alpha virt. eigenvalues --    3.13294   3.26864   3.36945   3.42756   3.76449
 Alpha virt. eigenvalues --    3.81455   3.99812   4.03197   4.06980   4.07638
 Alpha virt. eigenvalues --    4.09295   4.09453   4.10716   4.10786   4.14507
 Alpha virt. eigenvalues --    4.20193   4.23570   4.31227   4.31422   4.35214
 Alpha virt. eigenvalues --    4.36830   4.40649   4.56654   4.65532   4.74028
          Condensed to atoms (all electrons):
               1          2          3          4          5          6
     1  O    8.261207   0.447852  -0.053160   0.001224   0.000005   0.000000
     2  S    0.447852  13.651799   0.120885  -0.012372   0.006370  -0.000267
     3  N   -0.053160   0.120885   7.442325   0.232680  -0.078135   0.005620
     4  C    0.001224  -0.012372   0.232680   4.477336   0.416610  -0.038283
     5  N    0.000005   0.006370  -0.078135   0.416610   6.940040   0.108539
     6  O    0.000000  -0.000267   0.005620  -0.038283   0.108539   8.218555
     7  C    0.000000   0.000259  -0.000825  -0.018331  -0.081475   0.244731
     8  C    0.000000  -0.000007  -0.000212   0.002821   0.004246  -0.037601
     9  C    0.000000   0.000000   0.000003   0.000596  -0.000102   0.003138
    10  C    0.000000   0.000000   0.000000  -0.000006   0.000001  -0.000061
    11  C    0.000000   0.000000   0.000000   0.000000   0.000000   0.000002
    12  C    0.000000   0.000000   0.000000   0.000005   0.000000   0.000286
    13  C    0.000000   0.000000  -0.000001  -0.000347   0.000146  -0.006952
    14  C   -0.000058   0.000945  -0.051863   0.448815  -0.046273  -0.090326
    15  C   -0.058866   0.198887  -0.063116   0.002460  -0.002944   0.000009
    16  C    0.003063  -0.022163  -0.000723   0.000134   0.000059   0.000000
    17  C    0.000425   0.002834  -0.000111  -0.000013  -0.000001   0.000000
    18  C   -0.000005  -0.000286   0.000004   0.000005   0.000003   0.000000
    19  C   -0.000041   0.002641  -0.000070  -0.000006  -0.000156   0.000002
    20  C    0.000945  -0.025204  -0.001656   0.000741   0.001001  -0.000063
    21  O   -0.041298   0.422135  -0.048032  -0.003237   0.001127   0.000047
    22  H    0.002227  -0.005749   0.296071  -0.017857   0.002690  -0.000050
    23  H    0.000000   0.000000  -0.000001   0.000077  -0.000005   0.000023
    24  H    0.000000   0.000000   0.000000   0.000000   0.000000   0.000000
    25  H    0.000000   0.000000   0.000000   0.000000   0.000000   0.000000
    26  H    0.000000   0.000000   0.000000   0.000000   0.000000  -0.000003
    27  H    0.000000   0.000000   0.000000   0.000055  -0.000258   0.009926
    28  H    0.000000  -0.000129  -0.002097  -0.027209   0.004864   0.003325
    29  H    0.006262  -0.000940   0.000110   0.000019  -0.000001   0.000000
    30  H    0.000001  -0.000063   0.000002   0.000000   0.000000   0.000000
    31  H    0.000000   0.000008   0.000000   0.000000   0.000000   0.000000
    32  H    0.000000  -0.000064   0.000001  -0.000001  -0.000009   0.000000
    33  H    0.000054  -0.004131   0.000166  -0.000048   0.002885  -0.000038
               7          8          9         10         11         12
     1  O    0.000000   0.000000   0.000000   0.000000   0.000000   0.000000
     2  S    0.000259  -0.000007   0.000000   0.000000   0.000000   0.000000
     3  N   -0.000825  -0.000212   0.000003   0.000000   0.000000   0.000000
     4  C   -0.018331   0.002821   0.000596  -0.000006   0.000000   0.000005
     5  N   -0.081475   0.004246  -0.000102   0.000001   0.000000   0.000000
     6  O    0.244731  -0.037601   0.003138  -0.000061   0.000002   0.000286
     7  C    4.717383   0.348252  -0.042915   0.006355   0.000871   0.004723
     8  C    0.348252   4.785144   0.536259  -0.011068  -0.033827  -0.009829
     9  C   -0.042915   0.536259   5.014815   0.518778  -0.040230  -0.041439
    10  C    0.006355  -0.011068   0.518778   4.882296   0.540148  -0.026041
    11  C    0.000871  -0.033827  -0.040230   0.540148   4.874433   0.538526
    12  C    0.004723  -0.009829  -0.041439  -0.026041   0.538526   4.891356
    13  C   -0.041085   0.472428  -0.082110  -0.042144  -0.038087   0.506496
    14  C    0.510493  -0.058149  -0.019895   0.000213   0.000015  -0.000231
    15  C   -0.000006   0.000000   0.000000   0.000000   0.000000   0.000000
    16  C    0.000000   0.000000   0.000000   0.000000   0.000000   0.000000
    17  C    0.000000   0.000000   0.000000   0.000000   0.000000   0.000000
    18  C    0.000000   0.000000   0.000000   0.000000   0.000000   0.000000
    19  C    0.000001   0.000000   0.000000   0.000000   0.000000   0.000000
    20  C    0.000020   0.000000   0.000000   0.000000   0.000000   0.000000
    21  O   -0.000011   0.000000   0.000000   0.000000   0.000000   0.000000
    22  H    0.000016   0.000000   0.000000   0.000000   0.000000   0.000000
    23  H   -0.012326  -0.037103   0.357192  -0.041122   0.004485   0.000168
    24  H   -0.000204   0.003217  -0.037265   0.363050  -0.040601   0.004372
    25  H    0.000003   0.000485   0.004809  -0.041458   0.364615  -0.041275
    26  H   -0.000173   0.003228   0.000770   0.004387  -0.040738   0.363503
    27  H   -0.013000  -0.042875   0.005305   0.000197   0.004545  -0.040779
    28  H   -0.025704  -0.003246   0.001196   0.000083  -0.000001   0.000002
    29  H    0.000000   0.000000   0.000000   0.000000   0.000000   0.000000
    30  H    0.000000   0.000000   0.000000   0.000000   0.000000   0.000000
    31  H    0.000000   0.000000   0.000000   0.000000   0.000000   0.000000
    32  H    0.000000   0.000000   0.000000   0.000000   0.000000   0.000000
    33  H    0.000008   0.000000   0.000000   0.000000   0.000000   0.000000
              13         14         15         16         17         18
     1  O    0.000000  -0.000058  -0.058866   0.003063   0.000425  -0.000005
     2  S    0.000000   0.000945   0.198887  -0.022163   0.002834  -0.000286
     3  N   -0.000001  -0.051863  -0.063116  -0.000723  -0.000111   0.000004
     4  C   -0.000347   0.448815   0.002460   0.000134  -0.000013   0.000005
     5  N    0.000146  -0.046273  -0.002944   0.000059  -0.000001   0.000003
     6  O   -0.006952  -0.090326   0.000009   0.000000   0.000000   0.000000
     7  C   -0.041085   0.510493  -0.000006   0.000000   0.000000   0.000000
     8  C    0.472428  -0.058149   0.000000   0.000000   0.000000   0.000000
     9  C   -0.082110  -0.019895   0.000000   0.000000   0.000000   0.000000
    10  C   -0.042144   0.000213   0.000000   0.000000   0.000000   0.000000
    11  C   -0.038087   0.000015   0.000000   0.000000   0.000000   0.000000
    12  C    0.506496  -0.000231   0.000000   0.000000   0.000000   0.000000
    13  C    5.058655   0.011891   0.000000   0.000000   0.000000   0.000000
    14  C    0.011891   5.242099  -0.000126  -0.000023   0.000000   0.000000
    15  C    0.000000  -0.000126   5.349005   0.470582  -0.028291  -0.038603
    16  C    0.000000  -0.000023   0.470582   4.946510   0.515027  -0.031588
    17  C    0.000000   0.000000  -0.028291   0.515027   4.880618   0.537890
    18  C    0.000000   0.000000  -0.038603  -0.031588   0.537890   4.855895
    19  C    0.000000   0.000000  -0.029610  -0.037437  -0.030632   0.539291
    20  C    0.000000   0.000030   0.497995  -0.036500  -0.037376  -0.031818
    21  O    0.000000   0.000013  -0.056482   0.001762  -0.000044  -0.000004
    22  H    0.000000  -0.004644  -0.000045   0.000276   0.000015   0.000000
    23  H    0.005588   0.005890   0.000000   0.000000   0.000000   0.000000
    24  H    0.000794  -0.000001   0.000000   0.000000   0.000000   0.000000
    25  H    0.004666   0.000000   0.000000   0.000000   0.000000   0.000000
    26  H   -0.037340   0.000001   0.000000   0.000000   0.000000   0.000000
    27  H    0.362839   0.000269   0.000000   0.000000   0.000000   0.000000
    28  H   -0.000103   0.352894   0.000003   0.000001   0.000000   0.000000
    29  H    0.000000   0.000002  -0.051500   0.364330  -0.032296   0.004172
    30  H    0.000000   0.000000   0.004779  -0.040595   0.366983  -0.039771
    31  H    0.000000   0.000000   0.000456   0.004863  -0.040665   0.365419
    32  H    0.000000   0.000000   0.004765   0.000616   0.004252  -0.039990
    33  H    0.000000   0.000010  -0.046274   0.004488   0.000224   0.004229
              19         20         21         22         23         24
     1  O   -0.000041   0.000945  -0.041298   0.002227   0.000000   0.000000
     2  S    0.002641  -0.025204   0.422135  -0.005749   0.000000   0.000000
     3  N   -0.000070  -0.001656  -0.048032   0.296071  -0.000001   0.000000
     4  C   -0.000006   0.000741  -0.003237  -0.017857   0.000077   0.000000
     5  N   -0.000156   0.001001   0.001127   0.002690  -0.000005   0.000000
     6  O    0.000002  -0.000063   0.000047  -0.000050   0.000023   0.000000
     7  C    0.000001   0.000020  -0.000011   0.000016  -0.012326  -0.000204
     8  C    0.000000   0.000000   0.000000   0.000000  -0.037103   0.003217
     9  C    0.000000   0.000000   0.000000   0.000000   0.357192  -0.037265
    10  C    0.000000   0.000000   0.000000   0.000000  -0.041122   0.363050
    11  C    0.000000   0.000000   0.000000   0.000000   0.004485  -0.040601
    12  C    0.000000   0.000000   0.000000   0.000000   0.000168   0.004372
    13  C    0.000000   0.000000   0.000000   0.000000   0.005588   0.000794
    14  C    0.000000   0.000030   0.000013  -0.004644   0.005890  -0.000001
    15  C   -0.029610   0.497995  -0.056482  -0.000045   0.000000   0.000000
    16  C   -0.037437  -0.036500   0.001762   0.000276   0.000000   0.000000
    17  C   -0.030632  -0.037376  -0.000044   0.000015   0.000000   0.000000
    18  C    0.539291  -0.031818  -0.000004   0.000000   0.000000   0.000000
    19  C    4.889803   0.508420   0.000497   0.000002   0.000000   0.000000
    20  C    0.508420   4.921269   0.002377  -0.000010   0.000000   0.000000
    21  O    0.000497   0.002377   8.276866   0.001258   0.000000   0.000000
    22  H    0.000002  -0.000010   0.001258   0.293354   0.000000   0.000000
    23  H    0.000000   0.000000   0.000000   0.000000   0.555070  -0.004852
    24  H    0.000000   0.000000   0.000000   0.000000  -0.004852   0.556148
    25  H    0.000000   0.000000   0.000000   0.000000  -0.000154  -0.005077
    26  H    0.000000   0.000000   0.000000   0.000000   0.000015  -0.000161
    27  H    0.000000   0.000000   0.000000   0.000000  -0.000138   0.000015
    28  H    0.000000  -0.000001   0.000001   0.001751   0.001872  -0.000002
    29  H    0.000317   0.004166   0.000071   0.000114   0.000000   0.000000
    30  H    0.004258   0.000608   0.000000   0.000000   0.000000   0.000000
    31  H   -0.040692   0.004767   0.000000   0.000000   0.000000   0.000000
    32  H    0.367225  -0.040657   0.000002   0.000000   0.000000   0.000000
    33  H   -0.034073   0.362512   0.009073  -0.000009   0.000000   0.000000
              25         26         27         28         29         30
     1  O    0.000000   0.000000   0.000000   0.000000   0.006262   0.000001
     2  S    0.000000   0.000000   0.000000  -0.000129  -0.000940  -0.000063
     3  N    0.000000   0.000000   0.000000  -0.002097   0.000110   0.000002
     4  C    0.000000   0.000000   0.000055  -0.027209   0.000019   0.000000
     5  N    0.000000   0.000000  -0.000258   0.004864  -0.000001   0.000000
     6  O    0.000000  -0.000003   0.009926   0.003325   0.000000   0.000000
     7  C    0.000003  -0.000173  -0.013000  -0.025704   0.000000   0.000000
     8  C    0.000485   0.003228  -0.042875  -0.003246   0.000000   0.000000
     9  C    0.004809   0.000770   0.005305   0.001196   0.000000   0.000000
    10  C   -0.041458   0.004387   0.000197   0.000083   0.000000   0.000000
    11  C    0.364615  -0.040738   0.004545  -0.000001   0.000000   0.000000
    12  C   -0.041275   0.363503  -0.040779   0.000002   0.000000   0.000000
    13  C    0.004666  -0.037340   0.362839  -0.000103   0.000000   0.000000
    14  C    0.000000   0.000001   0.000269   0.352894   0.000002   0.000000
    15  C    0.000000   0.000000   0.000000   0.000003  -0.051500   0.004779
    16  C    0.000000   0.000000   0.000000   0.000001   0.364330  -0.040595
    17  C    0.000000   0.000000   0.000000   0.000000  -0.032296   0.366983
    18  C    0.000000   0.000000   0.000000   0.000000   0.004172  -0.039771
    19  C    0.000000   0.000000   0.000000   0.000000   0.000317   0.004258
    20  C    0.000000   0.000000   0.000000  -0.000001   0.004166   0.000608
    21  O    0.000000   0.000000   0.000000   0.000001   0.000071   0.000000
    22  H    0.000000   0.000000   0.000000   0.001751   0.000114   0.000000
    23  H   -0.000154   0.000015  -0.000138   0.001872   0.000000   0.000000
    24  H   -0.005077  -0.000161   0.000015  -0.000002   0.000000   0.000000
    25  H    0.559062  -0.005057  -0.000150   0.000000   0.000000   0.000000
    26  H   -0.005057   0.556316  -0.004890   0.000000   0.000000   0.000000
    27  H   -0.000150  -0.004890   0.552783  -0.000008   0.000000   0.000000
    28  H    0.000000   0.000000  -0.000008   0.495760   0.000000   0.000000
    29  H    0.000000   0.000000   0.000000   0.000000   0.523804  -0.005167
    30  H    0.000000   0.000000   0.000000   0.000000  -0.005167   0.542587
    31  H    0.000000   0.000000   0.000000   0.000000  -0.000141  -0.005071
    32  H    0.000000   0.000000   0.000000   0.000000   0.000014  -0.000154
    33  H    0.000000   0.000000   0.000000   0.000000  -0.000139   0.000013
              31         32         33
     1  O    0.000000   0.000000   0.000054
     2  S    0.000008  -0.000064  -0.004131
     3  N    0.000000   0.000001   0.000166
     4  C    0.000000  -0.000001  -0.000048
     5  N    0.000000  -0.000009   0.002885
     6  O    0.000000   0.000000  -0.000038
     7  C    0.000000   0.000000   0.000008
     8  C    0.000000   0.000000   0.000000
     9  C    0.000000   0.000000   0.000000
    10  C    0.000000   0.000000   0.000000
    11  C    0.000000   0.000000   0.000000
    12  C    0.000000   0.000000   0.000000
    13  C    0.000000   0.000000   0.000000
    14  C    0.000000   0.000000   0.000010
    15  C    0.000456   0.004765  -0.046274
    16  C    0.004863   0.000616   0.004488
    17  C   -0.040665   0.004252   0.000224
    18  C    0.365419  -0.039990   0.004229
    19  C   -0.040692   0.367225  -0.034073
    20  C    0.004767  -0.040657   0.362512
    21  O    0.000000   0.000002   0.009073
    22  H    0.000000   0.000000  -0.000009
    23  H    0.000000   0.000000   0.000000
    24  H    0.000000   0.000000   0.000000
    25  H    0.000000   0.000000   0.000000
    26  H    0.000000   0.000000   0.000000
    27  H    0.000000   0.000000   0.000000
    28  H    0.000000   0.000000   0.000000
    29  H   -0.000141   0.000014  -0.000139
    30  H   -0.005071  -0.000154   0.000013
    31  H    0.545770  -0.005111  -0.000136
    32  H   -0.005111   0.542819  -0.005028
    33  H   -0.000136  -0.005028   0.519013
 Mulliken charges:
               1
     1  O   -0.569836
     2  S    1.216760
     3  N   -0.797865
     4  C    0.534133
     5  N   -0.279226
     6  O   -0.420561
     7  C    0.402940
     8  C    0.077837
     9  C   -0.178905
    10  C   -0.153608
    11  C   -0.134155
    12  C   -0.149842
    13  C   -0.175335
    14  C   -0.301991
    15  C   -0.153078
    16  C   -0.142680
    17  C   -0.138839
    18  C   -0.124843
    19  C   -0.139740
    20  C   -0.131567
    21  O   -0.566121
    22  H    0.430592
    23  H    0.165323
    24  H    0.160568
    25  H    0.159533
    26  H    0.160142
    27  H    0.166165
    28  H    0.196752
    29  H    0.186805
    30  H    0.171589
    31  H    0.170533
    32  H    0.171321
    33  H    0.187200
 Sum of Mulliken charges =   0.00000
 Mulliken charges with hydrogens summed into heavy atoms:
               1
     1  O   -0.569836
     2  S    1.216760
     3  N   -0.367273
     4  C    0.534133
     5  N   -0.279226
     6  O   -0.420561
     7  C    0.402940
     8  C    0.077837
     9  C   -0.013583
    10  C    0.006960
    11  C    0.025377
    12  C    0.010301
    13  C   -0.009170
    14  C   -0.105239
    15  C   -0.153078
    16  C    0.044125
    17  C    0.032750
    18  C    0.045691
    19  C    0.031582
    20  C    0.055633
    21  O   -0.566121
 Electronic spatial extent (au):  <R**2>=           8447.8421
 Charge=              0.0000 electrons
 Dipole moment (field-independent basis, Debye):
    X=             -5.0139    Y=              5.4075    Z=              6.7158  Tot=              9.9741
 Quadrupole moment (field-independent basis, Debye-Ang):
   XX=           -114.2704   YY=           -124.0821   ZZ=           -118.6887
   XY=             20.3804   XZ=              4.0073   YZ=            -10.2590
 Traceless Quadrupole moment (field-independent basis, Debye-Ang):
   XX=              4.7433   YY=             -5.0684   ZZ=              0.3251
   XY=             20.3804   XZ=              4.0073   YZ=            -10.2590
 Octapole moment (field-independent basis, Debye-Ang**2):
  XXX=           -174.9780  YYY=             39.2409  ZZZ=             24.0520  XYY=             14.5406
  XXY=            100.7439  XXZ=             34.3090  XZZ=             -3.3127  YZZ=              6.6646
  YYZ=              6.8159  XYZ=             15.1439
 Hexadecapole moment (field-independent basis, Debye-Ang**3):
 XXXX=          -8141.3485 YYYY=          -1539.1218 ZZZZ=           -780.3395 XXXY=              4.4476
 XXXZ=            -32.1572 YYYX=            172.0859 YYYZ=            -14.3786 ZZZX=             35.6681
 ZZZY=            -43.8558 XXYY=          -1773.3220 XXZZ=          -1481.5881 YYZZ=           -382.7186
 XXYZ=            -36.6200 YYXZ=             33.7349 ZZXY=             43.2769
 N-N= 1.710348890417D+03 E-N=-6.492433516703D+03  KE= 1.302074826667D+03
 No NMR shielding tensors so no spin-rotation constants.
 Leave Link  601 at Thu Aug  6 22:04:58 2020, MaxMem=    33554432 cpu:         0.3
 (Enter /prod/apps/gaussian/g09d1/l9999.exe)
 1\1\GINC-PIRINEUS9\SP\RB3LYP\6-31G(d)\C15H12N2O3S1\UBAFAR01\06-Aug-202
 0\0\\#p b3lyp/6-31G(d) scrf=(iefpcm,read,solvent=Water) geom=allcheck 
 guess=read\\SM42.n.9.pdb.xyz\\0,1\O,0,2.958,2.698,-0.426\S,0,3.168,2.2
 83,-1.817\N,0,2.229,0.882,-1.949\C,0,2.014,0.181,-3.133\N,0,2.82,0.278
 ,-4.174\O,0,2.272,-0.595,-5.127\C,0,1.164,-1.188,-4.621\C,0,0.462,-2.1
 37,-5.478\C,0,-0.689,-2.793,-5.012\C,0,-1.359,-3.697,-5.831\C,0,-0.891
 ,-3.957,-7.122\C,0,0.254,-3.307,-7.59\C,0,0.928,-2.402,-6.776\C,0,0.94
 7,-0.732,-3.352\C,0,2.46,3.51,-2.9\C,0,1.339,4.223,-2.468\C,0,0.785,5.
 176,-3.319\C,0,1.348,5.405,-4.577\C,0,2.471,4.687,-4.992\C,0,3.038,3.7
 28,-4.152\O,0,4.514,1.962,-2.298\H,0,1.441,0.89,-1.302\H,0,-1.057,-2.5
 95,-4.011\H,0,-2.247,-4.198,-5.462\H,0,-1.415,-4.662,-7.758\H,0,0.622,
 -3.506,-8.591\H,0,1.816,-1.896,-7.136\H,0,0.156,-0.992,-2.668\H,0,0.92
 ,4.043,-1.486\H,0,-0.082,5.741,-2.997\H,0,0.913,6.15,-5.234\H,0,2.91,4
 .872,-5.966\H,0,3.913,3.165,-4.449\\Version=AM64L-G09RevD.01\State=1-A
 \HF=-1312.0892931\RMSD=8.244e-09\Dipole=-3.7206632,-0.2520203,-1.22136
 37\Quadrupole=-9.9958485,14.7702719,-4.7744234,1.6172559,-11.2322148,-
 3.2830027\PG=C01 [X(C15H12N2O3S1)]\\@


 FOR THE NATURE OF THE CHEMICAL BOND
 IS THE PROBLEM AT THE HEART OF ALL CHEMISTRY.

                     -- BRYCE CRAWFORD, JR., 1953
 Job cpu time:       0 days  0 hours  3 minutes 30.7 seconds.
 File lengths (MBytes):  RWF=    196 Int=      0 D2E=      0 Chk=      7 Scr=      1
 Normal termination of Gaussian 09 at Thu Aug  6 22:04:58 2020.
