 Entering Gaussian System, Link 0=g09
 Initial command:
 /prod/apps/gaussian/g09d1/l1.exe "/tmp/ubafar01/1448655/Gau-22708.inp" -scrdir="/tmp/ubafar01/1448655/"
 Entering Link 1 = /prod/apps/gaussian/g09d1/l1.exe PID=     22710.
  
 Copyright (c) 1988,1990,1992,1993,1995,1998,2003,2009,2013,
            Gaussian, Inc.  All Rights Reserved.
  
 This is part of the Gaussian(R) 09 program.  It is based on
 the Gaussian(R) 03 system (copyright 2003, Gaussian, Inc.),
 the Gaussian(R) 98 system (copyright 1998, Gaussian, Inc.),
 the Gaussian(R) 94 system (copyright 1995, Gaussian, Inc.),
 the Gaussian 92(TM) system (copyright 1992, Gaussian, Inc.),
 the Gaussian 90(TM) system (copyright 1990, Gaussian, Inc.),
 the Gaussian 88(TM) system (copyright 1988, Gaussian, Inc.),
 the Gaussian 86(TM) system (copyright 1986, Carnegie Mellon
 University), and the Gaussian 82(TM) system (copyright 1983,
 Carnegie Mellon University). Gaussian is a federally registered
 trademark of Gaussian, Inc.
  
 This software contains proprietary and confidential information,
 including trade secrets, belonging to Gaussian, Inc.
  
 This software is provided under written license and may be
 used, copied, transmitted, or stored only in accord with that
 written license.
  
 The following legend is applicable only to US Government
 contracts under FAR:
  
                    RESTRICTED RIGHTS LEGEND
  
 Use, reproduction and disclosure by the US Government is
 subject to restrictions as set forth in subparagraphs (a)
 and (c) of the Commercial Computer Software - Restricted
 Rights clause in FAR 52.227-19.
  
 Gaussian, Inc.
 340 Quinnipiac St., Bldg. 40, Wallingford CT 06492
  
  
 ---------------------------------------------------------------
 Warning -- This program may not be used in any manner that
 competes with the business of Gaussian, Inc. or will provide
 assistance to any competitor of Gaussian, Inc.  The licensee
 of this program is prohibited from giving any competitor of
 Gaussian, Inc. access to this program.  By using this program,
 the user acknowledges that Gaussian, Inc. is engaged in the
 business of creating and licensing software in the field of
 computational chemistry and represents and warrants to the
 licensee that it is not a competitor of Gaussian, Inc. and that
 it will not use this program in any manner prohibited above.
 ---------------------------------------------------------------
  

 Cite this work as:
 Gaussian 09, Revision D.01,
 M. J. Frisch, G. W. Trucks, H. B. Schlegel, G. E. Scuseria, 
 M. A. Robb, J. R. Cheeseman, G. Scalmani, V. Barone, B. Mennucci, 
 G. A. Petersson, H. Nakatsuji, M. Caricato, X. Li, H. P. Hratchian, 
 A. F. Izmaylov, J. Bloino, G. Zheng, J. L. Sonnenberg, M. Hada, 
 M. Ehara, K. Toyota, R. Fukuda, J. Hasegawa, M. Ishida, T. Nakajima, 
 Y. Honda, O. Kitao, H. Nakai, T. Vreven, J. A. Montgomery, Jr., 
 J. E. Peralta, F. Ogliaro, M. Bearpark, J. J. Heyd, E. Brothers, 
 K. N. Kudin, V. N. Staroverov, T. Keith, R. Kobayashi, J. Normand, 
 K. Raghavachari, A. Rendell, J. C. Burant, S. S. Iyengar, J. Tomasi, 
 M. Cossi, N. Rega, J. M. Millam, M. Klene, J. E. Knox, J. B. Cross, 
 V. Bakken, C. Adamo, J. Jaramillo, R. Gomperts, R. E. Stratmann, 
 O. Yazyev, A. J. Austin, R. Cammi, C. Pomelli, J. W. Ochterski, 
 R. L. Martin, K. Morokuma, V. G. Zakrzewski, G. A. Voth, 
 P. Salvador, J. J. Dannenberg, S. Dapprich, A. D. Daniels, 
 O. Farkas, J. B. Foresman, J. V. Ortiz, J. Cioslowski, 
 and D. J. Fox, Gaussian, Inc., Wallingford CT, 2013.
 
 ******************************************
 Gaussian 09:  AM64L-G09RevD.01 24-Apr-2013
                 6-Aug-2020 
 ******************************************
 %nproc=1
 Will use up to    1 processors via shared memory.
 %Chk=SM43.n.3.pdb.xyz.mst.n.o.chk
 -----------------
 #p b3lyp/6-31G(d)
 -----------------
 1/38=1/1;
 2/12=2,17=6,18=5,40=1/2;
 3/5=1,6=6,7=1,11=2,16=1,25=1,30=1,74=-5/1,2,3;
 4//1;
 5/5=2,38=5/2;
 6/7=2,8=2,9=2,10=2,28=1/1;
 99/5=1,9=1/99;
 Leave Link    1 at Thu Aug  6 22:12:46 2020, MaxMem=           0 cpu:         0.0
 (Enter /prod/apps/gaussian/g09d1/l101.exe)
 ----------------
 SM43.n.3.pdb.xyz
 ----------------
 Symbolic Z-matrix:
 Charge =  0 Multiplicity = 1
 O                     1.257    -3.933     1.945 
 S                     2.321    -3.08      1.423 
 N                     2.139    -1.464     1.896 
 C                     1.651    -1.063     3.142 
 N                     1.816    -1.789     4.229 
 O                     1.223    -1.03      5.25 
 C                     0.735     0.125     4.742 
 C                     0.083     1.045     5.668 
 C                    -0.037     0.72      7.028 
 C                    -0.661     1.602     7.905 
 C                    -1.172     2.815     7.438 
 C                    -1.056     3.142     6.085 
 C                    -0.433     2.265     5.204 
 C                     0.976     0.163     3.397 
 N                     3.714    -3.47      2.242 
 C                     3.871    -4.879     2.617 
 C                     4.93     -2.805     1.763 
 O                     2.51     -2.962    -0.027 
 H                     1.848    -0.894     1.108 
 H                     0.361    -0.222     7.386 
 H                    -0.749     1.343     8.955 
 H                    -1.659     3.5       8.123 
 H                    -1.451     4.083     5.716 
 H                    -0.344     2.523     4.155 
 H                     0.714     0.933     2.689 
 H                     2.932    -5.25      3.022 
 H                     4.636    -4.923     3.394 
 H                     4.184    -5.507     1.774 
 H                     4.723    -1.745     1.612 
 H                     5.306    -3.242     0.831 
 H                     5.687    -2.907     2.542 
 
 NAtoms=     31 NQM=       31 NQMF=       0 NMMI=      0 NMMIF=      0
                NMic=       0 NMicF=      0.
                    Isotopes and Nuclear Properties:
 (Nuclear quadrupole moments (NQMom) in fm**2, nuclear magnetic moments (NMagM)
  in nuclear magnetons)

  Atom         1           2           3           4           5           6           7           8           9          10
 IAtWgt=          16          32          14          12          14          16          12          12          12          12
 AtmWgt=  15.9949146  31.9720718  14.0030740  12.0000000  14.0030740  15.9949146  12.0000000  12.0000000  12.0000000  12.0000000
 NucSpn=           0           0           2           0           2           0           0           0           0           0
 AtZEff=   0.0000000   0.0000000   0.0000000   0.0000000   0.0000000   0.0000000   0.0000000   0.0000000   0.0000000   0.0000000
 NQMom=    0.0000000   0.0000000   2.0440000   0.0000000   2.0440000   0.0000000   0.0000000   0.0000000   0.0000000   0.0000000
 NMagM=    0.0000000   0.0000000   0.4037610   0.0000000   0.4037610   0.0000000   0.0000000   0.0000000   0.0000000   0.0000000
 AtZNuc=   8.0000000  16.0000000   7.0000000   6.0000000   7.0000000   8.0000000   6.0000000   6.0000000   6.0000000   6.0000000

  Atom        11          12          13          14          15          16          17          18          19          20
 IAtWgt=          12          12          12          12          14          12          12          16           1           1
 AtmWgt=  12.0000000  12.0000000  12.0000000  12.0000000  14.0030740  12.0000000  12.0000000  15.9949146   1.0078250   1.0078250
 NucSpn=           0           0           0           0           2           0           0           0           1           1
 AtZEff=   0.0000000   0.0000000   0.0000000   0.0000000   0.0000000   0.0000000   0.0000000   0.0000000   0.0000000   0.0000000
 NQMom=    0.0000000   0.0000000   0.0000000   0.0000000   2.0440000   0.0000000   0.0000000   0.0000000   0.0000000   0.0000000
 NMagM=    0.0000000   0.0000000   0.0000000   0.0000000   0.4037610   0.0000000   0.0000000   0.0000000   2.7928460   2.7928460
 AtZNuc=   6.0000000   6.0000000   6.0000000   6.0000000   7.0000000   6.0000000   6.0000000   8.0000000   1.0000000   1.0000000

  Atom        21          22          23          24          25          26          27          28          29          30
 IAtWgt=           1           1           1           1           1           1           1           1           1           1
 AtmWgt=   1.0078250   1.0078250   1.0078250   1.0078250   1.0078250   1.0078250   1.0078250   1.0078250   1.0078250   1.0078250
 NucSpn=           1           1           1           1           1           1           1           1           1           1
 AtZEff=   0.0000000   0.0000000   0.0000000   0.0000000   0.0000000   0.0000000   0.0000000   0.0000000   0.0000000   0.0000000
 NQMom=    0.0000000   0.0000000   0.0000000   0.0000000   0.0000000   0.0000000   0.0000000   0.0000000   0.0000000   0.0000000
 NMagM=    2.7928460   2.7928460   2.7928460   2.7928460   2.7928460   2.7928460   2.7928460   2.7928460   2.7928460   2.7928460
 AtZNuc=   1.0000000   1.0000000   1.0000000   1.0000000   1.0000000   1.0000000   1.0000000   1.0000000   1.0000000   1.0000000

  Atom        31
 IAtWgt=           1
 AtmWgt=   1.0078250
 NucSpn=           1
 AtZEff=   0.0000000
 NQMom=    0.0000000
 NMagM=    2.7928460
 AtZNuc=   1.0000000
 Leave Link  101 at Thu Aug  6 22:12:46 2020, MaxMem=    33554432 cpu:         0.1
 (Enter /prod/apps/gaussian/g09d1/l202.exe)
                          Input orientation:                          
 ---------------------------------------------------------------------
 Center     Atomic      Atomic             Coordinates (Angstroms)
 Number     Number       Type             X           Y           Z
 ---------------------------------------------------------------------
      1          8           0        1.257000   -3.933000    1.945000
      2         16           0        2.321000   -3.080000    1.423000
      3          7           0        2.139000   -1.464000    1.896000
      4          6           0        1.651000   -1.063000    3.142000
      5          7           0        1.816000   -1.789000    4.229000
      6          8           0        1.223000   -1.030000    5.250000
      7          6           0        0.735000    0.125000    4.742000
      8          6           0        0.083000    1.045000    5.668000
      9          6           0       -0.037000    0.720000    7.028000
     10          6           0       -0.661000    1.602000    7.905000
     11          6           0       -1.172000    2.815000    7.438000
     12          6           0       -1.056000    3.142000    6.085000
     13          6           0       -0.433000    2.265000    5.204000
     14          6           0        0.976000    0.163000    3.397000
     15          7           0        3.714000   -3.470000    2.242000
     16          6           0        3.871000   -4.879000    2.617000
     17          6           0        4.930000   -2.805000    1.763000
     18          8           0        2.510000   -2.962000   -0.027000
     19          1           0        1.848000   -0.894000    1.108000
     20          1           0        0.361000   -0.222000    7.386000
     21          1           0       -0.749000    1.343000    8.955000
     22          1           0       -1.659000    3.500000    8.123000
     23          1           0       -1.451000    4.083000    5.716000
     24          1           0       -0.344000    2.523000    4.155000
     25          1           0        0.714000    0.933000    2.689000
     26          1           0        2.932000   -5.250000    3.022000
     27          1           0        4.636000   -4.923000    3.394000
     28          1           0        4.184000   -5.507000    1.774000
     29          1           0        4.723000   -1.745000    1.612000
     30          1           0        5.306000   -3.242000    0.831000
     31          1           0        5.687000   -2.907000    2.542000
 ---------------------------------------------------------------------
                    Distance matrix (angstroms):
                    1          2          3          4          5
     1  O    0.000000
     2  S    1.460202   0.000000
     3  N    2.622267   1.693608   0.000000
     4  C    3.134477   2.733523   1.396947   0.000000
     5  N    3.182118   3.129751   2.377571   1.317524   0.000000
     6  O    4.399044   4.478173   3.503816   2.151264   1.403628
     7  C    4.956113   4.878850   3.549064   2.193262   2.257239
     8  C    6.326096   6.328056   4.974957   3.644580   3.620161
     9  C    7.011543   7.170508   5.986840   4.596676   4.190834
    10  C    8.356826   8.534036   7.304001   5.927372   5.580984
    11  C    9.033748   9.117692   7.745084   6.439241   6.357880
    12  C    8.517347   8.476536   6.997927   5.802682   6.000657
    13  C    7.203637   7.102781   5.609232   4.435142   4.737462
    14  C    4.354823   4.027748   2.500540   1.422577   2.282132
    15  N    2.517822   1.662321   2.573787   3.295393   3.221232
    16  C    2.859982   2.657920   3.896394   4.445884   4.045945
    17  C    3.846614   2.645393   3.099298   3.960814   4.100050
    18  O    2.530145   1.467019   2.465679   3.792973   4.468904
    19  H    3.207081   2.258661   1.015148   2.050494   3.246951
    20  H    6.646715   6.896893   5.902876   4.514744   3.813025
    21  H    9.000017   9.258448   8.127070   6.733484   6.222839
    22  H   10.095555  10.199353   8.822790   7.522462   7.430503
    23  H    9.263367   9.163318   7.632150   6.536757   6.882212
    24  H    7.009082   6.779355   5.211961   4.226771   4.823320
    25  H    4.952408   4.504373   2.899152   2.251043   3.315914
    26  H    2.387476   2.763878   4.028712   4.380220   3.831557
    27  H    3.807538   3.555378   4.521470   4.886034   4.297858
    28  H    3.327769   3.079659   4.532412   5.294964   5.045589
    29  H    4.112346   2.754551   2.614703   3.499030   3.911684
    30  H    4.255923   3.047447   3.784891   4.842292   5.083081
    31  H    4.586282   3.551344   3.884311   4.477682   4.368127
                    6          7          8          9         10
     6  O    0.000000
     7  C    1.352861   0.000000
     8  C    2.404152   1.459102   0.000000
     9  C    2.794885   2.485117   1.403433   0.000000
    10  C    4.186395   3.759643   2.422386   1.391556   0.000000
    11  C    5.030645   4.259245   2.800147   2.417716   1.396631
    12  C    4.826660   3.756810   2.422523   2.791719   2.416614
    13  C    3.688018   2.481384   1.403550   2.422977   2.790511
    14  C    2.217626   1.366949   2.594767   3.810588   5.007250
    15  N    4.605078   5.296080   6.731037   7.384572   8.771281
    16  C    5.362779   6.276156   7.664941   8.128849   9.513429
    17  C    5.389958   5.920926   7.318807   8.050897   9.402398
    18  O    5.765043   5.951769   7.374239   8.355678   9.685141
    19  H    4.191096   3.934855   5.260090   6.419083   7.663179
    20  H    2.440984   2.692772   2.152695   1.083481   2.154256
    21  H    4.821508   4.629811   3.403733   2.146719   1.085046
    22  H    6.089413   5.343503   3.884407   3.399751   2.155442
    23  H    5.788800   4.625261   3.403660   3.876920   3.401644
    24  H    4.034640   2.694293   2.157772   3.405758   3.874433
    25  H    3.266676   2.206380   3.047154   4.408661   5.435517
    26  H    5.068833   6.056058   7.398996   7.778425   9.148948
    27  H    5.499887   6.520522   7.843335   8.178407   9.538499
    28  H    6.394812   7.240445   8.655064   9.175886  10.564141
    29  H    5.098654   5.403512   6.764971   7.620163   8.932621
    30  H    6.410257   6.893958   8.309914   9.091089  10.445616
    31  H    5.548305   6.209294   7.536245   8.126715   9.454626
                   11         12         13         14         15
    11  C    0.000000
    12  C    1.396780   0.000000
    13  C    2.416480   1.390474   0.000000
    14  C    5.289299   4.497645   3.109491   0.000000
    15  N    9.506452   9.013329   7.672110   4.693544   0.000000
    16  C   10.386122  10.031889   8.732338   5.866105   1.466477
    17  C   10.051091   9.480437   8.142920   5.207024   1.466398
    18  O   10.131983   9.345144   7.959029   4.882884   2.618404
    19  H    7.933850   7.035129   5.653270   2.667799   3.376935
    20  H    3.402376   3.875176   3.402459   4.054451   6.946427
    21  H    2.155691   3.401110   3.875557   5.937962   9.388701
    22  H    1.084260   2.155277   3.398362   6.357190  10.584715
    23  H    2.156606   1.085204   2.145598   5.160861   9.787426
    24  H    3.398373   2.148256   1.083922   2.808303   7.486186
    25  H    5.445358   4.421018   3.068397   1.078336   5.346608
    26  H   10.069166   9.783240   8.518191   5.767766   2.094833
    27  H   10.486346  10.231548   8.979878   6.266020   2.070845
    28  H   11.402777  10.993067   9.668794   6.713739   2.142264
    29  H    9.459752   8.791322   7.454321   4.568008   2.095377
    30  H   11.059122  10.432402   9.076690   6.076782   2.139479
    31  H   10.186166   9.726834   8.443354   5.687657   2.073571
                   16         17         18         19         20
    16  C    0.000000
    17  C    2.480378   0.000000
    18  O    3.538071   3.014158   0.000000
    19  H    4.716973   3.685060   2.450121   0.000000
    20  H    7.533333   7.691929   8.190139   6.486604   0.000000
    21  H   10.011390  10.058917  10.480001   8.562943   2.478525
    22  H   11.450091  11.118343  11.205378   8.989800   4.298471
    23  H   10.874048  10.187635   9.914817   7.542386   4.960370
    24  H    8.655708   7.869201   7.464561   5.075920   4.297838
    25  H    6.614467   5.710059   5.076741   2.668978   4.849788
    26  H    1.087836   3.399281   3.835287   4.879876   7.136899
    27  H    1.091279   2.689335   4.479803   5.406624   7.504072
    28  H    1.096814   2.803113   3.538771   5.213465   8.604714
    29  H    3.399689   1.090527   3.010777   3.040369   7.394975
    30  H    2.815811   1.095887   2.938057   4.188985   8.748797
    31  H    2.681840   1.091006   4.086088   4.565791   7.683738
                   21         22         23         24         25
    21  H    0.000000
    22  H    2.484547   0.000000
    23  H    4.300177   2.485317   0.000000
    24  H    4.959478   4.292875   2.468961   0.000000
    25  H    6.447575   6.461345   4.875700   2.407617   0.000000
    26  H    9.603015  11.120251  10.657073   8.510899   6.577226
    27  H    9.959202  11.529848  11.115363   8.990130   7.083209
    28  H   11.082588  12.473031  11.800877   9.521179   7.372362
    29  H    9.664273  10.518226   9.430094   7.096278   4.940010
    30  H   11.121359  12.130089  11.098464   8.729645   6.478368
    31  H   10.030512  11.232138  10.482625   8.274033   6.284738
                   26         27         28         29         30
    26  H    0.000000
    27  H    1.774522   0.000000
    28  H    1.786353   1.780382   0.000000
    29  H    4.181005   3.644554   3.803868   0.000000
    30  H    3.803738   3.137456   2.697843   1.786298   0.000000
    31  H    3.648297   2.427913   3.099812   1.773257   1.784631
                   31
    31  H    0.000000
 Stoichiometry    C11H13N3O3S
 Framework group  C1[X(C11H13N3O3S)]
 Deg. of freedom    87
 Full point group                 C1      NOp   1
 Largest Abelian subgroup         C1      NOp   1
 Largest concise Abelian subgroup C1      NOp   1
                         Standard orientation:                         
 ---------------------------------------------------------------------
 Center     Atomic      Atomic             Coordinates (Angstroms)
 Number     Number       Type             X           Y           Z
 ---------------------------------------------------------------------
      1          8           0       -2.822607    0.035942   -1.809811
      2         16           0       -3.058305   -0.523685   -0.481860
      3          7           0       -1.629588   -1.062021    0.251128
      4          6           0       -0.392418   -0.427762    0.114795
      5          7           0       -0.285309    0.870817   -0.080368
      6          8           0        1.097928    1.104963   -0.125119
      7          6           0        1.768319   -0.056211    0.055118
      8          6           0        3.226299   -0.000518    0.041917
      9          6           0        3.890213    1.218322   -0.166108
     10          6           0        5.280982    1.263483   -0.178389
     11          6           0        6.024613    0.097282    0.015439
     12          6           0        5.368050   -1.118225    0.221501
     13          6           0        3.978592   -1.169520    0.235413
     14          6           0        0.870622   -1.074968    0.212667
     15          7           0       -3.446335    0.740329    0.525618
     16          6           0       -4.214724    1.834845   -0.076186
     17          6           0       -3.847877    0.359295    1.883521
     18          8           0       -3.943619   -1.683637   -0.330617
     19          1           0       -1.601320   -2.076574    0.271320
     20          1           0        3.309371    2.120609   -0.315879
     21          1           0        5.786166    2.210157   -0.339392
     22          1           0        7.108165    0.134751    0.004088
     23          1           0        5.940227   -2.027846    0.372729
     24          1           0        3.472906   -2.114576    0.396774
     25          1           0        1.065479   -2.124099    0.368113
     26          1           0       -3.789880    2.081032   -1.046900
     27          1           0       -4.118105    2.698313    0.584100
     28          1           0       -5.278081    1.590818   -0.188992
     29          1           0       -3.150400   -0.385813    2.267696
     30          1           0       -4.868156   -0.038893    1.921544
     31          1           0       -3.784502    1.252933    2.506168
 ---------------------------------------------------------------------
 Rotational constants (GHZ):      1.2443952      0.1515124      0.1450770
 Leave Link  202 at Thu Aug  6 22:12:46 2020, MaxMem=    33554432 cpu:         0.0
 (Enter /prod/apps/gaussian/g09d1/l301.exe)
 Standard basis: 6-31G(d) (6D, 7F)
 Ernie: Thresh=  0.10000D-02 Tol=  0.10000D-05 Strict=F.
 There are   300 symmetry adapted cartesian basis functions of A   symmetry.
 There are   300 symmetry adapted basis functions of A   symmetry.
   300 basis functions,   580 primitive gaussians,   300 cartesian basis functions
    70 alpha electrons       70 beta electrons
       nuclear repulsion energy      1443.8800766780 Hartrees.
 IExCor=  402 DFT=T Ex+Corr=B3LYP ExCW=0 ScaHFX=  0.200000
 ScaDFX=  0.800000  0.720000  1.000000  0.810000 ScalE2=  1.000000  1.000000
 IRadAn=      0 IRanWt=     -1 IRanGd=            0 ICorTp=0 IEmpDi=  4
 NAtoms=   31 NActive=   31 NUniq=   31 SFac= 1.00D+00 NAtFMM=   60 NAOKFM=F Big=F
 Integral buffers will be    131072 words long.
 Raffenetti 2 integral format.
 Two-electron integral symmetry is turned on.
 Leave Link  301 at Thu Aug  6 22:12:46 2020, MaxMem=    33554432 cpu:         0.0
 (Enter /prod/apps/gaussian/g09d1/l302.exe)
 NPDir=0 NMtPBC=     1 NCelOv=     1 NCel=       1 NClECP=     1 NCelD=      1
         NCelK=      1 NCelE2=     1 NClLst=     1 CellRange=     0.0.
 One-electron integrals computed using PRISM.
 NBasis=   300 RedAO= T EigKep=  4.55D-04  NBF=   300
 NBsUse=   300 1.00D-06 EigRej= -1.00D+00 NBFU=   300
 Precomputing XC quadrature grid using
 IXCGrd= 4 IRadAn=           0 IRanWt=          -1 IRanGd=           0 AccXCQ= 0.00D+00.
 Generated NRdTot=       0 NPtTot=           0 NUsed=           0 NTot=          32
 NSgBfM=   295   295   295   295   295 MxSgAt=    31 MxSgA2=    31.
 Leave Link  302 at Thu Aug  6 22:12:47 2020, MaxMem=    33554432 cpu:         1.0
 (Enter /prod/apps/gaussian/g09d1/l303.exe)
 DipDrv:  MaxL=1.
 Leave Link  303 at Thu Aug  6 22:12:47 2020, MaxMem=    33554432 cpu:         0.0
 (Enter /prod/apps/gaussian/g09d1/l401.exe)
 ExpMin= 1.17D-01 ExpMax= 2.19D+04 ExpMxC= 3.30D+03 IAcc=1 IRadAn=         1 AccDes= 0.00D+00
 Harris functional with IExCor=  402 and IRadAn=       1 diagonalized for initial guess.
 HarFok:  IExCor=  402 AccDes= 0.00D+00 IRadAn=         1 IDoV= 1 UseB2=F ITyADJ=14
 ICtDFT=  3500011 ScaDFX=  1.000000  1.000000  1.000000  1.000000
 FoFCou: FMM=F IPFlag=           0 FMFlag=      100000 FMFlg1=           0
         NFxFlg=           0 DoJE=T BraDBF=F KetDBF=T FulRan=T
         wScrn=  0.000000 ICntrl=     500 IOpCl=  0 I1Cent=   200000004 NGrid=           0
         NMat0=    1 NMatS0=      1 NMatT0=    0 NMatD0=    1 NMtDS0=    0 NMtDT0=    0
 Petite list used in FoFCou.
 Harris En= -1215.02334119220    
 JPrj=0 DoOrth=F DoCkMO=F.
 Leave Link  401 at Thu Aug  6 22:12:49 2020, MaxMem=    33554432 cpu:         2.6
 (Enter /prod/apps/gaussian/g09d1/l502.exe)
 Closed shell SCF:
 Using DIIS extrapolation, IDIIS=  1040.
 Integral symmetry usage will be decided dynamically.
 IVT=      292611 IEndB=      292611 NGot=    33554432 MDV=    33368762
 LenX=    33368762 LenY=    33278321
 Requested convergence on RMS density matrix=1.00D-08 within 128 cycles.
 Requested convergence on MAX density matrix=1.00D-06.
 Requested convergence on             energy=1.00D-06.
 No special actions if energy rises.
 Fock matrices will be formed incrementally for  20 cycles.
 Integral accuracy reduced to 1.0D-05 until final iterations.

 Cycle   1  Pass 0  IDiag  1:
 FoFJK:  IHMeth= 1 ICntrl=       0 DoSepK=F KAlg= 0 I1Cent=   0 FoldK=F
 IRaf= 700000000 NMat=   1 IRICut=       1 DoRegI=T DoRafI=F ISym2E= 0.
 FoFCou: FMM=F IPFlag=           0 FMFlag=      100000 FMFlg1=           0
         NFxFlg=           0 DoJE=F BraDBF=F KetDBF=F FulRan=T
         wScrn=  0.000000 ICntrl=       0 IOpCl=  0 I1Cent=           0 NGrid=           0
         NMat0=    1 NMatS0=      1 NMatT0=    0 NMatD0=    1 NMtDS0=    0 NMtDT0=    0
 Symmetry not used in FoFCou.
 E= -1214.43438291165    
 DIIS: error= 3.80D-02 at cycle   1 NSaved=   1.
 NSaved= 1 IEnMin= 1 EnMin= -1214.43438291165     IErMin= 1 ErrMin= 3.80D-02
 ErrMax= 3.80D-02  0.00D+00 EMaxC= 1.00D-01 BMatC= 6.32D-01 BMatP= 6.32D-01
 IDIUse=3 WtCom= 6.20D-01 WtEn= 3.80D-01
 Coeff-Com:  0.100D+01
 Coeff-En:   0.100D+01
 Coeff:      0.100D+01
 Gap=     0.273 Goal=   None    Shift=    0.000
 GapD=    0.273 DampG=1.000 DampE=0.500 DampFc=0.5000 IDamp=-1.
 Damping current iteration by 5.00D-01
 RMSDP=6.63D-03 MaxDP=6.13D-01              OVMax= 2.26D-01

 Cycle   2  Pass 0  IDiag  1:
 RMSU=  3.31D-03    CP:  9.91D-01
 E= -1214.56571977119     Delta-E=       -0.131336859543 Rises=F Damp=T
 DIIS: error= 1.29D-02 at cycle   2 NSaved=   2.
 NSaved= 2 IEnMin= 2 EnMin= -1214.56571977119     IErMin= 2 ErrMin= 1.29D-02
 ErrMax= 1.29D-02  0.00D+00 EMaxC= 1.00D-01 BMatC= 1.05D-01 BMatP= 6.32D-01
 IDIUse=3 WtCom= 8.71D-01 WtEn= 1.29D-01
 Coeff-Com:  0.234D+00 0.766D+00
 Coeff-En:   0.372D+00 0.628D+00
 Coeff:      0.252D+00 0.748D+00
 Gap=     0.217 Goal=   None    Shift=    0.000
 RMSDP=2.04D-03 MaxDP=1.45D-01 DE=-1.31D-01 OVMax= 1.84D-01

 Cycle   3  Pass 0  IDiag  1:
 RMSU=  1.70D-03    CP:  9.79D-01  6.71D-01
 E= -1214.92894219529     Delta-E=       -0.363222424104 Rises=F Damp=F
 DIIS: error= 9.95D-03 at cycle   3 NSaved=   3.
 NSaved= 3 IEnMin= 3 EnMin= -1214.92894219529     IErMin= 3 ErrMin= 9.95D-03
 ErrMax= 9.95D-03  0.00D+00 EMaxC= 1.00D-01 BMatC= 6.37D-02 BMatP= 1.05D-01
 IDIUse=3 WtCom= 9.01D-01 WtEn= 9.95D-02
 Coeff-Com:  0.767D-01 0.437D+00 0.487D+00
 Coeff-En:   0.000D+00 0.000D+00 0.100D+01
 Coeff:      0.690D-01 0.393D+00 0.538D+00
 Gap=     0.185 Goal=   None    Shift=    0.000
 RMSDP=1.18D-03 MaxDP=4.19D-02 DE=-3.63D-01 OVMax= 5.90D-02

 Cycle   4  Pass 0  IDiag  1:
 RMSU=  7.40D-04    CP:  9.85D-01  7.58D-01  4.96D-01
 E= -1214.97535705259     Delta-E=       -0.046414857301 Rises=F Damp=F
 DIIS: error= 4.04D-03 at cycle   4 NSaved=   4.
 NSaved= 4 IEnMin= 4 EnMin= -1214.97535705259     IErMin= 4 ErrMin= 4.04D-03
 ErrMax= 4.04D-03  0.00D+00 EMaxC= 1.00D-01 BMatC= 1.06D-02 BMatP= 6.37D-02
 IDIUse=3 WtCom= 9.60D-01 WtEn= 4.04D-02
 Coeff-Com:  0.755D-02 0.105D+00 0.307D+00 0.580D+00
 Coeff-En:   0.000D+00 0.000D+00 0.144D+00 0.856D+00
 Coeff:      0.725D-02 0.101D+00 0.301D+00 0.591D+00
 Gap=     0.182 Goal=   None    Shift=    0.000
 RMSDP=4.01D-04 MaxDP=1.58D-02 DE=-4.64D-02 OVMax= 2.57D-02

 Cycle   5  Pass 0  IDiag  1:
 RMSU=  2.20D-04    CP:  9.84D-01  7.43D-01  6.13D-01  6.42D-01
 E= -1214.98340994699     Delta-E=       -0.008052894397 Rises=F Damp=F
 DIIS: error= 1.32D-03 at cycle   5 NSaved=   5.
 NSaved= 5 IEnMin= 5 EnMin= -1214.98340994699     IErMin= 5 ErrMin= 1.32D-03
 ErrMax= 1.32D-03  0.00D+00 EMaxC= 1.00D-01 BMatC= 1.07D-03 BMatP= 1.06D-02
 IDIUse=3 WtCom= 9.87D-01 WtEn= 1.32D-02
 Coeff-Com: -0.248D-02 0.243D-01 0.127D+00 0.341D+00 0.510D+00
 Coeff-En:   0.000D+00 0.000D+00 0.000D+00 0.376D-01 0.962D+00
 Coeff:     -0.244D-02 0.240D-01 0.125D+00 0.337D+00 0.516D+00
 Gap=     0.182 Goal=   None    Shift=    0.000
 RMSDP=1.41D-04 MaxDP=6.94D-03 DE=-8.05D-03 OVMax= 8.06D-03

 Cycle   6  Pass 0  IDiag  1:
 RMSU=  7.46D-05    CP:  9.84D-01  7.47D-01  6.12D-01  6.91D-01  4.85D-01
 E= -1214.98421483025     Delta-E=       -0.000804883263 Rises=F Damp=F
 DIIS: error= 8.37D-04 at cycle   6 NSaved=   6.
 NSaved= 6 IEnMin= 6 EnMin= -1214.98421483025     IErMin= 6 ErrMin= 8.37D-04
 ErrMax= 8.37D-04  0.00D+00 EMaxC= 1.00D-01 BMatC= 1.62D-04 BMatP= 1.07D-03
 IDIUse=3 WtCom= 9.92D-01 WtEn= 8.37D-03
 Coeff-Com: -0.223D-02 0.659D-02 0.502D-01 0.156D+00 0.333D+00 0.457D+00
 Coeff-En:   0.000D+00 0.000D+00 0.000D+00 0.000D+00 0.114D+00 0.886D+00
 Coeff:     -0.221D-02 0.653D-02 0.498D-01 0.154D+00 0.331D+00 0.461D+00
 Gap=     0.182 Goal=   None    Shift=    0.000
 RMSDP=4.89D-05 MaxDP=2.78D-03 DE=-8.05D-04 OVMax= 3.16D-03

 Cycle   7  Pass 0  IDiag  1:
 RMSU=  2.73D-05    CP:  9.84D-01  7.47D-01  6.13D-01  6.94D-01  5.69D-01
                    CP:  5.19D-01
 E= -1214.98434868844     Delta-E=       -0.000133858185 Rises=F Damp=F
 DIIS: error= 1.79D-04 at cycle   7 NSaved=   7.
 NSaved= 7 IEnMin= 7 EnMin= -1214.98434868844     IErMin= 7 ErrMin= 1.79D-04
 ErrMax= 1.79D-04  0.00D+00 EMaxC= 1.00D-01 BMatC= 1.47D-05 BMatP= 1.62D-04
 IDIUse=3 WtCom= 9.98D-01 WtEn= 1.79D-03
 Coeff-Com: -0.113D-02 0.663D-03 0.140D-01 0.504D-01 0.139D+00 0.287D+00
 Coeff-Com:  0.511D+00
 Coeff-En:   0.000D+00 0.000D+00 0.000D+00 0.000D+00 0.000D+00 0.520D-01
 Coeff-En:   0.948D+00
 Coeff:     -0.113D-02 0.662D-03 0.140D-01 0.504D-01 0.138D+00 0.286D+00
 Coeff:      0.511D+00
 Gap=     0.182 Goal=   None    Shift=    0.000
 RMSDP=1.28D-05 MaxDP=5.37D-04 DE=-1.34D-04 OVMax= 8.06D-04

 Cycle   8  Pass 0  IDiag  1:
 RMSU=  6.35D-06    CP:  9.84D-01  7.47D-01  6.13D-01  6.95D-01  5.68D-01
                    CP:  5.74D-01  6.23D-01
 E= -1214.98436103517     Delta-E=       -0.000012346737 Rises=F Damp=F
 DIIS: error= 3.17D-05 at cycle   8 NSaved=   8.
 NSaved= 8 IEnMin= 8 EnMin= -1214.98436103517     IErMin= 8 ErrMin= 3.17D-05
 ErrMax= 3.17D-05  0.00D+00 EMaxC= 1.00D-01 BMatC= 5.89D-07 BMatP= 1.47D-05
 IDIUse=1 WtCom= 1.00D+00 WtEn= 0.00D+00
 Coeff-Com: -0.384D-03-0.183D-03 0.274D-02 0.119D-01 0.421D-01 0.109D+00
 Coeff-Com:  0.244D+00 0.590D+00
 Coeff:     -0.384D-03-0.183D-03 0.274D-02 0.119D-01 0.421D-01 0.109D+00
 Coeff:      0.244D+00 0.590D+00
 Gap=     0.182 Goal=   None    Shift=    0.000
 RMSDP=3.52D-06 MaxDP=1.39D-04 DE=-1.23D-05 OVMax= 2.35D-04

 Initial convergence to 1.0D-05 achieved.  Increase integral accuracy.
 Cycle   9  Pass 1  IDiag  1:
 E= -1214.98442737156     Delta-E=       -0.000066336385 Rises=F Damp=F
 DIIS: error= 6.29D-05 at cycle   1 NSaved=   1.
 NSaved= 1 IEnMin= 1 EnMin= -1214.98442737156     IErMin= 1 ErrMin= 6.29D-05
 ErrMax= 6.29D-05  0.00D+00 EMaxC= 1.00D-01 BMatC= 7.20D-07 BMatP= 7.20D-07
 IDIUse=1 WtCom= 1.00D+00 WtEn= 0.00D+00
 Coeff-Com:  0.100D+01
 Coeff:      0.100D+01
 Gap=     0.182 Goal=   None    Shift=    0.000
 RMSDP=3.52D-06 MaxDP=1.39D-04 DE=-6.63D-05 OVMax= 3.19D-04

 Cycle  10  Pass 1  IDiag  1:
 RMSU=  3.71D-05    CP:  1.00D+00
 E= -1214.98442771990     Delta-E=       -0.000000348345 Rises=F Damp=F
 DIIS: error= 3.17D-05 at cycle   2 NSaved=   2.
 NSaved= 2 IEnMin= 2 EnMin= -1214.98442771990     IErMin= 2 ErrMin= 3.17D-05
 ErrMax= 3.17D-05  0.00D+00 EMaxC= 1.00D-01 BMatC= 4.00D-07 BMatP= 7.20D-07
 IDIUse=1 WtCom= 1.00D+00 WtEn= 0.00D+00
 Coeff-Com:  0.392D+00 0.608D+00
 Coeff:      0.392D+00 0.608D+00
 Gap=     0.182 Goal=   None    Shift=    0.000
 RMSDP=4.04D-06 MaxDP=2.17D-04 DE=-3.48D-07 OVMax= 3.87D-04

 Cycle  11  Pass 1  IDiag  1:
 RMSU=  4.04D-06    CP:  1.00D+00  1.00D+00
 E= -1214.98442777878     Delta-E=       -0.000000058878 Rises=F Damp=F
 DIIS: error= 3.35D-05 at cycle   3 NSaved=   3.
 NSaved= 3 IEnMin= 3 EnMin= -1214.98442777878     IErMin= 2 ErrMin= 3.17D-05
 ErrMax= 3.35D-05  0.00D+00 EMaxC= 1.00D-01 BMatC= 3.38D-07 BMatP= 4.00D-07
 IDIUse=1 WtCom= 1.00D+00 WtEn= 0.00D+00
 Coeff-Com:  0.970D-02 0.476D+00 0.514D+00
 Coeff:      0.970D-02 0.476D+00 0.514D+00
 Gap=     0.182 Goal=   None    Shift=    0.000
 RMSDP=2.08D-06 MaxDP=1.35D-04 DE=-5.89D-08 OVMax= 2.14D-04

 Cycle  12  Pass 1  IDiag  1:
 RMSU=  6.52D-07    CP:  1.00D+00  1.01D+00  5.17D-01
 E= -1214.98442809832     Delta-E=       -0.000000319540 Rises=F Damp=F
 DIIS: error= 6.67D-06 at cycle   4 NSaved=   4.
 NSaved= 4 IEnMin= 4 EnMin= -1214.98442809832     IErMin= 4 ErrMin= 6.67D-06
 ErrMax= 6.67D-06  0.00D+00 EMaxC= 1.00D-01 BMatC= 1.36D-08 BMatP= 3.38D-07
 IDIUse=1 WtCom= 1.00D+00 WtEn= 0.00D+00
 Coeff-Com: -0.607D-02 0.281D+00 0.325D+00 0.400D+00
 Coeff:     -0.607D-02 0.281D+00 0.325D+00 0.400D+00
 Gap=     0.182 Goal=   None    Shift=    0.000
 RMSDP=3.92D-07 MaxDP=2.27D-05 DE=-3.20D-07 OVMax= 3.20D-05

 Cycle  13  Pass 1  IDiag  1:
 RMSU=  1.98D-07    CP:  1.00D+00  1.01D+00  5.33D-01  4.92D-01
 E= -1214.98442810999     Delta-E=       -0.000000011669 Rises=F Damp=F
 DIIS: error= 9.03D-07 at cycle   5 NSaved=   5.
 NSaved= 5 IEnMin= 5 EnMin= -1214.98442810999     IErMin= 5 ErrMin= 9.03D-07
 ErrMax= 9.03D-07  0.00D+00 EMaxC= 1.00D-01 BMatC= 3.57D-10 BMatP= 1.36D-08
 IDIUse=1 WtCom= 1.00D+00 WtEn= 0.00D+00
 Coeff-Com: -0.376D-02 0.125D+00 0.148D+00 0.216D+00 0.515D+00
 Coeff:     -0.376D-02 0.125D+00 0.148D+00 0.216D+00 0.515D+00
 Gap=     0.182 Goal=   None    Shift=    0.000
 RMSDP=8.54D-08 MaxDP=3.13D-06 DE=-1.17D-08 OVMax= 5.87D-06

 Cycle  14  Pass 1  IDiag  1:
 RMSU=  6.57D-08    CP:  1.00D+00  1.01D+00  5.34D-01  5.11D-01  7.35D-01
 E= -1214.98442811034     Delta-E=       -0.000000000351 Rises=F Damp=F
 DIIS: error= 2.34D-07 at cycle   6 NSaved=   6.
 NSaved= 6 IEnMin= 6 EnMin= -1214.98442811034     IErMin= 6 ErrMin= 2.34D-07
 ErrMax= 2.34D-07  0.00D+00 EMaxC= 1.00D-01 BMatC= 3.12D-11 BMatP= 3.57D-10
 IDIUse=1 WtCom= 1.00D+00 WtEn= 0.00D+00
 Coeff-Com: -0.134D-02 0.374D-01 0.452D-01 0.737D-01 0.270D+00 0.575D+00
 Coeff:     -0.134D-02 0.374D-01 0.452D-01 0.737D-01 0.270D+00 0.575D+00
 Gap=     0.182 Goal=   None    Shift=    0.000
 RMSDP=2.51D-08 MaxDP=8.83D-07 DE=-3.51D-10 OVMax= 1.57D-06

 Cycle  15  Pass 1  IDiag  1:
 RMSU=  1.97D-08    CP:  1.00D+00  1.01D+00  5.34D-01  5.11D-01  7.84D-01
                    CP:  8.16D-01
 E= -1214.98442811035     Delta-E=       -0.000000000007 Rises=F Damp=F
 DIIS: error= 1.30D-07 at cycle   7 NSaved=   7.
 NSaved= 7 IEnMin= 7 EnMin= -1214.98442811035     IErMin= 7 ErrMin= 1.30D-07
 ErrMax= 1.30D-07  0.00D+00 EMaxC= 1.00D-01 BMatC= 7.42D-12 BMatP= 3.12D-11
 IDIUse=1 WtCom= 1.00D+00 WtEn= 0.00D+00
 Coeff-Com: -0.206D-03 0.232D-02 0.346D-02 0.977D-02 0.832D-01 0.365D+00
 Coeff-Com:  0.537D+00
 Coeff:     -0.206D-03 0.232D-02 0.346D-02 0.977D-02 0.832D-01 0.365D+00
 Coeff:      0.537D+00
 Gap=     0.182 Goal=   None    Shift=    0.000
 RMSDP=1.10D-08 MaxDP=5.44D-07 DE=-7.28D-12 OVMax= 5.56D-07

 Cycle  16  Pass 1  IDiag  1:
 RMSU=  6.21D-09    CP:  1.00D+00  1.01D+00  5.34D-01  5.13D-01  7.91D-01
                    CP:  8.52D-01  5.82D-01
 E= -1214.98442811039     Delta-E=       -0.000000000041 Rises=F Damp=F
 DIIS: error= 4.05D-08 at cycle   8 NSaved=   8.
 NSaved= 8 IEnMin= 8 EnMin= -1214.98442811039     IErMin= 8 ErrMin= 4.05D-08
 ErrMax= 4.05D-08  0.00D+00 EMaxC= 1.00D-01 BMatC= 6.14D-13 BMatP= 7.42D-12
 IDIUse=1 WtCom= 1.00D+00 WtEn= 0.00D+00
 Coeff-Com:  0.172D-05-0.211D-02-0.214D-02-0.118D-02 0.229D-01 0.154D+00
 Coeff-Com:  0.309D+00 0.519D+00
 Coeff:      0.172D-05-0.211D-02-0.214D-02-0.118D-02 0.229D-01 0.154D+00
 Coeff:      0.309D+00 0.519D+00
 Gap=     0.182 Goal=   None    Shift=    0.000
 RMSDP=3.48D-09 MaxDP=1.00D-07 DE=-4.14D-11 OVMax= 2.53D-07

 SCF Done:  E(RB3LYP) =  -1214.98442811     A.U. after   16 cycles
            NFock= 16  Conv=0.35D-08     -V/T= 2.0075
 KE= 1.205927223738D+03 PE=-5.734757725879D+03 EE= 1.869965997353D+03
 Leave Link  502 at Thu Aug  6 22:16:13 2020, MaxMem=    33554432 cpu:       204.2
 (Enter /prod/apps/gaussian/g09d1/l601.exe)
 Copying SCF densities to generalized density rwf, IOpCl= 0 IROHF=0.

 **********************************************************************

            Population analysis using the SCF density.

 **********************************************************************

 Orbital symmetries:
       Occupied  (A) (A) (A) (A) (A) (A) (A) (A) (A) (A) (A) (A)
                 (A) (A) (A) (A) (A) (A) (A) (A) (A) (A) (A) (A)
                 (A) (A) (A) (A) (A) (A) (A) (A) (A) (A) (A) (A)
                 (A) (A) (A) (A) (A) (A) (A) (A) (A) (A) (A) (A)
                 (A) (A) (A) (A) (A) (A) (A) (A) (A) (A) (A) (A)
                 (A) (A) (A) (A) (A) (A) (A) (A) (A) (A)
       Virtual   (A) (A) (A) (A) (A) (A) (A) (A) (A) (A) (A) (A)
                 (A) (A) (A) (A) (A) (A) (A) (A) (A) (A) (A) (A)
                 (A) (A) (A) (A) (A) (A) (A) (A) (A) (A) (A) (A)
                 (A) (A) (A) (A) (A) (A) (A) (A) (A) (A) (A) (A)
                 (A) (A) (A) (A) (A) (A) (A) (A) (A) (A) (A) (A)
                 (A) (A) (A) (A) (A) (A) (A) (A) (A) (A) (A) (A)
                 (A) (A) (A) (A) (A) (A) (A) (A) (A) (A) (A) (A)
                 (A) (A) (A) (A) (A) (A) (A) (A) (A) (A) (A) (A)
                 (A) (A) (A) (A) (A) (A) (A) (A) (A) (A) (A) (A)
                 (A) (A) (A) (A) (A) (A) (A) (A) (A) (A) (A) (A)
                 (A) (A) (A) (A) (A) (A) (A) (A) (A) (A) (A) (A)
                 (A) (A) (A) (A) (A) (A) (A) (A) (A) (A) (A) (A)
                 (A) (A) (A) (A) (A) (A) (A) (A) (A) (A) (A) (A)
                 (A) (A) (A) (A) (A) (A) (A) (A) (A) (A) (A) (A)
                 (A) (A) (A) (A) (A) (A) (A) (A) (A) (A) (A) (A)
                 (A) (A) (A) (A) (A) (A) (A) (A) (A) (A) (A) (A)
                 (A) (A) (A) (A) (A) (A) (A) (A) (A) (A) (A) (A)
                 (A) (A) (A) (A) (A) (A) (A) (A) (A) (A) (A) (A)
                 (A) (A) (A) (A) (A) (A) (A) (A) (A) (A) (A) (A)
                 (A) (A)
 The electronic state is 1-A.
 Alpha  occ. eigenvalues --  -89.13445 -19.23475 -19.14594 -19.14504 -14.39185
 Alpha  occ. eigenvalues --  -14.37493 -14.37461 -10.27287 -10.26833 -10.22556
 Alpha  occ. eigenvalues --  -10.22126 -10.21917 -10.20799 -10.20559 -10.20456
 Alpha  occ. eigenvalues --  -10.20402 -10.20350 -10.20258  -8.15630  -6.12156
 Alpha  occ. eigenvalues --   -6.12047  -6.11997  -1.14051  -1.12462  -1.00436
 Alpha  occ. eigenvalues --   -0.96223  -0.94186  -0.87697  -0.85070  -0.81064
 Alpha  occ. eigenvalues --   -0.75965  -0.75604  -0.73047  -0.71887  -0.65040
 Alpha  occ. eigenvalues --   -0.64467  -0.61873  -0.60455  -0.57084  -0.55503
 Alpha  occ. eigenvalues --   -0.53818  -0.51627  -0.50315  -0.48866  -0.48213
 Alpha  occ. eigenvalues --   -0.47534  -0.47245  -0.46041  -0.45251  -0.43884
 Alpha  occ. eigenvalues --   -0.43735  -0.43205  -0.41878  -0.41194  -0.39403
 Alpha  occ. eigenvalues --   -0.39311  -0.38597  -0.37362  -0.36623  -0.35589
 Alpha  occ. eigenvalues --   -0.34568  -0.33959  -0.31641  -0.30865  -0.30007
 Alpha  occ. eigenvalues --   -0.29788  -0.26601  -0.26225  -0.25023  -0.23416
 Alpha virt. eigenvalues --   -0.05187  -0.01329   0.02388   0.04889   0.06761
 Alpha virt. eigenvalues --    0.07390   0.07673   0.07947   0.09358   0.10468
 Alpha virt. eigenvalues --    0.11819   0.12288   0.12785   0.13888   0.14207
 Alpha virt. eigenvalues --    0.15611   0.15940   0.16588   0.16749   0.17349
 Alpha virt. eigenvalues --    0.18110   0.18362   0.18950   0.19343   0.22458
 Alpha virt. eigenvalues --    0.22638   0.25365   0.25921   0.29257   0.29674
 Alpha virt. eigenvalues --    0.32174   0.32769   0.34825   0.37398   0.38067
 Alpha virt. eigenvalues --    0.41325   0.43033   0.44267   0.46002   0.47606
 Alpha virt. eigenvalues --    0.48668   0.49499   0.49976   0.51790   0.52988
 Alpha virt. eigenvalues --    0.53131   0.54304   0.54991   0.55577   0.57520
 Alpha virt. eigenvalues --    0.57723   0.58183   0.58510   0.59081   0.59986
 Alpha virt. eigenvalues --    0.60671   0.61037   0.62428   0.62856   0.64454
 Alpha virt. eigenvalues --    0.65519   0.65784   0.66600   0.68765   0.71067
 Alpha virt. eigenvalues --    0.72358   0.73219   0.74520   0.76240   0.77590
 Alpha virt. eigenvalues --    0.78077   0.79295   0.80610   0.80937   0.81642
 Alpha virt. eigenvalues --    0.82674   0.82849   0.83870   0.84390   0.85467
 Alpha virt. eigenvalues --    0.86063   0.87495   0.88357   0.88898   0.89276
 Alpha virt. eigenvalues --    0.90099   0.90557   0.92482   0.92841   0.93846
 Alpha virt. eigenvalues --    0.94288   0.95761   0.96432   0.96857   0.97180
 Alpha virt. eigenvalues --    0.99580   1.00955   1.01917   1.04520   1.05905
 Alpha virt. eigenvalues --    1.06448   1.08016   1.09435   1.10419   1.11330
 Alpha virt. eigenvalues --    1.14352   1.16006   1.17179   1.17699   1.20298
 Alpha virt. eigenvalues --    1.22236   1.23522   1.23903   1.26261   1.29474
 Alpha virt. eigenvalues --    1.31158   1.33343   1.34411   1.35099   1.37580
 Alpha virt. eigenvalues --    1.37982   1.41091   1.41861   1.42830   1.44425
 Alpha virt. eigenvalues --    1.44956   1.46850   1.47095   1.47803   1.49706
 Alpha virt. eigenvalues --    1.50461   1.52798   1.54481   1.56884   1.58109
 Alpha virt. eigenvalues --    1.59608   1.67844   1.71382   1.73162   1.77119
 Alpha virt. eigenvalues --    1.78242   1.78492   1.80279   1.80998   1.81544
 Alpha virt. eigenvalues --    1.82862   1.84745   1.87170   1.88160   1.88968
 Alpha virt. eigenvalues --    1.91590   1.92177   1.93919   1.96251   1.97039
 Alpha virt. eigenvalues --    1.97422   1.97501   1.99381   2.00717   2.03457
 Alpha virt. eigenvalues --    2.04202   2.05068   2.08121   2.09099   2.10302
 Alpha virt. eigenvalues --    2.11185   2.11755   2.13022   2.14189   2.15094
 Alpha virt. eigenvalues --    2.17596   2.19411   2.20805   2.22123   2.23497
 Alpha virt. eigenvalues --    2.24575   2.26052   2.26926   2.28433   2.29731
 Alpha virt. eigenvalues --    2.32263   2.33169   2.36093   2.37741   2.42933
 Alpha virt. eigenvalues --    2.43793   2.47570   2.51462   2.52816   2.53719
 Alpha virt. eigenvalues --    2.57339   2.57800   2.59734   2.61431   2.62808
 Alpha virt. eigenvalues --    2.65977   2.66137   2.70768   2.71131   2.73619
 Alpha virt. eigenvalues --    2.74207   2.76605   2.78406   2.83390   2.87111
 Alpha virt. eigenvalues --    2.89470   2.90889   3.02863   3.06234   3.13278
 Alpha virt. eigenvalues --    3.27142   3.42628   3.77166   3.83962   3.96416
 Alpha virt. eigenvalues --    4.02947   4.04337   4.07543   4.09211   4.10454
 Alpha virt. eigenvalues --    4.13791   4.18742   4.23268   4.25844   4.31077
 Alpha virt. eigenvalues --    4.32618   4.37473   4.40791   4.57106   4.73971
          Condensed to atoms (all electrons):
               1          2          3          4          5          6
     1  O    8.198521   0.451229  -0.054333   0.005801  -0.002020  -0.000001
     2  S    0.451229  13.581196   0.103179   0.004767   0.001173  -0.000297
     3  N   -0.054333   0.103179   7.477908   0.208971  -0.071844   0.005538
     4  C    0.005801   0.004767   0.208971   4.509056   0.404376  -0.029591
     5  N   -0.002020   0.001173  -0.071844   0.404376   6.872101   0.113381
     6  O   -0.000001  -0.000297   0.005538  -0.029591   0.113381   8.191765
     7  C    0.000002   0.000292  -0.000170  -0.025019  -0.076774   0.249910
     8  C    0.000000  -0.000007  -0.000200   0.003420   0.004007  -0.038133
     9  C    0.000000   0.000000  -0.000001  -0.000325   0.000128  -0.006353
    10  C    0.000000   0.000000   0.000000   0.000005   0.000000   0.000309
    11  C    0.000000   0.000000   0.000000   0.000000   0.000000   0.000001
    12  C    0.000000   0.000000   0.000000  -0.000006   0.000001  -0.000060
    13  C    0.000000   0.000000   0.000003   0.000576  -0.000097   0.003198
    14  C    0.000074   0.001358  -0.057914   0.434517  -0.039205  -0.097142
    15  N   -0.051542   0.133503  -0.042245  -0.008132   0.003604   0.000052
    16  C   -0.003464  -0.029195   0.002076   0.000155   0.000016  -0.000002
    17  C    0.001636  -0.008207  -0.008411   0.000496   0.000105  -0.000001
    18  O   -0.043877   0.447138  -0.058009   0.001453  -0.000002   0.000000
    19  H   -0.000002  -0.018735   0.308276  -0.021653   0.003047  -0.000062
    20  H    0.000000   0.000000   0.000000   0.000069  -0.000266   0.009906
    21  H    0.000000   0.000000   0.000000   0.000000   0.000000  -0.000003
    22  H    0.000000   0.000000   0.000000   0.000000   0.000000   0.000000
    23  H    0.000000   0.000000   0.000000   0.000000   0.000000   0.000000
    24  H    0.000000   0.000000  -0.000001   0.000072  -0.000004   0.000020
    25  H    0.000001  -0.000123  -0.001942  -0.030312   0.004855   0.003623
    26  H    0.011396  -0.004350   0.000129   0.000008   0.000157  -0.000001
    27  H    0.000296   0.001791  -0.000070  -0.000011  -0.000005   0.000000
    28  H   -0.000352  -0.002600  -0.000090  -0.000008   0.000008   0.000000
    29  H    0.000015  -0.002382   0.011629   0.000358  -0.000118   0.000000
    30  H   -0.000031  -0.007305  -0.000162  -0.000044   0.000007   0.000000
    31  H   -0.000051   0.003231  -0.000101   0.000015  -0.000018   0.000000
               7          8          9         10         11         12
     1  O    0.000002   0.000000   0.000000   0.000000   0.000000   0.000000
     2  S    0.000292  -0.000007   0.000000   0.000000   0.000000   0.000000
     3  N   -0.000170  -0.000200  -0.000001   0.000000   0.000000   0.000000
     4  C   -0.025019   0.003420  -0.000325   0.000005   0.000000  -0.000006
     5  N   -0.076774   0.004007   0.000128   0.000000   0.000000   0.000001
     6  O    0.249910  -0.038133  -0.006353   0.000309   0.000001  -0.000060
     7  C    4.720067   0.344060  -0.039658   0.004736   0.000947   0.006405
     8  C    0.344060   4.770556   0.477184  -0.008002  -0.033856  -0.007858
     9  C   -0.039658   0.477184   5.045647   0.504221  -0.035799  -0.042714
    10  C    0.004736  -0.008002   0.504221   4.875891   0.543496  -0.023764
    11  C    0.000947  -0.033856  -0.035799   0.543496   4.852551   0.545789
    12  C    0.006405  -0.007858  -0.042714  -0.023764   0.545789   4.861033
    13  C   -0.041853   0.537195  -0.085400  -0.041485  -0.038572   0.522811
    14  C    0.509399  -0.060408   0.012560  -0.000244   0.000015   0.000195
    15  N    0.000001   0.000000   0.000000   0.000000   0.000000   0.000000
    16  C    0.000001   0.000000   0.000000   0.000000   0.000000   0.000000
    17  C    0.000000   0.000000   0.000000   0.000000   0.000000   0.000000
    18  O    0.000000   0.000000   0.000000   0.000000   0.000000   0.000000
    19  H   -0.000013  -0.000001   0.000000   0.000000   0.000000   0.000000
    20  H   -0.013254  -0.038205   0.360304  -0.042993   0.004424   0.000280
    21  H   -0.000185   0.003137  -0.037841   0.359787  -0.042245   0.004497
    22  H    0.000003   0.000556   0.004709  -0.042543   0.360936  -0.042810
    23  H   -0.000213   0.003320   0.000865   0.004509  -0.041882   0.358878
    24  H   -0.013708  -0.037895   0.006171   0.000205   0.004740  -0.044912
    25  H   -0.023909  -0.003585  -0.000129   0.000002  -0.000001   0.000089
    26  H    0.000000   0.000000   0.000000   0.000000   0.000000   0.000000
    27  H    0.000000   0.000000   0.000000   0.000000   0.000000   0.000000
    28  H    0.000000   0.000000   0.000000   0.000000   0.000000   0.000000
    29  H    0.000003   0.000000   0.000000   0.000000   0.000000   0.000000
    30  H    0.000000   0.000000   0.000000   0.000000   0.000000   0.000000
    31  H    0.000000   0.000000   0.000000   0.000000   0.000000   0.000000
              13         14         15         16         17         18
     1  O    0.000000   0.000074  -0.051542  -0.003464   0.001636  -0.043877
     2  S    0.000000   0.001358   0.133503  -0.029195  -0.008207   0.447138
     3  N    0.000003  -0.057914  -0.042245   0.002076  -0.008411  -0.058009
     4  C    0.000576   0.434517  -0.008132   0.000155   0.000496   0.001453
     5  N   -0.000097  -0.039205   0.003604   0.000016   0.000105  -0.000002
     6  O    0.003198  -0.097142   0.000052  -0.000002  -0.000001   0.000000
     7  C   -0.041853   0.509399   0.000001   0.000001   0.000000   0.000000
     8  C    0.537195  -0.060408   0.000000   0.000000   0.000000   0.000000
     9  C   -0.085400   0.012560   0.000000   0.000000   0.000000   0.000000
    10  C   -0.041485  -0.000244   0.000000   0.000000   0.000000   0.000000
    11  C   -0.038572   0.000015   0.000000   0.000000   0.000000   0.000000
    12  C    0.522811   0.000195   0.000000   0.000000   0.000000   0.000000
    13  C    5.005638  -0.021871   0.000000   0.000000   0.000000   0.000000
    14  C   -0.021871   5.280959  -0.000143   0.000001  -0.000013  -0.000069
    15  N    0.000000  -0.000143   7.191115   0.300216   0.275874  -0.057117
    16  C    0.000000   0.000001   0.300216   4.970504  -0.048175  -0.001555
    17  C    0.000000  -0.000013   0.275874  -0.048175   4.971883   0.003419
    18  O    0.000000  -0.000069  -0.057117  -0.001555   0.003419   8.235210
    19  H    0.000000  -0.004837   0.002955  -0.000048  -0.000198   0.006626
    20  H    0.005452   0.000272   0.000000   0.000000   0.000000   0.000000
    21  H    0.000895   0.000001   0.000000   0.000000   0.000000   0.000000
    22  H    0.004915   0.000000   0.000000   0.000000   0.000000   0.000000
    23  H   -0.038874   0.000000   0.000000   0.000000   0.000000   0.000000
    24  H    0.351296   0.006265   0.000000   0.000000   0.000000   0.000000
    25  H    0.001374   0.344382   0.000000   0.000000   0.000000  -0.000001
    26  H    0.000000   0.000000  -0.029010   0.378145   0.004269  -0.000076
    27  H    0.000000   0.000000  -0.039992   0.376810  -0.002951  -0.000098
    28  H    0.000000   0.000000  -0.049768   0.374186  -0.001466   0.001348
    29  H    0.000000  -0.000033  -0.032983   0.004467   0.376249  -0.001981
    30  H    0.000000   0.000000  -0.046501  -0.000824   0.375844   0.004404
    31  H    0.000000   0.000000  -0.035680  -0.003941   0.373809   0.000075
              19         20         21         22         23         24
     1  O   -0.000002   0.000000   0.000000   0.000000   0.000000   0.000000
     2  S   -0.018735   0.000000   0.000000   0.000000   0.000000   0.000000
     3  N    0.308276   0.000000   0.000000   0.000000   0.000000  -0.000001
     4  C   -0.021653   0.000069   0.000000   0.000000   0.000000   0.000072
     5  N    0.003047  -0.000266   0.000000   0.000000   0.000000  -0.000004
     6  O   -0.000062   0.009906  -0.000003   0.000000   0.000000   0.000020
     7  C   -0.000013  -0.013254  -0.000185   0.000003  -0.000213  -0.013708
     8  C   -0.000001  -0.038205   0.003137   0.000556   0.003320  -0.037895
     9  C    0.000000   0.360304  -0.037841   0.004709   0.000865   0.006171
    10  C    0.000000  -0.042993   0.359787  -0.042543   0.004509   0.000205
    11  C    0.000000   0.004424  -0.042245   0.360936  -0.041882   0.004740
    12  C    0.000000   0.000280   0.004497  -0.042810   0.358878  -0.044912
    13  C    0.000000   0.005452   0.000895   0.004915  -0.038874   0.351296
    14  C   -0.004837   0.000272   0.000001   0.000000   0.000000   0.006265
    15  N    0.002955   0.000000   0.000000   0.000000   0.000000   0.000000
    16  C   -0.000048   0.000000   0.000000   0.000000   0.000000   0.000000
    17  C   -0.000198   0.000000   0.000000   0.000000   0.000000   0.000000
    18  O    0.006626   0.000000   0.000000   0.000000   0.000000   0.000000
    19  H    0.352572   0.000000   0.000000   0.000000   0.000000   0.000000
    20  H    0.000000   0.553747  -0.004881  -0.000158   0.000016  -0.000151
    21  H    0.000000  -0.004881   0.581490  -0.005389  -0.000178   0.000017
    22  H    0.000000  -0.000158  -0.005389   0.587133  -0.005436  -0.000173
    23  H    0.000000   0.000016  -0.000178  -0.005436   0.586253  -0.005354
    24  H    0.000000  -0.000151   0.000017  -0.000173  -0.005354   0.596525
    25  H    0.002221  -0.000009   0.000000   0.000000  -0.000003   0.002249
    26  H   -0.000005   0.000000   0.000000   0.000000   0.000000   0.000000
    27  H    0.000001   0.000000   0.000000   0.000000   0.000000   0.000000
    28  H    0.000006   0.000000   0.000000   0.000000   0.000000   0.000000
    29  H   -0.000605   0.000000   0.000000   0.000000   0.000000   0.000000
    30  H    0.000080   0.000000   0.000000   0.000000   0.000000   0.000000
    31  H   -0.000005   0.000000   0.000000   0.000000   0.000000   0.000000
              25         26         27         28         29         30
     1  O    0.000001   0.011396   0.000296  -0.000352   0.000015  -0.000031
     2  S   -0.000123  -0.004350   0.001791  -0.002600  -0.002382  -0.007305
     3  N   -0.001942   0.000129  -0.000070  -0.000090   0.011629  -0.000162
     4  C   -0.030312   0.000008  -0.000011  -0.000008   0.000358  -0.000044
     5  N    0.004855   0.000157  -0.000005   0.000008  -0.000118   0.000007
     6  O    0.003623  -0.000001   0.000000   0.000000   0.000000   0.000000
     7  C   -0.023909   0.000000   0.000000   0.000000   0.000003   0.000000
     8  C   -0.003585   0.000000   0.000000   0.000000   0.000000   0.000000
     9  C   -0.000129   0.000000   0.000000   0.000000   0.000000   0.000000
    10  C    0.000002   0.000000   0.000000   0.000000   0.000000   0.000000
    11  C   -0.000001   0.000000   0.000000   0.000000   0.000000   0.000000
    12  C    0.000089   0.000000   0.000000   0.000000   0.000000   0.000000
    13  C    0.001374   0.000000   0.000000   0.000000   0.000000   0.000000
    14  C    0.344382   0.000000   0.000000   0.000000  -0.000033   0.000000
    15  N    0.000000  -0.029010  -0.039992  -0.049768  -0.032983  -0.046501
    16  C    0.000000   0.378145   0.376810   0.374186   0.004467  -0.000824
    17  C    0.000000   0.004269  -0.002951  -0.001466   0.376249   0.375844
    18  O   -0.000001  -0.000076  -0.000098   0.001348  -0.001981   0.004404
    19  H    0.002221  -0.000005   0.000001   0.000006  -0.000605   0.000080
    20  H   -0.000009   0.000000   0.000000   0.000000   0.000000   0.000000
    21  H    0.000000   0.000000   0.000000   0.000000   0.000000   0.000000
    22  H    0.000000   0.000000   0.000000   0.000000   0.000000   0.000000
    23  H   -0.000003   0.000000   0.000000   0.000000   0.000000   0.000000
    24  H    0.002249   0.000000   0.000000   0.000000   0.000000   0.000000
    25  H    0.547623   0.000000   0.000000   0.000000  -0.000001   0.000000
    26  H    0.000000   0.474202  -0.019021  -0.030243  -0.000182  -0.000185
    27  H    0.000000  -0.019021   0.555582  -0.044204   0.000098  -0.001772
    28  H    0.000000  -0.030243  -0.044204   0.590349  -0.000213   0.007277
    29  H   -0.000001  -0.000182   0.000098  -0.000213   0.515579  -0.031785
    30  H    0.000000  -0.000185  -0.001772   0.007277  -0.031785   0.571555
    31  H    0.000000   0.000028   0.005581  -0.001460  -0.022742  -0.038684
              31
     1  O   -0.000051
     2  S    0.003231
     3  N   -0.000101
     4  C    0.000015
     5  N   -0.000018
     6  O    0.000000
     7  C    0.000000
     8  C    0.000000
     9  C    0.000000
    10  C    0.000000
    11  C    0.000000
    12  C    0.000000
    13  C    0.000000
    14  C    0.000000
    15  N   -0.035680
    16  C   -0.003941
    17  C    0.373809
    18  O    0.000075
    19  H   -0.000005
    20  H    0.000000
    21  H    0.000000
    22  H    0.000000
    23  H    0.000000
    24  H    0.000000
    25  H    0.000000
    26  H    0.000028
    27  H    0.005581
    28  H   -0.001460
    29  H   -0.022742
    30  H   -0.038684
    31  H    0.550668
 Mulliken charges:
               1
     1  O   -0.513300
     2  S    1.344341
     3  N   -0.822216
     4  C    0.540983
     5  N   -0.216615
     6  O   -0.406056
     7  C    0.398927
     8  C    0.084714
     9  C   -0.163570
    10  C   -0.134128
    11  C   -0.120544
    12  C   -0.137854
    13  C   -0.165203
    14  C   -0.308118
    15  N   -0.514208
    16  C   -0.319374
    17  C   -0.314161
    18  O   -0.536889
    19  H    0.370381
    20  H    0.165445
    21  H    0.140898
    22  H    0.138257
    23  H    0.138098
    24  H    0.134639
    25  H    0.153594
    26  H    0.214738
    27  H    0.167965
    28  H    0.157229
    29  H    0.184627
    30  H    0.168127
    31  H    0.169274
 Sum of Mulliken charges =   0.00000
 Mulliken charges with hydrogens summed into heavy atoms:
               1
     1  O   -0.513300
     2  S    1.344341
     3  N   -0.451835
     4  C    0.540983
     5  N   -0.216615
     6  O   -0.406056
     7  C    0.398927
     8  C    0.084714
     9  C    0.001874
    10  C    0.006769
    11  C    0.017713
    12  C    0.000244
    13  C   -0.030564
    14  C   -0.154524
    15  N   -0.514208
    16  C    0.220558
    17  C    0.207866
    18  O   -0.536889
 Electronic spatial extent (au):  <R**2>=           7239.4985
 Charge=              0.0000 electrons
 Dipole moment (field-independent basis, Debye):
    X=              2.9496    Y=             -0.6991    Z=              3.3627  Tot=              4.5273
 Quadrupole moment (field-independent basis, Debye-Ang):
   XX=            -95.1195   YY=           -103.0693   ZZ=           -115.6359
   XY=            -11.4274   XZ=            -10.4428   YZ=             -1.9379
 Traceless Quadrupole moment (field-independent basis, Debye-Ang):
   XX=              9.4887   YY=              1.5390   ZZ=            -11.0277
   XY=            -11.4274   XZ=            -10.4428   YZ=             -1.9379
 Octapole moment (field-independent basis, Debye-Ang**2):
  XXX=             60.2801  YYY=             -4.2662  ZZZ=              6.9180  XYY=              5.5982
  XXY=             60.6223  XXZ=             32.4236  XZZ=            -26.6195  YZZ=              2.4328
  YYZ=              1.2309  XYZ=             -4.2213
 Hexadecapole moment (field-independent basis, Debye-Ang**3):
 XXXX=          -7525.7689 YYYY=           -771.4113 ZZZZ=           -445.2953 XXXY=           -215.9524
 XXXZ=           -105.7017 YYYX=            -16.7868 YYYZ=            -11.3587 ZZZX=            -31.1260
 ZZZY=              6.1006 XXYY=          -1446.5509 XXZZ=          -1537.2168 YYZZ=           -210.5695
 XXYZ=            -39.0024 YYXZ=             -1.6515 ZZXY=             -0.2973
 N-N= 1.443880076678D+03 E-N=-5.734757723759D+03  KE= 1.205927223738D+03
 No NMR shielding tensors so no spin-rotation constants.
 Leave Link  601 at Thu Aug  6 22:16:14 2020, MaxMem=    33554432 cpu:         0.2
 (Enter /prod/apps/gaussian/g09d1/l9999.exe)
 1\1\GINC-PIRINEUS30\SP\RB3LYP\6-31G(d)\C11H13N3O3S1\UBAFAR01\06-Aug-20
 20\0\\#p b3lyp/6-31G(d)\\SM43.n.3.pdb.xyz\\0,1\O,0,1.257,-3.933,1.945\
 S,0,2.321,-3.08,1.423\N,0,2.139,-1.464,1.896\C,0,1.651,-1.063,3.142\N,
 0,1.816,-1.789,4.229\O,0,1.223,-1.03,5.25\C,0,0.735,0.125,4.742\C,0,0.
 083,1.045,5.668\C,0,-0.037,0.72,7.028\C,0,-0.661,1.602,7.905\C,0,-1.17
 2,2.815,7.438\C,0,-1.056,3.142,6.085\C,0,-0.433,2.265,5.204\C,0,0.976,
 0.163,3.397\N,0,3.714,-3.47,2.242\C,0,3.871,-4.879,2.617\C,0,4.93,-2.8
 05,1.763\O,0,2.51,-2.962,-0.027\H,0,1.848,-0.894,1.108\H,0,0.361,-0.22
 2,7.386\H,0,-0.749,1.343,8.955\H,0,-1.659,3.5,8.123\H,0,-1.451,4.083,5
 .716\H,0,-0.344,2.523,4.155\H,0,0.714,0.933,2.689\H,0,2.932,-5.25,3.02
 2\H,0,4.636,-4.923,3.394\H,0,4.184,-5.507,1.774\H,0,4.723,-1.745,1.612
 \H,0,5.306,-3.242,0.831\H,0,5.687,-2.907,2.542\\Version=AM64L-G09RevD.
 01\State=1-A\HF=-1214.9844281\RMSD=3.484e-09\Dipole=0.5134142,1.614866
 4,0.5488385\Quadrupole=3.1175281,2.3415112,-5.4590392,-11.6295719,-5.2
 342994,-2.9221715\PG=C01 [X(C11H13N3O3S1)]\\@


 Luck is a matter of preparation meeting opportunity.
                                    -- Oprah Winfrey
 Job cpu time:       0 days  0 hours  3 minutes 28.2 seconds.
 File lengths (MBytes):  RWF=     51 Int=      0 D2E=      0 Chk=      4 Scr=      1
 Normal termination of Gaussian 09 at Thu Aug  6 22:16:14 2020.
 Initial command:
 /prod/apps/gaussian/g09d1/l1.exe "/tmp/ubafar01/1448655/Gau-22708.inp" -scrdir="/tmp/ubafar01/1448655/"
 Entering Link 1 = /prod/apps/gaussian/g09d1/l1.exe PID=     23003.
  
 Copyright (c) 1988,1990,1992,1993,1995,1998,2003,2009,2013,
            Gaussian, Inc.  All Rights Reserved.
  
 This is part of the Gaussian(R) 09 program.  It is based on
 the Gaussian(R) 03 system (copyright 2003, Gaussian, Inc.),
 the Gaussian(R) 98 system (copyright 1998, Gaussian, Inc.),
 the Gaussian(R) 94 system (copyright 1995, Gaussian, Inc.),
 the Gaussian 92(TM) system (copyright 1992, Gaussian, Inc.),
 the Gaussian 90(TM) system (copyright 1990, Gaussian, Inc.),
 the Gaussian 88(TM) system (copyright 1988, Gaussian, Inc.),
 the Gaussian 86(TM) system (copyright 1986, Carnegie Mellon
 University), and the Gaussian 82(TM) system (copyright 1983,
 Carnegie Mellon University). Gaussian is a federally registered
 trademark of Gaussian, Inc.
  
 This software contains proprietary and confidential information,
 including trade secrets, belonging to Gaussian, Inc.
  
 This software is provided under written license and may be
 used, copied, transmitted, or stored only in accord with that
 written license.
  
 The following legend is applicable only to US Government
 contracts under FAR:
  
                    RESTRICTED RIGHTS LEGEND
  
 Use, reproduction and disclosure by the US Government is
 subject to restrictions as set forth in subparagraphs (a)
 and (c) of the Commercial Computer Software - Restricted
 Rights clause in FAR 52.227-19.
  
 Gaussian, Inc.
 340 Quinnipiac St., Bldg. 40, Wallingford CT 06492
  
  
 ---------------------------------------------------------------
 Warning -- This program may not be used in any manner that
 competes with the business of Gaussian, Inc. or will provide
 assistance to any competitor of Gaussian, Inc.  The licensee
 of this program is prohibited from giving any competitor of
 Gaussian, Inc. access to this program.  By using this program,
 the user acknowledges that Gaussian, Inc. is engaged in the
 business of creating and licensing software in the field of
 computational chemistry and represents and warrants to the
 licensee that it is not a competitor of Gaussian, Inc. and that
 it will not use this program in any manner prohibited above.
 ---------------------------------------------------------------
  

 Cite this work as:
 Gaussian 09, Revision D.01,
 M. J. Frisch, G. W. Trucks, H. B. Schlegel, G. E. Scuseria, 
 M. A. Robb, J. R. Cheeseman, G. Scalmani, V. Barone, B. Mennucci, 
 G. A. Petersson, H. Nakatsuji, M. Caricato, X. Li, H. P. Hratchian, 
 A. F. Izmaylov, J. Bloino, G. Zheng, J. L. Sonnenberg, M. Hada, 
 M. Ehara, K. Toyota, R. Fukuda, J. Hasegawa, M. Ishida, T. Nakajima, 
 Y. Honda, O. Kitao, H. Nakai, T. Vreven, J. A. Montgomery, Jr., 
 J. E. Peralta, F. Ogliaro, M. Bearpark, J. J. Heyd, E. Brothers, 
 K. N. Kudin, V. N. Staroverov, T. Keith, R. Kobayashi, J. Normand, 
 K. Raghavachari, A. Rendell, J. C. Burant, S. S. Iyengar, J. Tomasi, 
 M. Cossi, N. Rega, J. M. Millam, M. Klene, J. E. Knox, J. B. Cross, 
 V. Bakken, C. Adamo, J. Jaramillo, R. Gomperts, R. E. Stratmann, 
 O. Yazyev, A. J. Austin, R. Cammi, C. Pomelli, J. W. Ochterski, 
 R. L. Martin, K. Morokuma, V. G. Zakrzewski, G. A. Voth, 
 P. Salvador, J. J. Dannenberg, S. Dapprich, A. D. Daniels, 
 O. Farkas, J. B. Foresman, J. V. Ortiz, J. Cioslowski, 
 and D. J. Fox, Gaussian, Inc., Wallingford CT, 2013.
 
 ******************************************
 Gaussian 09:  AM64L-G09RevD.01 24-Apr-2013
                 6-Aug-2020 
 ******************************************
 %nproc=1
 Will use up to    1 processors via shared memory.
 %Chk=SM43.n.3.pdb.xyz.mst.n.o.chk
 %subst l301 /dades/curu/work_g09D01_MST_AddSphPartition_ReadGammas/exe-dir/
 %subst l502 /dades/curu/work_g09D01_MST_AddSphPartition_ReadGammas/exe-dir/
 ----------------------------------------------------------------------
 #p b3lyp/6-31G(d) scrf=(iefpcm,read,solvent=n-Octanol) geom=allcheck g
 uess=read
 ----------------------------------------------------------------------
 1/29=7,38=1,40=2/1;
 2/12=2,40=1/2;
 3/5=1,6=6,7=1,11=2,14=-4,16=1,25=1,30=1,70=2203,72=25,74=-5,116=-2/1,2,3;
 4/5=1/1;
 5/5=2,38=6,53=25/2;
 6/7=2,8=2,9=2,10=2,28=1/1;
 99/5=1,9=1/99;
 Leave Link    1 at Thu Aug  6 22:16:14 2020, MaxMem=           0 cpu:         0.0
 (Enter /prod/apps/gaussian/g09d1/l101.exe)
 Structure from the checkpoint file:  "SM43.n.3.pdb.xyz.mst.n.o.chk"
 ----------------
 SM43.n.3.pdb.xyz
 ----------------
 Charge =  0 Multiplicity = 1
 Z-Matrix found in file.
 O,0,1.257,-3.933,1.945
 S,0,2.321,-3.08,1.423
 N,0,2.139,-1.464,1.896
 C,0,1.651,-1.063,3.142
 N,0,1.816,-1.789,4.229
 O,0,1.223,-1.03,5.25
 C,0,0.735,0.125,4.742
 C,0,0.083,1.045,5.668
 C,0,-0.037,0.72,7.028
 C,0,-0.661,1.602,7.905
 C,0,-1.172,2.815,7.438
 C,0,-1.056,3.142,6.085
 C,0,-0.433,2.265,5.204
 C,0,0.976,0.163,3.397
 N,0,3.714,-3.47,2.242
 C,0,3.871,-4.879,2.617
 C,0,4.93,-2.805,1.763
 O,0,2.51,-2.962,-0.027
 H,0,1.848,-0.894,1.108
 H,0,0.361,-0.222,7.386
 H,0,-0.749,1.343,8.955
 H,0,-1.659,3.5,8.123
 H,0,-1.451,4.083,5.716
 H,0,-0.344,2.523,4.155
 H,0,0.714,0.933,2.689
 H,0,2.932,-5.25,3.022
 H,0,4.636,-4.923,3.394
 H,0,4.184,-5.507,1.774
 H,0,4.723,-1.745,1.612
 H,0,5.306,-3.242,0.831
 H,0,5.687,-2.907,2.542
 Recover connectivity data from disk.
 NAtoms=     31 NQM=       31 NQMF=       0 NMMI=      0 NMMIF=      0
                NMic=       0 NMicF=      0.
                    Isotopes and Nuclear Properties:
 (Nuclear quadrupole moments (NQMom) in fm**2, nuclear magnetic moments (NMagM)
  in nuclear magnetons)

  Atom         1           2           3           4           5           6           7           8           9          10
 IAtWgt=          16          32          14          12          14          16          12          12          12          12
 AtmWgt=  15.9949146  31.9720718  14.0030740  12.0000000  14.0030740  15.9949146  12.0000000  12.0000000  12.0000000  12.0000000
 NucSpn=           0           0           2           0           2           0           0           0           0           0
 AtZEff=  -5.6000000 -13.6000000  -4.5500000  -3.6000000  -4.5500000  -5.6000000  -3.6000000  -3.6000000  -3.6000000  -3.6000000
 NQMom=    0.0000000   0.0000000   2.0440000   0.0000000   2.0440000   0.0000000   0.0000000   0.0000000   0.0000000   0.0000000
 NMagM=    0.0000000   0.0000000   0.4037610   0.0000000   0.4037610   0.0000000   0.0000000   0.0000000   0.0000000   0.0000000
 AtZNuc=   8.0000000  16.0000000   7.0000000   6.0000000   7.0000000   8.0000000   6.0000000   6.0000000   6.0000000   6.0000000

  Atom        11          12          13          14          15          16          17          18          19          20
 IAtWgt=          12          12          12          12          14          12          12          16           1           1
 AtmWgt=  12.0000000  12.0000000  12.0000000  12.0000000  14.0030740  12.0000000  12.0000000  15.9949146   1.0078250   1.0078250
 NucSpn=           0           0           0           0           2           0           0           0           1           1
 AtZEff=  -3.6000000  -3.6000000  -3.6000000  -3.6000000  -4.5500000  -3.6000000  -3.6000000  -5.6000000  -1.0000000  -1.0000000
 NQMom=    0.0000000   0.0000000   0.0000000   0.0000000   2.0440000   0.0000000   0.0000000   0.0000000   0.0000000   0.0000000
 NMagM=    0.0000000   0.0000000   0.0000000   0.0000000   0.4037610   0.0000000   0.0000000   0.0000000   2.7928460   2.7928460
 AtZNuc=   6.0000000   6.0000000   6.0000000   6.0000000   7.0000000   6.0000000   6.0000000   8.0000000   1.0000000   1.0000000

  Atom        21          22          23          24          25          26          27          28          29          30
 IAtWgt=           1           1           1           1           1           1           1           1           1           1
 AtmWgt=   1.0078250   1.0078250   1.0078250   1.0078250   1.0078250   1.0078250   1.0078250   1.0078250   1.0078250   1.0078250
 NucSpn=           1           1           1           1           1           1           1           1           1           1
 AtZEff=  -1.0000000  -1.0000000  -1.0000000  -1.0000000  -1.0000000  -1.0000000  -1.0000000  -1.0000000  -1.0000000  -1.0000000
 NQMom=    0.0000000   0.0000000   0.0000000   0.0000000   0.0000000   0.0000000   0.0000000   0.0000000   0.0000000   0.0000000
 NMagM=    2.7928460   2.7928460   2.7928460   2.7928460   2.7928460   2.7928460   2.7928460   2.7928460   2.7928460   2.7928460
 AtZNuc=   1.0000000   1.0000000   1.0000000   1.0000000   1.0000000   1.0000000   1.0000000   1.0000000   1.0000000   1.0000000

  Atom        31
 IAtWgt=           1
 AtmWgt=   1.0078250
 NucSpn=           1
 AtZEff=  -1.0000000
 NQMom=    0.0000000
 NMagM=    2.7928460
 AtZNuc=   1.0000000
 Leave Link  101 at Thu Aug  6 22:16:14 2020, MaxMem=    33554432 cpu:         0.0
 (Enter /prod/apps/gaussian/g09d1/l202.exe)
                          Input orientation:                          
 ---------------------------------------------------------------------
 Center     Atomic      Atomic             Coordinates (Angstroms)
 Number     Number       Type             X           Y           Z
 ---------------------------------------------------------------------
      1          8           0        1.257000   -3.933000    1.945000
      2         16           0        2.321000   -3.080000    1.423000
      3          7           0        2.139000   -1.464000    1.896000
      4          6           0        1.651000   -1.063000    3.142000
      5          7           0        1.816000   -1.789000    4.229000
      6          8           0        1.223000   -1.030000    5.250000
      7          6           0        0.735000    0.125000    4.742000
      8          6           0        0.083000    1.045000    5.668000
      9          6           0       -0.037000    0.720000    7.028000
     10          6           0       -0.661000    1.602000    7.905000
     11          6           0       -1.172000    2.815000    7.438000
     12          6           0       -1.056000    3.142000    6.085000
     13          6           0       -0.433000    2.265000    5.204000
     14          6           0        0.976000    0.163000    3.397000
     15          7           0        3.714000   -3.470000    2.242000
     16          6           0        3.871000   -4.879000    2.617000
     17          6           0        4.930000   -2.805000    1.763000
     18          8           0        2.510000   -2.962000   -0.027000
     19          1           0        1.848000   -0.894000    1.108000
     20          1           0        0.361000   -0.222000    7.386000
     21          1           0       -0.749000    1.343000    8.955000
     22          1           0       -1.659000    3.500000    8.123000
     23          1           0       -1.451000    4.083000    5.716000
     24          1           0       -0.344000    2.523000    4.155000
     25          1           0        0.714000    0.933000    2.689000
     26          1           0        2.932000   -5.250000    3.022000
     27          1           0        4.636000   -4.923000    3.394000
     28          1           0        4.184000   -5.507000    1.774000
     29          1           0        4.723000   -1.745000    1.612000
     30          1           0        5.306000   -3.242000    0.831000
     31          1           0        5.687000   -2.907000    2.542000
 ---------------------------------------------------------------------
                    Distance matrix (angstroms):
                    1          2          3          4          5
     1  O    0.000000
     2  S    1.460202   0.000000
     3  N    2.622267   1.693608   0.000000
     4  C    3.134477   2.733523   1.396947   0.000000
     5  N    3.182118   3.129751   2.377571   1.317524   0.000000
     6  O    4.399044   4.478173   3.503816   2.151264   1.403628
     7  C    4.956113   4.878850   3.549064   2.193262   2.257239
     8  C    6.326096   6.328056   4.974957   3.644580   3.620161
     9  C    7.011543   7.170508   5.986840   4.596676   4.190834
    10  C    8.356826   8.534036   7.304001   5.927372   5.580984
    11  C    9.033748   9.117692   7.745084   6.439241   6.357880
    12  C    8.517347   8.476536   6.997927   5.802682   6.000657
    13  C    7.203637   7.102781   5.609232   4.435142   4.737462
    14  C    4.354823   4.027748   2.500540   1.422577   2.282132
    15  N    2.517822   1.662321   2.573787   3.295393   3.221232
    16  C    2.859982   2.657920   3.896394   4.445884   4.045945
    17  C    3.846614   2.645393   3.099298   3.960814   4.100050
    18  O    2.530145   1.467019   2.465679   3.792973   4.468904
    19  H    3.207081   2.258661   1.015148   2.050494   3.246951
    20  H    6.646715   6.896893   5.902876   4.514744   3.813025
    21  H    9.000017   9.258448   8.127070   6.733484   6.222839
    22  H   10.095555  10.199353   8.822790   7.522462   7.430503
    23  H    9.263367   9.163318   7.632150   6.536757   6.882212
    24  H    7.009082   6.779355   5.211961   4.226771   4.823320
    25  H    4.952408   4.504373   2.899152   2.251043   3.315914
    26  H    2.387476   2.763878   4.028712   4.380220   3.831557
    27  H    3.807538   3.555378   4.521470   4.886034   4.297858
    28  H    3.327769   3.079659   4.532412   5.294964   5.045589
    29  H    4.112346   2.754551   2.614703   3.499030   3.911684
    30  H    4.255923   3.047447   3.784891   4.842292   5.083081
    31  H    4.586282   3.551344   3.884311   4.477682   4.368127
                    6          7          8          9         10
     6  O    0.000000
     7  C    1.352861   0.000000
     8  C    2.404152   1.459102   0.000000
     9  C    2.794885   2.485117   1.403433   0.000000
    10  C    4.186395   3.759643   2.422386   1.391556   0.000000
    11  C    5.030645   4.259245   2.800147   2.417716   1.396631
    12  C    4.826660   3.756810   2.422523   2.791719   2.416614
    13  C    3.688018   2.481384   1.403550   2.422977   2.790511
    14  C    2.217626   1.366949   2.594767   3.810588   5.007250
    15  N    4.605078   5.296080   6.731037   7.384572   8.771281
    16  C    5.362779   6.276156   7.664941   8.128849   9.513429
    17  C    5.389958   5.920926   7.318807   8.050897   9.402398
    18  O    5.765043   5.951769   7.374239   8.355678   9.685141
    19  H    4.191096   3.934855   5.260090   6.419083   7.663179
    20  H    2.440984   2.692772   2.152695   1.083481   2.154256
    21  H    4.821508   4.629811   3.403733   2.146719   1.085046
    22  H    6.089413   5.343503   3.884407   3.399751   2.155442
    23  H    5.788800   4.625261   3.403660   3.876920   3.401644
    24  H    4.034640   2.694293   2.157772   3.405758   3.874433
    25  H    3.266676   2.206380   3.047154   4.408661   5.435517
    26  H    5.068833   6.056058   7.398996   7.778425   9.148948
    27  H    5.499887   6.520522   7.843335   8.178407   9.538499
    28  H    6.394812   7.240445   8.655064   9.175886  10.564141
    29  H    5.098654   5.403512   6.764971   7.620163   8.932621
    30  H    6.410257   6.893958   8.309914   9.091089  10.445616
    31  H    5.548305   6.209294   7.536245   8.126715   9.454626
                   11         12         13         14         15
    11  C    0.000000
    12  C    1.396780   0.000000
    13  C    2.416480   1.390474   0.000000
    14  C    5.289299   4.497645   3.109491   0.000000
    15  N    9.506452   9.013329   7.672110   4.693544   0.000000
    16  C   10.386122  10.031889   8.732338   5.866105   1.466477
    17  C   10.051091   9.480437   8.142920   5.207024   1.466398
    18  O   10.131983   9.345144   7.959029   4.882884   2.618404
    19  H    7.933850   7.035129   5.653270   2.667799   3.376935
    20  H    3.402376   3.875176   3.402459   4.054451   6.946427
    21  H    2.155691   3.401110   3.875557   5.937962   9.388701
    22  H    1.084260   2.155277   3.398362   6.357190  10.584715
    23  H    2.156606   1.085204   2.145598   5.160861   9.787426
    24  H    3.398373   2.148256   1.083922   2.808303   7.486186
    25  H    5.445358   4.421018   3.068397   1.078336   5.346608
    26  H   10.069166   9.783240   8.518191   5.767766   2.094833
    27  H   10.486346  10.231548   8.979878   6.266020   2.070845
    28  H   11.402777  10.993067   9.668794   6.713739   2.142264
    29  H    9.459752   8.791322   7.454321   4.568008   2.095377
    30  H   11.059122  10.432402   9.076690   6.076782   2.139479
    31  H   10.186166   9.726834   8.443354   5.687657   2.073571
                   16         17         18         19         20
    16  C    0.000000
    17  C    2.480378   0.000000
    18  O    3.538071   3.014158   0.000000
    19  H    4.716973   3.685060   2.450121   0.000000
    20  H    7.533333   7.691929   8.190139   6.486604   0.000000
    21  H   10.011390  10.058917  10.480001   8.562943   2.478525
    22  H   11.450091  11.118343  11.205378   8.989800   4.298471
    23  H   10.874048  10.187635   9.914817   7.542386   4.960370
    24  H    8.655708   7.869201   7.464561   5.075920   4.297838
    25  H    6.614467   5.710059   5.076741   2.668978   4.849788
    26  H    1.087836   3.399281   3.835287   4.879876   7.136899
    27  H    1.091279   2.689335   4.479803   5.406624   7.504072
    28  H    1.096814   2.803113   3.538771   5.213465   8.604714
    29  H    3.399689   1.090527   3.010777   3.040369   7.394975
    30  H    2.815811   1.095887   2.938057   4.188985   8.748797
    31  H    2.681840   1.091006   4.086088   4.565791   7.683738
                   21         22         23         24         25
    21  H    0.000000
    22  H    2.484547   0.000000
    23  H    4.300177   2.485317   0.000000
    24  H    4.959478   4.292875   2.468961   0.000000
    25  H    6.447575   6.461345   4.875700   2.407617   0.000000
    26  H    9.603015  11.120251  10.657073   8.510899   6.577226
    27  H    9.959202  11.529848  11.115363   8.990130   7.083209
    28  H   11.082588  12.473031  11.800877   9.521179   7.372362
    29  H    9.664273  10.518226   9.430094   7.096278   4.940010
    30  H   11.121359  12.130089  11.098464   8.729645   6.478368
    31  H   10.030512  11.232138  10.482625   8.274033   6.284738
                   26         27         28         29         30
    26  H    0.000000
    27  H    1.774522   0.000000
    28  H    1.786353   1.780382   0.000000
    29  H    4.181005   3.644554   3.803868   0.000000
    30  H    3.803738   3.137456   2.697843   1.786298   0.000000
    31  H    3.648297   2.427913   3.099812   1.773257   1.784631
                   31
    31  H    0.000000
 Stoichiometry    C11H13N3O3S
[...]
 Alpha virt. eigenvalues --    0.78083   0.78539   0.80013   0.80157   0.81385
 Alpha virt. eigenvalues --    0.82094   0.83273   0.84078   0.84495   0.85480
 Alpha virt. eigenvalues --    0.86482   0.87594   0.88294   0.88914   0.89288
 Alpha virt. eigenvalues --    0.89958   0.90708   0.92367   0.92621   0.93854
 Alpha virt. eigenvalues --    0.94330   0.95291   0.96390   0.96668   0.97060
 Alpha virt. eigenvalues --    0.99321   1.00876   1.01390   1.04047   1.05239
 Alpha virt. eigenvalues --    1.05712   1.07495   1.09325   1.10036   1.10883
 Alpha virt. eigenvalues --    1.14058   1.15903   1.16853   1.17421   1.19531
 Alpha virt. eigenvalues --    1.21396   1.23125   1.24015   1.26184   1.29013
 Alpha virt. eigenvalues --    1.30953   1.32913   1.34100   1.34749   1.37194
 Alpha virt. eigenvalues --    1.37758   1.41043   1.42036   1.42514   1.44141
 Alpha virt. eigenvalues --    1.45040   1.46919   1.47016   1.48030   1.49910
 Alpha virt. eigenvalues --    1.50412   1.52235   1.54031   1.56473   1.57754
 Alpha virt. eigenvalues --    1.59257   1.67367   1.70569   1.72531   1.76712
 Alpha virt. eigenvalues --    1.78077   1.78406   1.79417   1.79888   1.81188
 Alpha virt. eigenvalues --    1.81928   1.83993   1.86710   1.88055   1.88867
 Alpha virt. eigenvalues --    1.91320   1.91994   1.93809   1.96318   1.96668
 Alpha virt. eigenvalues --    1.97080   1.97411   1.99094   2.00513   2.03178
 Alpha virt. eigenvalues --    2.03701   2.04951   2.07620   2.08545   2.10300
 Alpha virt. eigenvalues --    2.10924   2.11733   2.13169   2.14108   2.14766
 Alpha virt. eigenvalues --    2.17369   2.19331   2.20449   2.21921   2.23338
 Alpha virt. eigenvalues --    2.24322   2.25965   2.26816   2.28321   2.29921
 Alpha virt. eigenvalues --    2.31901   2.33039   2.35767   2.37186   2.42748
 Alpha virt. eigenvalues --    2.43554   2.47380   2.51128   2.52783   2.53577
 Alpha virt. eigenvalues --    2.57107   2.57985   2.59569   2.61181   2.62661
 Alpha virt. eigenvalues --    2.66053   2.66220   2.70232   2.71094   2.73801
 Alpha virt. eigenvalues --    2.74339   2.76177   2.77838   2.82157   2.86717
 Alpha virt. eigenvalues --    2.89285   2.90818   3.02651   3.05793   3.13211
 Alpha virt. eigenvalues --    3.26994   3.42815   3.76198   3.83367   3.96033
 Alpha virt. eigenvalues --    4.02033   4.03704   4.07630   4.09194   4.10664
 Alpha virt. eigenvalues --    4.13440   4.18302   4.23220   4.25660   4.31239
 Alpha virt. eigenvalues --    4.32434   4.37268   4.40727   4.56939   4.74039
          Condensed to atoms (all electrons):
               1          2          3          4          5          6
     1  O    8.223082   0.450202  -0.054712   0.005763  -0.002033   0.000000
     2  S    0.450202  13.559836   0.117757   0.003813   0.001541  -0.000310
     3  N   -0.054712   0.117757   7.460213   0.215159  -0.072224   0.005521
     4  C    0.005763   0.003813   0.215159   4.490078   0.413178  -0.034141
     5  N   -0.002033   0.001541  -0.072224   0.413178   6.895657   0.111313
     6  O    0.000000  -0.000310   0.005521  -0.034141   0.111313   8.206553
     7  C    0.000003   0.000269  -0.000317  -0.022608  -0.079189   0.247868
     8  C    0.000000  -0.000007  -0.000202   0.003177   0.004068  -0.038045
     9  C    0.000000   0.000000  -0.000001  -0.000333   0.000132  -0.006573
    10  C    0.000000   0.000000   0.000000   0.000005   0.000000   0.000297
    11  C    0.000000   0.000000   0.000000   0.000000   0.000000   0.000001
    12  C    0.000000   0.000000   0.000000  -0.000006   0.000001  -0.000061
    13  C    0.000000   0.000000   0.000003   0.000591  -0.000098   0.003163
    14  C    0.000066   0.001345  -0.055560   0.444191  -0.042566  -0.095333
    15  N   -0.052218   0.144411  -0.043892  -0.008016   0.003611   0.000054
    16  C   -0.003675  -0.028960   0.002050   0.000141   0.000015  -0.000002
    17  C    0.001554  -0.009483  -0.008328   0.000489   0.000099  -0.000001
    18  O   -0.043508   0.448294  -0.058478   0.001323  -0.000002   0.000000
    19  H   -0.000067  -0.017540   0.307311  -0.019305   0.002857  -0.000055
    20  H    0.000000   0.000000   0.000000   0.000062  -0.000265   0.009942
    21  H    0.000000   0.000000   0.000000   0.000000   0.000000  -0.000003
    22  H    0.000000   0.000000   0.000000   0.000000   0.000000   0.000000
    23  H    0.000000   0.000000   0.000000   0.000000   0.000000   0.000000
    24  H    0.000000   0.000000  -0.000001   0.000080  -0.000005   0.000022
    25  H    0.000001  -0.000119  -0.001936  -0.027986   0.004784   0.003445
    26  H    0.011127  -0.004393   0.000130   0.000005   0.000161  -0.000001
    27  H    0.000282   0.001857  -0.000075  -0.000009  -0.000007   0.000000
    28  H   -0.000340  -0.002708  -0.000090  -0.000007   0.000008   0.000000
    29  H    0.000015  -0.001930   0.011090   0.000356  -0.000112   0.000000
    30  H   -0.000031  -0.007553  -0.000169  -0.000043   0.000007   0.000000
    31  H   -0.000050   0.003174  -0.000092   0.000016  -0.000018   0.000000
               7          8          9         10         11         12
     1  O    0.000003   0.000000   0.000000   0.000000   0.000000   0.000000
     2  S    0.000269  -0.000007   0.000000   0.000000   0.000000   0.000000
     3  N   -0.000317  -0.000202  -0.000001   0.000000   0.000000   0.000000
     4  C   -0.022608   0.003177  -0.000333   0.000005   0.000000  -0.000006
     5  N   -0.079189   0.004068   0.000132   0.000000   0.000000   0.000001
     6  O    0.247868  -0.038045  -0.006573   0.000297   0.000001  -0.000061
     7  C    4.724946   0.345381  -0.040773   0.004750   0.000903   0.006381
     8  C    0.345381   4.779823   0.475020  -0.008856  -0.033847  -0.009667
     9  C   -0.040773   0.475020   5.053144   0.505711  -0.037028  -0.042411
    10  C    0.004750  -0.008856   0.505711   4.882846   0.541350  -0.024928
    11  C    0.000903  -0.033847  -0.037028   0.541350   4.862906   0.543151
    12  C    0.006381  -0.009667  -0.042411  -0.024928   0.543151   4.869999
    13  C   -0.042627   0.536882  -0.083557  -0.041625  -0.039522   0.521501
    14  C    0.511878  -0.059110   0.012213  -0.000236   0.000015   0.000207
    15  N    0.000001   0.000000   0.000000   0.000000   0.000000   0.000000
    16  C    0.000001   0.000000   0.000000   0.000000   0.000000   0.000000
    17  C    0.000000   0.000000   0.000000   0.000000   0.000000   0.000000
    18  O    0.000000   0.000000   0.000000   0.000000   0.000000   0.000000
    19  H    0.000001  -0.000001   0.000000   0.000000   0.000000   0.000000
    20  H   -0.013163  -0.041352   0.361544  -0.041936   0.004508   0.000233
    21  H   -0.000178   0.003177  -0.037599   0.361869  -0.041219   0.004427
    22  H    0.000003   0.000528   0.004660  -0.041742   0.363117  -0.041872
    23  H   -0.000208   0.003236   0.000835   0.004412  -0.041012   0.361246
    24  H   -0.012926  -0.037995   0.005836   0.000194   0.004585  -0.042292
    25  H   -0.024443  -0.003355  -0.000116   0.000002  -0.000001   0.000087
    26  H    0.000000   0.000000   0.000000   0.000000   0.000000   0.000000
    27  H    0.000000   0.000000   0.000000   0.000000   0.000000   0.000000
    28  H    0.000000   0.000000   0.000000   0.000000   0.000000   0.000000
    29  H    0.000003   0.000000   0.000000   0.000000   0.000000   0.000000
    30  H    0.000000   0.000000   0.000000   0.000000   0.000000   0.000000
    31  H    0.000000   0.000000   0.000000   0.000000   0.000000   0.000000
              13         14         15         16         17         18
     1  O    0.000000   0.000066  -0.052218  -0.003675   0.001554  -0.043508
     2  S    0.000000   0.001345   0.144411  -0.028960  -0.009483   0.448294
     3  N    0.000003  -0.055560  -0.043892   0.002050  -0.008328  -0.058478
     4  C    0.000591   0.444191  -0.008016   0.000141   0.000489   0.001323
     5  N   -0.000098  -0.042566   0.003611   0.000015   0.000099  -0.000002
     6  O    0.003163  -0.095333   0.000054  -0.000002  -0.000001   0.000000
     7  C   -0.042627   0.511878   0.000001   0.000001   0.000000   0.000000
     8  C    0.536882  -0.059110   0.000000   0.000000   0.000000   0.000000
     9  C   -0.083557   0.012213   0.000000   0.000000   0.000000   0.000000
    10  C   -0.041625  -0.000236   0.000000   0.000000   0.000000   0.000000
    11  C   -0.039522   0.000015   0.000000   0.000000   0.000000   0.000000
    12  C    0.521501   0.000207   0.000000   0.000000   0.000000   0.000000
    13  C    5.009987  -0.020754   0.000000   0.000000   0.000000   0.000000
    14  C   -0.020754   5.258782  -0.000141   0.000001  -0.000013  -0.000067
    15  N    0.000000  -0.000141   7.195237   0.293774   0.271923  -0.057349
    16  C    0.000000   0.000001   0.293774   4.975940  -0.047450  -0.001489
    17  C    0.000000  -0.000013   0.271923  -0.047450   4.978385   0.003338
    18  O    0.000000  -0.000067  -0.057349  -0.001489   0.003338   8.249231
    19  H    0.000000  -0.004465   0.002658  -0.000041  -0.000208   0.005756
    20  H    0.005409   0.000274   0.000000   0.000000   0.000000   0.000000
    21  H    0.000831   0.000001   0.000000   0.000000   0.000000   0.000000
    22  H    0.004842   0.000000   0.000000   0.000000   0.000000   0.000000
    23  H   -0.037728  -0.000001   0.000000   0.000000   0.000000   0.000000
    24  H    0.354796   0.006125   0.000000   0.000000   0.000000   0.000000
    25  H    0.001283   0.348898   0.000000   0.000000   0.000000  -0.000001
    26  H    0.000000   0.000000  -0.030390   0.377266   0.004279  -0.000075
    27  H    0.000000   0.000000  -0.038986   0.378902  -0.002847  -0.000096
    28  H    0.000000   0.000000  -0.049023   0.376018  -0.001220   0.001330
    29  H    0.000000  -0.000034  -0.033134   0.004398   0.376123  -0.002013
    30  H    0.000000   0.000000  -0.046393  -0.000869   0.377330   0.004378
    31  H    0.000000   0.000000  -0.034769  -0.003914   0.376279   0.000072
              19         20         21         22         23         24
     1  O   -0.000067   0.000000   0.000000   0.000000   0.000000   0.000000
     2  S   -0.017540   0.000000   0.000000   0.000000   0.000000   0.000000
     3  N    0.307311   0.000000   0.000000   0.000000   0.000000  -0.000001
     4  C   -0.019305   0.000062   0.000000   0.000000   0.000000   0.000080
     5  N    0.002857  -0.000265   0.000000   0.000000   0.000000  -0.000005
     6  O   -0.000055   0.009942  -0.000003   0.000000   0.000000   0.000022
     7  C    0.000001  -0.013163  -0.000178   0.000003  -0.000208  -0.012926
     8  C   -0.000001  -0.041352   0.003177   0.000528   0.003236  -0.037995
     9  C    0.000000   0.361544  -0.037599   0.004660   0.000835   0.005836
    10  C    0.000000  -0.041936   0.361869  -0.041742   0.004412   0.000194
    11  C    0.000000   0.004508  -0.041219   0.363117  -0.041012   0.004585
    12  C    0.000000   0.000233   0.004427  -0.041872   0.361246  -0.042292
    13  C    0.000000   0.005409   0.000831   0.004842  -0.037728   0.354796
    14  C   -0.004465   0.000274   0.000001   0.000000  -0.000001   0.006125
    15  N    0.002658   0.000000   0.000000   0.000000   0.000000   0.000000
    16  C   -0.000041   0.000000   0.000000   0.000000   0.000000   0.000000
    17  C   -0.000208   0.000000   0.000000   0.000000   0.000000   0.000000
    18  O    0.005756   0.000000   0.000000   0.000000   0.000000   0.000000
    19  H    0.323717   0.000000   0.000000   0.000000   0.000000   0.000000
    20  H    0.000000   0.556727  -0.004896  -0.000154   0.000015  -0.000146
    21  H    0.000000  -0.004896   0.567049  -0.005185  -0.000169   0.000016
    22  H    0.000000  -0.000154  -0.005185   0.570212  -0.005203  -0.000163
    23  H    0.000000   0.000015  -0.000169  -0.005203   0.567926  -0.005045
    24  H    0.000000  -0.000146   0.000016  -0.000163  -0.005045   0.572740
    25  H    0.001924  -0.000009   0.000000   0.000000  -0.000002   0.002076
    26  H   -0.000005   0.000000   0.000000   0.000000   0.000000   0.000000
    27  H    0.000001   0.000000   0.000000   0.000000   0.000000   0.000000
    28  H    0.000006   0.000000   0.000000   0.000000   0.000000   0.000000
    29  H   -0.000540   0.000000   0.000000   0.000000   0.000000   0.000000
    30  H    0.000074   0.000000   0.000000   0.000000   0.000000   0.000000
    31  H   -0.000004   0.000000   0.000000   0.000000   0.000000   0.000000
              25         26         27         28         29         30
     1  O    0.000001   0.011127   0.000282  -0.000340   0.000015  -0.000031
     2  S   -0.000119  -0.004393   0.001857  -0.002708  -0.001930  -0.007553
     3  N   -0.001936   0.000130  -0.000075  -0.000090   0.011090  -0.000169
     4  C   -0.027986   0.000005  -0.000009  -0.000007   0.000356  -0.000043
     5  N    0.004784   0.000161  -0.000007   0.000008  -0.000112   0.000007
     6  O    0.003445  -0.000001   0.000000   0.000000   0.000000   0.000000
     7  C   -0.024443   0.000000   0.000000   0.000000   0.000003   0.000000
     8  C   -0.003355   0.000000   0.000000   0.000000   0.000000   0.000000
     9  C   -0.000116   0.000000   0.000000   0.000000   0.000000   0.000000
    10  C    0.000002   0.000000   0.000000   0.000000   0.000000   0.000000
    11  C   -0.000001   0.000000   0.000000   0.000000   0.000000   0.000000
    12  C    0.000087   0.000000   0.000000   0.000000   0.000000   0.000000
    13  C    0.001283   0.000000   0.000000   0.000000   0.000000   0.000000
    14  C    0.348898   0.000000   0.000000   0.000000  -0.000034   0.000000
    15  N    0.000000  -0.030390  -0.038986  -0.049023  -0.033134  -0.046393
    16  C    0.000000   0.377266   0.378902   0.376018   0.004398  -0.000869
    17  C    0.000000   0.004279  -0.002847  -0.001220   0.376123   0.377330
    18  O   -0.000001  -0.000075  -0.000096   0.001330  -0.002013   0.004378
    19  H    0.001924  -0.000005   0.000001   0.000006  -0.000540   0.000074
    20  H   -0.000009   0.000000   0.000000   0.000000   0.000000   0.000000
    21  H    0.000000   0.000000   0.000000   0.000000   0.000000   0.000000
    22  H    0.000000   0.000000   0.000000   0.000000   0.000000   0.000000
    23  H   -0.000002   0.000000   0.000000   0.000000   0.000000   0.000000
    24  H    0.002076   0.000000   0.000000   0.000000   0.000000   0.000000
    25  H    0.515554   0.000000   0.000000   0.000000  -0.000001   0.000000
    26  H    0.000000   0.488317  -0.019393  -0.030585  -0.000186  -0.000179
    27  H    0.000000  -0.019393   0.538065  -0.041351   0.000091  -0.001682
    28  H    0.000000  -0.030585  -0.041351   0.577487  -0.000203   0.006973
    29  H   -0.000001  -0.000186   0.000091  -0.000203   0.509142  -0.031338
    30  H    0.000000  -0.000179  -0.001682   0.006973  -0.031338   0.564559
    31  H    0.000000   0.000031   0.005275  -0.001370  -0.022020  -0.036445
              31
     1  O   -0.000050
     2  S    0.003174
     3  N   -0.000092
     4  C    0.000016
     5  N   -0.000018
     6  O    0.000000
     7  C    0.000000
     8  C    0.000000
     9  C    0.000000
    10  C    0.000000
    11  C    0.000000
    12  C    0.000000
    13  C    0.000000
    14  C    0.000000
    15  N   -0.034769
    16  C   -0.003914
    17  C    0.376279
    18  O    0.000072
    19  H   -0.000004
    20  H    0.000000
    21  H    0.000000
    22  H    0.000000
    23  H    0.000000
    24  H    0.000000
    25  H    0.000000
    26  H    0.000031
    27  H    0.005275
    28  H   -0.001370
    29  H   -0.022020
    30  H   -0.036445
    31  H    0.532483
 Mulliken charges:
               1
     1  O   -0.535462
     2  S    1.340505
     3  N   -0.823155
     4  C    0.534029
     5  N   -0.240914
     6  O   -0.413655
     7  C    0.394044
     8  C    0.081144
     9  C   -0.170705
    10  C   -0.142113
    11  C   -0.127910
    12  C   -0.145996
    13  C   -0.173377
    14  C   -0.305720
    15  N   -0.517361
    16  C   -0.322106
    17  C   -0.320248
    18  O   -0.550643
    19  H    0.397927
    20  H    0.163205
    21  H    0.151878
    22  H    0.150957
    23  H    0.151697
    24  H    0.152103
    25  H    0.179913
    26  H    0.203892
    27  H    0.179974
    28  H    0.165074
    29  H    0.190291
    30  H    0.171382
    31  H    0.181354
 Sum of Mulliken charges =   0.00000
 Mulliken charges with hydrogens summed into heavy atoms:
               1
     1  O   -0.535462
     2  S    1.340505
     3  N   -0.425228
     4  C    0.534029
     5  N   -0.240914
     6  O   -0.413655
     7  C    0.394044
     8  C    0.081144
     9  C   -0.007501
    10  C    0.009765
    11  C    0.023047
    12  C    0.005701
    13  C   -0.021274
    14  C   -0.125807
    15  N   -0.517361
    16  C    0.226833
    17  C    0.222779
    18  O   -0.550643
 Electronic spatial extent (au):  <R**2>=           7236.4756
 Charge=              0.0000 electrons
 Dipole moment (field-independent basis, Debye):
    X=              3.4314    Y=             -1.2350    Z=              4.0207  Tot=              5.4283
 Quadrupole moment (field-independent basis, Debye-Ang):
   XX=            -92.1235   YY=           -101.9267   ZZ=           -115.7088
   XY=            -12.9405   XZ=            -12.0230   YZ=             -1.9495
 Traceless Quadrupole moment (field-independent basis, Debye-Ang):
   XX=             11.1295   YY=              1.3263   ZZ=            -12.4558
   XY=            -12.9405   XZ=            -12.0230   YZ=             -1.9495
 Octapole moment (field-independent basis, Debye-Ang**2):
  XXX=             78.9841  YYY=             -6.4443  ZZZ=              9.9207  XYY=              7.2784
  XXY=             62.4990  XXZ=             39.4951  XZZ=            -26.6566  YZZ=              2.4114
  YYZ=              2.6506  XYZ=             -5.3035
 Hexadecapole moment (field-independent basis, Debye-Ang**3):
 XXXX=          -7357.5428 YYYY=           -761.0247 ZZZZ=           -444.3742 XXXY=           -249.5291
 XXXZ=           -127.4960 YYYX=            -25.7248 YYYZ=            -11.5966 ZZZX=            -40.3914
 ZZZY=              7.0283 XXYY=          -1428.3125 XXZZ=          -1533.5707 YYZZ=           -209.5740
 XXYZ=            -38.8018 YYXZ=             -4.6034 ZZXY=             -2.4908
 N-N= 1.443868791708D+03 E-N=-5.735144849849D+03  KE= 1.205936846471D+03
 No NMR shielding tensors so no spin-rotation constants.
 Leave Link  601 at Thu Aug  6 22:18:48 2020, MaxMem=    33554432 cpu:         0.2
 (Enter /prod/apps/gaussian/g09d1/l9999.exe)
 1\1\GINC-PIRINEUS30\SP\RB3LYP\6-31G(d)\C11H13N3O3S1\UBAFAR01\06-Aug-20
 20\0\\#p b3lyp/6-31G(d) scrf=(iefpcm,read,solvent=n-Octanol) geom=allc
 heck guess=read\\SM43.n.3.pdb.xyz\\0,1\O,0,1.257,-3.933,1.945\S,0,2.32
 1,-3.08,1.423\N,0,2.139,-1.464,1.896\C,0,1.651,-1.063,3.142\N,0,1.816,
 -1.789,4.229\O,0,1.223,-1.03,5.25\C,0,0.735,0.125,4.742\C,0,0.083,1.04
 5,5.668\C,0,-0.037,0.72,7.028\C,0,-0.661,1.602,7.905\C,0,-1.172,2.815,
 7.438\C,0,-1.056,3.142,6.085\C,0,-0.433,2.265,5.204\C,0,0.976,0.163,3.
 397\N,0,3.714,-3.47,2.242\C,0,3.871,-4.879,2.617\C,0,4.93,-2.805,1.763
 \O,0,2.51,-2.962,-0.027\H,0,1.848,-0.894,1.108\H,0,0.361,-0.222,7.386\
 H,0,-0.749,1.343,8.955\H,0,-1.659,3.5,8.123\H,0,-1.451,4.083,5.716\H,0
 ,-0.344,2.523,4.155\H,0,0.714,0.933,2.689\H,0,2.932,-5.25,3.022\H,0,4.
 636,-4.923,3.394\H,0,4.184,-5.507,1.774\H,0,4.723,-1.745,1.612\H,0,5.3
 06,-3.242,0.831\H,0,5.687,-2.907,2.542\\Version=AM64L-G09RevD.01\State
 =1-A\HF=-1215.0071764\RMSD=5.520e-09\Dipole=0.5851042,1.9899213,0.5087
 682\Quadrupole=3.7802352,2.4868412,-6.2670764,-13.2947427,-6.022913,-3
 .043539\PG=C01 [X(C11H13N3O3S1)]\\@


 Sacred cows make the best hamburger.
                               -- Mark Twain
 Job cpu time:       0 days  0 hours  2 minutes 33.9 seconds.
 File lengths (MBytes):  RWF=    161 Int=      0 D2E=      0 Chk=      6 Scr=      1
 Normal termination of Gaussian 09 at Thu Aug  6 22:18:48 2020.
