 Entering Gaussian System, Link 0=g09
 Initial command:
 /prod/apps/gaussian/g09d1/l1.exe "/tmp/ubafar01/1448660/Gau-9619.inp" -scrdir="/tmp/ubafar01/1448660/"
 Entering Link 1 = /prod/apps/gaussian/g09d1/l1.exe PID=      9620.
  
 Copyright (c) 1988,1990,1992,1993,1995,1998,2003,2009,2013,
            Gaussian, Inc.  All Rights Reserved.
  
 This is part of the Gaussian(R) 09 program.  It is based on
 the Gaussian(R) 03 system (copyright 2003, Gaussian, Inc.),
 the Gaussian(R) 98 system (copyright 1998, Gaussian, Inc.),
 the Gaussian(R) 94 system (copyright 1995, Gaussian, Inc.),
 the Gaussian 92(TM) system (copyright 1992, Gaussian, Inc.),
 the Gaussian 90(TM) system (copyright 1990, Gaussian, Inc.),
 the Gaussian 88(TM) system (copyright 1988, Gaussian, Inc.),
 the Gaussian 86(TM) system (copyright 1986, Carnegie Mellon
 University), and the Gaussian 82(TM) system (copyright 1983,
 Carnegie Mellon University). Gaussian is a federally registered
 trademark of Gaussian, Inc.
  
 This software contains proprietary and confidential information,
 including trade secrets, belonging to Gaussian, Inc.
  
 This software is provided under written license and may be
 used, copied, transmitted, or stored only in accord with that
 written license.
  
 The following legend is applicable only to US Government
 contracts under FAR:
  
                    RESTRICTED RIGHTS LEGEND
  
 Use, reproduction and disclosure by the US Government is
 subject to restrictions as set forth in subparagraphs (a)
 and (c) of the Commercial Computer Software - Restricted
 Rights clause in FAR 52.227-19.
  
 Gaussian, Inc.
 340 Quinnipiac St., Bldg. 40, Wallingford CT 06492
  
  
 ---------------------------------------------------------------
 Warning -- This program may not be used in any manner that
 competes with the business of Gaussian, Inc. or will provide
 assistance to any competitor of Gaussian, Inc.  The licensee
 of this program is prohibited from giving any competitor of
 Gaussian, Inc. access to this program.  By using this program,
 the user acknowledges that Gaussian, Inc. is engaged in the
 business of creating and licensing software in the field of
 computational chemistry and represents and warrants to the
 licensee that it is not a competitor of Gaussian, Inc. and that
 it will not use this program in any manner prohibited above.
 ---------------------------------------------------------------
  

 Cite this work as:
 Gaussian 09, Revision D.01,
 M. J. Frisch, G. W. Trucks, H. B. Schlegel, G. E. Scuseria, 
 M. A. Robb, J. R. Cheeseman, G. Scalmani, V. Barone, B. Mennucci, 
 G. A. Petersson, H. Nakatsuji, M. Caricato, X. Li, H. P. Hratchian, 
 A. F. Izmaylov, J. Bloino, G. Zheng, J. L. Sonnenberg, M. Hada, 
 M. Ehara, K. Toyota, R. Fukuda, J. Hasegawa, M. Ishida, T. Nakajima, 
 Y. Honda, O. Kitao, H. Nakai, T. Vreven, J. A. Montgomery, Jr., 
 J. E. Peralta, F. Ogliaro, M. Bearpark, J. J. Heyd, E. Brothers, 
 K. N. Kudin, V. N. Staroverov, T. Keith, R. Kobayashi, J. Normand, 
 K. Raghavachari, A. Rendell, J. C. Burant, S. S. Iyengar, J. Tomasi, 
 M. Cossi, N. Rega, J. M. Millam, M. Klene, J. E. Knox, J. B. Cross, 
 V. Bakken, C. Adamo, J. Jaramillo, R. Gomperts, R. E. Stratmann, 
 O. Yazyev, A. J. Austin, R. Cammi, C. Pomelli, J. W. Ochterski, 
 R. L. Martin, K. Morokuma, V. G. Zakrzewski, G. A. Voth, 
 P. Salvador, J. J. Dannenberg, S. Dapprich, A. D. Daniels, 
 O. Farkas, J. B. Foresman, J. V. Ortiz, J. Cioslowski, 
 and D. J. Fox, Gaussian, Inc., Wallingford CT, 2013.
 
 ******************************************
 Gaussian 09:  AM64L-G09RevD.01 24-Apr-2013
                 6-Aug-2020 
 ******************************************
 %nproc=1
 Will use up to    1 processors via shared memory.
 %Chk=SM43.n.8.pdb.xyz.mst.n.o.chk
 -----------------
 #p b3lyp/6-31G(d)
 -----------------
 1/38=1/1;
 2/12=2,17=6,18=5,40=1/2;
 3/5=1,6=6,7=1,11=2,16=1,25=1,30=1,74=-5/1,2,3;
 4//1;
 5/5=2,38=5/2;
 6/7=2,8=2,9=2,10=2,28=1/1;
 99/5=1,9=1/99;
 Leave Link    1 at Thu Aug  6 22:14:16 2020, MaxMem=           0 cpu:         0.0
 (Enter /prod/apps/gaussian/g09d1/l101.exe)
 ----------------
 SM43.n.8.pdb.xyz
 ----------------
 Symbolic Z-matrix:
 Charge =  0 Multiplicity = 1
 O                     1.105    -3.366     1.723 
 S                     2.369    -2.737     1.35 
 N                     2.446    -1.137     1.97 
 C                     1.877    -0.755     3.185 
 N                     1.989    -1.513     4.258 
 O                     1.327    -0.804     5.268 
 C                     0.862     0.367     4.773 
 C                     0.152     1.249     5.691 
 C                    -0.377     2.466     5.231 
 C                    -1.055     3.31      6.104 
 C                    -1.214     2.951     7.445 
 C                    -0.691     1.742     7.908 
 C                    -0.011     0.894     7.039 
 C                     1.177     0.454     3.446 
 N                     3.584    -3.597     2.064 
 C                     4.933    -3.042     1.919 
 C                     3.307    -4.292     3.33 
 O                     2.723    -2.516    -0.051 
 H                     2.348    -0.467     1.214 
 H                    -0.256     2.747     4.19 
 H                    -1.46      4.247     5.739 
 H                    -1.744     3.61      8.124 
 H                    -0.812     1.46      8.949 
 H                     0.398    -0.045     7.393 
 H                     0.945     1.246     2.752 
 H                     5.055    -2.652     0.91 
 H                     5.643    -3.856     2.071 
 H                     5.131    -2.249     2.649 
 H                     2.339    -4.782     3.26 
 H                     3.308    -3.605     4.181 
 H                     4.087    -5.047     3.449 
 
 NAtoms=     31 NQM=       31 NQMF=       0 NMMI=      0 NMMIF=      0
                NMic=       0 NMicF=      0.
                    Isotopes and Nuclear Properties:
 (Nuclear quadrupole moments (NQMom) in fm**2, nuclear magnetic moments (NMagM)
  in nuclear magnetons)

  Atom         1           2           3           4           5           6           7           8           9          10
 IAtWgt=          16          32          14          12          14          16          12          12          12          12
 AtmWgt=  15.9949146  31.9720718  14.0030740  12.0000000  14.0030740  15.9949146  12.0000000  12.0000000  12.0000000  12.0000000
 NucSpn=           0           0           2           0           2           0           0           0           0           0
 AtZEff=   0.0000000   0.0000000   0.0000000   0.0000000   0.0000000   0.0000000   0.0000000   0.0000000   0.0000000   0.0000000
 NQMom=    0.0000000   0.0000000   2.0440000   0.0000000   2.0440000   0.0000000   0.0000000   0.0000000   0.0000000   0.0000000
 NMagM=    0.0000000   0.0000000   0.4037610   0.0000000   0.4037610   0.0000000   0.0000000   0.0000000   0.0000000   0.0000000
 AtZNuc=   8.0000000  16.0000000   7.0000000   6.0000000   7.0000000   8.0000000   6.0000000   6.0000000   6.0000000   6.0000000

  Atom        11          12          13          14          15          16          17          18          19          20
 IAtWgt=          12          12          12          12          14          12          12          16           1           1
 AtmWgt=  12.0000000  12.0000000  12.0000000  12.0000000  14.0030740  12.0000000  12.0000000  15.9949146   1.0078250   1.0078250
 NucSpn=           0           0           0           0           2           0           0           0           1           1
 AtZEff=   0.0000000   0.0000000   0.0000000   0.0000000   0.0000000   0.0000000   0.0000000   0.0000000   0.0000000   0.0000000
 NQMom=    0.0000000   0.0000000   0.0000000   0.0000000   2.0440000   0.0000000   0.0000000   0.0000000   0.0000000   0.0000000
 NMagM=    0.0000000   0.0000000   0.0000000   0.0000000   0.4037610   0.0000000   0.0000000   0.0000000   2.7928460   2.7928460
 AtZNuc=   6.0000000   6.0000000   6.0000000   6.0000000   7.0000000   6.0000000   6.0000000   8.0000000   1.0000000   1.0000000

  Atom        21          22          23          24          25          26          27          28          29          30
 IAtWgt=           1           1           1           1           1           1           1           1           1           1
 AtmWgt=   1.0078250   1.0078250   1.0078250   1.0078250   1.0078250   1.0078250   1.0078250   1.0078250   1.0078250   1.0078250
 NucSpn=           1           1           1           1           1           1           1           1           1           1
 AtZEff=   0.0000000   0.0000000   0.0000000   0.0000000   0.0000000   0.0000000   0.0000000   0.0000000   0.0000000   0.0000000
 NQMom=    0.0000000   0.0000000   0.0000000   0.0000000   0.0000000   0.0000000   0.0000000   0.0000000   0.0000000   0.0000000
 NMagM=    2.7928460   2.7928460   2.7928460   2.7928460   2.7928460   2.7928460   2.7928460   2.7928460   2.7928460   2.7928460
 AtZNuc=   1.0000000   1.0000000   1.0000000   1.0000000   1.0000000   1.0000000   1.0000000   1.0000000   1.0000000   1.0000000

  Atom        31
 IAtWgt=           1
 AtmWgt=   1.0078250
 NucSpn=           1
 AtZEff=   0.0000000
 NQMom=    0.0000000
 NMagM=    2.7928460
 AtZNuc=   1.0000000
 Leave Link  101 at Thu Aug  6 22:14:16 2020, MaxMem=    33554432 cpu:         0.1
 (Enter /prod/apps/gaussian/g09d1/l202.exe)
                          Input orientation:                          
 ---------------------------------------------------------------------
 Center     Atomic      Atomic             Coordinates (Angstroms)
 Number     Number       Type             X           Y           Z
 ---------------------------------------------------------------------
      1          8           0        1.105000   -3.366000    1.723000
      2         16           0        2.369000   -2.737000    1.350000
      3          7           0        2.446000   -1.137000    1.970000
      4          6           0        1.877000   -0.755000    3.185000
      5          7           0        1.989000   -1.513000    4.258000
      6          8           0        1.327000   -0.804000    5.268000
      7          6           0        0.862000    0.367000    4.773000
      8          6           0        0.152000    1.249000    5.691000
      9          6           0       -0.377000    2.466000    5.231000
     10          6           0       -1.055000    3.310000    6.104000
     11          6           0       -1.214000    2.951000    7.445000
     12          6           0       -0.691000    1.742000    7.908000
     13          6           0       -0.011000    0.894000    7.039000
     14          6           0        1.177000    0.454000    3.446000
     15          7           0        3.584000   -3.597000    2.064000
     16          6           0        4.933000   -3.042000    1.919000
     17          6           0        3.307000   -4.292000    3.330000
     18          8           0        2.723000   -2.516000   -0.051000
     19          1           0        2.348000   -0.467000    1.214000
     20          1           0       -0.256000    2.747000    4.190000
     21          1           0       -1.460000    4.247000    5.739000
     22          1           0       -1.744000    3.610000    8.124000
     23          1           0       -0.812000    1.460000    8.949000
     24          1           0        0.398000   -0.045000    7.393000
     25          1           0        0.945000    1.246000    2.752000
     26          1           0        5.055000   -2.652000    0.910000
     27          1           0        5.643000   -3.856000    2.071000
     28          1           0        5.131000   -2.249000    2.649000
     29          1           0        2.339000   -4.782000    3.260000
     30          1           0        3.308000   -3.605000    4.181000
     31          1           0        4.087000   -5.047000    3.449000
 ---------------------------------------------------------------------
                    Distance matrix (angstroms):
                    1          2          3          4          5
     1  O    0.000000
     2  S    1.460297   0.000000
     3  N    2.612993   1.717652   0.000000
     4  C    3.090429   2.745471   1.394959   0.000000
     5  N    3.262099   3.177899   2.363296   1.318498   0.000000
     6  O    4.379515   4.491434   3.498550   2.154945   1.400366
     7  C    4.826680   4.860329   3.553573   2.193366   2.251611
     8  C    6.160475   6.296631   4.980088   3.643031   3.613406
     9  C    6.965243   7.047970   5.620059   4.431870   4.730447
    10  C    8.272106   8.419650   7.008764   5.800122   5.994579
    11  C    8.833093   9.074153   7.751320   6.437105   6.351651
    12  C    8.220189   8.510723   7.306795   5.927593   5.576731
    13  C    6.903109   7.156346   5.988036   4.597506   4.186599
    14  C    4.191219   3.999570   2.514004   1.421197   2.277669
    15  N    2.512983   1.650945   2.712099   3.499636   3.420631
    16  C    3.846684   2.644028   3.133177   4.021475   4.059051
    17  C    2.879015   2.686684   3.541885   3.817891   3.212655
    18  O    2.547057   1.461834   2.462278   3.780018   4.484668
    19  H    3.195048   2.274167   1.014909   2.046858   3.238662
    20  H    6.731061   6.710475   5.226343   4.221815   4.815833
    21  H    8.981384   9.093999   7.645237   6.532878   6.875068
    22  H    9.887071  10.153239   8.829599   7.520544   7.424714
    23  H    8.898328   9.245451   8.128063   6.735031   6.220113
    24  H    6.608917   6.902866   5.898788   4.516504   3.809794
    25  H    4.728106   4.456194   2.922878   2.249470   3.312107
    26  H    4.095518   2.723127   3.197766   4.344412   4.680468
    27  H    4.577625   3.534272   4.198091   5.003994   4.860487
    28  H    4.279467   3.090985   2.984428   3.620476   3.605931
    29  H    2.426970   2.798397   3.868019   4.054109   3.435821
    30  H    3.309395   3.106398   3.423827   3.340999   2.474299
    31  H    3.833688   3.562783   4.490927   4.834776   4.188704
                    6          7          8          9         10
     6  O    0.000000
     7  C    1.353695   0.000000
     8  C    2.402990   1.457652   0.000000
     9  C    3.687531   2.480058   1.404468   0.000000
    10  C    4.826781   3.756022   2.423869   1.390737   0.000000
    11  C    5.029516   4.257513   2.799871   2.416111   1.397298
    12  C    4.186172   3.759077   2.422558   2.790896   2.417754
    13  C    2.794618   2.484877   1.403459   2.423634   2.793066
    14  C    2.219177   1.366647   2.592812   3.106330   4.494833
    15  N    4.812537   5.519172   6.958266   7.904390   9.249247
    16  C    5.406263   6.028237   7.449740   8.336876   9.680820
    17  C    4.454480   5.455873   6.799340   7.928192   9.193069
    18  O    5.759472   5.919965   7.331837   7.894925   9.278986
    19  H    4.194154   3.945913   5.273576   5.671367   7.053952
    20  H    4.034548   2.693365   2.159507   1.085027   2.149131
    21  H    5.788075   4.623769   3.404240   2.145440   1.084075
    22  H    6.088610   5.342049   3.884408   3.398069   2.155254
    23  H    4.821906   4.629892   3.404171   3.876182   3.402290
    24  H    2.440235   2.692478   2.152151   3.402938   3.876694
    25  H    3.267825   2.205441   3.044106   3.062928   4.415427
    26  H    6.025384   6.451231   7.881318   8.623896   9.992756
    27  H    6.177651   6.927662   8.325653   9.284055  10.605652
    28  H    4.839174   5.438676   6.802956   7.696494   9.005893
    29  H    4.569540   5.566228   6.860444   7.987177   9.224318
    30  H    3.598824   4.702145   5.983457   7.179050   8.399460
    31  H    5.378607   6.439332   7.755669   8.918968  10.165070
                   11         12         13         14         15
    11  C    0.000000
    12  C    1.396273   0.000000
    13  C    2.417291   1.391641   0.000000
    14  C    5.286198   5.005778   3.809802   0.000000
    15  N    9.739213   8.996270   7.605507   4.910618   0.000000
    16  C   10.209718   9.507058   8.133242   5.353623   1.465896
    17  C    9.478065   8.564534   7.187517   5.203352   1.470548
    18  O   10.078595   9.650474   8.328923   4.841490   2.526481
    19  H    7.949587   7.676252   6.430228   2.683525   3.470893
    20  H    3.399177   3.875922   3.407409   2.804438   7.714390
    21  H    2.156518   3.401609   3.877139   5.157370  10.023767
    22  H    1.084538   2.155200   3.399584   6.354232  10.819059
    23  H    2.155621   1.085286   2.147104   5.937269   9.607356
    24  H    3.402538   2.155114   1.083660   4.053967   7.153009
    25  H    5.439904   5.432021   4.406383   1.078297   5.558085
    26  H   10.648953  10.064579   8.706498   5.578299   2.094894
    27  H   11.055929  10.272669   8.900070   6.357034   2.075238
    28  H    9.502665   8.802320   7.455918   4.855464   2.133668
    29  H    9.483529   8.564308   7.212511   5.366613   2.093959
    30  H    8.607167   7.646760   6.278927   4.642937   2.134931
    31  H   10.394067   9.423507   8.060843   6.223272   2.067301
                   16         17         18         19         20
    16  C    0.000000
    17  C    2.489437   0.000000
    18  O    3.006938   3.863469   0.000000
    19  H    3.716164   4.475239   2.437058   0.000000
    20  H    8.099116   7.936126   7.386453   5.095801   0.000000
    21  H   10.420766  10.071846   9.836654   7.562955   2.469619
    22  H   11.284213  10.532646  11.149556   9.006358   4.293631
    23  H   10.133801   9.034646  10.454894   8.574914   4.961208
    24  H    7.714461   6.557992   8.180746   6.493121   4.299092
    25  H    5.914810   6.048353   5.017045   2.695964   2.400676
    26  H    1.088607   3.406098   2.525914   3.492061   8.253140
    27  H    1.090780   2.689251   3.850310   4.803831   9.104283
    28  H    1.095880   2.822160   3.627637   3.602754   7.506961
    29  H    3.399223   1.087209   4.030500   4.775502   8.017778
    30  H    2.841520   1.093696   4.408851   4.423995   7.283549
    31  H    2.660196   1.092056   4.529510   5.384770   8.953053
                   21         22         23         24         25
    21  H    0.000000
    22  H    2.484884   0.000000
    23  H    4.300160   2.484301   0.000000
    24  H    4.960760   4.299017   2.479972   0.000000
    25  H    4.869517   6.455819   6.444816   4.848172   0.000000
    26  H   10.647097  11.725222  10.768275   8.397225   5.956464
    27  H   11.382682  12.122200  10.827454   8.387934   6.968886
    28  H    9.756403  10.562629   9.421567   7.054392   5.454194
    29  H   10.104488  10.524022   9.014216   6.579387   6.207905
    30  H    9.317462   9.650191   8.084705   5.608801   5.581936
    31  H   11.063080  11.436776   9.828085   7.360969   7.068226
                   26         27         28         29         30
    26  H    0.000000
    27  H    1.772930   0.000000
    28  H    1.786703   1.782884   0.000000
    29  H    4.175650   3.631475   3.818989   0.000000
    30  H    3.828793   3.157107   2.740272   1.781160   0.000000
    31  H    3.622095   2.395517   3.091721   1.778047   1.795001
                   31
    31  H    0.000000
 Stoichiometry    C11H13N3O3S
 Framework group  C1[X(C11H13N3O3S)]
 Deg. of freedom    87
 Full point group                 C1      NOp   1
 Largest Abelian subgroup         C1      NOp   1
 Largest concise Abelian subgroup C1      NOp   1
                         Standard orientation:                         
 ---------------------------------------------------------------------
 Center     Atomic      Atomic             Coordinates (Angstroms)
 Number     Number       Type             X           Y           Z
 ---------------------------------------------------------------------
      1          8           0        2.691871   -0.302848    1.829522
      2         16           0        3.084106   -0.611939    0.457268
      3          7           0        1.702104   -0.999415   -0.486269
      4          6           0        0.452038   -0.409966   -0.297077
      5          7           0        0.334854    0.886341   -0.086618
      6          8           0       -1.043133    1.107227    0.029080
      7          6           0       -1.707570   -0.059866   -0.140940
      8          6           0       -3.162791   -0.020726   -0.066472
      9          6           0       -3.907396   -1.203052   -0.208596
     10          6           0       -5.295939   -1.169503   -0.138100
     11          6           0       -5.958371    0.042170    0.075151
     12          6           0       -5.223498    1.220785    0.218004
     13          6           0       -3.833916    1.193145    0.147552
     14          6           0       -0.807154   -1.067005   -0.347448
     15          7           0        3.751290    0.752345   -0.190202
     16          6           0        4.089869    0.686261   -1.614929
     17          6           0        3.299225    2.061700    0.303493
     18          8           0        3.960771   -1.741778    0.154149
     19          1           0        1.688014   -1.993844   -0.688639
     20          1           0       -3.395754   -2.145597   -0.373267
     21          1           0       -5.861545   -2.087707   -0.248604
     22          1           0       -7.041208    0.066126    0.130931
     23          1           0       -5.734492    2.163888    0.383193
     24          1           0       -3.258457    2.104891    0.256569
     25          1           0       -0.998805   -2.116553   -0.503796
     26          1           0        4.511729   -0.291847   -1.839437
     27          1           0        4.844254    1.449384   -1.810750
     28          1           0        3.217598    0.868621   -2.252771
     29          1           0        3.222525    2.023749    1.387329
     30          1           0        2.332393    2.346060   -0.121415
     31          1           0        4.067258    2.784497    0.020165
 ---------------------------------------------------------------------
 Rotational constants (GHZ):      1.2076365      0.1568816      0.1482976
 Leave Link  202 at Thu Aug  6 22:14:16 2020, MaxMem=    33554432 cpu:         0.0
 (Enter /prod/apps/gaussian/g09d1/l301.exe)
 Standard basis: 6-31G(d) (6D, 7F)
 Ernie: Thresh=  0.10000D-02 Tol=  0.10000D-05 Strict=F.
 There are   300 symmetry adapted cartesian basis functions of A   symmetry.
 There are   300 symmetry adapted basis functions of A   symmetry.
   300 basis functions,   580 primitive gaussians,   300 cartesian basis functions
    70 alpha electrons       70 beta electrons
       nuclear repulsion energy      1450.7952128174 Hartrees.
 IExCor=  402 DFT=T Ex+Corr=B3LYP ExCW=0 ScaHFX=  0.200000
 ScaDFX=  0.800000  0.720000  1.000000  0.810000 ScalE2=  1.000000  1.000000
 IRadAn=      0 IRanWt=     -1 IRanGd=            0 ICorTp=0 IEmpDi=  4
 NAtoms=   31 NActive=   31 NUniq=   31 SFac= 1.00D+00 NAtFMM=   60 NAOKFM=F Big=F
 Integral buffers will be    131072 words long.
 Raffenetti 2 integral format.
 Two-electron integral symmetry is turned on.
 Leave Link  301 at Thu Aug  6 22:14:16 2020, MaxMem=    33554432 cpu:         0.0
 (Enter /prod/apps/gaussian/g09d1/l302.exe)
 NPDir=0 NMtPBC=     1 NCelOv=     1 NCel=       1 NClECP=     1 NCelD=      1
         NCelK=      1 NCelE2=     1 NClLst=     1 CellRange=     0.0.
 One-electron integrals computed using PRISM.
 NBasis=   300 RedAO= T EigKep=  4.56D-04  NBF=   300
 NBsUse=   300 1.00D-06 EigRej= -1.00D+00 NBFU=   300
 Precomputing XC quadrature grid using
 IXCGrd= 4 IRadAn=           0 IRanWt=          -1 IRanGd=           0 AccXCQ= 0.00D+00.
 Generated NRdTot=       0 NPtTot=           0 NUsed=           0 NTot=          32
 NSgBfM=   295   296   296   296   296 MxSgAt=    31 MxSgA2=    31.
 Leave Link  302 at Thu Aug  6 22:14:17 2020, MaxMem=    33554432 cpu:         1.0
 (Enter /prod/apps/gaussian/g09d1/l303.exe)
 DipDrv:  MaxL=1.
 Leave Link  303 at Thu Aug  6 22:14:17 2020, MaxMem=    33554432 cpu:         0.0
 (Enter /prod/apps/gaussian/g09d1/l401.exe)
 ExpMin= 1.17D-01 ExpMax= 2.19D+04 ExpMxC= 3.30D+03 IAcc=1 IRadAn=         1 AccDes= 0.00D+00
 Harris functional with IExCor=  402 and IRadAn=       1 diagonalized for initial guess.
 HarFok:  IExCor=  402 AccDes= 0.00D+00 IRadAn=         1 IDoV= 1 UseB2=F ITyADJ=14
 ICtDFT=  3500011 ScaDFX=  1.000000  1.000000  1.000000  1.000000
 FoFCou: FMM=F IPFlag=           0 FMFlag=      100000 FMFlg1=           0
         NFxFlg=           0 DoJE=T BraDBF=F KetDBF=T FulRan=T
         wScrn=  0.000000 ICntrl=     500 IOpCl=  0 I1Cent=   200000004 NGrid=           0
         NMat0=    1 NMatS0=      1 NMatT0=    0 NMatD0=    1 NMtDS0=    0 NMtDT0=    0
 Petite list used in FoFCou.
 Harris En= -1215.02353473498    
 JPrj=0 DoOrth=F DoCkMO=F.
 Leave Link  401 at Thu Aug  6 22:14:20 2020, MaxMem=    33554432 cpu:         2.7
 (Enter /prod/apps/gaussian/g09d1/l502.exe)
 Closed shell SCF:
 Using DIIS extrapolation, IDIIS=  1040.
 Integral symmetry usage will be decided dynamically.
 IVT=      292611 IEndB=      292611 NGot=    33554432 MDV=    33368762
 LenX=    33368762 LenY=    33278321
 Requested convergence on RMS density matrix=1.00D-08 within 128 cycles.
 Requested convergence on MAX density matrix=1.00D-06.
 Requested convergence on             energy=1.00D-06.
 No special actions if energy rises.
 Fock matrices will be formed incrementally for  20 cycles.
 Integral accuracy reduced to 1.0D-05 until final iterations.

 Cycle   1  Pass 0  IDiag  1:
 FoFJK:  IHMeth= 1 ICntrl=       0 DoSepK=F KAlg= 0 I1Cent=   0 FoldK=F
 IRaf= 720000000 NMat=   1 IRICut=       1 DoRegI=T DoRafI=F ISym2E= 0.
 FoFCou: FMM=F IPFlag=           0 FMFlag=      100000 FMFlg1=           0
         NFxFlg=           0 DoJE=F BraDBF=F KetDBF=F FulRan=T
         wScrn=  0.000000 ICntrl=       0 IOpCl=  0 I1Cent=           0 NGrid=           0
         NMat0=    1 NMatS0=      1 NMatT0=    0 NMatD0=    1 NMtDS0=    0 NMtDT0=    0
 Symmetry not used in FoFCou.
 E= -1214.43956471142    
 DIIS: error= 3.92D-02 at cycle   1 NSaved=   1.
 NSaved= 1 IEnMin= 1 EnMin= -1214.43956471142     IErMin= 1 ErrMin= 3.92D-02
 ErrMax= 3.92D-02  0.00D+00 EMaxC= 1.00D-01 BMatC= 6.31D-01 BMatP= 6.31D-01
 IDIUse=3 WtCom= 6.08D-01 WtEn= 3.92D-01
 Coeff-Com:  0.100D+01
 Coeff-En:   0.100D+01
 Coeff:      0.100D+01
 Gap=     0.270 Goal=   None    Shift=    0.000
 GapD=    0.270 DampG=1.000 DampE=0.500 DampFc=0.5000 IDamp=-1.
 Damping current iteration by 5.00D-01
 RMSDP=6.59D-03 MaxDP=6.20D-01              OVMax= 2.22D-01

 Cycle   2  Pass 0  IDiag  1:
 RMSU=  3.29D-03    CP:  9.91D-01
 E= -1214.56959975394     Delta-E=       -0.130035042513 Rises=F Damp=T
 DIIS: error= 2.13D-02 at cycle   2 NSaved=   2.
 NSaved= 2 IEnMin= 2 EnMin= -1214.56959975394     IErMin= 2 ErrMin= 2.13D-02
 ErrMax= 2.13D-02  0.00D+00 EMaxC= 1.00D-01 BMatC= 1.05D-01 BMatP= 6.31D-01
 IDIUse=3 WtCom= 7.87D-01 WtEn= 2.13D-01
 Coeff-Com:  0.234D+00 0.766D+00
 Coeff-En:   0.373D+00 0.627D+00
 Coeff:      0.264D+00 0.736D+00
 Gap=     0.225 Goal=   None    Shift=    0.000
 RMSDP=1.98D-03 MaxDP=1.45D-01 DE=-1.30D-01 OVMax= 1.92D-01

 Cycle   3  Pass 0  IDiag  1:
 RMSU=  1.67D-03    CP:  9.79D-01  6.87D-01
 E= -1214.93885200776     Delta-E=       -0.369252253827 Rises=F Damp=F
 DIIS: error= 1.42D-02 at cycle   3 NSaved=   3.
 NSaved= 3 IEnMin= 3 EnMin= -1214.93885200776     IErMin= 3 ErrMin= 1.42D-02
 ErrMax= 1.42D-02  0.00D+00 EMaxC= 1.00D-01 BMatC= 5.51D-02 BMatP= 1.05D-01
 IDIUse=3 WtCom= 8.58D-01 WtEn= 1.42D-01
 Coeff-Com:  0.823D-01 0.417D+00 0.500D+00
 Coeff-En:   0.000D+00 0.000D+00 0.100D+01
 Coeff:      0.706D-01 0.358D+00 0.571D+00
 Gap=     0.187 Goal=   None    Shift=    0.000
 RMSDP=1.15D-03 MaxDP=4.29D-02 DE=-3.69D-01 OVMax= 5.43D-02

 Cycle   4  Pass 0  IDiag  1:
 RMSU=  7.39D-04    CP:  9.85D-01  7.62D-01  4.98D-01
 E= -1214.97694775823     Delta-E=       -0.038095750468 Rises=F Damp=F
 DIIS: error= 5.58D-03 at cycle   4 NSaved=   4.
 NSaved= 4 IEnMin= 4 EnMin= -1214.97694775823     IErMin= 4 ErrMin= 5.58D-03
 ErrMax= 5.58D-03  0.00D+00 EMaxC= 1.00D-01 BMatC= 1.26D-02 BMatP= 5.51D-02
 IDIUse=3 WtCom= 9.44D-01 WtEn= 5.58D-02
 Coeff-Com:  0.132D-01 0.908D-01 0.333D+00 0.563D+00
 Coeff-En:   0.000D+00 0.000D+00 0.194D+00 0.806D+00
 Coeff:      0.124D-01 0.857D-01 0.325D+00 0.577D+00
 Gap=     0.181 Goal=   None    Shift=    0.000
 RMSDP=4.22D-04 MaxDP=1.82D-02 DE=-3.81D-02 OVMax= 2.20D-02

 Cycle   5  Pass 0  IDiag  1:
 RMSU=  2.14D-04    CP:  9.84D-01  7.43D-01  6.30D-01  6.17D-01
 E= -1214.98657661641     Delta-E=       -0.009628858176 Rises=F Damp=F
 DIIS: error= 1.24D-03 at cycle   5 NSaved=   5.
 NSaved= 5 IEnMin= 5 EnMin= -1214.98657661641     IErMin= 5 ErrMin= 1.24D-03
 ErrMax= 1.24D-03  0.00D+00 EMaxC= 1.00D-01 BMatC= 1.06D-03 BMatP= 1.26D-02
 IDIUse=3 WtCom= 9.88D-01 WtEn= 1.24D-02
 Coeff-Com:  0.526D-03 0.191D-01 0.143D+00 0.335D+00 0.502D+00
 Coeff-En:   0.000D+00 0.000D+00 0.000D+00 0.726D-02 0.993D+00
 Coeff:      0.519D-03 0.188D-01 0.142D+00 0.331D+00 0.508D+00
 Gap=     0.182 Goal=   None    Shift=    0.000
 RMSDP=1.41D-04 MaxDP=6.41D-03 DE=-9.63D-03 OVMax= 7.79D-03

 Cycle   6  Pass 0  IDiag  1:
 RMSU=  7.55D-05    CP:  9.84D-01  7.46D-01  6.29D-01  6.65D-01  4.72D-01
 E= -1214.98737638740     Delta-E=       -0.000799770991 Rises=F Damp=F
 DIIS: error= 5.01D-04 at cycle   6 NSaved=   6.
 NSaved= 6 IEnMin= 6 EnMin= -1214.98737638740     IErMin= 6 ErrMin= 5.01D-04
 ErrMax= 5.01D-04  0.00D+00 EMaxC= 1.00D-01 BMatC= 1.57D-04 BMatP= 1.06D-03
 IDIUse=3 WtCom= 9.95D-01 WtEn= 5.01D-03
 Coeff-Com: -0.884D-03 0.414D-02 0.565D-01 0.150D+00 0.328D+00 0.462D+00
 Coeff-En:   0.000D+00 0.000D+00 0.000D+00 0.000D+00 0.115D+00 0.885D+00
 Coeff:     -0.880D-03 0.412D-02 0.562D-01 0.149D+00 0.327D+00 0.464D+00
 Gap=     0.182 Goal=   None    Shift=    0.000
 RMSDP=4.76D-05 MaxDP=2.48D-03 DE=-8.00D-04 OVMax= 3.19D-03

 Cycle   7  Pass 0  IDiag  1:
 RMSU=  2.63D-05    CP:  9.83D-01  7.46D-01  6.30D-01  6.68D-01  5.57D-01
                    CP:  5.36D-01
 E= -1214.98750704616     Delta-E=       -0.000130658766 Rises=F Damp=F
 DIIS: error= 1.35D-04 at cycle   7 NSaved=   7.
 NSaved= 7 IEnMin= 7 EnMin= -1214.98750704616     IErMin= 7 ErrMin= 1.35D-04
 ErrMax= 1.35D-04  0.00D+00 EMaxC= 1.00D-01 BMatC= 1.26D-05 BMatP= 1.57D-04
 IDIUse=3 WtCom= 9.99D-01 WtEn= 1.35D-03
 Coeff-Com: -0.662D-03-0.124D-03 0.162D-01 0.487D-01 0.137D+00 0.281D+00
 Coeff-Com:  0.518D+00
 Coeff-En:   0.000D+00 0.000D+00 0.000D+00 0.000D+00 0.000D+00 0.302D-01
 Coeff-En:   0.970D+00
 Coeff:     -0.661D-03-0.124D-03 0.162D-01 0.486D-01 0.137D+00 0.281D+00
 Coeff:      0.518D+00
 Gap=     0.182 Goal=   None    Shift=    0.000
 RMSDP=1.24D-05 MaxDP=5.31D-04 DE=-1.31D-04 OVMax= 7.72D-04

 Cycle   8  Pass 0  IDiag  1:
 RMSU=  5.95D-06    CP:  9.83D-01  7.46D-01  6.31D-01  6.69D-01  5.59D-01
                    CP:  5.83D-01  6.11D-01
 E= -1214.98751770091     Delta-E=       -0.000010654745 Rises=F Damp=F
 DIIS: error= 5.78D-05 at cycle   8 NSaved=   8.
 NSaved= 8 IEnMin= 8 EnMin= -1214.98751770091     IErMin= 8 ErrMin= 5.78D-05
 ErrMax= 5.78D-05  0.00D+00 EMaxC= 1.00D-01 BMatC= 6.00D-07 BMatP= 1.26D-05
 IDIUse=1 WtCom= 1.00D+00 WtEn= 0.00D+00
 Coeff-Com: -0.267D-03-0.361D-03 0.384D-02 0.129D-01 0.450D-01 0.111D+00
 Coeff-Com:  0.257D+00 0.571D+00
 Coeff:     -0.267D-03-0.361D-03 0.384D-02 0.129D-01 0.450D-01 0.111D+00
 Coeff:      0.257D+00 0.571D+00
 Gap=     0.182 Goal=   None    Shift=    0.000
 RMSDP=3.63D-06 MaxDP=1.32D-04 DE=-1.07D-05 OVMax= 2.50D-04

 Initial convergence to 1.0D-05 achieved.  Increase integral accuracy.
 Cycle   9  Pass 1  IDiag  1:
 E= -1214.98752569445     Delta-E=       -0.000007993541 Rises=F Damp=F
 DIIS: error= 7.18D-05 at cycle   1 NSaved=   1.
 NSaved= 1 IEnMin= 1 EnMin= -1214.98752569445     IErMin= 1 ErrMin= 7.18D-05
 ErrMax= 7.18D-05  0.00D+00 EMaxC= 1.00D-01 BMatC= 9.88D-07 BMatP= 9.88D-07
 IDIUse=1 WtCom= 1.00D+00 WtEn= 0.00D+00
 Coeff-Com:  0.100D+01
 Coeff:      0.100D+01
 Gap=     0.182 Goal=   None    Shift=    0.000
 RMSDP=3.63D-06 MaxDP=1.32D-04 DE=-7.99D-06 OVMax= 3.39D-04

 Cycle  10  Pass 1  IDiag  1:
 RMSU=  5.14D-05    CP:  1.00D+00
 E= -1214.98752609839     Delta-E=       -0.000000403943 Rises=F Damp=F
 DIIS: error= 3.29D-05 at cycle   2 NSaved=   2.
 NSaved= 2 IEnMin= 2 EnMin= -1214.98752609839     IErMin= 2 ErrMin= 3.29D-05
 ErrMax= 3.29D-05  0.00D+00 EMaxC= 1.00D-01 BMatC= 6.69D-07 BMatP= 9.88D-07
 IDIUse=1 WtCom= 1.00D+00 WtEn= 0.00D+00
 Coeff-Com:  0.430D+00 0.570D+00
 Coeff:      0.430D+00 0.570D+00
 Gap=     0.182 Goal=   None    Shift=    0.000
 RMSDP=4.83D-06 MaxDP=2.51D-04 DE=-4.04D-07 OVMax= 4.26D-04

 Cycle  11  Pass 1  IDiag  1:
 RMSU=  4.83D-06    CP:  1.00D+00  9.99D-01
 E= -1214.98752629811     Delta-E=       -0.000000199721 Rises=F Damp=F
 DIIS: error= 3.15D-05 at cycle   3 NSaved=   3.
 NSaved= 3 IEnMin= 3 EnMin= -1214.98752629811     IErMin= 3 ErrMin= 3.15D-05
 ErrMax= 3.15D-05  0.00D+00 EMaxC= 1.00D-01 BMatC= 4.51D-07 BMatP= 6.69D-07
 IDIUse=1 WtCom= 1.00D+00 WtEn= 0.00D+00
 Coeff-Com:  0.468D-02 0.449D+00 0.546D+00
 Coeff:      0.468D-02 0.449D+00 0.546D+00
 Gap=     0.182 Goal=   None    Shift=    0.000
 RMSDP=2.37D-06 MaxDP=1.43D-04 DE=-2.00D-07 OVMax= 2.23D-04

 Cycle  12  Pass 1  IDiag  1:
 RMSU=  6.83D-07    CP:  1.00D+00  1.01D+00  5.39D-01
 E= -1214.98752670636     Delta-E=       -0.000000408244 Rises=F Damp=F
 DIIS: error= 7.25D-06 at cycle   4 NSaved=   4.
 NSaved= 4 IEnMin= 4 EnMin= -1214.98752670636     IErMin= 4 ErrMin= 7.25D-06
 ErrMax= 7.25D-06  0.00D+00 EMaxC= 1.00D-01 BMatC= 1.62D-08 BMatP= 4.51D-07
 IDIUse=1 WtCom= 1.00D+00 WtEn= 0.00D+00
 Coeff-Com: -0.648D-02 0.273D+00 0.349D+00 0.384D+00
 Coeff:     -0.648D-02 0.273D+00 0.349D+00 0.384D+00
 Gap=     0.182 Goal=   None    Shift=    0.000
 RMSDP=4.27D-07 MaxDP=2.22D-05 DE=-4.08D-07 OVMax= 3.29D-05

 Cycle  13  Pass 1  IDiag  1:
 RMSU=  2.15D-07    CP:  1.00D+00  1.01D+00  5.52D-01  4.68D-01
 E= -1214.98752672040     Delta-E=       -0.000000014044 Rises=F Damp=F
 DIIS: error= 8.00D-07 at cycle   5 NSaved=   5.
 NSaved= 5 IEnMin= 5 EnMin= -1214.98752672040     IErMin= 5 ErrMin= 8.00D-07
 ErrMax= 8.00D-07  0.00D+00 EMaxC= 1.00D-01 BMatC= 3.52D-10 BMatP= 1.62D-08
 IDIUse=1 WtCom= 1.00D+00 WtEn= 0.00D+00
 Coeff-Com: -0.365D-02 0.119D+00 0.155D+00 0.205D+00 0.525D+00
 Coeff:     -0.365D-02 0.119D+00 0.155D+00 0.205D+00 0.525D+00
 Gap=     0.182 Goal=   None    Shift=    0.000
 RMSDP=8.22D-08 MaxDP=2.97D-06 DE=-1.40D-08 OVMax= 4.56D-06

 Cycle  14  Pass 1  IDiag  1:
 RMSU=  6.64D-08    CP:  1.00D+00  1.01D+00  5.52D-01  4.92D-01  7.89D-01
 E= -1214.98752672067     Delta-E=       -0.000000000267 Rises=F Damp=F
 DIIS: error= 3.10D-07 at cycle   6 NSaved=   6.
 NSaved= 6 IEnMin= 6 EnMin= -1214.98752672067     IErMin= 6 ErrMin= 3.10D-07
 ErrMax= 3.10D-07  0.00D+00 EMaxC= 1.00D-01 BMatC= 4.35D-11 BMatP= 3.52D-10
 IDIUse=1 WtCom= 1.00D+00 WtEn= 0.00D+00
 Coeff-Com: -0.130D-02 0.355D-01 0.468D-01 0.734D-01 0.294D+00 0.552D+00
 Coeff:     -0.130D-02 0.355D-01 0.468D-01 0.734D-01 0.294D+00 0.552D+00
 Gap=     0.182 Goal=   None    Shift=    0.000
 RMSDP=2.83D-08 MaxDP=1.33D-06 DE=-2.67D-10 OVMax= 1.57D-06

 Cycle  15  Pass 1  IDiag  1:
 RMSU=  2.31D-08    CP:  1.00D+00  1.01D+00  5.53D-01  4.95D-01  8.33D-01
                    CP:  8.03D-01
 E= -1214.98752672069     Delta-E=       -0.000000000026 Rises=F Damp=F
 DIIS: error= 1.92D-07 at cycle   7 NSaved=   7.
 NSaved= 7 IEnMin= 7 EnMin= -1214.98752672069     IErMin= 7 ErrMin= 1.92D-07
 ErrMax= 1.92D-07  0.00D+00 EMaxC= 1.00D-01 BMatC= 9.87D-12 BMatP= 4.35D-11
 IDIUse=1 WtCom= 1.00D+00 WtEn= 0.00D+00
 Coeff-Com: -0.962D-04-0.128D-02-0.111D-02 0.680D-02 0.811D-01 0.357D+00
 Coeff-Com:  0.557D+00
 Coeff:     -0.962D-04-0.128D-02-0.111D-02 0.680D-02 0.811D-01 0.357D+00
 Coeff:      0.557D+00
 Gap=     0.182 Goal=   None    Shift=    0.000
 RMSDP=1.23D-08 MaxDP=5.20D-07 DE=-2.64D-11 OVMax= 6.49D-07

 Cycle  16  Pass 1  IDiag  1:
 RMSU=  6.84D-09    CP:  1.00D+00  1.01D+00  5.53D-01  4.97D-01  8.44D-01
                    CP:  8.38D-01  5.91D-01
 E= -1214.98752672073     Delta-E=       -0.000000000034 Rises=F Damp=F
 DIIS: error= 4.33D-08 at cycle   8 NSaved=   8.
 NSaved= 8 IEnMin= 8 EnMin= -1214.98752672073     IErMin= 8 ErrMin= 4.33D-08
 ErrMax= 4.33D-08  0.00D+00 EMaxC= 1.00D-01 BMatC= 5.69D-13 BMatP= 9.87D-12
 IDIUse=1 WtCom= 1.00D+00 WtEn= 0.00D+00
 Coeff-Com:  0.445D-04-0.326D-02-0.402D-02-0.185D-02 0.181D-01 0.142D+00
 Coeff-Com:  0.294D+00 0.555D+00
 Coeff:      0.445D-04-0.326D-02-0.402D-02-0.185D-02 0.181D-01 0.142D+00
 Coeff:      0.294D+00 0.555D+00
 Gap=     0.182 Goal=   None    Shift=    0.000
 RMSDP=3.25D-09 MaxDP=1.18D-07 DE=-3.37D-11 OVMax= 2.35D-07

 SCF Done:  E(RB3LYP) =  -1214.98752672     A.U. after   16 cycles
            NFock= 16  Conv=0.33D-08     -V/T= 2.0075
 KE= 1.205934045968D+03 PE=-5.748477908719D+03 EE= 1.876761123213D+03
 Leave Link  502 at Thu Aug  6 22:17:55 2020, MaxMem=    33554432 cpu:       215.6
 (Enter /prod/apps/gaussian/g09d1/l601.exe)
 Copying SCF densities to generalized density rwf, IOpCl= 0 IROHF=0.

 **********************************************************************

            Population analysis using the SCF density.

 **********************************************************************

 Orbital symmetries:
       Occupied  (A) (A) (A) (A) (A) (A) (A) (A) (A) (A) (A) (A)
                 (A) (A) (A) (A) (A) (A) (A) (A) (A) (A) (A) (A)
                 (A) (A) (A) (A) (A) (A) (A) (A) (A) (A) (A) (A)
                 (A) (A) (A) (A) (A) (A) (A) (A) (A) (A) (A) (A)
                 (A) (A) (A) (A) (A) (A) (A) (A) (A) (A) (A) (A)
                 (A) (A) (A) (A) (A) (A) (A) (A) (A) (A)
       Virtual   (A) (A) (A) (A) (A) (A) (A) (A) (A) (A) (A) (A)
                 (A) (A) (A) (A) (A) (A) (A) (A) (A) (A) (A) (A)
                 (A) (A) (A) (A) (A) (A) (A) (A) (A) (A) (A) (A)
                 (A) (A) (A) (A) (A) (A) (A) (A) (A) (A) (A) (A)
                 (A) (A) (A) (A) (A) (A) (A) (A) (A) (A) (A) (A)
                 (A) (A) (A) (A) (A) (A) (A) (A) (A) (A) (A) (A)
                 (A) (A) (A) (A) (A) (A) (A) (A) (A) (A) (A) (A)
                 (A) (A) (A) (A) (A) (A) (A) (A) (A) (A) (A) (A)
                 (A) (A) (A) (A) (A) (A) (A) (A) (A) (A) (A) (A)
                 (A) (A) (A) (A) (A) (A) (A) (A) (A) (A) (A) (A)
                 (A) (A) (A) (A) (A) (A) (A) (A) (A) (A) (A) (A)
                 (A) (A) (A) (A) (A) (A) (A) (A) (A) (A) (A) (A)
                 (A) (A) (A) (A) (A) (A) (A) (A) (A) (A) (A) (A)
                 (A) (A) (A) (A) (A) (A) (A) (A) (A) (A) (A) (A)
                 (A) (A) (A) (A) (A) (A) (A) (A) (A) (A) (A) (A)
                 (A) (A) (A) (A) (A) (A) (A) (A) (A) (A) (A) (A)
                 (A) (A) (A) (A) (A) (A) (A) (A) (A) (A) (A) (A)
                 (A) (A) (A) (A) (A) (A) (A) (A) (A) (A) (A) (A)
                 (A) (A) (A) (A) (A) (A) (A) (A) (A) (A) (A) (A)
                 (A) (A)
 The electronic state is 1-A.
 Alpha  occ. eigenvalues --  -89.13270 -19.24055 -19.14620 -19.14362 -14.38666
 Alpha  occ. eigenvalues --  -14.38072 -14.37603 -10.27556 -10.27249 -10.22429
 Alpha  occ. eigenvalues --  -10.22180 -10.21321 -10.21066 -10.20849 -10.20690
 Alpha  occ. eigenvalues --  -10.20635 -10.20628 -10.20503  -8.15452  -6.11979
 Alpha  occ. eigenvalues --   -6.11861  -6.11831  -1.14670  -1.12394  -1.00597
 Alpha  occ. eigenvalues --   -0.95846  -0.94090  -0.87949  -0.85224  -0.81376
 Alpha  occ. eigenvalues --   -0.76206  -0.75847  -0.72666  -0.71529  -0.65396
 Alpha  occ. eigenvalues --   -0.64592  -0.62062  -0.60725  -0.57005  -0.55808
 Alpha  occ. eigenvalues --   -0.53704  -0.51750  -0.50178  -0.49098  -0.48126
 Alpha  occ. eigenvalues --   -0.47984  -0.47437  -0.46097  -0.45502  -0.44050
 Alpha  occ. eigenvalues --   -0.43651  -0.43505  -0.41598  -0.41039  -0.39880
 Alpha  occ. eigenvalues --   -0.38915  -0.38685  -0.37393  -0.36717  -0.35848
 Alpha  occ. eigenvalues --   -0.34606  -0.32991  -0.31603  -0.31357  -0.30350
 Alpha  occ. eigenvalues --   -0.30052  -0.26923  -0.26603  -0.25204  -0.23759
 Alpha virt. eigenvalues --   -0.05576  -0.01578   0.01588   0.04551   0.06195
 Alpha virt. eigenvalues --    0.07510   0.08290   0.09171   0.09311   0.10406
 Alpha virt. eigenvalues --    0.11269   0.12243   0.12769   0.13948   0.14302
 Alpha virt. eigenvalues --    0.15723   0.16181   0.16413   0.17200   0.18018
 Alpha virt. eigenvalues --    0.18090   0.18872   0.19616   0.20650   0.22300
 Alpha virt. eigenvalues --    0.22438   0.25346   0.25689   0.29035   0.29325
 Alpha virt. eigenvalues --    0.32032   0.32483   0.34222   0.35801   0.37718
 Alpha virt. eigenvalues --    0.41166   0.43153   0.43687   0.46401   0.47482
 Alpha virt. eigenvalues --    0.48574   0.49710   0.50707   0.51556   0.52874
 Alpha virt. eigenvalues --    0.53064   0.54531   0.54935   0.55290   0.56860
 Alpha virt. eigenvalues --    0.57486   0.57740   0.58198   0.58709   0.60003
 Alpha virt. eigenvalues --    0.60572   0.60949   0.61793   0.62554   0.63488
 Alpha virt. eigenvalues --    0.64393   0.65132   0.66953   0.69752   0.70432
 Alpha virt. eigenvalues --    0.70847   0.73306   0.75276   0.75822   0.77161
 Alpha virt. eigenvalues --    0.78125   0.79974   0.80830   0.82033   0.82474
 Alpha virt. eigenvalues --    0.82926   0.83599   0.83934   0.84373   0.85614
 Alpha virt. eigenvalues --    0.86896   0.87044   0.88390   0.89439   0.89890
 Alpha virt. eigenvalues --    0.90127   0.91419   0.92475   0.93199   0.94971
 Alpha virt. eigenvalues --    0.95157   0.95288   0.96669   0.97568   0.98696
 Alpha virt. eigenvalues --    1.00634   1.01447   1.04038   1.05275   1.05738
 Alpha virt. eigenvalues --    1.07874   1.09132   1.09588   1.10732   1.13956
 Alpha virt. eigenvalues --    1.14633   1.15511   1.16835   1.17265   1.19206
 Alpha virt. eigenvalues --    1.21241   1.22841   1.23657   1.25947   1.29108
 Alpha virt. eigenvalues --    1.30555   1.31318   1.34181   1.35195   1.36751
 Alpha virt. eigenvalues --    1.37237   1.41039   1.41491   1.41822   1.44749
 Alpha virt. eigenvalues --    1.45319   1.46499   1.47594   1.48433   1.49304
 Alpha virt. eigenvalues --    1.49456   1.50011   1.53736   1.56534   1.58091
 Alpha virt. eigenvalues --    1.62211   1.69379   1.71852   1.72989   1.77320
 Alpha virt. eigenvalues --    1.77968   1.78999   1.79654   1.81210   1.81800
 Alpha virt. eigenvalues --    1.82324   1.85784   1.86489   1.88182   1.89680
 Alpha virt. eigenvalues --    1.91759   1.92725   1.94186   1.95930   1.96402
 Alpha virt. eigenvalues --    1.96992   1.97960   1.98836   2.00042   2.00611
 Alpha virt. eigenvalues --    2.04171   2.06300   2.08023   2.09833   2.10367
 Alpha virt. eigenvalues --    2.11163   2.11587   2.12771   2.13942   2.14112
 Alpha virt. eigenvalues --    2.17901   2.19552   2.21150   2.22748   2.23490
 Alpha virt. eigenvalues --    2.24367   2.25599   2.27175   2.27743   2.29453
 Alpha virt. eigenvalues --    2.30313   2.33411   2.34900   2.36229   2.41847
 Alpha virt. eigenvalues --    2.43254   2.48589   2.51500   2.53316   2.53460
 Alpha virt. eigenvalues --    2.57127   2.57632   2.60340   2.60506   2.62625
 Alpha virt. eigenvalues --    2.65726   2.66498   2.70630   2.72312   2.73411
 Alpha virt. eigenvalues --    2.74005   2.76664   2.77986   2.84902   2.87312
 Alpha virt. eigenvalues --    2.89208   2.92955   3.02506   3.06204   3.12876
 Alpha virt. eigenvalues --    3.27017   3.42320   3.72463   3.83039   3.98442
 Alpha virt. eigenvalues --    4.01489   4.05189   4.07436   4.09364   4.10205
 Alpha virt. eigenvalues --    4.14379   4.17406   4.23041   4.29255   4.31098
 Alpha virt. eigenvalues --    4.32166   4.39041   4.40176   4.56373   4.73726
          Condensed to atoms (all electrons):
               1          2          3          4          5          6
     1  O    8.197578   0.450363  -0.056657   0.010077  -0.002537  -0.000009
     2  S    0.450363  13.534971   0.094436  -0.006716   0.004069  -0.000239
     3  N   -0.056657   0.094436   7.491081   0.219381  -0.071862   0.005416
     4  C    0.010077  -0.006716   0.219381   4.530968   0.372390  -0.026891
     5  N   -0.002537   0.004069  -0.071862   0.372390   6.910908   0.114441
     6  O   -0.000009  -0.000239   0.005416  -0.026891   0.114441   8.186980
     7  C    0.000019   0.000254   0.000437  -0.025135  -0.077789   0.249978
     8  C    0.000000  -0.000012  -0.000209   0.003077   0.004083  -0.037802
     9  C    0.000000   0.000000   0.000003   0.000615  -0.000100   0.003203
    10  C    0.000000   0.000000   0.000000  -0.000006   0.000001  -0.000060
    11  C    0.000000   0.000000   0.000000   0.000000   0.000000   0.000001
    12  C    0.000000   0.000000   0.000000   0.000005   0.000000   0.000305
    13  C    0.000000   0.000000  -0.000001  -0.000333   0.000137  -0.006503
    14  C    0.000056   0.000961  -0.062648   0.436029  -0.037275  -0.098528
    15  N   -0.053283   0.177590  -0.052071  -0.009128   0.003319   0.000018
    16  C    0.001588  -0.018474   0.003085   0.000404  -0.000450   0.000001
    17  C   -0.003550  -0.017890  -0.000013   0.001608  -0.010589   0.000099
    18  O   -0.040499   0.460042  -0.056827   0.001880  -0.000021   0.000000
    19  H    0.000139  -0.010625   0.305457  -0.024957   0.003318  -0.000075
    20  H    0.000000   0.000000  -0.000001   0.000075  -0.000004   0.000021
    21  H    0.000000   0.000000   0.000000   0.000000   0.000000   0.000000
    22  H    0.000000   0.000000   0.000000   0.000000   0.000000   0.000000
    23  H    0.000000   0.000000   0.000000   0.000000   0.000000  -0.000002
    24  H    0.000000   0.000000   0.000000   0.000074  -0.000270   0.009837
    25  H    0.000002  -0.000124  -0.001791  -0.029080   0.004707   0.003571
    26  H    0.000059   0.004076  -0.001738  -0.000022   0.000009   0.000000
    27  H   -0.000052   0.002539   0.000061  -0.000046   0.000008   0.000000
    28  H   -0.000015  -0.009404   0.004825   0.001663   0.000123  -0.000007
    29  H    0.009692  -0.004217   0.000067  -0.000115  -0.000150   0.000003
    30  H   -0.000166  -0.007640   0.001044   0.001149   0.016200  -0.000538
    31  H    0.000215   0.003780  -0.000133  -0.000056   0.000322  -0.000001
               7          8          9         10         11         12
     1  O    0.000019   0.000000   0.000000   0.000000   0.000000   0.000000
     2  S    0.000254  -0.000012   0.000000   0.000000   0.000000   0.000000
     3  N    0.000437  -0.000209   0.000003   0.000000   0.000000   0.000000
     4  C   -0.025135   0.003077   0.000615  -0.000006   0.000000   0.000005
     5  N   -0.077789   0.004083  -0.000100   0.000001   0.000000   0.000000
     6  O    0.249978  -0.037802   0.003203  -0.000060   0.000001   0.000305
     7  C    4.727941   0.342044  -0.041518   0.006405   0.000937   0.004790
     8  C    0.342044   4.770861   0.536900  -0.008152  -0.033840  -0.008014
     9  C   -0.041518   0.536900   5.003906   0.523039  -0.038391  -0.041508
    10  C    0.006405  -0.008152   0.523039   4.860188   0.545311  -0.023812
    11  C    0.000937  -0.033840  -0.038391   0.545311   4.851935   0.543688
    12  C    0.004790  -0.008014  -0.041508  -0.023812   0.543688   4.874683
    13  C   -0.039719   0.477400  -0.084594  -0.042603  -0.035739   0.504574
    14  C    0.507606  -0.058968  -0.021668   0.000196   0.000015  -0.000242
    15  N   -0.000006   0.000000   0.000000   0.000000   0.000000   0.000000
    16  C    0.000000   0.000000   0.000000   0.000000   0.000000   0.000000
    17  C   -0.000010   0.000000   0.000000   0.000000   0.000000   0.000000
    18  O    0.000000   0.000000   0.000000   0.000000   0.000000   0.000000
    19  H   -0.000002  -0.000004   0.000000   0.000000   0.000000   0.000000
    20  H   -0.013621  -0.037852   0.351399  -0.044484   0.004709   0.000212
    21  H   -0.000213   0.003307  -0.038716   0.359261  -0.041736   0.004493
    22  H    0.000003   0.000557   0.004915  -0.042715   0.361006  -0.042437
    23  H   -0.000184   0.003135   0.000885   0.004480  -0.042057   0.359934
    24  H   -0.013281  -0.038623   0.005457   0.000277   0.004433  -0.042802
    25  H   -0.024551  -0.003724   0.001362   0.000088  -0.000001   0.000002
    26  H    0.000000   0.000000   0.000000   0.000000   0.000000   0.000000
    27  H    0.000000   0.000000   0.000000   0.000000   0.000000   0.000000
    28  H    0.000001   0.000000   0.000000   0.000000   0.000000   0.000000
    29  H    0.000000   0.000000   0.000000   0.000000   0.000000   0.000000
    30  H    0.000061   0.000000   0.000000   0.000000   0.000000   0.000000
    31  H    0.000000   0.000000   0.000000   0.000000   0.000000   0.000000
              13         14         15         16         17         18
     1  O    0.000000   0.000056  -0.053283   0.001588  -0.003550  -0.040499
     2  S    0.000000   0.000961   0.177590  -0.018474  -0.017890   0.460042
     3  N   -0.000001  -0.062648  -0.052071   0.003085  -0.000013  -0.056827
     4  C   -0.000333   0.436029  -0.009128   0.000404   0.001608   0.001880
     5  N    0.000137  -0.037275   0.003319  -0.000450  -0.010589  -0.000021
     6  O   -0.006503  -0.098528   0.000018   0.000001   0.000099   0.000000
     7  C   -0.039719   0.507606  -0.000006   0.000000  -0.000010   0.000000
     8  C    0.477400  -0.058968   0.000000   0.000000   0.000000   0.000000
     9  C   -0.084594  -0.021668   0.000000   0.000000   0.000000   0.000000
    10  C   -0.042603   0.000196   0.000000   0.000000   0.000000   0.000000
    11  C   -0.035739   0.000015   0.000000   0.000000   0.000000   0.000000
    12  C    0.504574  -0.000242   0.000000   0.000000   0.000000   0.000000
    13  C    5.044299   0.012439   0.000000   0.000000   0.000000   0.000000
    14  C    0.012439   5.277891  -0.000118  -0.000007  -0.000017  -0.000055
    15  N    0.000000  -0.000118   7.172014   0.278813   0.271389  -0.055593
    16  C    0.000000  -0.000007   0.278813   4.989796  -0.047171  -0.007572
    17  C    0.000000  -0.000017   0.271389  -0.047171   5.016761   0.001362
    18  O    0.000000  -0.000055  -0.055593  -0.007572   0.001362   8.231246
    19  H    0.000000  -0.004185   0.002265  -0.000178  -0.000035   0.006105
    20  H    0.006098   0.006264   0.000000   0.000000   0.000000   0.000000
    21  H    0.000862  -0.000001   0.000000   0.000000   0.000000   0.000000
    22  H    0.004711   0.000000   0.000000   0.000000   0.000000   0.000000
    23  H   -0.037829   0.000001   0.000000   0.000000   0.000000   0.000000
    24  H    0.360175   0.000257   0.000000   0.000000   0.000000   0.000000
    25  H   -0.000126   0.346433   0.000000   0.000000   0.000000  -0.000001
    26  H    0.000000   0.000000  -0.034159   0.374321   0.004340   0.010379
    27  H    0.000000   0.000000  -0.034928   0.374203  -0.004367   0.000027
    28  H    0.000000   0.000021  -0.047967   0.375422  -0.000005  -0.000194
    29  H    0.000000  -0.000003  -0.030054   0.004238   0.380293   0.000024
    30  H    0.000000   0.000150  -0.045111  -0.000379   0.369303  -0.000073
    31  H    0.000000   0.000000  -0.037243  -0.004826   0.364664  -0.000045
              19         20         21         22         23         24
     1  O    0.000139   0.000000   0.000000   0.000000   0.000000   0.000000
     2  S   -0.010625   0.000000   0.000000   0.000000   0.000000   0.000000
     3  N    0.305457  -0.000001   0.000000   0.000000   0.000000   0.000000
     4  C   -0.024957   0.000075   0.000000   0.000000   0.000000   0.000074
     5  N    0.003318  -0.000004   0.000000   0.000000   0.000000  -0.000270
     6  O   -0.000075   0.000021   0.000000   0.000000  -0.000002   0.009837
     7  C   -0.000002  -0.013621  -0.000213   0.000003  -0.000184  -0.013281
     8  C   -0.000004  -0.037852   0.003307   0.000557   0.003135  -0.038623
     9  C    0.000000   0.351399  -0.038716   0.004915   0.000885   0.005457
    10  C    0.000000  -0.044484   0.359261  -0.042715   0.004480   0.000277
    11  C    0.000000   0.004709  -0.041736   0.361006  -0.042057   0.004433
    12  C    0.000000   0.000212   0.004493  -0.042437   0.359934  -0.042802
    13  C    0.000000   0.006098   0.000862   0.004711  -0.037829   0.360175
    14  C   -0.004185   0.006264  -0.000001   0.000000   0.000001   0.000257
    15  N    0.002265   0.000000   0.000000   0.000000   0.000000   0.000000
    16  C   -0.000178   0.000000   0.000000   0.000000   0.000000   0.000000
    17  C   -0.000035   0.000000   0.000000   0.000000   0.000000   0.000000
    18  O    0.006105   0.000000   0.000000   0.000000   0.000000   0.000000
    19  H    0.352979   0.000000   0.000000   0.000000   0.000000   0.000000
    20  H    0.000000   0.594198  -0.005302  -0.000172   0.000016  -0.000151
    21  H    0.000000  -0.005302   0.583958  -0.005408  -0.000176   0.000016
    22  H    0.000000  -0.000172  -0.005408   0.585705  -0.005384  -0.000158
    23  H    0.000000   0.000016  -0.000176  -0.005384   0.580322  -0.004876
    24  H    0.000000  -0.000151   0.000016  -0.000158  -0.004876   0.555313
    25  H    0.001958   0.002256  -0.000003   0.000000   0.000000  -0.000009
    26  H   -0.000018   0.000000   0.000000   0.000000   0.000000   0.000000
    27  H    0.000011   0.000000   0.000000   0.000000   0.000000   0.000000
    28  H   -0.000282   0.000000   0.000000   0.000000   0.000000   0.000000
    29  H    0.000000   0.000000   0.000000   0.000000   0.000000   0.000000
    30  H   -0.000048   0.000000   0.000000   0.000000   0.000000   0.000000
    31  H    0.000003   0.000000   0.000000   0.000000   0.000000   0.000000
              25         26         27         28         29         30
     1  O    0.000002   0.000059  -0.000052  -0.000015   0.009692  -0.000166
     2  S   -0.000124   0.004076   0.002539  -0.009404  -0.004217  -0.007640
     3  N   -0.001791  -0.001738   0.000061   0.004825   0.000067   0.001044
     4  C   -0.029080  -0.000022  -0.000046   0.001663  -0.000115   0.001149
     5  N    0.004707   0.000009   0.000008   0.000123  -0.000150   0.016200
     6  O    0.003571   0.000000   0.000000  -0.000007   0.000003  -0.000538
     7  C   -0.024551   0.000000   0.000000   0.000001   0.000000   0.000061
     8  C   -0.003724   0.000000   0.000000   0.000000   0.000000   0.000000
     9  C    0.001362   0.000000   0.000000   0.000000   0.000000   0.000000
    10  C    0.000088   0.000000   0.000000   0.000000   0.000000   0.000000
    11  C   -0.000001   0.000000   0.000000   0.000000   0.000000   0.000000
    12  C    0.000002   0.000000   0.000000   0.000000   0.000000   0.000000
    13  C   -0.000126   0.000000   0.000000   0.000000   0.000000   0.000000
    14  C    0.346433   0.000000   0.000000   0.000021  -0.000003   0.000150
    15  N    0.000000  -0.034159  -0.034928  -0.047967  -0.030054  -0.045111
    16  C    0.000000   0.374321   0.374203   0.375422   0.004238  -0.000379
    17  C    0.000000   0.004340  -0.004367  -0.000005   0.380293   0.369303
    18  O   -0.000001   0.010379   0.000027  -0.000194   0.000024  -0.000073
    19  H    0.001958  -0.000018   0.000011  -0.000282   0.000000  -0.000048
    20  H    0.002256   0.000000   0.000000   0.000000   0.000000   0.000000
    21  H   -0.000003   0.000000   0.000000   0.000000   0.000000   0.000000
    22  H    0.000000   0.000000   0.000000   0.000000   0.000000   0.000000
    23  H    0.000000   0.000000   0.000000   0.000000   0.000000   0.000000
    24  H   -0.000009   0.000000   0.000000   0.000000   0.000000   0.000000
    25  H    0.541850   0.000000   0.000000   0.000000   0.000000  -0.000001
    26  H    0.000000   0.497063  -0.021575  -0.030579  -0.000187  -0.000184
    27  H    0.000000  -0.021575   0.548930  -0.038700   0.000045  -0.001183
    28  H    0.000000  -0.030579  -0.038700   0.574326  -0.000176   0.006282
    29  H    0.000000  -0.000187   0.000045  -0.000176   0.486515  -0.027034
    30  H   -0.000001  -0.000184  -0.001183   0.006282  -0.027034   0.530692
    31  H    0.000000   0.000049   0.005771  -0.001481  -0.022641  -0.034949
              31
     1  O    0.000215
     2  S    0.003780
     3  N   -0.000133
     4  C   -0.000056
     5  N    0.000322
     6  O   -0.000001
     7  C    0.000000
     8  C    0.000000
     9  C    0.000000
    10  C    0.000000
    11  C    0.000000
    12  C    0.000000
    13  C    0.000000
    14  C    0.000000
    15  N   -0.037243
    16  C   -0.004826
    17  C    0.364664
    18  O   -0.000045
    19  H    0.000003
    20  H    0.000000
    21  H    0.000000
    22  H    0.000000
    23  H    0.000000
    24  H    0.000000
    25  H    0.000000
    26  H    0.000049
    27  H    0.005771
    28  H   -0.001481
    29  H   -0.022641
    30  H   -0.034949
    31  H    0.569711
 Mulliken charges:
               1
     1  O   -0.513019
     2  S    1.342259
     3  N   -0.821341
     4  C    0.543089
     5  N   -0.232987
     6  O   -0.403221
     7  C    0.395555
     8  C    0.085835
     9  C   -0.165192
    10  C   -0.137415
    11  C   -0.120271
    12  C   -0.133870
    13  C   -0.163250
    14  C   -0.304603
    15  N   -0.505747
    16  C   -0.322814
    17  C   -0.326171
    18  O   -0.550185
    19  H    0.368173
    20  H    0.136341
    21  H    0.139657
    22  H    0.139377
    23  H    0.141734
    24  H    0.164331
    25  H    0.157180
    26  H    0.198166
    27  H    0.169258
    28  H    0.166147
    29  H    0.203698
    30  H    0.192424
    31  H    0.156860
 Sum of Mulliken charges =   0.00000
 Mulliken charges with hydrogens summed into heavy atoms:
               1
     1  O   -0.513019
     2  S    1.342259
     3  N   -0.453168
     4  C    0.543089
     5  N   -0.232987
     6  O   -0.403221
     7  C    0.395555
     8  C    0.085835
     9  C   -0.028851
    10  C    0.002242
    11  C    0.019106
    12  C    0.007865
    13  C    0.001081
    14  C   -0.147423
    15  N   -0.505747
    16  C    0.210757
    17  C    0.226811
    18  O   -0.550185
 Electronic spatial extent (au):  <R**2>=           7046.1740
 Charge=              0.0000 electrons
 Dipole moment (field-independent basis, Debye):
    X=             -4.0114    Y=              0.1349    Z=             -3.3044  Tot=              5.1989
 Quadrupole moment (field-independent basis, Debye-Ang):
   XX=           -100.9863   YY=           -102.4939   ZZ=           -115.9710
   XY=             12.4146   XZ=            -10.4473   YZ=              3.3968
 Traceless Quadrupole moment (field-independent basis, Debye-Ang):
   XX=              5.4975   YY=              3.9898   ZZ=             -9.4873
   XY=             12.4146   XZ=            -10.4473   YZ=              3.3968
 Octapole moment (field-independent basis, Debye-Ang**2):
  XXX=            -98.8190  YYY=             -3.6701  ZZZ=             -4.1140  XYY=             -5.1716
  XXY=             55.3333  XXZ=            -29.7015  XZZ=             26.6762  YZZ=              2.6477
  YYZ=             -2.1179  XYZ=             -2.4817
 Hexadecapole moment (field-independent basis, Debye-Ang**3):
 XXXX=          -7409.4880 YYYY=           -846.3681 ZZZZ=           -415.4169 XXXY=            194.5163
 XXXZ=           -151.3727 YYYX=             19.6016 YYYZ=             18.5236 ZZZX=            -18.7733
 ZZZY=              0.3604 XXYY=          -1404.7566 XXZZ=          -1468.3809 YYZZ=           -216.1766
 XXYZ=             28.2566 YYXZ=             -2.7464 ZZXY=             -1.1932
 N-N= 1.450795212817D+03 E-N=-5.748477905485D+03  KE= 1.205934045968D+03
 No NMR shielding tensors so no spin-rotation constants.
 Leave Link  601 at Thu Aug  6 22:17:56 2020, MaxMem=    33554432 cpu:         0.2
 (Enter /prod/apps/gaussian/g09d1/l9999.exe)
 1\1\GINC-PIRINEUS11\SP\RB3LYP\6-31G(d)\C11H13N3O3S1\UBAFAR01\06-Aug-20
 20\0\\#p b3lyp/6-31G(d)\\SM43.n.8.pdb.xyz\\0,1\O,0,1.105,-3.366,1.723\
 S,0,2.369,-2.737,1.35\N,0,2.446,-1.137,1.97\C,0,1.877,-0.755,3.185\N,0
 ,1.989,-1.513,4.258\O,0,1.327,-0.804,5.268\C,0,0.862,0.367,4.773\C,0,0
 .152,1.249,5.691\C,0,-0.377,2.466,5.231\C,0,-1.055,3.31,6.104\C,0,-1.2
 14,2.951,7.445\C,0,-0.691,1.742,7.908\C,0,-0.011,0.894,7.039\C,0,1.177
 ,0.454,3.446\N,0,3.584,-3.597,2.064\C,0,4.933,-3.042,1.919\C,0,3.307,-
 4.292,3.33\O,0,2.723,-2.516,-0.051\H,0,2.348,-0.467,1.214\H,0,-0.256,2
 .747,4.19\H,0,-1.46,4.247,5.739\H,0,-1.744,3.61,8.124\H,0,-0.812,1.46,
 8.949\H,0,0.398,-0.045,7.393\H,0,0.945,1.246,2.752\H,0,5.055,-2.652,0.
 91\H,0,5.643,-3.856,2.071\H,0,5.131,-2.249,2.649\H,0,2.339,-4.782,3.26
 \H,0,3.308,-3.605,4.181\H,0,4.087,-5.047,3.449\\Version=AM64L-G09RevD.
 01\State=1-A\HF=-1214.9875267\RMSD=3.253e-09\Dipole=0.4090938,1.665183
 1,1.1151399\Quadrupole=2.9678897,3.6943541,-6.6622438,-10.2768325,-4.7
 527213,-5.2827482\PG=C01 [X(C11H13N3O3S1)]\\@


 HIGGLEDY-PIGGLEDY
 NIC'LAUS COPERNICUS
 LOOKED AT THE UNIVERSE,
 SPOKE TO THE THRONG;
 GIVE UP YOUR PTOLOMY,
 RISE UP AND FOLLOW ME,
 HELIOCENTRICALLY
 PTOLEMY'S WRONG.
   -- NANCY L. STARK
 Job cpu time:       0 days  0 hours  3 minutes 39.9 seconds.
 File lengths (MBytes):  RWF=     51 Int=      0 D2E=      0 Chk=      4 Scr=      1
 Normal termination of Gaussian 09 at Thu Aug  6 22:17:56 2020.
 Initial command:
 /prod/apps/gaussian/g09d1/l1.exe "/tmp/ubafar01/1448660/Gau-9619.inp" -scrdir="/tmp/ubafar01/1448660/"
 Entering Link 1 = /prod/apps/gaussian/g09d1/l1.exe PID=      9885.
  
 Copyright (c) 1988,1990,1992,1993,1995,1998,2003,2009,2013,
            Gaussian, Inc.  All Rights Reserved.
  
 This is part of the Gaussian(R) 09 program.  It is based on
 the Gaussian(R) 03 system (copyright 2003, Gaussian, Inc.),
 the Gaussian(R) 98 system (copyright 1998, Gaussian, Inc.),
 the Gaussian(R) 94 system (copyright 1995, Gaussian, Inc.),
 the Gaussian 92(TM) system (copyright 1992, Gaussian, Inc.),
 the Gaussian 90(TM) system (copyright 1990, Gaussian, Inc.),
 the Gaussian 88(TM) system (copyright 1988, Gaussian, Inc.),
 the Gaussian 86(TM) system (copyright 1986, Carnegie Mellon
 University), and the Gaussian 82(TM) system (copyright 1983,
 Carnegie Mellon University). Gaussian is a federally registered
 trademark of Gaussian, Inc.
  
 This software contains proprietary and confidential information,
 including trade secrets, belonging to Gaussian, Inc.
  
 This software is provided under written license and may be
 used, copied, transmitted, or stored only in accord with that
 written license.
  
 The following legend is applicable only to US Government
 contracts under FAR:
  
                    RESTRICTED RIGHTS LEGEND
  
 Use, reproduction and disclosure by the US Government is
 subject to restrictions as set forth in subparagraphs (a)
 and (c) of the Commercial Computer Software - Restricted
 Rights clause in FAR 52.227-19.
  
 Gaussian, Inc.
 340 Quinnipiac St., Bldg. 40, Wallingford CT 06492
  
  
 ---------------------------------------------------------------
 Warning -- This program may not be used in any manner that
 competes with the business of Gaussian, Inc. or will provide
 assistance to any competitor of Gaussian, Inc.  The licensee
 of this program is prohibited from giving any competitor of
 Gaussian, Inc. access to this program.  By using this program,
 the user acknowledges that Gaussian, Inc. is engaged in the
 business of creating and licensing software in the field of
 computational chemistry and represents and warrants to the
 licensee that it is not a competitor of Gaussian, Inc. and that
 it will not use this program in any manner prohibited above.
 ---------------------------------------------------------------
  

 Cite this work as:
 Gaussian 09, Revision D.01,
 M. J. Frisch, G. W. Trucks, H. B. Schlegel, G. E. Scuseria, 
 M. A. Robb, J. R. Cheeseman, G. Scalmani, V. Barone, B. Mennucci, 
 G. A. Petersson, H. Nakatsuji, M. Caricato, X. Li, H. P. Hratchian, 
 A. F. Izmaylov, J. Bloino, G. Zheng, J. L. Sonnenberg, M. Hada, 
 M. Ehara, K. Toyota, R. Fukuda, J. Hasegawa, M. Ishida, T. Nakajima, 
 Y. Honda, O. Kitao, H. Nakai, T. Vreven, J. A. Montgomery, Jr., 
 J. E. Peralta, F. Ogliaro, M. Bearpark, J. J. Heyd, E. Brothers, 
 K. N. Kudin, V. N. Staroverov, T. Keith, R. Kobayashi, J. Normand, 
 K. Raghavachari, A. Rendell, J. C. Burant, S. S. Iyengar, J. Tomasi, 
 M. Cossi, N. Rega, J. M. Millam, M. Klene, J. E. Knox, J. B. Cross, 
 V. Bakken, C. Adamo, J. Jaramillo, R. Gomperts, R. E. Stratmann, 
 O. Yazyev, A. J. Austin, R. Cammi, C. Pomelli, J. W. Ochterski, 
 R. L. Martin, K. Morokuma, V. G. Zakrzewski, G. A. Voth, 
 P. Salvador, J. J. Dannenberg, S. Dapprich, A. D. Daniels, 
 O. Farkas, J. B. Foresman, J. V. Ortiz, J. Cioslowski, 
 and D. J. Fox, Gaussian, Inc., Wallingford CT, 2013.
 
 ******************************************
 Gaussian 09:  AM64L-G09RevD.01 24-Apr-2013
                 6-Aug-2020 
 ******************************************
 %nproc=1
 Will use up to    1 processors via shared memory.
 %Chk=SM43.n.8.pdb.xyz.mst.n.o.chk
 %subst l301 /dades/curu/work_g09D01_MST_AddSphPartition_ReadGammas/exe-dir/
 %subst l502 /dades/curu/work_g09D01_MST_AddSphPartition_ReadGammas/exe-dir/
 ----------------------------------------------------------------------
 #p b3lyp/6-31G(d) scrf=(iefpcm,read,solvent=n-Octanol) geom=allcheck g
 uess=read
 ----------------------------------------------------------------------
 1/29=7,38=1,40=2/1;
 2/12=2,40=1/2;
 3/5=1,6=6,7=1,11=2,14=-4,16=1,25=1,30=1,70=2203,72=25,74=-5,116=-2/1,2,3;
 4/5=1/1;
 5/5=2,38=6,53=25/2;
 6/7=2,8=2,9=2,10=2,28=1/1;
 99/5=1,9=1/99;
 Leave Link    1 at Thu Aug  6 22:17:56 2020, MaxMem=           0 cpu:         0.0
 (Enter /prod/apps/gaussian/g09d1/l101.exe)
 Structure from the checkpoint file:  "SM43.n.8.pdb.xyz.mst.n.o.chk"
 ----------------
 SM43.n.8.pdb.xyz
 ----------------
 Charge =  0 Multiplicity = 1
 Z-Matrix found in file.
 O,0,1.105,-3.366,1.723
 S,0,2.369,-2.737,1.35
 N,0,2.446,-1.137,1.97
 C,0,1.877,-0.755,3.185
 N,0,1.989,-1.513,4.258
 O,0,1.327,-0.804,5.268
 C,0,0.862,0.367,4.773
 C,0,0.152,1.249,5.691
 C,0,-0.377,2.466,5.231
 C,0,-1.055,3.31,6.104
 C,0,-1.214,2.951,7.445
 C,0,-0.691,1.742,7.908
 C,0,-0.011,0.894,7.039
 C,0,1.177,0.454,3.446
 N,0,3.584,-3.597,2.064
 C,0,4.933,-3.042,1.919
 C,0,3.307,-4.292,3.33
 O,0,2.723,-2.516,-0.051
 H,0,2.348,-0.467,1.214
 H,0,-0.256,2.747,4.19
 H,0,-1.46,4.247,5.739
 H,0,-1.744,3.61,8.124
 H,0,-0.812,1.46,8.949
 H,0,0.398,-0.045,7.393
 H,0,0.945,1.246,2.752
 H,0,5.055,-2.652,0.91
 H,0,5.643,-3.856,2.071
 H,0,5.131,-2.249,2.649
 H,0,2.339,-4.782,3.26
 H,0,3.308,-3.605,4.181
 H,0,4.087,-5.047,3.449
 Recover connectivity data from disk.
 NAtoms=     31 NQM=       31 NQMF=       0 NMMI=      0 NMMIF=      0
                NMic=       0 NMicF=      0.
                    Isotopes and Nuclear Properties:
 (Nuclear quadrupole moments (NQMom) in fm**2, nuclear magnetic moments (NMagM)
  in nuclear magnetons)

  Atom         1           2           3           4           5           6           7           8           9          10
 IAtWgt=          16          32          14          12          14          16          12          12          12          12
 AtmWgt=  15.9949146  31.9720718  14.0030740  12.0000000  14.0030740  15.9949146  12.0000000  12.0000000  12.0000000  12.0000000
 NucSpn=           0           0           2           0           2           0           0           0           0           0
 AtZEff=  -5.6000000 -13.6000000  -4.5500000  -3.6000000  -4.5500000  -5.6000000  -3.6000000  -3.6000000  -3.6000000  -3.6000000
 NQMom=    0.0000000   0.0000000   2.0440000   0.0000000   2.0440000   0.0000000   0.0000000   0.0000000   0.0000000   0.0000000
 NMagM=    0.0000000   0.0000000   0.4037610   0.0000000   0.4037610   0.0000000   0.0000000   0.0000000   0.0000000   0.0000000
 AtZNuc=   8.0000000  16.0000000   7.0000000   6.0000000   7.0000000   8.0000000   6.0000000   6.0000000   6.0000000   6.0000000

  Atom        11          12          13          14          15          16          17          18          19          20
 IAtWgt=          12          12          12          12          14          12          12          16           1           1
 AtmWgt=  12.0000000  12.0000000  12.0000000  12.0000000  14.0030740  12.0000000  12.0000000  15.9949146   1.0078250   1.0078250
 NucSpn=           0           0           0           0           2           0           0           0           1           1
 AtZEff=  -3.6000000  -3.6000000  -3.6000000  -3.6000000  -4.5500000  -3.6000000  -3.6000000  -5.6000000  -1.0000000  -1.0000000
 NQMom=    0.0000000   0.0000000   0.0000000   0.0000000   2.0440000   0.0000000   0.0000000   0.0000000   0.0000000   0.0000000
 NMagM=    0.0000000   0.0000000   0.0000000   0.0000000   0.4037610   0.0000000   0.0000000   0.0000000   2.7928460   2.7928460
 AtZNuc=   6.0000000   6.0000000   6.0000000   6.0000000   7.0000000   6.0000000   6.0000000   8.0000000   1.0000000   1.0000000

  Atom        21          22          23          24          25          26          27          28          29          30
 IAtWgt=           1           1           1           1           1           1           1           1           1           1
 AtmWgt=   1.0078250   1.0078250   1.0078250   1.0078250   1.0078250   1.0078250   1.0078250   1.0078250   1.0078250   1.0078250
 NucSpn=           1           1           1           1           1           1           1           1           1           1
 AtZEff=  -1.0000000  -1.0000000  -1.0000000  -1.0000000  -1.0000000  -1.0000000  -1.0000000  -1.0000000  -1.0000000  -1.0000000
 NQMom=    0.0000000   0.0000000   0.0000000   0.0000000   0.0000000   0.0000000   0.0000000   0.0000000   0.0000000   0.0000000
 NMagM=    2.7928460   2.7928460   2.7928460   2.7928460   2.7928460   2.7928460   2.7928460   2.7928460   2.7928460   2.7928460
 AtZNuc=   1.0000000   1.0000000   1.0000000   1.0000000   1.0000000   1.0000000   1.0000000   1.0000000   1.0000000   1.0000000

  Atom        31
 IAtWgt=           1
 AtmWgt=   1.0078250
 NucSpn=           1
 AtZEff=  -1.0000000
 NQMom=    0.0000000
 NMagM=    2.7928460
 AtZNuc=   1.0000000
 Leave Link  101 at Thu Aug  6 22:17:56 2020, MaxMem=    33554432 cpu:         0.0
 (Enter /prod/apps/gaussian/g09d1/l202.exe)
                          Input orientation:                          
 ---------------------------------------------------------------------
 Center     Atomic      Atomic             Coordinates (Angstroms)
 Number     Number       Type             X           Y           Z
 ---------------------------------------------------------------------
      1          8           0        1.105000   -3.366000    1.723000
      2         16           0        2.369000   -2.737000    1.350000
      3          7           0        2.446000   -1.137000    1.970000
      4          6           0        1.877000   -0.755000    3.185000
      5          7           0        1.989000   -1.513000    4.258000
      6          8           0        1.327000   -0.804000    5.268000
      7          6           0        0.862000    0.367000    4.773000
      8          6           0        0.152000    1.249000    5.691000
      9          6           0       -0.377000    2.466000    5.231000
     10          6           0       -1.055000    3.310000    6.104000
     11          6           0       -1.214000    2.951000    7.445000
     12          6           0       -0.691000    1.742000    7.908000
     13          6           0       -0.011000    0.894000    7.039000
     14          6           0        1.177000    0.454000    3.446000
     15          7           0        3.584000   -3.597000    2.064000
     16          6           0        4.933000   -3.042000    1.919000
     17          6           0        3.307000   -4.292000    3.330000
     18          8           0        2.723000   -2.516000   -0.051000
     19          1           0        2.348000   -0.467000    1.214000
     20          1           0       -0.256000    2.747000    4.190000
     21          1           0       -1.460000    4.247000    5.739000
     22          1           0       -1.744000    3.610000    8.124000
     23          1           0       -0.812000    1.460000    8.949000
     24          1           0        0.398000   -0.045000    7.393000
     25          1           0        0.945000    1.246000    2.752000
     26          1           0        5.055000   -2.652000    0.910000
     27          1           0        5.643000   -3.856000    2.071000
     28          1           0        5.131000   -2.249000    2.649000
     29          1           0        2.339000   -4.782000    3.260000
     30          1           0        3.308000   -3.605000    4.181000
     31          1           0        4.087000   -5.047000    3.449000
 ---------------------------------------------------------------------
                    Distance matrix (angstroms):
                    1          2          3          4          5
     1  O    0.000000
     2  S    1.460297   0.000000
     3  N    2.612993   1.717652   0.000000
     4  C    3.090429   2.745471   1.394959   0.000000
     5  N    3.262099   3.177899   2.363296   1.318498   0.000000
     6  O    4.379515   4.491434   3.498550   2.154945   1.400366
     7  C    4.826680   4.860329   3.553573   2.193366   2.251611
     8  C    6.160475   6.296631   4.980088   3.643031   3.613406
     9  C    6.965243   7.047970   5.620059   4.431870   4.730447
    10  C    8.272106   8.419650   7.008764   5.800122   5.994579
    11  C    8.833093   9.074153   7.751320   6.437105   6.351651
    12  C    8.220189   8.510723   7.306795   5.927593   5.576731
    13  C    6.903109   7.156346   5.988036   4.597506   4.186599
    14  C    4.191219   3.999570   2.514004   1.421197   2.277669
    15  N    2.512983   1.650945   2.712099   3.499636   3.420631
    16  C    3.846684   2.644028   3.133177   4.021475   4.059051
    17  C    2.879015   2.686684   3.541885   3.817891   3.212655
    18  O    2.547057   1.461834   2.462278   3.780018   4.484668
    19  H    3.195048   2.274167   1.014909   2.046858   3.238662
    20  H    6.731061   6.710475   5.226343   4.221815   4.815833
    21  H    8.981384   9.093999   7.645237   6.532878   6.875068
    22  H    9.887071  10.153239   8.829599   7.520544   7.424714
    23  H    8.898328   9.245451   8.128063   6.735031   6.220113
    24  H    6.608917   6.902866   5.898788   4.516504   3.809794
    25  H    4.728106   4.456194   2.922878   2.249470   3.312107
    26  H    4.095518   2.723127   3.197766   4.344412   4.680468
    27  H    4.577625   3.534272   4.198091   5.003994   4.860487
    28  H    4.279467   3.090985   2.984428   3.620476   3.605931
    29  H    2.426970   2.798397   3.868019   4.054109   3.435821
    30  H    3.309395   3.106398   3.423827   3.340999   2.474299
    31  H    3.833688   3.562783   4.490927   4.834776   4.188704
                    6          7          8          9         10
     6  O    0.000000
     7  C    1.353695   0.000000
     8  C    2.402990   1.457652   0.000000
     9  C    3.687531   2.480058   1.404468   0.000000
    10  C    4.826781   3.756022   2.423869   1.390737   0.000000
    11  C    5.029516   4.257513   2.799871   2.416111   1.397298
    12  C    4.186172   3.759077   2.422558   2.790896   2.417754
    13  C    2.794618   2.484877   1.403459   2.423634   2.793066
    14  C    2.219177   1.366647   2.592812   3.106330   4.494833
    15  N    4.812537   5.519172   6.958266   7.904390   9.249247
    16  C    5.406263   6.028237   7.449740   8.336876   9.680820
    17  C    4.454480   5.455873   6.799340   7.928192   9.193069
    18  O    5.759472   5.919965   7.331837   7.894925   9.278986
    19  H    4.194154   3.945913   5.273576   5.671367   7.053952
    20  H    4.034548   2.693365   2.159507   1.085027   2.149131
    21  H    5.788075   4.623769   3.404240   2.145440   1.084075
    22  H    6.088610   5.342049   3.884408   3.398069   2.155254
    23  H    4.821906   4.629892   3.404171   3.876182   3.402290
    24  H    2.440235   2.692478   2.152151   3.402938   3.876694
    25  H    3.267825   2.205441   3.044106   3.062928   4.415427
    26  H    6.025384   6.451231   7.881318   8.623896   9.992756
    27  H    6.177651   6.927662   8.325653   9.284055  10.605652
    28  H    4.839174   5.438676   6.802956   7.696494   9.005893
    29  H    4.569540   5.566228   6.860444   7.987177   9.224318
    30  H    3.598824   4.702145   5.983457   7.179050   8.399460
    31  H    5.378607   6.439332   7.755669   8.918968  10.165070
                   11         12         13         14         15
    11  C    0.000000
    12  C    1.396273   0.000000
    13  C    2.417291   1.391641   0.000000
    14  C    5.286198   5.005778   3.809802   0.000000
    15  N    9.739213   8.996270   7.605507   4.910618   0.000000
    16  C   10.209718   9.507058   8.133242   5.353623   1.465896
    17  C    9.478065   8.564534   7.187517   5.203352   1.470548
    18  O   10.078595   9.650474   8.328923   4.841490   2.526481
    19  H    7.949587   7.676252   6.430228   2.683525   3.470893
    20  H    3.399177   3.875922   3.407409   2.804438   7.714390
    21  H    2.156518   3.401609   3.877139   5.157370  10.023767
    22  H    1.084538   2.155200   3.399584   6.354232  10.819059
    23  H    2.155621   1.085286   2.147104   5.937269   9.607356
    24  H    3.402538   2.155114   1.083660   4.053967   7.153009
    25  H    5.439904   5.432021   4.406383   1.078297   5.558085
    26  H   10.648953  10.064579   8.706498   5.578299   2.094894
    27  H   11.055929  10.272669   8.900070   6.357034   2.075238
    28  H    9.502665   8.802320   7.455918   4.855464   2.133668
    29  H    9.483529   8.564308   7.212511   5.366613   2.093959
    30  H    8.607167   7.646760   6.278927   4.642937   2.134931
    31  H   10.394067   9.423507   8.060843   6.223272   2.067301
                   16         17         18         19         20
    16  C    0.000000
    17  C    2.489437   0.000000
    18  O    3.006938   3.863469   0.000000
    19  H    3.716164   4.475239   2.437058   0.000000
    20  H    8.099116   7.936126   7.386453   5.095801   0.000000
    21  H   10.420766  10.071846   9.836654   7.562955   2.469619
    22  H   11.284213  10.532646  11.149556   9.006358   4.293631
    23  H   10.133801   9.034646  10.454894   8.574914   4.961208
    24  H    7.714461   6.557992   8.180746   6.493121   4.299092
    25  H    5.914810   6.048353   5.017045   2.695964   2.400676
    26  H    1.088607   3.406098   2.525914   3.492061   8.253140
    27  H    1.090780   2.689251   3.850310   4.803831   9.104283
    28  H    1.095880   2.822160   3.627637   3.602754   7.506961
    29  H    3.399223   1.087209   4.030500   4.775502   8.017778
    30  H    2.841520   1.093696   4.408851   4.423995   7.283549
    31  H    2.660196   1.092056   4.529510   5.384770   8.953053
                   21         22         23         24         25
    21  H    0.000000
    22  H    2.484884   0.000000
    23  H    4.300160   2.484301   0.000000
    24  H    4.960760   4.299017   2.479972   0.000000
    25  H    4.869517   6.455819   6.444816   4.848172   0.000000
    26  H   10.647097  11.725222  10.768275   8.397225   5.956464
    27  H   11.382682  12.122200  10.827454   8.387934   6.968886
    28  H    9.756403  10.562629   9.421567   7.054392   5.454194
    29  H   10.104488  10.524022   9.014216   6.579387   6.207905
    30  H    9.317462   9.650191   8.084705   5.608801   5.581936
    31  H   11.063080  11.436776   9.828085   7.360969   7.068226
                   26         27         28         29         30
    26  H    0.000000
    27  H    1.772930   0.000000
    28  H    1.786703   1.782884   0.000000
    29  H    4.175650   3.631475   3.818989   0.000000
    30  H    3.828793   3.157107   2.740272   1.781160   0.000000
    31  H    3.622095   2.395517   3.091721   1.778047   1.795001
[...]
 Alpha virt. eigenvalues --    0.78066   0.79237   0.80182   0.81707   0.82938
 Alpha virt. eigenvalues --    0.83021   0.83436   0.83987   0.84615   0.85885
 Alpha virt. eigenvalues --    0.86718   0.87149   0.88473   0.89417   0.89945
 Alpha virt. eigenvalues --    0.90365   0.91420   0.92135   0.93194   0.94449
 Alpha virt. eigenvalues --    0.95092   0.95344   0.96642   0.97609   0.98187
 Alpha virt. eigenvalues --    1.00642   1.01198   1.03321   1.04546   1.04958
 Alpha virt. eigenvalues --    1.07538   1.09140   1.09275   1.10747   1.13549
 Alpha virt. eigenvalues --    1.14009   1.15137   1.16624   1.17541   1.18421
 Alpha virt. eigenvalues --    1.20373   1.22440   1.23945   1.25993   1.28854
 Alpha virt. eigenvalues --    1.30278   1.31250   1.33514   1.35110   1.36444
 Alpha virt. eigenvalues --    1.37055   1.40931   1.41575   1.42090   1.44600
 Alpha virt. eigenvalues --    1.45403   1.46787   1.47989   1.48229   1.48808
 Alpha virt. eigenvalues --    1.49822   1.50084   1.53511   1.56173   1.58000
 Alpha virt. eigenvalues --    1.61835   1.68682   1.71064   1.72851   1.77013
 Alpha virt. eigenvalues --    1.77955   1.78540   1.79063   1.80470   1.80725
 Alpha virt. eigenvalues --    1.81903   1.85027   1.86161   1.88399   1.89246
 Alpha virt. eigenvalues --    1.91789   1.92410   1.94106   1.96025   1.96088
 Alpha virt. eigenvalues --    1.96689   1.97558   1.98515   1.99715   2.00606
 Alpha virt. eigenvalues --    2.04469   2.05412   2.07632   2.09609   2.10275
 Alpha virt. eigenvalues --    2.10910   2.11705   2.13091   2.13504   2.14361
 Alpha virt. eigenvalues --    2.17807   2.19331   2.20912   2.22569   2.23396
 Alpha virt. eigenvalues --    2.24129   2.25493   2.27111   2.27838   2.29753
 Alpha virt. eigenvalues --    2.29958   2.33401   2.34770   2.35787   2.41713
 Alpha virt. eigenvalues --    2.42970   2.48219   2.51419   2.53366   2.53526
 Alpha virt. eigenvalues --    2.57060   2.58000   2.60076   2.60377   2.62670
 Alpha virt. eigenvalues --    2.65992   2.66739   2.70576   2.71914   2.73743
 Alpha virt. eigenvalues --    2.74290   2.75852   2.77756   2.83618   2.87303
 Alpha virt. eigenvalues --    2.89238   2.92934   3.02488   3.05994   3.12988
 Alpha virt. eigenvalues --    3.27078   3.42682   3.71403   3.82707   3.97860
 Alpha virt. eigenvalues --    4.00651   4.04625   4.07704   4.09470   4.10586
 Alpha virt. eigenvalues --    4.13905   4.17083   4.23155   4.28962   4.31411
 Alpha virt. eigenvalues --    4.31818   4.38976   4.40287   4.56428   4.73978
          Condensed to atoms (all electrons):
               1          2          3          4          5          6
     1  O    8.220142   0.449236  -0.057244   0.009927  -0.002553  -0.000008
     2  S    0.449236  13.518665   0.110758  -0.008742   0.004849  -0.000256
     3  N   -0.057244   0.110758   7.475447   0.224089  -0.072959   0.005447
     4  C    0.009927  -0.008742   0.224089   4.523427   0.376572  -0.028932
     5  N   -0.002553   0.004849  -0.072959   0.376572   6.927920   0.111567
     6  O   -0.000008  -0.000256   0.005447  -0.028932   0.111567   8.200101
     7  C    0.000019   0.000230   0.000280  -0.024467  -0.079015   0.247788
     8  C    0.000000  -0.000012  -0.000209   0.003021   0.004080  -0.037690
     9  C    0.000000   0.000000   0.000003   0.000620  -0.000099   0.003167
    10  C    0.000000   0.000000   0.000000  -0.000006   0.000001  -0.000060
    11  C    0.000000   0.000000   0.000000   0.000000   0.000000   0.000001
    12  C    0.000000   0.000000   0.000000   0.000005   0.000000   0.000294
    13  C    0.000000   0.000000  -0.000001  -0.000336   0.000140  -0.006665
    14  C    0.000052   0.000888  -0.060953   0.441633  -0.039298  -0.097964
    15  N   -0.053875   0.187274  -0.054109  -0.008948   0.003237   0.000018
    16  C    0.001520  -0.019296   0.003035   0.000456  -0.000468   0.000001
    17  C   -0.003695  -0.019220   0.000001   0.001583  -0.010779   0.000102
    18  O   -0.040042   0.461558  -0.057539   0.001732  -0.000020   0.000000
    19  H    0.000077  -0.010018   0.305048  -0.022384   0.003072  -0.000068
    20  H    0.000000   0.000000  -0.000001   0.000085  -0.000005   0.000023
    21  H    0.000000   0.000000   0.000000   0.000000   0.000000   0.000000
    22  H    0.000000   0.000000   0.000000   0.000000   0.000000   0.000000
    23  H    0.000000   0.000000   0.000000   0.000000   0.000000  -0.000003
    24  H    0.000000   0.000000   0.000000   0.000068  -0.000268   0.009843
    25  H    0.000001  -0.000122  -0.001746  -0.026951   0.004572   0.003405
    26  H    0.000059   0.004004  -0.001836  -0.000024   0.000009   0.000000
    27  H   -0.000050   0.002474   0.000066  -0.000044   0.000007   0.000000
    28  H   -0.000017  -0.009241   0.004781   0.001626   0.000143  -0.000007
    29  H    0.009584  -0.004301   0.000051  -0.000119  -0.000155   0.000003
    30  H   -0.000175  -0.007333   0.001101   0.001198   0.016600  -0.000553
    31  H    0.000204   0.003670  -0.000134  -0.000053   0.000317  -0.000001
               7          8          9         10         11         12
     1  O    0.000019   0.000000   0.000000   0.000000   0.000000   0.000000
     2  S    0.000230  -0.000012   0.000000   0.000000   0.000000   0.000000
     3  N    0.000280  -0.000209   0.000003   0.000000   0.000000   0.000000
     4  C   -0.024467   0.003021   0.000620  -0.000006   0.000000   0.000005
     5  N   -0.079015   0.004080  -0.000099   0.000001   0.000000   0.000000
     6  O    0.247788  -0.037690   0.003167  -0.000060   0.000001   0.000294
     7  C    4.731942   0.343236  -0.042332   0.006380   0.000896   0.004795
     8  C    0.343236   4.780467   0.536474  -0.009925  -0.033811  -0.008929
     9  C   -0.042332   0.536474   5.008850   0.521780  -0.039359  -0.041636
    10  C    0.006380  -0.009925   0.521780   4.869283   0.542735  -0.024943
    11  C    0.000896  -0.033811  -0.039359   0.542735   4.862487   0.541504
    12  C    0.004795  -0.008929  -0.041636  -0.024943   0.541504   4.881956
    13  C   -0.040736   0.475352  -0.082818  -0.042330  -0.036963   0.505867
    14  C    0.510865  -0.058248  -0.020592   0.000206   0.000015  -0.000234
    15  N   -0.000006   0.000000   0.000000   0.000000   0.000000   0.000000
    16  C    0.000000   0.000000   0.000000   0.000000   0.000000   0.000000
    17  C   -0.000010   0.000000   0.000000   0.000000   0.000000   0.000000
    18  O    0.000000   0.000000   0.000000   0.000000   0.000000   0.000000
    19  H    0.000004  -0.000004   0.000000   0.000000   0.000000   0.000000
    20  H   -0.012881  -0.037942   0.354723  -0.042017   0.004563   0.000199
    21  H   -0.000208   0.003231  -0.037666   0.361530  -0.040932   0.004402
    22  H    0.000003   0.000529   0.004849  -0.041853   0.363111  -0.041688
    23  H   -0.000177   0.003168   0.000823   0.004412  -0.041114   0.361971
    24  H   -0.013164  -0.041498   0.005402   0.000232   0.004502  -0.041704
    25  H   -0.024663  -0.003515   0.001290   0.000087  -0.000001   0.000002
    26  H    0.000000   0.000000   0.000000   0.000000   0.000000   0.000000
    27  H    0.000000   0.000000   0.000000   0.000000   0.000000   0.000000
    28  H    0.000001   0.000000   0.000000   0.000000   0.000000   0.000000
    29  H    0.000000   0.000000   0.000000   0.000000   0.000000   0.000000
    30  H    0.000061   0.000000   0.000000   0.000000   0.000000   0.000000
    31  H    0.000000   0.000000   0.000000   0.000000   0.000000   0.000000
              13         14         15         16         17         18
     1  O    0.000000   0.000052  -0.053875   0.001520  -0.003695  -0.040042
     2  S    0.000000   0.000888   0.187274  -0.019296  -0.019220   0.461558
     3  N   -0.000001  -0.060953  -0.054109   0.003035   0.000001  -0.057539
     4  C   -0.000336   0.441633  -0.008948   0.000456   0.001583   0.001732
     5  N    0.000140  -0.039298   0.003237  -0.000468  -0.010779  -0.000020
     6  O   -0.006665  -0.097964   0.000018   0.000001   0.000102   0.000000
     7  C   -0.040736   0.510865  -0.000006   0.000000  -0.000010   0.000000
     8  C    0.475352  -0.058248   0.000000   0.000000   0.000000   0.000000
     9  C   -0.082818  -0.020592   0.000000   0.000000   0.000000   0.000000
    10  C   -0.042330   0.000206   0.000000   0.000000   0.000000   0.000000
    11  C   -0.036963   0.000015   0.000000   0.000000   0.000000   0.000000
    12  C    0.505867  -0.000234   0.000000   0.000000   0.000000   0.000000
    13  C    5.051687   0.012113   0.000000   0.000000   0.000000   0.000000
    14  C    0.012113   5.262448  -0.000116  -0.000006  -0.000019  -0.000054
    15  N    0.000000  -0.000116   7.175875   0.273833   0.269798  -0.055804
    16  C    0.000000  -0.000006   0.273833   4.992871  -0.046200  -0.007534
    17  C    0.000000  -0.000019   0.269798  -0.046200   5.016592   0.001335
    18  O    0.000000  -0.000054  -0.055804  -0.007534   0.001335   8.245646
    19  H    0.000000  -0.003829   0.001999  -0.000177  -0.000030   0.005244
    20  H    0.005782   0.006132   0.000000   0.000000   0.000000   0.000000
    21  H    0.000831  -0.000001   0.000000   0.000000   0.000000   0.000000
    22  H    0.004666   0.000000   0.000000   0.000000   0.000000   0.000000
    23  H   -0.037550   0.000001   0.000000   0.000000   0.000000   0.000000
    24  H    0.361493   0.000260   0.000000   0.000000   0.000000   0.000000
    25  H   -0.000115   0.350274   0.000000   0.000000   0.000000  -0.000001
    26  H    0.000000   0.000000  -0.034648   0.374305   0.004310   0.009956
    27  H    0.000000   0.000000  -0.034162   0.376327  -0.004291   0.000024
    28  H    0.000000   0.000020  -0.047353   0.377502  -0.000182  -0.000199
    29  H    0.000000  -0.000003  -0.030990   0.004223   0.379413   0.000029
    30  H    0.000000   0.000148  -0.045208  -0.000266   0.368487  -0.000075
    31  H    0.000000   0.000000  -0.036488  -0.004499   0.368445  -0.000043
              19         20         21         22         23         24
     1  O    0.000077   0.000000   0.000000   0.000000   0.000000   0.000000
     2  S   -0.010018   0.000000   0.000000   0.000000   0.000000   0.000000
     3  N    0.305048  -0.000001   0.000000   0.000000   0.000000   0.000000
     4  C   -0.022384   0.000085   0.000000   0.000000   0.000000   0.000068
     5  N    0.003072  -0.000005   0.000000   0.000000   0.000000  -0.000268
     6  O   -0.000068   0.000023   0.000000   0.000000  -0.000003   0.009843
     7  C    0.000004  -0.012881  -0.000208   0.000003  -0.000177  -0.013164
     8  C   -0.000004  -0.037942   0.003231   0.000529   0.003168  -0.041498
     9  C    0.000000   0.354723  -0.037666   0.004849   0.000823   0.005402
    10  C    0.000000  -0.042017   0.361530  -0.041853   0.004412   0.000232
    11  C    0.000000   0.004563  -0.040932   0.363111  -0.041114   0.004502
    12  C    0.000000   0.000199   0.004402  -0.041688   0.361971  -0.041704
    13  C    0.000000   0.005782   0.000831   0.004666  -0.037550   0.361493
    14  C   -0.003829   0.006132  -0.000001   0.000000   0.000001   0.000260
    15  N    0.001999   0.000000   0.000000   0.000000   0.000000   0.000000
    16  C   -0.000177   0.000000   0.000000   0.000000   0.000000   0.000000
    17  C   -0.000030   0.000000   0.000000   0.000000   0.000000   0.000000
    18  O    0.005244   0.000000   0.000000   0.000000   0.000000   0.000000
    19  H    0.325055   0.000000   0.000000   0.000000   0.000000   0.000000
    20  H    0.000000   0.571473  -0.005011  -0.000162   0.000015  -0.000145
    21  H    0.000000  -0.005011   0.566601  -0.005190  -0.000168   0.000015
    22  H    0.000000  -0.000162  -0.005190   0.569564  -0.005188  -0.000153
    23  H    0.000000   0.000015  -0.000168  -0.005188   0.566210  -0.004876
    24  H    0.000000  -0.000145   0.000015  -0.000153  -0.004876   0.556667
    25  H    0.001718   0.002085  -0.000002   0.000000   0.000000  -0.000008
    26  H   -0.000026   0.000000   0.000000   0.000000   0.000000   0.000000
    27  H    0.000009   0.000000   0.000000   0.000000   0.000000   0.000000
    28  H   -0.000238   0.000000   0.000000   0.000000   0.000000   0.000000
    29  H    0.000000   0.000000   0.000000   0.000000   0.000000   0.000000
    30  H   -0.000042   0.000000   0.000000   0.000000   0.000000   0.000000
    31  H    0.000003   0.000000   0.000000   0.000000   0.000000   0.000000
              25         26         27         28         29         30
     1  O    0.000001   0.000059  -0.000050  -0.000017   0.009584  -0.000175
     2  S   -0.000122   0.004004   0.002474  -0.009241  -0.004301  -0.007333
     3  N   -0.001746  -0.001836   0.000066   0.004781   0.000051   0.001101
     4  C   -0.026951  -0.000024  -0.000044   0.001626  -0.000119   0.001198
     5  N    0.004572   0.000009   0.000007   0.000143  -0.000155   0.016600
     6  O    0.003405   0.000000   0.000000  -0.000007   0.000003  -0.000553
     7  C   -0.024663   0.000000   0.000000   0.000001   0.000000   0.000061
     8  C   -0.003515   0.000000   0.000000   0.000000   0.000000   0.000000
     9  C    0.001290   0.000000   0.000000   0.000000   0.000000   0.000000
    10  C    0.000087   0.000000   0.000000   0.000000   0.000000   0.000000
    11  C   -0.000001   0.000000   0.000000   0.000000   0.000000   0.000000
    12  C    0.000002   0.000000   0.000000   0.000000   0.000000   0.000000
    13  C   -0.000115   0.000000   0.000000   0.000000   0.000000   0.000000
    14  C    0.350274   0.000000   0.000000   0.000020  -0.000003   0.000148
    15  N    0.000000  -0.034648  -0.034162  -0.047353  -0.030990  -0.045208
    16  C    0.000000   0.374305   0.376327   0.377502   0.004223  -0.000266
    17  C    0.000000   0.004310  -0.004291  -0.000182   0.379413   0.368487
    18  O   -0.000001   0.009956   0.000024  -0.000199   0.000029  -0.000075
    19  H    0.001718  -0.000026   0.000009  -0.000238   0.000000  -0.000042
    20  H    0.002085   0.000000   0.000000   0.000000   0.000000   0.000000
    21  H   -0.000002   0.000000   0.000000   0.000000   0.000000   0.000000
    22  H    0.000000   0.000000   0.000000   0.000000   0.000000   0.000000
    23  H    0.000000   0.000000   0.000000   0.000000   0.000000   0.000000
    24  H   -0.000008   0.000000   0.000000   0.000000   0.000000   0.000000
    25  H    0.511812   0.000000   0.000000   0.000000   0.000000  -0.000001
    26  H    0.000000   0.499461  -0.021516  -0.029887  -0.000191  -0.000181
    27  H    0.000000  -0.021516   0.530907  -0.036359   0.000048  -0.001138
    28  H    0.000000  -0.029887  -0.036359   0.561444  -0.000169   0.006142
    29  H    0.000000  -0.000191   0.000048  -0.000169   0.497958  -0.027926
    30  H   -0.000001  -0.000181  -0.001138   0.006142  -0.027926   0.531731
    31  H    0.000000   0.000048   0.005431  -0.001408  -0.022440  -0.033333
              31
     1  O    0.000204
     2  S    0.003670
     3  N   -0.000134
     4  C   -0.000053
     5  N    0.000317
     6  O   -0.000001
     7  C    0.000000
     8  C    0.000000
     9  C    0.000000
    10  C    0.000000
    11  C    0.000000
    12  C    0.000000
    13  C    0.000000
    14  C    0.000000
    15  N   -0.036488
    16  C   -0.004499
    17  C    0.368445
    18  O   -0.000043
    19  H    0.000003
    20  H    0.000000
    21  H    0.000000
    22  H    0.000000
    23  H    0.000000
    24  H    0.000000
    25  H    0.000000
    26  H    0.000048
    27  H    0.005431
    28  H   -0.001408
    29  H   -0.022440
    30  H   -0.033333
    31  H    0.548567
 Mulliken charges:
               1
     1  O   -0.533159
     2  S    1.334935
     3  N   -0.823377
     4  C    0.534964
     5  N   -0.247465
     6  O   -0.409553
     7  C    0.391159
     8  C    0.082226
     9  C   -0.173482
    10  C   -0.145513
    11  C   -0.127635
    12  C   -0.141861
    13  C   -0.170418
    14  C   -0.303739
    15  N   -0.510327
    16  C   -0.325629
    17  C   -0.325640
    18  O   -0.564213
    19  H    0.394587
    20  H    0.153084
    21  H    0.152568
    22  H    0.151514
    23  H    0.152474
    24  H    0.163336
    25  H    0.181879
    26  H    0.196156
    27  H    0.182268
    28  H    0.173400
    29  H    0.194983
    30  H    0.190763
    31  H    0.171713
 Sum of Mulliken charges =   0.00000
 Mulliken charges with hydrogens summed into heavy atoms:
               1
     1  O   -0.533159
     2  S    1.334935
     3  N   -0.428791
     4  C    0.534964
     5  N   -0.247465
     6  O   -0.409553
     7  C    0.391159
     8  C    0.082226
     9  C   -0.020397
    10  C    0.007056
    11  C    0.023879
    12  C    0.010613
    13  C   -0.007081
    14  C   -0.121860
    15  N   -0.510327
    16  C    0.226196
    17  C    0.231819
    18  O   -0.564213
 Electronic spatial extent (au):  <R**2>=           7043.9226
 Charge=              0.0000 electrons
 Dipole moment (field-independent basis, Debye):
    X=             -4.5687    Y=             -0.1627    Z=             -3.9415  Tot=              6.0362
 Quadrupole moment (field-independent basis, Debye-Ang):
   XX=            -99.0360   YY=           -101.2920   ZZ=           -116.0948
   XY=             14.2414   XZ=            -11.9725   YZ=              3.5891
 Traceless Quadrupole moment (field-independent basis, Debye-Ang):
   XX=              6.4383   YY=              4.1823   ZZ=            -10.6205
   XY=             14.2414   XZ=            -11.9725   YZ=              3.5891
 Octapole moment (field-independent basis, Debye-Ang**2):
  XXX=           -119.6953  YYY=             -4.7185  ZZZ=             -6.7681  XYY=             -6.5212
  XXY=             58.7884  XXZ=            -35.8778  XZZ=             26.3742  YZZ=              2.7963
  YYZ=             -3.5380  XYZ=             -3.2714
 Hexadecapole moment (field-independent basis, Debye-Ang**3):
 XXXX=          -7282.2565 YYYY=           -835.1908 ZZZZ=           -415.8741 XXXY=            231.4698
 XXXZ=           -174.3954 YYYX=             30.8202 YYYZ=             19.7659 ZZZX=            -26.6210
 ZZZY=              0.0502 XXYY=          -1386.6894 XXZZ=          -1466.3909 YYZZ=           -215.2125
 XXYZ=             27.9215 YYXZ=             -5.6490 ZZXY=              1.4688
 N-N= 1.450783792467D+03 E-N=-5.748823763442D+03  KE= 1.205942872151D+03
 No NMR shielding tensors so no spin-rotation constants.
 Leave Link  601 at Thu Aug  6 22:20:37 2020, MaxMem=    33554432 cpu:         0.2
 (Enter /prod/apps/gaussian/g09d1/l9999.exe)
 1\1\GINC-PIRINEUS11\SP\RB3LYP\6-31G(d)\C11H13N3O3S1\UBAFAR01\06-Aug-20
 20\0\\#p b3lyp/6-31G(d) scrf=(iefpcm,read,solvent=n-Octanol) geom=allc
 heck guess=read\\SM43.n.8.pdb.xyz\\0,1\O,0,1.105,-3.366,1.723\S,0,2.36
 9,-2.737,1.35\N,0,2.446,-1.137,1.97\C,0,1.877,-0.755,3.185\N,0,1.989,-
 1.513,4.258\O,0,1.327,-0.804,5.268\C,0,0.862,0.367,4.773\C,0,0.152,1.2
 49,5.691\C,0,-0.377,2.466,5.231\C,0,-1.055,3.31,6.104\C,0,-1.214,2.951
 ,7.445\C,0,-0.691,1.742,7.908\C,0,-0.011,0.894,7.039\C,0,1.177,0.454,3
 .446\N,0,3.584,-3.597,2.064\C,0,4.933,-3.042,1.919\C,0,3.307,-4.292,3.
 33\O,0,2.723,-2.516,-0.051\H,0,2.348,-0.467,1.214\H,0,-0.256,2.747,4.1
 9\H,0,-1.46,4.247,5.739\H,0,-1.744,3.61,8.124\H,0,-0.812,1.46,8.949\H,
 0,0.398,-0.045,7.393\H,0,0.945,1.246,2.752\H,0,5.055,-2.652,0.91\H,0,5
 .643,-3.856,2.071\H,0,5.131,-2.249,2.649\H,0,2.339,-4.782,3.26\H,0,3.3
 08,-3.605,4.181\H,0,4.087,-5.047,3.449\\Version=AM64L-G09RevD.01\State
 =1-A\HF=-1215.009288\RMSD=4.948e-09\Dipole=0.4925683,2.0023728,1.17795
 9\Quadrupole=3.6422387,4.1133101,-7.7555488,-11.7626849,-5.3647702,-5.
 7981502\PG=C01 [X(C11H13N3O3S1)]\\@


 This summer one third of the nation will be ill-housed
 ill-nourished and ill-clad. Only they call it a vacation.
 -- Jonas Salk
 Job cpu time:       0 days  0 hours  2 minutes 41.6 seconds.
 File lengths (MBytes):  RWF=    159 Int=      0 D2E=      0 Chk=      6 Scr=      1
 Normal termination of Gaussian 09 at Thu Aug  6 22:20:37 2020.
