 Entering Gaussian System, Link 0=g09
 Initial command:
 /prod/apps/gaussian/g09d1/l1.exe "/tmp/ubafar01/1448659/Gau-9618.inp" -scrdir="/tmp/ubafar01/1448659/"
 Entering Link 1 = /prod/apps/gaussian/g09d1/l1.exe PID=      9621.
  
 Copyright (c) 1988,1990,1992,1993,1995,1998,2003,2009,2013,
            Gaussian, Inc.  All Rights Reserved.
  
 This is part of the Gaussian(R) 09 program.  It is based on
 the Gaussian(R) 03 system (copyright 2003, Gaussian, Inc.),
 the Gaussian(R) 98 system (copyright 1998, Gaussian, Inc.),
 the Gaussian(R) 94 system (copyright 1995, Gaussian, Inc.),
 the Gaussian 92(TM) system (copyright 1992, Gaussian, Inc.),
 the Gaussian 90(TM) system (copyright 1990, Gaussian, Inc.),
 the Gaussian 88(TM) system (copyright 1988, Gaussian, Inc.),
 the Gaussian 86(TM) system (copyright 1986, Carnegie Mellon
 University), and the Gaussian 82(TM) system (copyright 1983,
 Carnegie Mellon University). Gaussian is a federally registered
 trademark of Gaussian, Inc.
  
 This software contains proprietary and confidential information,
 including trade secrets, belonging to Gaussian, Inc.
  
 This software is provided under written license and may be
 used, copied, transmitted, or stored only in accord with that
 written license.
  
 The following legend is applicable only to US Government
 contracts under FAR:
  
                    RESTRICTED RIGHTS LEGEND
  
 Use, reproduction and disclosure by the US Government is
 subject to restrictions as set forth in subparagraphs (a)
 and (c) of the Commercial Computer Software - Restricted
 Rights clause in FAR 52.227-19.
  
 Gaussian, Inc.
 340 Quinnipiac St., Bldg. 40, Wallingford CT 06492
  
  
 ---------------------------------------------------------------
 Warning -- This program may not be used in any manner that
 competes with the business of Gaussian, Inc. or will provide
 assistance to any competitor of Gaussian, Inc.  The licensee
 of this program is prohibited from giving any competitor of
 Gaussian, Inc. access to this program.  By using this program,
 the user acknowledges that Gaussian, Inc. is engaged in the
 business of creating and licensing software in the field of
 computational chemistry and represents and warrants to the
 licensee that it is not a competitor of Gaussian, Inc. and that
 it will not use this program in any manner prohibited above.
 ---------------------------------------------------------------
  

 Cite this work as:
 Gaussian 09, Revision D.01,
 M. J. Frisch, G. W. Trucks, H. B. Schlegel, G. E. Scuseria, 
 M. A. Robb, J. R. Cheeseman, G. Scalmani, V. Barone, B. Mennucci, 
 G. A. Petersson, H. Nakatsuji, M. Caricato, X. Li, H. P. Hratchian, 
 A. F. Izmaylov, J. Bloino, G. Zheng, J. L. Sonnenberg, M. Hada, 
 M. Ehara, K. Toyota, R. Fukuda, J. Hasegawa, M. Ishida, T. Nakajima, 
 Y. Honda, O. Kitao, H. Nakai, T. Vreven, J. A. Montgomery, Jr., 
 J. E. Peralta, F. Ogliaro, M. Bearpark, J. J. Heyd, E. Brothers, 
 K. N. Kudin, V. N. Staroverov, T. Keith, R. Kobayashi, J. Normand, 
 K. Raghavachari, A. Rendell, J. C. Burant, S. S. Iyengar, J. Tomasi, 
 M. Cossi, N. Rega, J. M. Millam, M. Klene, J. E. Knox, J. B. Cross, 
 V. Bakken, C. Adamo, J. Jaramillo, R. Gomperts, R. E. Stratmann, 
 O. Yazyev, A. J. Austin, R. Cammi, C. Pomelli, J. W. Ochterski, 
 R. L. Martin, K. Morokuma, V. G. Zakrzewski, G. A. Voth, 
 P. Salvador, J. J. Dannenberg, S. Dapprich, A. D. Daniels, 
 O. Farkas, J. B. Foresman, J. V. Ortiz, J. Cioslowski, 
 and D. J. Fox, Gaussian, Inc., Wallingford CT, 2013.
 
 ******************************************
 Gaussian 09:  AM64L-G09RevD.01 24-Apr-2013
                 6-Aug-2020 
 ******************************************
 %nproc=1
 Will use up to    1 processors via shared memory.
 %Chk=SM43.n.7.pdb.xyz.mst.n.o.chk
 -----------------
 #p b3lyp/6-31G(d)
 -----------------
 1/38=1/1;
 2/12=2,17=6,18=5,40=1/2;
 3/5=1,6=6,7=1,11=2,16=1,25=1,30=1,74=-5/1,2,3;
 4//1;
 5/5=2,38=5/2;
 6/7=2,8=2,9=2,10=2,28=1/1;
 99/5=1,9=1/99;
 Leave Link    1 at Thu Aug  6 22:14:16 2020, MaxMem=           0 cpu:         0.0
 (Enter /prod/apps/gaussian/g09d1/l101.exe)
 ----------------
 SM43.n.7.pdb.xyz
 ----------------
 Symbolic Z-matrix:
 Charge =  0 Multiplicity = 1
 O                     3.869    -0.515    -0.219 
 S                     3.392     0.403     0.808 
 N                     3.583    -0.385     2.284 
 C                     2.873    -0.085     3.45 
 N                     3.486    -0.239     4.609 
 O                     2.505     0.039     5.568 
 C                     1.345     0.37      4.95 
 C                     0.204     0.705     5.797 
 C                     0.317     0.669     7.196 
 C                    -0.777     0.992     7.994 
 C                    -1.993     1.353     7.409 
 C                    -2.11      1.39      6.017 
 C                    -1.02      1.069     5.215 
 C                     1.515     0.303     3.594 
 N                     4.524     1.644     0.897 
 C                     5.023     2.112    -0.405 
 C                     4.171     2.726     1.825 
 O                     2.012     0.893     0.786 
 H                     4.535    -0.712     2.436 
 H                     1.262     0.388     7.645 
 H                    -0.681     0.961     9.074 
 H                    -2.844     1.603     8.033 
 H                    -3.051     1.669     5.556 
 H                    -1.116     1.1       4.135 
 H                     0.81      0.499     2.806 
 H                     5.298     1.255    -1.015 
 H                     5.913     2.714    -0.21 
 H                     4.29      2.727    -0.941 
 H                     3.912     2.312     2.8 
 H                     3.341     3.341     1.458 
 H                     5.058     3.351     1.944 
 
 NAtoms=     31 NQM=       31 NQMF=       0 NMMI=      0 NMMIF=      0
                NMic=       0 NMicF=      0.
                    Isotopes and Nuclear Properties:
 (Nuclear quadrupole moments (NQMom) in fm**2, nuclear magnetic moments (NMagM)
  in nuclear magnetons)

  Atom         1           2           3           4           5           6           7           8           9          10
 IAtWgt=          16          32          14          12          14          16          12          12          12          12
 AtmWgt=  15.9949146  31.9720718  14.0030740  12.0000000  14.0030740  15.9949146  12.0000000  12.0000000  12.0000000  12.0000000
 NucSpn=           0           0           2           0           2           0           0           0           0           0
 AtZEff=   0.0000000   0.0000000   0.0000000   0.0000000   0.0000000   0.0000000   0.0000000   0.0000000   0.0000000   0.0000000
 NQMom=    0.0000000   0.0000000   2.0440000   0.0000000   2.0440000   0.0000000   0.0000000   0.0000000   0.0000000   0.0000000
 NMagM=    0.0000000   0.0000000   0.4037610   0.0000000   0.4037610   0.0000000   0.0000000   0.0000000   0.0000000   0.0000000
 AtZNuc=   8.0000000  16.0000000   7.0000000   6.0000000   7.0000000   8.0000000   6.0000000   6.0000000   6.0000000   6.0000000

  Atom        11          12          13          14          15          16          17          18          19          20
 IAtWgt=          12          12          12          12          14          12          12          16           1           1
 AtmWgt=  12.0000000  12.0000000  12.0000000  12.0000000  14.0030740  12.0000000  12.0000000  15.9949146   1.0078250   1.0078250
 NucSpn=           0           0           0           0           2           0           0           0           1           1
 AtZEff=   0.0000000   0.0000000   0.0000000   0.0000000   0.0000000   0.0000000   0.0000000   0.0000000   0.0000000   0.0000000
 NQMom=    0.0000000   0.0000000   0.0000000   0.0000000   2.0440000   0.0000000   0.0000000   0.0000000   0.0000000   0.0000000
 NMagM=    0.0000000   0.0000000   0.0000000   0.0000000   0.4037610   0.0000000   0.0000000   0.0000000   2.7928460   2.7928460
 AtZNuc=   6.0000000   6.0000000   6.0000000   6.0000000   7.0000000   6.0000000   6.0000000   8.0000000   1.0000000   1.0000000

  Atom        21          22          23          24          25          26          27          28          29          30
 IAtWgt=           1           1           1           1           1           1           1           1           1           1
 AtmWgt=   1.0078250   1.0078250   1.0078250   1.0078250   1.0078250   1.0078250   1.0078250   1.0078250   1.0078250   1.0078250
 NucSpn=           1           1           1           1           1           1           1           1           1           1
 AtZEff=   0.0000000   0.0000000   0.0000000   0.0000000   0.0000000   0.0000000   0.0000000   0.0000000   0.0000000   0.0000000
 NQMom=    0.0000000   0.0000000   0.0000000   0.0000000   0.0000000   0.0000000   0.0000000   0.0000000   0.0000000   0.0000000
 NMagM=    2.7928460   2.7928460   2.7928460   2.7928460   2.7928460   2.7928460   2.7928460   2.7928460   2.7928460   2.7928460
 AtZNuc=   1.0000000   1.0000000   1.0000000   1.0000000   1.0000000   1.0000000   1.0000000   1.0000000   1.0000000   1.0000000

  Atom        31
 IAtWgt=           1
 AtmWgt=   1.0078250
 NucSpn=           1
 AtZEff=   0.0000000
 NQMom=    0.0000000
 NMagM=    2.7928460
 AtZNuc=   1.0000000
 Leave Link  101 at Thu Aug  6 22:14:16 2020, MaxMem=    33554432 cpu:         0.1
 (Enter /prod/apps/gaussian/g09d1/l202.exe)
                          Input orientation:                          
 ---------------------------------------------------------------------
 Center     Atomic      Atomic             Coordinates (Angstroms)
 Number     Number       Type             X           Y           Z
 ---------------------------------------------------------------------
      1          8           0        3.869000   -0.515000   -0.219000
      2         16           0        3.392000    0.403000    0.808000
      3          7           0        3.583000   -0.385000    2.284000
      4          6           0        2.873000   -0.085000    3.450000
      5          7           0        3.486000   -0.239000    4.609000
      6          8           0        2.505000    0.039000    5.568000
      7          6           0        1.345000    0.370000    4.950000
      8          6           0        0.204000    0.705000    5.797000
      9          6           0        0.317000    0.669000    7.196000
     10          6           0       -0.777000    0.992000    7.994000
     11          6           0       -1.993000    1.353000    7.409000
     12          6           0       -2.110000    1.390000    6.017000
     13          6           0       -1.020000    1.069000    5.215000
     14          6           0        1.515000    0.303000    3.594000
     15          7           0        4.524000    1.644000    0.897000
     16          6           0        5.023000    2.112000   -0.405000
     17          6           0        4.171000    2.726000    1.825000
     18          8           0        2.012000    0.893000    0.786000
     19          1           0        4.535000   -0.712000    2.436000
     20          1           0        1.262000    0.388000    7.645000
     21          1           0       -0.681000    0.961000    9.074000
     22          1           0       -2.844000    1.603000    8.033000
     23          1           0       -3.051000    1.669000    5.556000
     24          1           0       -1.116000    1.100000    4.135000
     25          1           0        0.810000    0.499000    2.806000
     26          1           0        5.298000    1.255000   -1.015000
     27          1           0        5.913000    2.714000   -0.210000
     28          1           0        4.290000    2.727000   -0.941000
     29          1           0        3.912000    2.312000    2.800000
     30          1           0        3.341000    3.341000    1.458000
     31          1           0        5.058000    3.351000    1.944000
 ---------------------------------------------------------------------
                    Distance matrix (angstroms):
                    1          2          3          4          5
     1  O    0.000000
     2  S    1.457732   0.000000
     3  N    2.522638   1.684043   0.000000
     4  C    3.826026   2.736361   1.397732   0.000000
     5  N    4.851026   3.855982   2.331598   1.320139   0.000000
     6  O    5.971330   4.855601   3.482315   2.153305   1.399759
     7  C    5.819997   4.620331   3.561773   2.189020   2.251898
     8  C    7.149327   5.928294   4.994688   3.640889   3.615799
     9  C    8.306671   7.094570   5.992113   4.597191   4.190417
    10  C    9.555613   8.328630   7.315041   5.927087   5.580928
    11  C    9.799941   8.571693   7.770331   6.435797   6.355620
    12  C    8.846760   7.640671   7.035351   5.796154   5.995942
    13  C    7.479287   6.271439   5.647343   4.427459   4.730976
    14  C    4.555152   3.360792   2.542846   1.419663   2.282286
    15  N    2.517094   1.682090   2.631747   3.497578   4.289764
    16  C    2.875316   2.655600   3.941996   4.930551   5.747153
    17  C    3.843595   2.652821   3.199179   3.496734   4.124452
    18  O    2.537900   1.464576   2.518994   2.965586   4.250815
    19  H    2.744338   2.280364   1.018006   2.045377   2.458874
    20  H    8.333928   7.161124   5.892783   4.518526   3.815311
    21  H   10.451838   9.231871   8.130038   6.734568   6.224156
    22  H   10.846465   9.619164   8.849264   7.519130   7.428704
    23  H    9.273989   8.102994   7.676904   6.527291   6.875292
    24  H    6.812912   5.645954   5.264221   4.217294   4.816223
    25  H    4.419989   3.266182   2.956936   2.238696   3.310050
    26  H    2.410095   2.771655   4.063770   5.254755   6.094650
    27  H    3.821578   3.568261   4.610069   5.520109   6.150878
    28  H    3.347998   3.044073   4.537072   5.403343   6.343979
    29  H    4.136199   2.807623   2.765557   2.692142   3.156194
    30  H    4.237906   3.009476   3.824123   3.990559   4.771397
    31  H    4.586747   3.571660   4.030995   4.341469   4.739357
                    6          7          8          9         10
     6  O    0.000000
     7  C    1.355391   0.000000
     8  C    2.406366   1.459971   0.000000
     9  C    2.799041   2.488112   1.404018   0.000000
    10  C    4.191087   3.762407   2.423126   1.392110   0.000000
    11  C    5.034668   4.260894   2.800939   2.418538   1.396854
    12  C    4.829599   3.757115   2.423267   2.792886   2.417400
    13  C    3.689327   2.480333   1.403352   2.423207   2.790666
    14  C    2.224067   1.368256   2.594905   3.813602   5.008791
    15  N    5.335787   5.306216   6.599555   7.637203   8.882180
    16  C    6.805467   6.725940   7.979174   9.055600  10.268281
    17  C    4.899548   4.827280   5.966432   6.923309   8.096050
    18  O    4.882611   4.249390   5.330509   6.634101   7.729398
    19  H    3.807141   4.203215   5.662311   6.508171   7.874790
    20  H    2.445563   2.696338   2.152895   1.083322   2.155026
    21  H    4.826253   4.632638   3.404040   2.146661   1.084701
    22  H    6.093777   5.345362   3.885409   3.400713   2.155767
    23  H    5.790180   4.623792   3.403293   3.877244   3.401948
    24  H    4.036193   2.693259   2.158858   3.407194   3.875367
    25  H    3.273113   2.213504   3.058718   4.420865   5.447657
    26  H    7.253647   7.210455   8.523771   9.621553  10.869079
    27  H    7.221868   7.279187   8.527181   9.505055  10.725064
    28  H    7.264892   6.995167   8.135387   9.286057  10.417242
    29  H    3.848117   3.870834   5.031274   5.911708   7.120868
    30  H    5.337996   5.000492   5.967930   7.014899   8.074343
    31  H    5.533582   5.631054   6.738564   7.566618   8.730098
                   11         12         13         14         15
    11  C    0.000000
    12  C    1.397398   0.000000
    13  C    2.416820   1.390807   0.000000
    14  C    5.287985   4.493676   3.104935   0.000000
    15  N    9.217490   8.383846   7.050651   4.257484   0.000000
    16  C   10.528957   9.625126   8.318059   5.618767   1.470792
    17  C    8.429773   7.668684   6.417494   4.006822   1.468508
    18  O    7.753435   6.678417   5.370292   2.912039   2.624208
    19  H    8.462254   7.835687   6.461643   3.389925   2.814139
    20  H    3.403226   3.876180   3.402379   4.059783   7.599584
    21  H    2.155744   3.401666   3.875367   5.940183   9.717090
    22  H    1.084471   2.156010   3.399008   6.355753  10.257271
    23  H    2.157042   1.084363   2.145051   5.154004   8.893117
    24  H    3.398855   2.148036   1.084701   2.801794   6.526115
    25  H    5.456531   4.430666   3.078487   1.075353   4.330023
    26  H   11.141457  10.214975   8.874943   6.038234   2.099081
    27  H   11.063739  10.241925   8.955621   6.294898   2.073565
    28  H   10.539756   9.547844   8.297072   5.843169   2.146134
    29  H    7.551926   6.889387   5.630444   3.226783   2.107647
    30  H    8.235175   7.369144   6.188324   4.138383   2.143366
    31  H    9.141927   8.474377   7.269735   4.956375   2.072490
                   16         17         18         19         20
    16  C    0.000000
    17  C    2.464914   0.000000
    18  O    3.459850   3.016735   0.000000
    19  H    4.035394   3.510792   3.415268   0.000000
    20  H    9.050956   6.913821   6.918338   6.249497   0.000000
    21  H   11.122583   8.899726   8.714804   8.606313   2.479036
    22  H   11.547667   9.434544   8.752362   9.546480   4.299535
    23  H   10.045857   8.197249   6.999217   8.541133   4.960529
    24  H    7.702147   5.994359   4.587269   6.172823   4.299061
    25  H    5.537297   4.149483   2.383367   3.934342   4.861332
    26  H    1.087278   3.391102   3.764630   4.044831   9.593570
    27  H    1.092030   2.678793   4.418807   4.542871   9.420356
    28  H    1.096727   2.768559   3.396376   4.826062   9.399952
    29  H    3.397991   1.090460   3.111231   3.108891   5.847931
    30  H    2.794697   1.096273   2.865402   4.336926   7.163897
    31  H    2.655964   1.091584   4.081770   4.125962   7.462599
                   21         22         23         24         25
    21  H    0.000000
    22  H    2.484837   0.000000
    23  H    4.300522   2.486510   0.000000
    24  H    4.960067   4.293413   2.467231   0.000000
    25  H    6.459439   6.472408   4.882491   2.415971   0.000000
    26  H   11.731274  12.177010  10.632744   8.227145   5.942535
    27  H   11.521567  12.077517  10.709439   8.419671   6.327961
    28  H   11.319444  11.519115   9.860053   7.591952   5.578028
    29  H    7.892017   8.574993   7.516140   5.341531   3.592967
    30  H    8.935566   9.192687   7.774757   5.661560   4.037329
    31  H    9.459658  10.127834   9.035018   6.927175   5.188685
                   26         27         28         29         30
    26  H    0.000000
    27  H    1.776213   0.000000
    28  H    1.785588   1.780073   0.000000
    29  H    4.194338   3.636716   3.782881   0.000000
    30  H    3.781134   3.128983   2.651942   1.784894   0.000000
    31  H    3.634074   2.403437   3.049988   1.767929   1.784485
                   31
    31  H    0.000000
 Stoichiometry    C11H13N3O3S
 Framework group  C1[X(C11H13N3O3S)]
 Deg. of freedom    87
 Full point group                 C1      NOp   1
 Largest Abelian subgroup         C1      NOp   1
 Largest concise Abelian subgroup C1      NOp   1
                         Standard orientation:                         
 ---------------------------------------------------------------------
 Center     Atomic      Atomic             Coordinates (Angstroms)
 Number     Number       Type             X           Y           Z
 ---------------------------------------------------------------------
      1          8           0       -3.979318   -0.180706   -1.526820
      2         16           0       -2.882542   -0.334657   -0.579000
      3          7           0       -1.831459    0.953722   -0.846028
      4          6           0       -0.477543    0.968134   -0.499097
      5          7           0        0.059682    2.117995   -0.135814
      6          8           0        1.417390    1.831784    0.048683
      7          6           0        1.642005    0.516636   -0.190106
      8          6           0        3.009527    0.029382   -0.035249
      9          6           0        4.042835    0.904703    0.335363
     10          6           0        5.342894    0.428910    0.481778
     11          6           0        5.627779   -0.920590    0.260662
     12          6           0        4.602443   -1.795302   -0.108509
     13          6           0        3.301681   -1.325443   -0.255457
     14          6           0        0.469110   -0.088562   -0.550909
     15          7           0       -3.517500    0.008990    0.940264
     16          6           0       -4.853944   -0.553493    1.186757
     17          6           0       -2.576177   -0.179608    2.051506
     18          8           0       -2.053871   -1.542213   -0.588796
     19          1           0       -2.295360    1.858356   -0.793402
     20          1           0        3.817009    1.950507    0.505315
     21          1           0        6.135213    1.112273    0.767821
     22          1           0        6.641640   -1.288365    0.374268
     23          1           0        4.816364   -2.844082   -0.282120
     24          1           0        2.509361   -2.008806   -0.541500
     25          1           0        0.280623   -1.115382   -0.808779
     26          1           0       -5.498156   -0.337780    0.337856
     27          1           0       -5.252090   -0.057548    2.074478
     28          1           0       -4.829425   -1.635119    1.366464
     29          1           0       -1.645531    0.350468    1.846521
     30          1           0       -2.358763   -1.236738    2.243915
     31          1           0       -3.032531    0.262246    2.939234
 ---------------------------------------------------------------------
 Rotational constants (GHZ):      1.0479558      0.1648664      0.1587570
 Leave Link  202 at Thu Aug  6 22:14:16 2020, MaxMem=    33554432 cpu:         0.0
 (Enter /prod/apps/gaussian/g09d1/l301.exe)
 Standard basis: 6-31G(d) (6D, 7F)
 Ernie: Thresh=  0.10000D-02 Tol=  0.10000D-05 Strict=F.
 There are   300 symmetry adapted cartesian basis functions of A   symmetry.
 There are   300 symmetry adapted basis functions of A   symmetry.
   300 basis functions,   580 primitive gaussians,   300 cartesian basis functions
    70 alpha electrons       70 beta electrons
       nuclear repulsion energy      1455.2160221230 Hartrees.
 IExCor=  402 DFT=T Ex+Corr=B3LYP ExCW=0 ScaHFX=  0.200000
 ScaDFX=  0.800000  0.720000  1.000000  0.810000 ScalE2=  1.000000  1.000000
 IRadAn=      0 IRanWt=     -1 IRanGd=            0 ICorTp=0 IEmpDi=  4
 NAtoms=   31 NActive=   31 NUniq=   31 SFac= 1.00D+00 NAtFMM=   60 NAOKFM=F Big=F
 Integral buffers will be    131072 words long.
 Raffenetti 2 integral format.
 Two-electron integral symmetry is turned on.
 Leave Link  301 at Thu Aug  6 22:14:16 2020, MaxMem=    33554432 cpu:         0.0
 (Enter /prod/apps/gaussian/g09d1/l302.exe)
 NPDir=0 NMtPBC=     1 NCelOv=     1 NCel=       1 NClECP=     1 NCelD=      1
         NCelK=      1 NCelE2=     1 NClLst=     1 CellRange=     0.0.
 One-electron integrals computed using PRISM.
 NBasis=   300 RedAO= T EigKep=  4.56D-04  NBF=   300
 NBsUse=   300 1.00D-06 EigRej= -1.00D+00 NBFU=   300
 Precomputing XC quadrature grid using
 IXCGrd= 4 IRadAn=           0 IRanWt=          -1 IRanGd=           0 AccXCQ= 0.00D+00.
 Generated NRdTot=       0 NPtTot=           0 NUsed=           0 NTot=          32
 NSgBfM=   298   298   298   298   298 MxSgAt=    31 MxSgA2=    31.
 Leave Link  302 at Thu Aug  6 22:14:17 2020, MaxMem=    33554432 cpu:         1.0
 (Enter /prod/apps/gaussian/g09d1/l303.exe)
 DipDrv:  MaxL=1.
 Leave Link  303 at Thu Aug  6 22:14:17 2020, MaxMem=    33554432 cpu:         0.0
 (Enter /prod/apps/gaussian/g09d1/l401.exe)
 ExpMin= 1.17D-01 ExpMax= 2.19D+04 ExpMxC= 3.30D+03 IAcc=1 IRadAn=         1 AccDes= 0.00D+00
 Harris functional with IExCor=  402 and IRadAn=       1 diagonalized for initial guess.
 HarFok:  IExCor=  402 AccDes= 0.00D+00 IRadAn=         1 IDoV= 1 UseB2=F ITyADJ=14
 ICtDFT=  3500011 ScaDFX=  1.000000  1.000000  1.000000  1.000000
 FoFCou: FMM=F IPFlag=           0 FMFlag=      100000 FMFlg1=           0
         NFxFlg=           0 DoJE=T BraDBF=F KetDBF=T FulRan=T
         wScrn=  0.000000 ICntrl=     500 IOpCl=  0 I1Cent=   200000004 NGrid=           0
         NMat0=    1 NMatS0=      1 NMatT0=    0 NMatD0=    1 NMtDS0=    0 NMtDT0=    0
 Petite list used in FoFCou.
 Harris En= -1215.02135268098    
 JPrj=0 DoOrth=F DoCkMO=F.
 Leave Link  401 at Thu Aug  6 22:14:20 2020, MaxMem=    33554432 cpu:         2.8
 (Enter /prod/apps/gaussian/g09d1/l502.exe)
 Closed shell SCF:
 Using DIIS extrapolation, IDIIS=  1040.
 Integral symmetry usage will be decided dynamically.
 IVT=      292611 IEndB=      292611 NGot=    33554432 MDV=    33368762
 LenX=    33368762 LenY=    33278321
 Requested convergence on RMS density matrix=1.00D-08 within 128 cycles.
 Requested convergence on MAX density matrix=1.00D-06.
 Requested convergence on             energy=1.00D-06.
 No special actions if energy rises.
 Fock matrices will be formed incrementally for  20 cycles.
 Integral accuracy reduced to 1.0D-05 until final iterations.

 Cycle   1  Pass 0  IDiag  1:
 FoFJK:  IHMeth= 1 ICntrl=       0 DoSepK=F KAlg= 0 I1Cent=   0 FoldK=F
 IRaf= 720000000 NMat=   1 IRICut=       1 DoRegI=T DoRafI=F ISym2E= 0.
 FoFCou: FMM=F IPFlag=           0 FMFlag=      100000 FMFlg1=           0
         NFxFlg=           0 DoJE=F BraDBF=F KetDBF=F FulRan=T
         wScrn=  0.000000 ICntrl=       0 IOpCl=  0 I1Cent=           0 NGrid=           0
         NMat0=    1 NMatS0=      1 NMatT0=    0 NMatD0=    1 NMtDS0=    0 NMtDT0=    0
 Symmetry not used in FoFCou.
 E= -1214.43813635462    
 DIIS: error= 4.36D-02 at cycle   1 NSaved=   1.
 NSaved= 1 IEnMin= 1 EnMin= -1214.43813635462     IErMin= 1 ErrMin= 4.36D-02
 ErrMax= 4.36D-02  0.00D+00 EMaxC= 1.00D-01 BMatC= 6.33D-01 BMatP= 6.33D-01
 IDIUse=3 WtCom= 5.64D-01 WtEn= 4.36D-01
 Coeff-Com:  0.100D+01
 Coeff-En:   0.100D+01
 Coeff:      0.100D+01
 Gap=     0.279 Goal=   None    Shift=    0.000
 GapD=    0.279 DampG=1.000 DampE=0.500 DampFc=0.5000 IDamp=-1.
 Damping current iteration by 5.00D-01
 RMSDP=6.65D-03 MaxDP=6.17D-01              OVMax= 2.60D-01

 Cycle   2  Pass 0  IDiag  1:
 RMSU=  3.32D-03    CP:  9.90D-01
 E= -1214.56258873953     Delta-E=       -0.124452384910 Rises=F Damp=T
 DIIS: error= 1.81D-02 at cycle   2 NSaved=   2.
 NSaved= 2 IEnMin= 2 EnMin= -1214.56258873953     IErMin= 2 ErrMin= 1.81D-02
 ErrMax= 1.81D-02  0.00D+00 EMaxC= 1.00D-01 BMatC= 1.09D-01 BMatP= 6.33D-01
 IDIUse=3 WtCom= 8.19D-01 WtEn= 1.81D-01
 Coeff-Com:  0.239D+00 0.761D+00
 Coeff-En:   0.381D+00 0.619D+00
 Coeff:      0.265D+00 0.735D+00
 Gap=     0.245 Goal=   None    Shift=    0.000
 RMSDP=2.03D-03 MaxDP=1.43D-01 DE=-1.24D-01 OVMax= 1.97D-01

 Cycle   3  Pass 0  IDiag  1:
 RMSU=  1.70D-03    CP:  9.78D-01  6.73D-01
 E= -1214.93485194579     Delta-E=       -0.372263206258 Rises=F Damp=F
 DIIS: error= 1.17D-02 at cycle   3 NSaved=   3.
 NSaved= 3 IEnMin= 3 EnMin= -1214.93485194579     IErMin= 3 ErrMin= 1.17D-02
 ErrMax= 1.17D-02  0.00D+00 EMaxC= 1.00D-01 BMatC= 6.04D-02 BMatP= 1.09D-01
 IDIUse=3 WtCom= 8.83D-01 WtEn= 1.17D-01
 Coeff-Com:  0.826D-01 0.425D+00 0.493D+00
 Coeff-En:   0.000D+00 0.000D+00 0.100D+01
 Coeff:      0.729D-01 0.375D+00 0.552D+00
 Gap=     0.185 Goal=   None    Shift=    0.000
 RMSDP=1.15D-03 MaxDP=3.93D-02 DE=-3.72D-01 OVMax= 5.82D-02

 Cycle   4  Pass 0  IDiag  1:
 RMSU=  7.40D-04    CP:  9.84D-01  7.50D-01  5.05D-01
 E= -1214.97855764872     Delta-E=       -0.043705702935 Rises=F Damp=F
 DIIS: error= 4.51D-03 at cycle   4 NSaved=   4.
 NSaved= 4 IEnMin= 4 EnMin= -1214.97855764872     IErMin= 4 ErrMin= 4.51D-03
 ErrMax= 4.51D-03  0.00D+00 EMaxC= 1.00D-01 BMatC= 1.12D-02 BMatP= 6.04D-02
 IDIUse=3 WtCom= 9.55D-01 WtEn= 4.51D-02
 Coeff-Com:  0.104D-01 0.959D-01 0.315D+00 0.578D+00
 Coeff-En:   0.000D+00 0.000D+00 0.160D+00 0.840D+00
 Coeff:      0.994D-02 0.916D-01 0.308D+00 0.590D+00
 Gap=     0.182 Goal=   None    Shift=    0.000
 RMSDP=4.03D-04 MaxDP=1.83D-02 DE=-4.37D-02 OVMax= 2.38D-02

 Cycle   5  Pass 0  IDiag  1:
 RMSU=  2.11D-04    CP:  9.83D-01  7.36D-01  6.27D-01  6.35D-01
 E= -1214.98724823172     Delta-E=       -0.008690582993 Rises=F Damp=F
 DIIS: error= 1.05D-03 at cycle   5 NSaved=   5.
 NSaved= 5 IEnMin= 5 EnMin= -1214.98724823172     IErMin= 5 ErrMin= 1.05D-03
 ErrMax= 1.05D-03  0.00D+00 EMaxC= 1.00D-01 BMatC= 9.64D-04 BMatP= 1.12D-02
 IDIUse=3 WtCom= 9.89D-01 WtEn= 1.05D-02
 Coeff-Com: -0.117D-02 0.210D-01 0.129D+00 0.332D+00 0.519D+00
 Coeff-En:   0.000D+00 0.000D+00 0.000D+00 0.828D-02 0.992D+00
 Coeff:     -0.116D-02 0.208D-01 0.128D+00 0.329D+00 0.524D+00
 Gap=     0.183 Goal=   None    Shift=    0.000
 RMSDP=1.33D-04 MaxDP=5.94D-03 DE=-8.69D-03 OVMax= 9.34D-03

 Cycle   6  Pass 0  IDiag  1:
 RMSU=  7.24D-05    CP:  9.83D-01  7.39D-01  6.25D-01  6.84D-01  5.02D-01
 E= -1214.98797551828     Delta-E=       -0.000727286563 Rises=F Damp=F
 DIIS: error= 6.40D-04 at cycle   6 NSaved=   6.
 NSaved= 6 IEnMin= 6 EnMin= -1214.98797551828     IErMin= 6 ErrMin= 6.40D-04
 ErrMax= 6.40D-04  0.00D+00 EMaxC= 1.00D-01 BMatC= 1.42D-04 BMatP= 9.64D-04
 IDIUse=3 WtCom= 9.94D-01 WtEn= 6.40D-03
 Coeff-Com: -0.164D-02 0.507D-02 0.494D-01 0.147D+00 0.332D+00 0.469D+00
 Coeff-En:   0.000D+00 0.000D+00 0.000D+00 0.000D+00 0.105D+00 0.895D+00
 Coeff:     -0.163D-02 0.504D-02 0.491D-01 0.146D+00 0.330D+00 0.471D+00
 Gap=     0.182 Goal=   None    Shift=    0.000
 RMSDP=4.63D-05 MaxDP=2.49D-03 DE=-7.27D-04 OVMax= 3.48D-03

 Cycle   7  Pass 0  IDiag  1:
 RMSU=  2.65D-05    CP:  9.83D-01  7.39D-01  6.27D-01  6.87D-01  5.81D-01
                    CP:  5.31D-01
 E= -1214.98809114084     Delta-E=       -0.000115622560 Rises=F Damp=F
 DIIS: error= 1.60D-04 at cycle   7 NSaved=   7.
 NSaved= 7 IEnMin= 7 EnMin= -1214.98809114084     IErMin= 7 ErrMin= 1.60D-04
 ErrMax= 1.60D-04  0.00D+00 EMaxC= 1.00D-01 BMatC= 1.44D-05 BMatP= 1.42D-04
 IDIUse=3 WtCom= 9.98D-01 WtEn= 1.60D-03
 Coeff-Com: -0.974D-03 0.352D-03 0.149D-01 0.509D-01 0.145D+00 0.298D+00
 Coeff-Com:  0.492D+00
 Coeff-En:   0.000D+00 0.000D+00 0.000D+00 0.000D+00 0.000D+00 0.612D-01
 Coeff-En:   0.939D+00
 Coeff:     -0.972D-03 0.352D-03 0.149D-01 0.508D-01 0.145D+00 0.298D+00
 Coeff:      0.492D+00
 Gap=     0.183 Goal=   None    Shift=    0.000
 RMSDP=1.31D-05 MaxDP=5.55D-04 DE=-1.16D-04 OVMax= 7.75D-04

 Cycle   8  Pass 0  IDiag  1:
 RMSU=  6.73D-06    CP:  9.83D-01  7.39D-01  6.27D-01  6.87D-01  5.80D-01
                    CP:  5.84D-01  6.04D-01
 E= -1214.98810324935     Delta-E=       -0.000012108506 Rises=F Damp=F
 DIIS: error= 3.10D-05 at cycle   8 NSaved=   8.
 NSaved= 8 IEnMin= 8 EnMin= -1214.98810324935     IErMin= 8 ErrMin= 3.10D-05
 ErrMax= 3.10D-05  0.00D+00 EMaxC= 1.00D-01 BMatC= 6.61D-07 BMatP= 1.44D-05
 IDIUse=1 WtCom= 1.00D+00 WtEn= 0.00D+00
 Coeff-Com: -0.349D-03-0.238D-03 0.298D-02 0.121D-01 0.440D-01 0.114D+00
 Coeff-Com:  0.244D+00 0.584D+00
 Coeff:     -0.349D-03-0.238D-03 0.298D-02 0.121D-01 0.440D-01 0.114D+00
 Coeff:      0.244D+00 0.584D+00
 Gap=     0.183 Goal=   None    Shift=    0.000
 RMSDP=3.72D-06 MaxDP=1.34D-04 DE=-1.21D-05 OVMax= 2.33D-04

 Initial convergence to 1.0D-05 achieved.  Increase integral accuracy.
 Cycle   9  Pass 1  IDiag  1:
 E= -1214.98815098252     Delta-E=       -0.000047733175 Rises=F Damp=F
 DIIS: error= 4.93D-05 at cycle   1 NSaved=   1.
 NSaved= 1 IEnMin= 1 EnMin= -1214.98815098252     IErMin= 1 ErrMin= 4.93D-05
 ErrMax= 4.93D-05  0.00D+00 EMaxC= 1.00D-01 BMatC= 5.99D-07 BMatP= 5.99D-07
 IDIUse=1 WtCom= 1.00D+00 WtEn= 0.00D+00
 Coeff-Com:  0.100D+01
 Coeff:      0.100D+01
 Gap=     0.183 Goal=   None    Shift=    0.000
 RMSDP=3.72D-06 MaxDP=1.34D-04 DE=-4.77D-05 OVMax= 2.74D-04

 Cycle  10  Pass 1  IDiag  1:
 RMSU=  2.87D-05    CP:  1.00D+00
 E= -1214.98815105428     Delta-E=       -0.000000071761 Rises=F Damp=F
 DIIS: error= 2.79D-05 at cycle   2 NSaved=   2.
 NSaved= 2 IEnMin= 2 EnMin= -1214.98815105428     IErMin= 2 ErrMin= 2.79D-05
 ErrMax= 2.79D-05  0.00D+00 EMaxC= 1.00D-01 BMatC= 5.97D-07 BMatP= 5.99D-07
 IDIUse=1 WtCom= 1.00D+00 WtEn= 0.00D+00
 Coeff-Com:  0.499D+00 0.501D+00
 Coeff:      0.499D+00 0.501D+00
 Gap=     0.183 Goal=   None    Shift=    0.000
 RMSDP=3.96D-06 MaxDP=1.40D-04 DE=-7.18D-08 OVMax= 2.80D-04

 Cycle  11  Pass 1  IDiag  1:
 RMSU=  3.94D-06    CP:  1.00D+00  9.89D-01
 E= -1214.98815139084     Delta-E=       -0.000000336560 Rises=F Damp=F
 DIIS: error= 1.85D-05 at cycle   3 NSaved=   3.
 NSaved= 3 IEnMin= 3 EnMin= -1214.98815139084     IErMin= 3 ErrMin= 1.85D-05
 ErrMax= 1.85D-05  0.00D+00 EMaxC= 1.00D-01 BMatC= 2.26D-07 BMatP= 5.97D-07
 IDIUse=1 WtCom= 1.00D+00 WtEn= 0.00D+00
 Coeff-Com:  0.141D-01 0.378D+00 0.608D+00
 Coeff:      0.141D-01 0.378D+00 0.608D+00
 Gap=     0.183 Goal=   None    Shift=    0.000
 RMSDP=1.67D-06 MaxDP=5.67D-05 DE=-3.37D-07 OVMax= 1.09D-04

 Cycle  12  Pass 1  IDiag  1:
 RMSU=  6.82D-07    CP:  1.00D+00  1.00D+00  6.26D-01
 E= -1214.98815157960     Delta-E=       -0.000000188760 Rises=F Damp=F
 DIIS: error= 4.59D-06 at cycle   4 NSaved=   4.
 NSaved= 4 IEnMin= 4 EnMin= -1214.98815157960     IErMin= 4 ErrMin= 4.59D-06
 ErrMax= 4.59D-06  0.00D+00 EMaxC= 1.00D-01 BMatC= 1.24D-08 BMatP= 2.26D-07
 IDIUse=1 WtCom= 1.00D+00 WtEn= 0.00D+00
 Coeff-Com: -0.668D-02 0.222D+00 0.383D+00 0.402D+00
 Coeff:     -0.668D-02 0.222D+00 0.383D+00 0.402D+00
 Gap=     0.183 Goal=   None    Shift=    0.000
 RMSDP=4.03D-07 MaxDP=1.82D-05 DE=-1.89D-07 OVMax= 3.10D-05

 Cycle  13  Pass 1  IDiag  1:
 RMSU=  1.86D-07    CP:  1.00D+00  1.00D+00  6.33D-01  4.77D-01
 E= -1214.98815159053     Delta-E=       -0.000000010929 Rises=F Damp=F
 DIIS: error= 7.96D-07 at cycle   5 NSaved=   5.
 NSaved= 5 IEnMin= 5 EnMin= -1214.98815159053     IErMin= 5 ErrMin= 7.96D-07
 ErrMax= 7.96D-07  0.00D+00 EMaxC= 1.00D-01 BMatC= 3.89D-10 BMatP= 1.24D-08
 IDIUse=1 WtCom= 1.00D+00 WtEn= 0.00D+00
 Coeff-Com: -0.451D-02 0.102D+00 0.178D+00 0.222D+00 0.503D+00
 Coeff:     -0.451D-02 0.102D+00 0.178D+00 0.222D+00 0.503D+00
 Gap=     0.183 Goal=   None    Shift=    0.000
 RMSDP=8.63D-08 MaxDP=4.22D-06 DE=-1.09D-08 OVMax= 7.64D-06

 Cycle  14  Pass 1  IDiag  1:
 RMSU=  6.44D-08    CP:  1.00D+00  1.00D+00  6.34D-01  4.99D-01  7.05D-01
 E= -1214.98815159088     Delta-E=       -0.000000000351 Rises=F Damp=F
 DIIS: error= 2.01D-07 at cycle   6 NSaved=   6.
 NSaved= 6 IEnMin= 6 EnMin= -1214.98815159088     IErMin= 6 ErrMin= 2.01D-07
 ErrMax= 2.01D-07  0.00D+00 EMaxC= 1.00D-01 BMatC= 3.09D-11 BMatP= 3.89D-10
 IDIUse=1 WtCom= 1.00D+00 WtEn= 0.00D+00
 Coeff-Com: -0.170D-02 0.319D-01 0.561D-01 0.773D-01 0.265D+00 0.572D+00
 Coeff:     -0.170D-02 0.319D-01 0.561D-01 0.773D-01 0.265D+00 0.572D+00
 Gap=     0.183 Goal=   None    Shift=    0.000
 RMSDP=2.50D-08 MaxDP=1.28D-06 DE=-3.51D-10 OVMax= 1.87D-06

 Cycle  15  Pass 1  IDiag  1:
 RMSU=  2.03D-08    CP:  1.00D+00  1.00D+00  6.34D-01  4.99D-01  7.60D-01
                    CP:  8.37D-01
 E= -1214.98815159088     Delta-E=        0.000000000006 Rises=F Damp=F
 DIIS: error= 1.11D-07 at cycle   7 NSaved=   7.
 NSaved= 7 IEnMin= 6 EnMin= -1214.98815159088     IErMin= 7 ErrMin= 1.11D-07
 ErrMax= 1.11D-07  0.00D+00 EMaxC= 1.00D-01 BMatC= 8.11D-12 BMatP= 3.09D-11
 IDIUse=1 WtCom= 1.00D+00 WtEn= 0.00D+00
 Coeff-Com: -0.211D-03 0.457D-03 0.896D-03 0.575D-02 0.711D-01 0.373D+00
 Coeff-Com:  0.549D+00
 Coeff:     -0.211D-03 0.457D-03 0.896D-03 0.575D-02 0.711D-01 0.373D+00
 Coeff:      0.549D+00
 Gap=     0.183 Goal=   None    Shift=    0.000
 RMSDP=1.06D-08 MaxDP=4.82D-07 DE= 6.37D-12 OVMax= 5.49D-07

 Cycle  16  Pass 1  IDiag  1:
 RMSU=  5.64D-09    CP:  1.00D+00  1.00D+00  6.34D-01  5.01D-01  7.73D-01
                    CP:  8.74D-01  5.99D-01
 E= -1214.98815159095     Delta-E=       -0.000000000069 Rises=F Damp=F
 DIIS: error= 3.52D-08 at cycle   8 NSaved=   8.
 NSaved= 8 IEnMin= 8 EnMin= -1214.98815159095     IErMin= 8 ErrMin= 3.52D-08
 ErrMax= 3.52D-08  0.00D+00 EMaxC= 1.00D-01 BMatC= 5.35D-13 BMatP= 8.11D-12
 IDIUse=1 WtCom= 1.00D+00 WtEn= 0.00D+00
 Coeff-Com:  0.307D-04-0.241D-02-0.422D-02-0.327D-02 0.161D-01 0.155D+00
 Coeff-Com:  0.297D+00 0.541D+00
 Coeff:      0.307D-04-0.241D-02-0.422D-02-0.327D-02 0.161D-01 0.155D+00
 Coeff:      0.297D+00 0.541D+00
 Gap=     0.183 Goal=   None    Shift=    0.000
 RMSDP=3.08D-09 MaxDP=1.47D-07 DE=-6.91D-11 OVMax= 2.39D-07

 SCF Done:  E(RB3LYP) =  -1214.98815159     A.U. after   16 cycles
            NFock= 16  Conv=0.31D-08     -V/T= 2.0075
 KE= 1.205937002273D+03 PE=-5.756960811483D+03 EE= 1.880819635496D+03
 Leave Link  502 at Thu Aug  6 22:17:57 2020, MaxMem=    33554432 cpu:       216.7
 (Enter /prod/apps/gaussian/g09d1/l601.exe)
 Copying SCF densities to generalized density rwf, IOpCl= 0 IROHF=0.

 **********************************************************************

            Population analysis using the SCF density.

 **********************************************************************

 Orbital symmetries:
       Occupied  (A) (A) (A) (A) (A) (A) (A) (A) (A) (A) (A) (A)
                 (A) (A) (A) (A) (A) (A) (A) (A) (A) (A) (A) (A)
                 (A) (A) (A) (A) (A) (A) (A) (A) (A) (A) (A) (A)
                 (A) (A) (A) (A) (A) (A) (A) (A) (A) (A) (A) (A)
                 (A) (A) (A) (A) (A) (A) (A) (A) (A) (A) (A) (A)
                 (A) (A) (A) (A) (A) (A) (A) (A) (A) (A)
       Virtual   (A) (A) (A) (A) (A) (A) (A) (A) (A) (A) (A) (A)
                 (A) (A) (A) (A) (A) (A) (A) (A) (A) (A) (A) (A)
                 (A) (A) (A) (A) (A) (A) (A) (A) (A) (A) (A) (A)
                 (A) (A) (A) (A) (A) (A) (A) (A) (A) (A) (A) (A)
                 (A) (A) (A) (A) (A) (A) (A) (A) (A) (A) (A) (A)
                 (A) (A) (A) (A) (A) (A) (A) (A) (A) (A) (A) (A)
                 (A) (A) (A) (A) (A) (A) (A) (A) (A) (A) (A) (A)
                 (A) (A) (A) (A) (A) (A) (A) (A) (A) (A) (A) (A)
                 (A) (A) (A) (A) (A) (A) (A) (A) (A) (A) (A) (A)
                 (A) (A) (A) (A) (A) (A) (A) (A) (A) (A) (A) (A)
                 (A) (A) (A) (A) (A) (A) (A) (A) (A) (A) (A) (A)
                 (A) (A) (A) (A) (A) (A) (A) (A) (A) (A) (A) (A)
                 (A) (A) (A) (A) (A) (A) (A) (A) (A) (A) (A) (A)
                 (A) (A) (A) (A) (A) (A) (A) (A) (A) (A) (A) (A)
                 (A) (A) (A) (A) (A) (A) (A) (A) (A) (A) (A) (A)
                 (A) (A) (A) (A) (A) (A) (A) (A) (A) (A) (A) (A)
                 (A) (A) (A) (A) (A) (A) (A) (A) (A) (A) (A) (A)
                 (A) (A) (A) (A) (A) (A) (A) (A) (A) (A) (A) (A)
                 (A) (A) (A) (A) (A) (A) (A) (A) (A) (A) (A) (A)
                 (A) (A)
 The electronic state is 1-A.
 Alpha  occ. eigenvalues --  -89.14294 -19.23673 -19.15726 -19.15447 -14.39451
 Alpha  occ. eigenvalues --  -14.38473 -14.37900 -10.27484 -10.26664 -10.23406
 Alpha  occ. eigenvalues --  -10.23076 -10.21752 -10.20542 -10.20294 -10.20243
 Alpha  occ. eigenvalues --  -10.20210 -10.20131 -10.19916  -8.16491  -6.13004
 Alpha  occ. eigenvalues --   -6.12911  -6.12869  -1.14317  -1.13434  -1.01622
 Alpha  occ. eigenvalues --   -0.96712  -0.94883  -0.87557  -0.85209  -0.80935
 Alpha  occ. eigenvalues --   -0.75789  -0.75373  -0.73818  -0.72121  -0.65384
 Alpha  occ. eigenvalues --   -0.64033  -0.61790  -0.60012  -0.59123  -0.55396
 Alpha  occ. eigenvalues --   -0.54977  -0.51515  -0.50463  -0.49218  -0.48390
 Alpha  occ. eigenvalues --   -0.47651  -0.47362  -0.46580  -0.45338  -0.44421
 Alpha  occ. eigenvalues --   -0.43513  -0.43114  -0.42718  -0.42078  -0.40153
 Alpha  occ. eigenvalues --   -0.39549  -0.38556  -0.37126  -0.36499  -0.35447
 Alpha  occ. eigenvalues --   -0.35395  -0.34253  -0.32627  -0.31499  -0.31382
 Alpha  occ. eigenvalues --   -0.29803  -0.27487  -0.26315  -0.25474  -0.23355
 Alpha virt. eigenvalues --   -0.05103  -0.01170   0.01898   0.04557   0.06124
 Alpha virt. eigenvalues --    0.06833   0.08104   0.08616   0.09665   0.09979
 Alpha virt. eigenvalues --    0.11195   0.11951   0.12601   0.13165   0.14435
 Alpha virt. eigenvalues --    0.14668   0.15910   0.16306   0.16699   0.17056
 Alpha virt. eigenvalues --    0.17768   0.18154   0.18377   0.19229   0.21307
 Alpha virt. eigenvalues --    0.23490   0.24617   0.27534   0.29041   0.29631
 Alpha virt. eigenvalues --    0.31541   0.32958   0.34650   0.37114   0.37899
 Alpha virt. eigenvalues --    0.41129   0.42787   0.43745   0.45421   0.47203
 Alpha virt. eigenvalues --    0.48173   0.49382   0.50257   0.51660   0.52982
 Alpha virt. eigenvalues --    0.53220   0.53778   0.55554   0.55754   0.57642
 Alpha virt. eigenvalues --    0.58147   0.58418   0.58887   0.59301   0.60383
 Alpha virt. eigenvalues --    0.61006   0.61574   0.62846   0.63568   0.64326
 Alpha virt. eigenvalues --    0.65651   0.66636   0.67473   0.68493   0.69836
 Alpha virt. eigenvalues --    0.70815   0.73864   0.74414   0.75106   0.76404
 Alpha virt. eigenvalues --    0.77236   0.78540   0.79723   0.80150   0.81152
 Alpha virt. eigenvalues --    0.82320   0.82875   0.83067   0.84293   0.85112
 Alpha virt. eigenvalues --    0.86564   0.86840   0.87572   0.88462   0.88911
 Alpha virt. eigenvalues --    0.89714   0.90654   0.90931   0.93318   0.93487
 Alpha virt. eigenvalues --    0.94081   0.94897   0.97084   0.98465   0.99020
 Alpha virt. eigenvalues --    1.00029   1.01184   1.03321   1.04318   1.06186
 Alpha virt. eigenvalues --    1.08543   1.10031   1.10712   1.11320   1.13287
 Alpha virt. eigenvalues --    1.15480   1.15841   1.17330   1.18991   1.19734
 Alpha virt. eigenvalues --    1.21581   1.23434   1.24052   1.25144   1.27912
 Alpha virt. eigenvalues --    1.30318   1.31290   1.33747   1.34744   1.36412
 Alpha virt. eigenvalues --    1.38344   1.40936   1.41767   1.42158   1.43892
 Alpha virt. eigenvalues --    1.45075   1.46892   1.47510   1.47972   1.49883
 Alpha virt. eigenvalues --    1.50786   1.53978   1.54711   1.56179   1.58216
 Alpha virt. eigenvalues --    1.60276   1.64715   1.69112   1.71062   1.76576
 Alpha virt. eigenvalues --    1.77722   1.78724   1.79552   1.80711   1.81753
 Alpha virt. eigenvalues --    1.82970   1.84911   1.86486   1.86773   1.88559
 Alpha virt. eigenvalues --    1.89717   1.92193   1.93122   1.94189   1.95635
 Alpha virt. eigenvalues --    1.96822   1.97630   1.98232   2.00415   2.02264
 Alpha virt. eigenvalues --    2.04196   2.04577   2.07035   2.08018   2.10563
 Alpha virt. eigenvalues --    2.11262   2.12130   2.13143   2.13719   2.14243
 Alpha virt. eigenvalues --    2.17460   2.18616   2.19236   2.21218   2.22280
 Alpha virt. eigenvalues --    2.23137   2.25153   2.28731   2.29861   2.31154
 Alpha virt. eigenvalues --    2.31425   2.32869   2.33233   2.35322   2.41504
 Alpha virt. eigenvalues --    2.43880   2.46917   2.50915   2.52722   2.54207
 Alpha virt. eigenvalues --    2.56616   2.57923   2.58589   2.60245   2.63062
 Alpha virt. eigenvalues --    2.66011   2.66860   2.69728   2.70158   2.73760
 Alpha virt. eigenvalues --    2.74536   2.77118   2.78115   2.81382   2.85815
 Alpha virt. eigenvalues --    2.90452   2.91151   3.01622   3.05264   3.13854
 Alpha virt. eigenvalues --    3.27255   3.42684   3.78597   3.80149   3.93337
 Alpha virt. eigenvalues --    3.98804   4.02259   4.07231   4.08862   4.10085
 Alpha virt. eigenvalues --    4.10650   4.14933   4.22905   4.26224   4.31209
 Alpha virt. eigenvalues --    4.32108   4.38462   4.41025   4.55513   4.73997
          Condensed to atoms (all electrons):
               1          2          3          4          5          6
     1  O    8.187130   0.474316  -0.055812   0.000904  -0.000017   0.000000
     2  S    0.474316  13.558911   0.153886  -0.008054  -0.002296   0.000134
     3  N   -0.055812   0.153886   7.413446   0.216366  -0.078212   0.005663
     4  C    0.000904  -0.008054   0.216366   4.544655   0.407594  -0.040847
     5  N   -0.000017  -0.002296  -0.078212   0.407594   6.898950   0.134522
     6  O    0.000000   0.000134   0.005663  -0.040847   0.134522   8.172438
     7  C   -0.000002  -0.000250  -0.000303  -0.017036  -0.082544   0.249275
     8  C    0.000000  -0.000014  -0.000198   0.004049   0.004639  -0.037534
     9  C    0.000000   0.000000  -0.000001  -0.000384   0.000157  -0.006346
    10  C    0.000000   0.000000   0.000000   0.000005   0.000001   0.000300
    11  C    0.000000   0.000000   0.000000   0.000000   0.000000   0.000001
    12  C    0.000000   0.000000   0.000000  -0.000007   0.000001  -0.000060
    13  C    0.000000  -0.000002   0.000003   0.000623  -0.000107   0.003168
    14  C   -0.000050  -0.003616  -0.056051   0.443101  -0.050482  -0.091274
    15  N   -0.058591   0.153761  -0.058781   0.000438   0.000067   0.000000
    16  C   -0.003395  -0.023853   0.002307  -0.000059  -0.000001   0.000000
    17  C    0.001737  -0.004800  -0.002417  -0.001396  -0.000712   0.000009
    18  O   -0.043675   0.420974  -0.055752  -0.001232   0.000154  -0.000001
    19  H    0.000070  -0.006916   0.289214  -0.023967   0.005352  -0.000218
    20  H    0.000000   0.000000   0.000000   0.000064  -0.000242   0.009794
    21  H    0.000000   0.000000   0.000000   0.000000   0.000000  -0.000002
    22  H    0.000000   0.000000   0.000000   0.000000   0.000000   0.000000
    23  H    0.000000   0.000000   0.000000   0.000000   0.000000   0.000000
    24  H    0.000000  -0.000003   0.000000   0.000071  -0.000004   0.000030
    25  H    0.000008   0.000196  -0.001169  -0.025159   0.004853   0.003131
    26  H    0.011008  -0.003485   0.000111  -0.000001   0.000000   0.000000
    27  H    0.000285   0.001310  -0.000083   0.000000   0.000000   0.000000
    28  H   -0.000519  -0.002601  -0.000100   0.000001   0.000000   0.000000
    29  H   -0.000014  -0.003777   0.001916   0.006581   0.001751  -0.000128
    30  H   -0.000054  -0.008105  -0.000218   0.000068   0.000024   0.000000
    31  H   -0.000050   0.002056  -0.000173   0.000080   0.000007   0.000000
               7          8          9         10         11         12
     1  O   -0.000002   0.000000   0.000000   0.000000   0.000000   0.000000
     2  S   -0.000250  -0.000014   0.000000   0.000000   0.000000   0.000000
     3  N   -0.000303  -0.000198  -0.000001   0.000000   0.000000   0.000000
     4  C   -0.017036   0.004049  -0.000384   0.000005   0.000000  -0.000007
     5  N   -0.082544   0.004639   0.000157   0.000001   0.000000   0.000001
     6  O    0.249275  -0.037534  -0.006346   0.000300   0.000001  -0.000060
     7  C    4.777320   0.336922  -0.039655   0.004742   0.000917   0.006365
     8  C    0.336922   4.770693   0.478913  -0.008090  -0.033725  -0.008265
     9  C   -0.039655   0.478913   5.044465   0.505537  -0.036084  -0.042328
    10  C    0.004742  -0.008090   0.505537   4.875403   0.543765  -0.023834
    11  C    0.000917  -0.033725  -0.036084   0.543765   4.853529   0.545222
    12  C    0.006365  -0.008265  -0.042328  -0.023834   0.545222   4.862463
    13  C   -0.041660   0.537593  -0.084279  -0.041754  -0.038249   0.521006
    14  C    0.483086  -0.059336   0.011891  -0.000232   0.000013   0.000259
    15  N   -0.000013   0.000000   0.000000   0.000000   0.000000   0.000000
    16  C    0.000000   0.000000   0.000000   0.000000   0.000000   0.000000
    17  C    0.000021   0.000002   0.000000   0.000000   0.000000   0.000000
    18  O    0.000440  -0.000005   0.000000   0.000000   0.000000   0.000000
    19  H    0.000275   0.000001   0.000000   0.000000   0.000000   0.000000
    20  H   -0.013337  -0.038344   0.359819  -0.043183   0.004444   0.000270
    21  H   -0.000184   0.003159  -0.038196   0.359777  -0.042314   0.004503
    22  H    0.000003   0.000543   0.004736  -0.042719   0.360862  -0.042838
    23  H   -0.000211   0.003296   0.000870   0.004491  -0.042084   0.359178
    24  H   -0.013466  -0.036886   0.005963   0.000223   0.004630  -0.044116
    25  H   -0.032486  -0.002832  -0.000077   0.000000   0.000000   0.000079
    26  H    0.000000   0.000000   0.000000   0.000000   0.000000   0.000000
    27  H    0.000000   0.000000   0.000000   0.000000   0.000000   0.000000
    28  H    0.000000   0.000000   0.000000   0.000000   0.000000   0.000000
    29  H   -0.000035   0.000000   0.000000   0.000000   0.000000   0.000000
    30  H   -0.000004   0.000000   0.000000   0.000000   0.000000   0.000000
    31  H   -0.000001   0.000000   0.000000   0.000000   0.000000   0.000000
              13         14         15         16         17         18
     1  O    0.000000  -0.000050  -0.058591  -0.003395   0.001737  -0.043675
     2  S   -0.000002  -0.003616   0.153761  -0.023853  -0.004800   0.420974
     3  N    0.000003  -0.056051  -0.058781   0.002307  -0.002417  -0.055752
     4  C    0.000623   0.443101   0.000438  -0.000059  -0.001396  -0.001232
     5  N   -0.000107  -0.050482   0.000067  -0.000001  -0.000712   0.000154
     6  O    0.003168  -0.091274   0.000000   0.000000   0.000009  -0.000001
     7  C   -0.041660   0.483086  -0.000013   0.000000   0.000021   0.000440
     8  C    0.537593  -0.059336   0.000000   0.000000   0.000002  -0.000005
     9  C   -0.084279   0.011891   0.000000   0.000000   0.000000   0.000000
    10  C   -0.041754  -0.000232   0.000000   0.000000   0.000000   0.000000
    11  C   -0.038249   0.000013   0.000000   0.000000   0.000000   0.000000
    12  C    0.521006   0.000259   0.000000   0.000000   0.000000   0.000000
    13  C    5.006503  -0.021436   0.000000   0.000000   0.000000   0.000003
    14  C   -0.021436   5.255602   0.000032  -0.000007  -0.000414  -0.002421
    15  N    0.000000   0.000032   7.204866   0.286937   0.265673  -0.054445
    16  C    0.000000  -0.000007   0.286937   4.991391  -0.049956  -0.001957
    17  C    0.000000  -0.000414   0.265673  -0.049956   5.000068   0.003636
    18  O    0.000003  -0.002421  -0.054445  -0.001957   0.003636   8.248757
    19  H    0.000000   0.004591   0.003047  -0.000026  -0.000194   0.001506
    20  H    0.005536   0.000205   0.000000   0.000000   0.000000   0.000000
    21  H    0.000878   0.000001   0.000000   0.000000   0.000000   0.000000
    22  H    0.004916   0.000000   0.000000   0.000000   0.000000   0.000000
    23  H   -0.038461  -0.000001   0.000000   0.000000   0.000000   0.000000
    24  H    0.352631   0.006931   0.000000   0.000000   0.000000  -0.000019
    25  H    0.000774   0.350882   0.000118   0.000000  -0.000016   0.010090
    26  H    0.000000   0.000000  -0.031239   0.378955   0.004457  -0.000101
    27  H    0.000000   0.000000  -0.039182   0.376141  -0.003018  -0.000107
    28  H    0.000000   0.000001  -0.048263   0.371276  -0.002122   0.001996
    29  H    0.000000   0.000836  -0.032635   0.004372   0.375478  -0.001928
    30  H    0.000000   0.000071  -0.045292  -0.002157   0.370974   0.005786
    31  H    0.000000   0.000027  -0.034270  -0.004652   0.373791   0.000079
              19         20         21         22         23         24
     1  O    0.000070   0.000000   0.000000   0.000000   0.000000   0.000000
     2  S   -0.006916   0.000000   0.000000   0.000000   0.000000  -0.000003
     3  N    0.289214   0.000000   0.000000   0.000000   0.000000   0.000000
     4  C   -0.023967   0.000064   0.000000   0.000000   0.000000   0.000071
     5  N    0.005352  -0.000242   0.000000   0.000000   0.000000  -0.000004
     6  O   -0.000218   0.009794  -0.000002   0.000000   0.000000   0.000030
     7  C    0.000275  -0.013337  -0.000184   0.000003  -0.000211  -0.013466
     8  C    0.000001  -0.038344   0.003159   0.000543   0.003296  -0.036886
     9  C    0.000000   0.359819  -0.038196   0.004736   0.000870   0.005963
    10  C    0.000000  -0.043183   0.359777  -0.042719   0.004491   0.000223
    11  C    0.000000   0.004444  -0.042314   0.360862  -0.042084   0.004630
    12  C    0.000000   0.000270   0.004503  -0.042838   0.359178  -0.044116
    13  C    0.000000   0.005536   0.000878   0.004916  -0.038461   0.352631
    14  C    0.004591   0.000205   0.000001   0.000000  -0.000001   0.006931
    15  N    0.003047   0.000000   0.000000   0.000000   0.000000   0.000000
    16  C   -0.000026   0.000000   0.000000   0.000000   0.000000   0.000000
    17  C   -0.000194   0.000000   0.000000   0.000000   0.000000   0.000000
    18  O    0.001506   0.000000   0.000000   0.000000   0.000000  -0.000019
    19  H    0.352353   0.000000   0.000000   0.000000   0.000000   0.000000
    20  H    0.000000   0.557980  -0.004913  -0.000158   0.000016  -0.000150
    21  H    0.000000  -0.004913   0.583272  -0.005414  -0.000177   0.000016
    22  H    0.000000  -0.000158  -0.005414   0.588023  -0.005410  -0.000170
    23  H    0.000000   0.000016  -0.000177  -0.005410   0.584502  -0.005213
    24  H    0.000000  -0.000150   0.000016  -0.000170  -0.005213   0.582945
    25  H   -0.000159  -0.000007   0.000000   0.000000  -0.000003   0.002260
    26  H   -0.000010   0.000000   0.000000   0.000000   0.000000   0.000000
    27  H   -0.000002   0.000000   0.000000   0.000000   0.000000   0.000000
    28  H    0.000003   0.000000   0.000000   0.000000   0.000000   0.000000
    29  H    0.000163   0.000000   0.000000   0.000000   0.000000   0.000000
    30  H    0.000005   0.000000   0.000000   0.000000   0.000000   0.000000
    31  H   -0.000006   0.000000   0.000000   0.000000   0.000000   0.000000
              25         26         27         28         29         30
     1  O    0.000008   0.011008   0.000285  -0.000519  -0.000014  -0.000054
     2  S    0.000196  -0.003485   0.001310  -0.002601  -0.003777  -0.008105
     3  N   -0.001169   0.000111  -0.000083  -0.000100   0.001916  -0.000218
     4  C   -0.025159  -0.000001   0.000000   0.000001   0.006581   0.000068
     5  N    0.004853   0.000000   0.000000   0.000000   0.001751   0.000024
     6  O    0.003131   0.000000   0.000000   0.000000  -0.000128   0.000000
     7  C   -0.032486   0.000000   0.000000   0.000000  -0.000035  -0.000004
     8  C   -0.002832   0.000000   0.000000   0.000000   0.000000   0.000000
     9  C   -0.000077   0.000000   0.000000   0.000000   0.000000   0.000000
    10  C    0.000000   0.000000   0.000000   0.000000   0.000000   0.000000
    11  C    0.000000   0.000000   0.000000   0.000000   0.000000   0.000000
    12  C    0.000079   0.000000   0.000000   0.000000   0.000000   0.000000
    13  C    0.000774   0.000000   0.000000   0.000000   0.000000   0.000000
    14  C    0.350882   0.000000   0.000000   0.000001   0.000836   0.000071
    15  N    0.000118  -0.031239  -0.039182  -0.048263  -0.032635  -0.045292
    16  C    0.000000   0.378955   0.376141   0.371276   0.004372  -0.002157
    17  C   -0.000016   0.004457  -0.003018  -0.002122   0.375478   0.370974
    18  O    0.010090  -0.000101  -0.000107   0.001996  -0.001928   0.005786
    19  H   -0.000159  -0.000010  -0.000002   0.000003   0.000163   0.000005
    20  H   -0.000007   0.000000   0.000000   0.000000   0.000000   0.000000
    21  H    0.000000   0.000000   0.000000   0.000000   0.000000   0.000000
    22  H    0.000000   0.000000   0.000000   0.000000   0.000000   0.000000
    23  H   -0.000003   0.000000   0.000000   0.000000   0.000000   0.000000
    24  H    0.002260   0.000000   0.000000   0.000000   0.000000   0.000000
    25  H    0.497070   0.000000   0.000000  -0.000001   0.000009  -0.000041
    26  H    0.000000   0.481215  -0.020183  -0.030393  -0.000184  -0.000207
    27  H    0.000000  -0.020183   0.554341  -0.041868   0.000150  -0.001671
    28  H   -0.000001  -0.030393  -0.041868   0.583058  -0.000166   0.008296
    29  H    0.000009  -0.000184   0.000150  -0.000166   0.510357  -0.030778
    30  H   -0.000041  -0.000207  -0.001671   0.008296  -0.030778   0.566036
    31  H    0.000002   0.000034   0.005772  -0.001425  -0.023255  -0.035900
              31
     1  O   -0.000050
     2  S    0.002056
     3  N   -0.000173
     4  C    0.000080
     5  N    0.000007
     6  O    0.000000
     7  C   -0.000001
     8  C    0.000000
     9  C    0.000000
    10  C    0.000000
    11  C    0.000000
    12  C    0.000000
    13  C    0.000000
    14  C    0.000027
    15  N   -0.034270
    16  C   -0.004652
    17  C    0.373791
    18  O    0.000079
    19  H   -0.000006
    20  H    0.000000
    21  H    0.000000
    22  H    0.000000
    23  H    0.000000
    24  H    0.000000
    25  H    0.000002
    26  H    0.000034
    27  H    0.005772
    28  H   -0.001425
    29  H   -0.023255
    30  H   -0.035900
    31  H    0.545953
 Mulliken charges:
               1
     1  O   -0.513280
     2  S    1.302227
     3  N   -0.773641
     4  C    0.493541
     5  N   -0.243453
     6  O   -0.402053
     7  C    0.381818
     8  C    0.085420
     9  C   -0.165001
    10  C   -0.134433
    11  C   -0.120928
    12  C   -0.137898
    13  C   -0.167684
    14  C   -0.272209
    15  N   -0.512228
    16  C   -0.325317
    17  C   -0.330802
    18  O   -0.531780
    19  H    0.374918
    20  H    0.162207
    21  H    0.139594
    22  H    0.137625
    23  H    0.139207
    24  H    0.144326
    25  H    0.192479
    26  H    0.210023
    27  H    0.168113
    28  H    0.162826
    29  H    0.191288
    30  H    0.173167
    31  H    0.171929
 Sum of Mulliken charges =   0.00000
 Mulliken charges with hydrogens summed into heavy atoms:
               1
     1  O   -0.513280
     2  S    1.302227
     3  N   -0.398723
     4  C    0.493541
     5  N   -0.243453
     6  O   -0.402053
     7  C    0.381818
     8  C    0.085420
     9  C   -0.002794
    10  C    0.005160
    11  C    0.016697
    12  C    0.001309
    13  C   -0.023358
    14  C   -0.079730
    15  N   -0.512228
    16  C    0.215644
    17  C    0.205582
    18  O   -0.531780
 Electronic spatial extent (au):  <R**2>=           6749.9848
 Charge=              0.0000 electrons
 Dipole moment (field-independent basis, Debye):
    X=              1.1348    Y=             -0.9070    Z=              3.5138  Tot=              3.8023
 Quadrupole moment (field-independent basis, Debye-Ang):
   XX=            -92.6655   YY=           -113.0327   ZZ=           -112.5067
   XY=             -5.9701   XZ=            -12.4388   YZ=             -1.6015
 Traceless Quadrupole moment (field-independent basis, Debye-Ang):
   XX=             13.4028   YY=             -6.9644   ZZ=             -6.4383
   XY=             -5.9701   XZ=            -12.4388   YZ=             -1.6015
 Octapole moment (field-independent basis, Debye-Ang**2):
  XXX=             24.6108  YYY=            -13.3152  ZZZ=             10.5189  XYY=              0.3391
  XXY=             -4.5760  XXZ=             66.1816  XZZ=            -24.3398  YZZ=              3.0484
  YYZ=             -4.2946  XYZ=             15.4487
 Hexadecapole moment (field-independent basis, Debye-Ang**3):
 XXXX=          -6693.5603 YYYY=           -867.8136 ZZZZ=           -580.1793 XXXY=              1.3812
 XXXZ=           -121.4147 YYYX=            -31.4281 YYYZ=             -0.1397 ZZZX=            -42.6653
 ZZZY=              5.7059 XXYY=          -1293.5014 XXZZ=          -1409.5542 YYZZ=           -241.8569
 XXYZ=             -4.3865 YYXZ=              7.1150 ZZXY=             13.1809
 N-N= 1.455216022123D+03 E-N=-5.756960807970D+03  KE= 1.205937002273D+03
 No NMR shielding tensors so no spin-rotation constants.
 Leave Link  601 at Thu Aug  6 22:17:57 2020, MaxMem=    33554432 cpu:         0.2
 (Enter /prod/apps/gaussian/g09d1/l9999.exe)
 1\1\GINC-PIRINEUS11\SP\RB3LYP\6-31G(d)\C11H13N3O3S1\UBAFAR01\06-Aug-20
 20\0\\#p b3lyp/6-31G(d)\\SM43.n.7.pdb.xyz\\0,1\O,0,3.869,-0.515,-0.219
 \S,0,3.392,0.403,0.808\N,0,3.583,-0.385,2.284\C,0,2.873,-0.085,3.45\N,
 0,3.486,-0.239,4.609\O,0,2.505,0.039,5.568\C,0,1.345,0.37,4.95\C,0,0.2
 04,0.705,5.797\C,0,0.317,0.669,7.196\C,0,-0.777,0.992,7.994\C,0,-1.993
 ,1.353,7.409\C,0,-2.11,1.39,6.017\C,0,-1.02,1.069,5.215\C,0,1.515,0.30
 3,3.594\N,0,4.524,1.644,0.897\C,0,5.023,2.112,-0.405\C,0,4.171,2.726,1
 .825\O,0,2.012,0.893,0.786\H,0,4.535,-0.712,2.436\H,0,1.262,0.388,7.64
 5\H,0,-0.681,0.961,9.074\H,0,-2.844,1.603,8.033\H,0,-3.051,1.669,5.556
 \H,0,-1.116,1.1,4.135\H,0,0.81,0.499,2.806\H,0,5.298,1.255,-1.015\H,0,
 5.913,2.714,-0.21\H,0,4.29,2.727,-0.941\H,0,3.912,2.312,2.8\H,0,3.341,
 3.341,1.458\H,0,5.058,3.351,1.944\\Version=AM64L-G09RevD.01\State=1-A\
 HF=-1214.9881516\RMSD=3.082e-09\Dipole=-0.0809066,1.4020338,0.5153241\
 Quadrupole=7.6701438,-3.8617341,-3.8084097,3.6358467,-9.6225558,-5.587
 031\PG=C01 [X(C11H13N3O3S1)]\\@


 AN AIRPLANE IS A COLLECTION OF SPARE PARTS
 FLYING IN CLOSE FORMATION.
 Job cpu time:       0 days  0 hours  3 minutes 41.1 seconds.
 File lengths (MBytes):  RWF=     51 Int=      0 D2E=      0 Chk=      4 Scr=      1
 Normal termination of Gaussian 09 at Thu Aug  6 22:17:57 2020.
 Initial command:
 /prod/apps/gaussian/g09d1/l1.exe "/tmp/ubafar01/1448659/Gau-9618.inp" -scrdir="/tmp/ubafar01/1448659/"
 Entering Link 1 = /prod/apps/gaussian/g09d1/l1.exe PID=      9886.
  
 Copyright (c) 1988,1990,1992,1993,1995,1998,2003,2009,2013,
            Gaussian, Inc.  All Rights Reserved.
  
 This is part of the Gaussian(R) 09 program.  It is based on
 the Gaussian(R) 03 system (copyright 2003, Gaussian, Inc.),
 the Gaussian(R) 98 system (copyright 1998, Gaussian, Inc.),
 the Gaussian(R) 94 system (copyright 1995, Gaussian, Inc.),
 the Gaussian 92(TM) system (copyright 1992, Gaussian, Inc.),
 the Gaussian 90(TM) system (copyright 1990, Gaussian, Inc.),
 the Gaussian 88(TM) system (copyright 1988, Gaussian, Inc.),
 the Gaussian 86(TM) system (copyright 1986, Carnegie Mellon
 University), and the Gaussian 82(TM) system (copyright 1983,
 Carnegie Mellon University). Gaussian is a federally registered
 trademark of Gaussian, Inc.
  
 This software contains proprietary and confidential information,
 including trade secrets, belonging to Gaussian, Inc.
  
 This software is provided under written license and may be
 used, copied, transmitted, or stored only in accord with that
 written license.
  
 The following legend is applicable only to US Government
 contracts under FAR:
  
                    RESTRICTED RIGHTS LEGEND
  
 Use, reproduction and disclosure by the US Government is
 subject to restrictions as set forth in subparagraphs (a)
 and (c) of the Commercial Computer Software - Restricted
 Rights clause in FAR 52.227-19.
  
 Gaussian, Inc.
 340 Quinnipiac St., Bldg. 40, Wallingford CT 06492
  
  
 ---------------------------------------------------------------
 Warning -- This program may not be used in any manner that
 competes with the business of Gaussian, Inc. or will provide
 assistance to any competitor of Gaussian, Inc.  The licensee
 of this program is prohibited from giving any competitor of
 Gaussian, Inc. access to this program.  By using this program,
 the user acknowledges that Gaussian, Inc. is engaged in the
 business of creating and licensing software in the field of
 computational chemistry and represents and warrants to the
 licensee that it is not a competitor of Gaussian, Inc. and that
 it will not use this program in any manner prohibited above.
 ---------------------------------------------------------------
  

 Cite this work as:
 Gaussian 09, Revision D.01,
 M. J. Frisch, G. W. Trucks, H. B. Schlegel, G. E. Scuseria, 
 M. A. Robb, J. R. Cheeseman, G. Scalmani, V. Barone, B. Mennucci, 
 G. A. Petersson, H. Nakatsuji, M. Caricato, X. Li, H. P. Hratchian, 
 A. F. Izmaylov, J. Bloino, G. Zheng, J. L. Sonnenberg, M. Hada, 
 M. Ehara, K. Toyota, R. Fukuda, J. Hasegawa, M. Ishida, T. Nakajima, 
 Y. Honda, O. Kitao, H. Nakai, T. Vreven, J. A. Montgomery, Jr., 
 J. E. Peralta, F. Ogliaro, M. Bearpark, J. J. Heyd, E. Brothers, 
 K. N. Kudin, V. N. Staroverov, T. Keith, R. Kobayashi, J. Normand, 
 K. Raghavachari, A. Rendell, J. C. Burant, S. S. Iyengar, J. Tomasi, 
 M. Cossi, N. Rega, J. M. Millam, M. Klene, J. E. Knox, J. B. Cross, 
 V. Bakken, C. Adamo, J. Jaramillo, R. Gomperts, R. E. Stratmann, 
 O. Yazyev, A. J. Austin, R. Cammi, C. Pomelli, J. W. Ochterski, 
 R. L. Martin, K. Morokuma, V. G. Zakrzewski, G. A. Voth, 
 P. Salvador, J. J. Dannenberg, S. Dapprich, A. D. Daniels, 
 O. Farkas, J. B. Foresman, J. V. Ortiz, J. Cioslowski, 
 and D. J. Fox, Gaussian, Inc., Wallingford CT, 2013.
 
 ******************************************
 Gaussian 09:  AM64L-G09RevD.01 24-Apr-2013
                 6-Aug-2020 
 ******************************************
 %nproc=1
 Will use up to    1 processors via shared memory.
 %Chk=SM43.n.7.pdb.xyz.mst.n.o.chk
 %subst l301 /dades/curu/work_g09D01_MST_AddSphPartition_ReadGammas/exe-dir/
 %subst l502 /dades/curu/work_g09D01_MST_AddSphPartition_ReadGammas/exe-dir/
 ----------------------------------------------------------------------
 #p b3lyp/6-31G(d) scrf=(iefpcm,read,solvent=n-Octanol) geom=allcheck g
 uess=read
 ----------------------------------------------------------------------
 1/29=7,38=1,40=2/1;
 2/12=2,40=1/2;
 3/5=1,6=6,7=1,11=2,14=-4,16=1,25=1,30=1,70=2203,72=25,74=-5,116=-2/1,2,3;
 4/5=1/1;
 5/5=2,38=6,53=25/2;
 6/7=2,8=2,9=2,10=2,28=1/1;
 99/5=1,9=1/99;
 Leave Link    1 at Thu Aug  6 22:17:57 2020, MaxMem=           0 cpu:         0.0
 (Enter /prod/apps/gaussian/g09d1/l101.exe)
 Structure from the checkpoint file:  "SM43.n.7.pdb.xyz.mst.n.o.chk"
 ----------------
 SM43.n.7.pdb.xyz
 ----------------
 Charge =  0 Multiplicity = 1
 Z-Matrix found in file.
 O,0,3.869,-0.515,-0.219
 S,0,3.392,0.403,0.808
 N,0,3.583,-0.385,2.284
 C,0,2.873,-0.085,3.45
 N,0,3.486,-0.239,4.609
 O,0,2.505,0.039,5.568
 C,0,1.345,0.37,4.95
 C,0,0.204,0.705,5.797
 C,0,0.317,0.669,7.196
 C,0,-0.777,0.992,7.994
 C,0,-1.993,1.353,7.409
 C,0,-2.11,1.39,6.017
 C,0,-1.02,1.069,5.215
 C,0,1.515,0.303,3.594
 N,0,4.524,1.644,0.897
 C,0,5.023,2.112,-0.405
 C,0,4.171,2.726,1.825
 O,0,2.012,0.893,0.786
 H,0,4.535,-0.712,2.436
 H,0,1.262,0.388,7.645
 H,0,-0.681,0.961,9.074
 H,0,-2.844,1.603,8.033
 H,0,-3.051,1.669,5.556
 H,0,-1.116,1.1,4.135
 H,0,0.81,0.499,2.806
 H,0,5.298,1.255,-1.015
 H,0,5.913,2.714,-0.21
 H,0,4.29,2.727,-0.941
 H,0,3.912,2.312,2.8
 H,0,3.341,3.341,1.458
 H,0,5.058,3.351,1.944
 Recover connectivity data from disk.
 NAtoms=     31 NQM=       31 NQMF=       0 NMMI=      0 NMMIF=      0
                NMic=       0 NMicF=      0.
                    Isotopes and Nuclear Properties:
 (Nuclear quadrupole moments (NQMom) in fm**2, nuclear magnetic moments (NMagM)
  in nuclear magnetons)

  Atom         1           2           3           4           5           6           7           8           9          10
 IAtWgt=          16          32          14          12          14          16          12          12          12          12
 AtmWgt=  15.9949146  31.9720718  14.0030740  12.0000000  14.0030740  15.9949146  12.0000000  12.0000000  12.0000000  12.0000000
 NucSpn=           0           0           2           0           2           0           0           0           0           0
 AtZEff=  -5.6000000 -13.6000000  -4.5500000  -3.6000000  -4.5500000  -5.6000000  -3.6000000  -3.6000000  -3.6000000  -3.6000000
 NQMom=    0.0000000   0.0000000   2.0440000   0.0000000   2.0440000   0.0000000   0.0000000   0.0000000   0.0000000   0.0000000
 NMagM=    0.0000000   0.0000000   0.4037610   0.0000000   0.4037610   0.0000000   0.0000000   0.0000000   0.0000000   0.0000000
 AtZNuc=   8.0000000  16.0000000   7.0000000   6.0000000   7.0000000   8.0000000   6.0000000   6.0000000   6.0000000   6.0000000

  Atom        11          12          13          14          15          16          17          18          19          20
 IAtWgt=          12          12          12          12          14          12          12          16           1           1
 AtmWgt=  12.0000000  12.0000000  12.0000000  12.0000000  14.0030740  12.0000000  12.0000000  15.9949146   1.0078250   1.0078250
 NucSpn=           0           0           0           0           2           0           0           0           1           1
 AtZEff=  -3.6000000  -3.6000000  -3.6000000  -3.6000000  -4.5500000  -3.6000000  -3.6000000  -5.6000000  -1.0000000  -1.0000000
 NQMom=    0.0000000   0.0000000   0.0000000   0.0000000   2.0440000   0.0000000   0.0000000   0.0000000   0.0000000   0.0000000
 NMagM=    0.0000000   0.0000000   0.0000000   0.0000000   0.4037610   0.0000000   0.0000000   0.0000000   2.7928460   2.7928460
 AtZNuc=   6.0000000   6.0000000   6.0000000   6.0000000   7.0000000   6.0000000   6.0000000   8.0000000   1.0000000   1.0000000

  Atom        21          22          23          24          25          26          27          28          29          30
 IAtWgt=           1           1           1           1           1           1           1           1           1           1
 AtmWgt=   1.0078250   1.0078250   1.0078250   1.0078250   1.0078250   1.0078250   1.0078250   1.0078250   1.0078250   1.0078250
 NucSpn=           1           1           1           1           1           1           1           1           1           1
 AtZEff=  -1.0000000  -1.0000000  -1.0000000  -1.0000000  -1.0000000  -1.0000000  -1.0000000  -1.0000000  -1.0000000  -1.0000000
 NQMom=    0.0000000   0.0000000   0.0000000   0.0000000   0.0000000   0.0000000   0.0000000   0.0000000   0.0000000   0.0000000
 NMagM=    2.7928460   2.7928460   2.7928460   2.7928460   2.7928460   2.7928460   2.7928460   2.7928460   2.7928460   2.7928460
 AtZNuc=   1.0000000   1.0000000   1.0000000   1.0000000   1.0000000   1.0000000   1.0000000   1.0000000   1.0000000   1.0000000

  Atom        31
 IAtWgt=           1
 AtmWgt=   1.0078250
 NucSpn=           1
 AtZEff=  -1.0000000
 NQMom=    0.0000000
 NMagM=    2.7928460
 AtZNuc=   1.0000000
 Leave Link  101 at Thu Aug  6 22:17:57 2020, MaxMem=    33554432 cpu:         0.0
 (Enter /prod/apps/gaussian/g09d1/l202.exe)
                          Input orientation:                          
 ---------------------------------------------------------------------
 Center     Atomic      Atomic             Coordinates (Angstroms)
 Number     Number       Type             X           Y           Z
 ---------------------------------------------------------------------
      1          8           0        3.869000   -0.515000   -0.219000
      2         16           0        3.392000    0.403000    0.808000
      3          7           0        3.583000   -0.385000    2.284000
      4          6           0        2.873000   -0.085000    3.450000
      5          7           0        3.486000   -0.239000    4.609000
      6          8           0        2.505000    0.039000    5.568000
      7          6           0        1.345000    0.370000    4.950000
      8          6           0        0.204000    0.705000    5.797000
      9          6           0        0.317000    0.669000    7.196000
     10          6           0       -0.777000    0.992000    7.994000
     11          6           0       -1.993000    1.353000    7.409000
     12          6           0       -2.110000    1.390000    6.017000
     13          6           0       -1.020000    1.069000    5.215000
     14          6           0        1.515000    0.303000    3.594000
     15          7           0        4.524000    1.644000    0.897000
     16          6           0        5.023000    2.112000   -0.405000
     17          6           0        4.171000    2.726000    1.825000
     18          8           0        2.012000    0.893000    0.786000
     19          1           0        4.535000   -0.712000    2.436000
     20          1           0        1.262000    0.388000    7.645000
     21          1           0       -0.681000    0.961000    9.074000
     22          1           0       -2.844000    1.603000    8.033000
     23          1           0       -3.051000    1.669000    5.556000
     24          1           0       -1.116000    1.100000    4.135000
     25          1           0        0.810000    0.499000    2.806000
     26          1           0        5.298000    1.255000   -1.015000
     27          1           0        5.913000    2.714000   -0.210000
     28          1           0        4.290000    2.727000   -0.941000
     29          1           0        3.912000    2.312000    2.800000
     30          1           0        3.341000    3.341000    1.458000
     31          1           0        5.058000    3.351000    1.944000
 ---------------------------------------------------------------------
                    Distance matrix (angstroms):
                    1          2          3          4          5
     1  O    0.000000
     2  S    1.457732   0.000000
     3  N    2.522638   1.684043   0.000000
     4  C    3.826026   2.736361   1.397732   0.000000
     5  N    4.851026   3.855982   2.331598   1.320139   0.000000
     6  O    5.971330   4.855601   3.482315   2.153305   1.399759
     7  C    5.819997   4.620331   3.561773   2.189020   2.251898
     8  C    7.149327   5.928294   4.994688   3.640889   3.615799
     9  C    8.306671   7.094570   5.992113   4.597191   4.190417
    10  C    9.555613   8.328630   7.315041   5.927087   5.580928
    11  C    9.799941   8.571693   7.770331   6.435797   6.355620
    12  C    8.846760   7.640671   7.035351   5.796154   5.995942
    13  C    7.479287   6.271439   5.647343   4.427459   4.730976
    14  C    4.555152   3.360792   2.542846   1.419663   2.282286
    15  N    2.517094   1.682090   2.631747   3.497578   4.289764
    16  C    2.875316   2.655600   3.941996   4.930551   5.747153
    17  C    3.843595   2.652821   3.199179   3.496734   4.124452
    18  O    2.537900   1.464576   2.518994   2.965586   4.250815
    19  H    2.744338   2.280364   1.018006   2.045377   2.458874
    20  H    8.333928   7.161124   5.892783   4.518526   3.815311
    21  H   10.451838   9.231871   8.130038   6.734568   6.224156
    22  H   10.846465   9.619164   8.849264   7.519130   7.428704
    23  H    9.273989   8.102994   7.676904   6.527291   6.875292
    24  H    6.812912   5.645954   5.264221   4.217294   4.816223
    25  H    4.419989   3.266182   2.956936   2.238696   3.310050
    26  H    2.410095   2.771655   4.063770   5.254755   6.094650
    27  H    3.821578   3.568261   4.610069   5.520109   6.150878
    28  H    3.347998   3.044073   4.537072   5.403343   6.343979
    29  H    4.136199   2.807623   2.765557   2.692142   3.156194
    30  H    4.237906   3.009476   3.824123   3.990559   4.771397
    31  H    4.586747   3.571660   4.030995   4.341469   4.739357
                    6          7          8          9         10
     6  O    0.000000
     7  C    1.355391   0.000000
     8  C    2.406366   1.459971   0.000000
     9  C    2.799041   2.488112   1.404018   0.000000
    10  C    4.191087   3.762407   2.423126   1.392110   0.000000
    11  C    5.034668   4.260894   2.800939   2.418538   1.396854
    12  C    4.829599   3.757115   2.423267   2.792886   2.417400
    13  C    3.689327   2.480333   1.403352   2.423207   2.790666
    14  C    2.224067   1.368256   2.594905   3.813602   5.008791
    15  N    5.335787   5.306216   6.599555   7.637203   8.882180
    16  C    6.805467   6.725940   7.979174   9.055600  10.268281
    17  C    4.899548   4.827280   5.966432   6.923309   8.096050
    18  O    4.882611   4.249390   5.330509   6.634101   7.729398
    19  H    3.807141   4.203215   5.662311   6.508171   7.874790
    20  H    2.445563   2.696338   2.152895   1.083322   2.155026
    21  H    4.826253   4.632638   3.404040   2.146661   1.084701
    22  H    6.093777   5.345362   3.885409   3.400713   2.155767
    23  H    5.790180   4.623792   3.403293   3.877244   3.401948
    24  H    4.036193   2.693259   2.158858   3.407194   3.875367
    25  H    3.273113   2.213504   3.058718   4.420865   5.447657
    26  H    7.253647   7.210455   8.523771   9.621553  10.869079
    27  H    7.221868   7.279187   8.527181   9.505055  10.725064
    28  H    7.264892   6.995167   8.135387   9.286057  10.417242
    29  H    3.848117   3.870834   5.031274   5.911708   7.120868
    30  H    5.337996   5.000492   5.967930   7.014899   8.074343
    31  H    5.533582   5.631054   6.738564   7.566618   8.730098
                   11         12         13         14         15
    11  C    0.000000
    12  C    1.397398   0.000000
    13  C    2.416820   1.390807   0.000000
    14  C    5.287985   4.493676   3.104935   0.000000
    15  N    9.217490   8.383846   7.050651   4.257484   0.000000
    16  C   10.528957   9.625126   8.318059   5.618767   1.470792
    17  C    8.429773   7.668684   6.417494   4.006822   1.468508
    18  O    7.753435   6.678417   5.370292   2.912039   2.624208
    19  H    8.462254   7.835687   6.461643   3.389925   2.814139
    20  H    3.403226   3.876180   3.402379   4.059783   7.599584
    21  H    2.155744   3.401666   3.875367   5.940183   9.717090
    22  H    1.084471   2.156010   3.399008   6.355753  10.257271
    23  H    2.157042   1.084363   2.145051   5.154004   8.893117
    24  H    3.398855   2.148036   1.084701   2.801794   6.526115
    25  H    5.456531   4.430666   3.078487   1.075353   4.330023
    26  H   11.141457  10.214975   8.874943   6.038234   2.099081
    27  H   11.063739  10.241925   8.955621   6.294898   2.073565
    28  H   10.539756   9.547844   8.297072   5.843169   2.146134
    29  H    7.551926   6.889387   5.630444   3.226783   2.107647
    30  H    8.235175   7.369144   6.188324   4.138383   2.143366
    31  H    9.141927   8.474377   7.269735   4.956375   2.072490
                   16         17         18         19         20
    16  C    0.000000
    17  C    2.464914   0.000000
    18  O    3.459850   3.016735   0.000000
    19  H    4.035394   3.510792   3.415268   0.000000
    20  H    9.050956   6.913821   6.918338   6.249497   0.000000
    21  H   11.122583   8.899726   8.714804   8.606313   2.479036
    22  H   11.547667   9.434544   8.752362   9.546480   4.299535
    23  H   10.045857   8.197249   6.999217   8.541133   4.960529
    24  H    7.702147   5.994359   4.587269   6.172823   4.299061
    25  H    5.537297   4.149483   2.383367   3.934342   4.861332
    26  H    1.087278   3.391102   3.764630   4.044831   9.593570
    27  H    1.092030   2.678793   4.418807   4.542871   9.420356
    28  H    1.096727   2.768559   3.396376   4.826062   9.399952
    29  H    3.397991   1.090460   3.111231   3.108891   5.847931
    30  H    2.794697   1.096273   2.865402   4.336926   7.163897
    31  H    2.655964   1.091584   4.081770   4.125962   7.462599
                   21         22         23         24         25
    21  H    0.000000
    22  H    2.484837   0.000000
    23  H    4.300522   2.486510   0.000000
    24  H    4.960067   4.293413   2.467231   0.000000
    25  H    6.459439   6.472408   4.882491   2.415971   0.000000
    26  H   11.731274  12.177010  10.632744   8.227145   5.942535
    27  H   11.521567  12.077517  10.709439   8.419671   6.327961
    28  H   11.319444  11.519115   9.860053   7.591952   5.578028
    29  H    7.892017   8.574993   7.516140   5.341531   3.592967
    30  H    8.935566   9.192687   7.774757   5.661560   4.037329
    31  H    9.459658  10.127834   9.035018   6.927175   5.188685
                   26         27         28         29         30
    26  H    0.000000
    27  H    1.776213   0.000000
    28  H    1.785588   1.780073   0.000000
    29  H    4.194338   3.636716   3.782881   0.000000
    30  H    3.781134   3.128983   2.651942   1.784894   0.000000
    31  H    3.634074   2.403437   3.049988   1.767929   1.784485
                   31
    31  H    0.000000
 Stoichiometry    C11H13N3O3S
 Framework group  C1[X(C11H13N3O3S)]
 Deg. of freedom    87
[...]
 Alpha virt. eigenvalues --    0.82132   0.82763   0.83245   0.84556   0.85128
 Alpha virt. eigenvalues --    0.86437   0.87063   0.87931   0.88592   0.88728
 Alpha virt. eigenvalues --    0.89868   0.90805   0.91161   0.93189   0.93631
 Alpha virt. eigenvalues --    0.94269   0.94788   0.97095   0.98063   0.98909
 Alpha virt. eigenvalues --    0.99679   1.00820   1.03146   1.03982   1.05961
 Alpha virt. eigenvalues --    1.08202   1.09925   1.10437   1.10919   1.12924
 Alpha virt. eigenvalues --    1.15189   1.15552   1.17376   1.18521   1.19375
 Alpha virt. eigenvalues --    1.21136   1.22874   1.24023   1.24868   1.27571
 Alpha virt. eigenvalues --    1.30049   1.31030   1.33450   1.34343   1.36016
 Alpha virt. eigenvalues --    1.38132   1.40495   1.41705   1.42177   1.43943
 Alpha virt. eigenvalues --    1.45071   1.46873   1.47500   1.48026   1.49910
 Alpha virt. eigenvalues --    1.50592   1.53544   1.54226   1.55981   1.58077
 Alpha virt. eigenvalues --    1.59624   1.64278   1.68586   1.70627   1.76236
 Alpha virt. eigenvalues --    1.77353   1.78427   1.79126   1.79974   1.81186
 Alpha virt. eigenvalues --    1.82498   1.84292   1.86185   1.86777   1.88461
 Alpha virt. eigenvalues --    1.89399   1.92037   1.92982   1.94134   1.95540
 Alpha virt. eigenvalues --    1.96868   1.97747   1.98148   2.00250   2.01977
 Alpha virt. eigenvalues --    2.03890   2.04551   2.06402   2.08328   2.10373
 Alpha virt. eigenvalues --    2.11128   2.11731   2.13120   2.13539   2.14201
 Alpha virt. eigenvalues --    2.17038   2.18855   2.19017   2.21017   2.22126
 Alpha virt. eigenvalues --    2.23491   2.24952   2.28425   2.29868   2.30706
 Alpha virt. eigenvalues --    2.31105   2.32560   2.33034   2.35270   2.41774
 Alpha virt. eigenvalues --    2.43589   2.47153   2.50516   2.52517   2.53922
 Alpha virt. eigenvalues --    2.56327   2.57895   2.58607   2.60080   2.62797
 Alpha virt. eigenvalues --    2.65935   2.66759   2.69564   2.70019   2.73788
 Alpha virt. eigenvalues --    2.74553   2.76720   2.77686   2.80746   2.85134
 Alpha virt. eigenvalues --    2.90293   2.90769   3.01315   3.04791   3.13554
 Alpha virt. eigenvalues --    3.26947   3.42683   3.78019   3.79518   3.92645
 Alpha virt. eigenvalues --    3.98767   4.01640   4.07122   4.08783   4.09699
 Alpha virt. eigenvalues --    4.10674   4.14680   4.22852   4.26428   4.31248
 Alpha virt. eigenvalues --    4.32357   4.38135   4.40764   4.55240   4.73878
          Condensed to atoms (all electrons):
               1          2          3          4          5          6
     1  O    8.206207   0.474282  -0.055911   0.000865  -0.000017   0.000000
     2  S    0.474282  13.543487   0.161262  -0.008865  -0.002238   0.000129
     3  N   -0.055911   0.161262   7.413426   0.218830  -0.076674   0.005615
     4  C    0.000865  -0.008865   0.218830   4.527717   0.415298  -0.043727
     5  N   -0.000017  -0.002238  -0.076674   0.415298   6.911722   0.131529
     6  O    0.000000   0.000129   0.005615  -0.043727   0.131529   8.182895
     7  C   -0.000002  -0.000245  -0.000411  -0.015167  -0.084287   0.248955
     8  C    0.000000  -0.000016  -0.000200   0.003754   0.004621  -0.037486
     9  C    0.000000   0.000000  -0.000001  -0.000374   0.000158  -0.006586
    10  C    0.000000   0.000000   0.000000   0.000005   0.000001   0.000290
    11  C    0.000000   0.000000   0.000000   0.000000   0.000000   0.000001
    12  C    0.000000   0.000000   0.000000  -0.000007   0.000001  -0.000061
    13  C    0.000000  -0.000002   0.000002   0.000629  -0.000108   0.003148
    14  C   -0.000052  -0.003655  -0.055692   0.448858  -0.051716  -0.089861
    15  N   -0.059471   0.167141  -0.059815   0.000343   0.000077   0.000000
    16  C   -0.003593  -0.023731   0.002194  -0.000051  -0.000001   0.000000
    17  C    0.001663  -0.006216  -0.002461  -0.001092  -0.000711   0.000008
    18  O   -0.043339   0.421298  -0.056463  -0.001228   0.000152  -0.000001
    19  H   -0.000067  -0.006198   0.289777  -0.022005   0.004752  -0.000204
    20  H    0.000000   0.000000   0.000000   0.000060  -0.000241   0.009759
    21  H    0.000000   0.000000   0.000000   0.000000   0.000000  -0.000003
    22  H    0.000000   0.000000   0.000000   0.000000   0.000000   0.000000
    23  H    0.000000   0.000000   0.000000   0.000000   0.000000   0.000000
    24  H    0.000000  -0.000003   0.000000   0.000084  -0.000005   0.000029
    25  H    0.000008   0.000398  -0.001191  -0.026203   0.004939   0.003156
    26  H    0.010568  -0.003699   0.000109  -0.000001   0.000000   0.000000
    27  H    0.000266   0.001386  -0.000084   0.000000   0.000000   0.000000
    28  H   -0.000506  -0.002827  -0.000097   0.000001   0.000000   0.000000
    29  H   -0.000014  -0.003299   0.001655   0.006468   0.001623  -0.000119
    30  H   -0.000053  -0.008678  -0.000214   0.000052   0.000024   0.000000
    31  H   -0.000049   0.002095  -0.000161   0.000069   0.000007   0.000000
               7          8          9         10         11         12
     1  O   -0.000002   0.000000   0.000000   0.000000   0.000000   0.000000
     2  S   -0.000245  -0.000016   0.000000   0.000000   0.000000   0.000000
     3  N   -0.000411  -0.000200  -0.000001   0.000000   0.000000   0.000000
     4  C   -0.015167   0.003754  -0.000374   0.000005   0.000000  -0.000007
     5  N   -0.084287   0.004621   0.000158   0.000001   0.000000   0.000001
     6  O    0.248955  -0.037486  -0.006586   0.000290   0.000001  -0.000061
     7  C    4.770519   0.339251  -0.040536   0.004740   0.000869   0.006350
     8  C    0.339251   4.781280   0.476179  -0.008840  -0.033827  -0.009684
     9  C   -0.040536   0.476179   5.051457   0.506436  -0.037117  -0.042178
    10  C    0.004740  -0.008840   0.506436   4.882224   0.541342  -0.024979
    11  C    0.000869  -0.033827  -0.037117   0.541342   4.863402   0.542711
    12  C    0.006350  -0.009684  -0.042178  -0.024979   0.542711   4.870382
    13  C   -0.042134   0.536235  -0.082744  -0.041714  -0.039247   0.520554
    14  C    0.487241  -0.058586   0.011795  -0.000231   0.000014   0.000252
    15  N   -0.000013   0.000000   0.000000   0.000000   0.000000   0.000000
    16  C    0.000000   0.000000   0.000000   0.000000   0.000000   0.000000
    17  C    0.000018   0.000002   0.000000   0.000000   0.000000   0.000000
    18  O    0.000414  -0.000005   0.000000   0.000000   0.000000   0.000000
    19  H    0.000265   0.000001   0.000000   0.000000   0.000000   0.000000
    20  H   -0.013137  -0.041220   0.361319  -0.041865   0.004500   0.000230
    21  H   -0.000177   0.003173  -0.037703   0.361981  -0.041195   0.004419
    22  H    0.000003   0.000524   0.004663  -0.041747   0.363102  -0.041830
    23  H   -0.000205   0.003241   0.000833   0.004399  -0.041051   0.361476
    24  H   -0.012999  -0.037922   0.005751   0.000199   0.004563  -0.042074
    25  H   -0.031561  -0.003019  -0.000079   0.000001   0.000000   0.000079
    26  H    0.000000   0.000000   0.000000   0.000000   0.000000   0.000000
    27  H    0.000000   0.000000   0.000000   0.000000   0.000000   0.000000
    28  H    0.000000   0.000000   0.000000   0.000000   0.000000   0.000000
    29  H   -0.000037   0.000001   0.000000   0.000000   0.000000   0.000000
    30  H   -0.000003   0.000000   0.000000   0.000000   0.000000   0.000000
    31  H   -0.000001   0.000000   0.000000   0.000000   0.000000   0.000000
              13         14         15         16         17         18
     1  O    0.000000  -0.000052  -0.059471  -0.003593   0.001663  -0.043339
     2  S   -0.000002  -0.003655   0.167141  -0.023731  -0.006216   0.421298
     3  N    0.000002  -0.055692  -0.059815   0.002194  -0.002461  -0.056463
     4  C    0.000629   0.448858   0.000343  -0.000051  -0.001092  -0.001228
     5  N   -0.000108  -0.051716   0.000077  -0.000001  -0.000711   0.000152
     6  O    0.003148  -0.089861   0.000000   0.000000   0.000008  -0.000001
     7  C   -0.042134   0.487241  -0.000013   0.000000   0.000018   0.000414
     8  C    0.536235  -0.058586   0.000000   0.000000   0.000002  -0.000005
     9  C   -0.082744   0.011795   0.000000   0.000000   0.000000   0.000000
    10  C   -0.041714  -0.000231   0.000000   0.000000   0.000000   0.000000
    11  C   -0.039247   0.000014   0.000000   0.000000   0.000000   0.000000
    12  C    0.520554   0.000252   0.000000   0.000000   0.000000   0.000000
    13  C    5.011421  -0.020928   0.000000   0.000000   0.000000   0.000003
    14  C   -0.020928   5.244518   0.000009  -0.000006  -0.000373  -0.002642
    15  N    0.000000   0.000009   7.199875   0.282128   0.263628  -0.054909
    16  C    0.000000  -0.000006   0.282128   4.994871  -0.049319  -0.001850
    17  C    0.000000  -0.000373   0.263628  -0.049319   5.001232   0.003521
    18  O    0.000003  -0.002642  -0.054909  -0.001850   0.003521   8.259396
    19  H    0.000000   0.004231   0.002675  -0.000021  -0.000173   0.001369
    20  H    0.005444   0.000216   0.000000   0.000000   0.000000   0.000000
    21  H    0.000825   0.000001   0.000000   0.000000   0.000000   0.000000
    22  H    0.004831   0.000000   0.000000   0.000000   0.000000   0.000000
    23  H   -0.037598  -0.000001   0.000000   0.000000   0.000000   0.000000
    24  H    0.354991   0.006703   0.000000   0.000000   0.000000  -0.000019
    25  H    0.000894   0.351065   0.000117   0.000000  -0.000020   0.010139
    26  H    0.000000   0.000000  -0.032032   0.378254   0.004430  -0.000101
    27  H    0.000000   0.000000  -0.037835   0.378780  -0.002870  -0.000104
    28  H    0.000000   0.000001  -0.047954   0.372670  -0.001913   0.001960
    29  H    0.000000   0.000683  -0.033209   0.004362   0.374584  -0.001947
    30  H    0.000000   0.000074  -0.045117  -0.002054   0.372625   0.005708
    31  H    0.000000   0.000026  -0.033168  -0.004456   0.376562   0.000073
              19         20         21         22         23         24
     1  O   -0.000067   0.000000   0.000000   0.000000   0.000000   0.000000
     2  S   -0.006198   0.000000   0.000000   0.000000   0.000000  -0.000003
     3  N    0.289777   0.000000   0.000000   0.000000   0.000000   0.000000
     4  C   -0.022005   0.000060   0.000000   0.000000   0.000000   0.000084
     5  N    0.004752  -0.000241   0.000000   0.000000   0.000000  -0.000005
     6  O   -0.000204   0.009759  -0.000003   0.000000   0.000000   0.000029
     7  C    0.000265  -0.013137  -0.000177   0.000003  -0.000205  -0.012999
     8  C    0.000001  -0.041220   0.003173   0.000524   0.003241  -0.037922
     9  C    0.000000   0.361319  -0.037703   0.004663   0.000833   0.005751
    10  C    0.000000  -0.041865   0.361981  -0.041747   0.004399   0.000199
    11  C    0.000000   0.004500  -0.041195   0.363102  -0.041051   0.004563
    12  C    0.000000   0.000230   0.004419  -0.041830   0.361476  -0.042074
    13  C    0.000000   0.005444   0.000825   0.004831  -0.037598   0.354991
    14  C    0.004231   0.000216   0.000001   0.000000  -0.000001   0.006703
    15  N    0.002675   0.000000   0.000000   0.000000   0.000000   0.000000
    16  C   -0.000021   0.000000   0.000000   0.000000   0.000000   0.000000
    17  C   -0.000173   0.000000   0.000000   0.000000   0.000000   0.000000
    18  O    0.001369   0.000000   0.000000   0.000000   0.000000  -0.000019
    19  H    0.327825   0.000000   0.000000   0.000000   0.000000   0.000000
    20  H    0.000000   0.557725  -0.004887  -0.000153   0.000015  -0.000145
    21  H    0.000000  -0.004887   0.567086  -0.005184  -0.000168   0.000015
    22  H    0.000000  -0.000153  -0.005184   0.570036  -0.005174  -0.000162
    23  H    0.000000   0.000015  -0.000168  -0.005174   0.566924  -0.005021
    24  H    0.000000  -0.000145   0.000015  -0.000162  -0.005021   0.569456
    25  H   -0.000146  -0.000008   0.000000   0.000000  -0.000002   0.002082
    26  H   -0.000010   0.000000   0.000000   0.000000   0.000000   0.000000
    27  H   -0.000002   0.000000   0.000000   0.000000   0.000000   0.000000
    28  H    0.000003   0.000000   0.000000   0.000000   0.000000   0.000000
    29  H    0.000150   0.000000   0.000000   0.000000   0.000000   0.000000
    30  H    0.000005   0.000000   0.000000   0.000000   0.000000   0.000000
    31  H   -0.000007   0.000000   0.000000   0.000000   0.000000   0.000000
              25         26         27         28         29         30
     1  O    0.000008   0.010568   0.000266  -0.000506  -0.000014  -0.000053
     2  S    0.000398  -0.003699   0.001386  -0.002827  -0.003299  -0.008678
     3  N   -0.001191   0.000109  -0.000084  -0.000097   0.001655  -0.000214
     4  C   -0.026203  -0.000001   0.000000   0.000001   0.006468   0.000052
     5  N    0.004939   0.000000   0.000000   0.000000   0.001623   0.000024
     6  O    0.003156   0.000000   0.000000   0.000000  -0.000119   0.000000
     7  C   -0.031561   0.000000   0.000000   0.000000  -0.000037  -0.000003
     8  C   -0.003019   0.000000   0.000000   0.000000   0.000001   0.000000
     9  C   -0.000079   0.000000   0.000000   0.000000   0.000000   0.000000
    10  C    0.000001   0.000000   0.000000   0.000000   0.000000   0.000000
    11  C    0.000000   0.000000   0.000000   0.000000   0.000000   0.000000
    12  C    0.000079   0.000000   0.000000   0.000000   0.000000   0.000000
    13  C    0.000894   0.000000   0.000000   0.000000   0.000000   0.000000
    14  C    0.351065   0.000000   0.000000   0.000001   0.000683   0.000074
    15  N    0.000117  -0.032032  -0.037835  -0.047954  -0.033209  -0.045117
    16  C    0.000000   0.378254   0.378780   0.372670   0.004362  -0.002054
    17  C   -0.000020   0.004430  -0.002870  -0.001913   0.374584   0.372625
    18  O    0.010139  -0.000101  -0.000104   0.001960  -0.001947   0.005708
    19  H   -0.000146  -0.000010  -0.000002   0.000003   0.000150   0.000005
    20  H   -0.000008   0.000000   0.000000   0.000000   0.000000   0.000000
    21  H    0.000000   0.000000   0.000000   0.000000   0.000000   0.000000
    22  H    0.000000   0.000000   0.000000   0.000000   0.000000   0.000000
    23  H   -0.000002   0.000000   0.000000   0.000000   0.000000   0.000000
    24  H    0.002082   0.000000   0.000000   0.000000   0.000000   0.000000
    25  H    0.494980   0.000000   0.000000  -0.000001   0.000012  -0.000043
    26  H    0.000000   0.490224  -0.019853  -0.030830  -0.000190  -0.000199
    27  H    0.000000  -0.019853   0.532852  -0.039399   0.000145  -0.001589
    28  H   -0.000001  -0.030830  -0.039399   0.574103  -0.000159   0.007963
    29  H    0.000012  -0.000190   0.000145  -0.000159   0.514503  -0.031066
    30  H   -0.000043  -0.000199  -0.001589   0.007963  -0.031066   0.559558
    31  H    0.000002   0.000040   0.005406  -0.001349  -0.022638  -0.033778
              31
     1  O   -0.000049
     2  S    0.002095
     3  N   -0.000161
     4  C    0.000069
     5  N    0.000007
     6  O    0.000000
     7  C   -0.000001
     8  C    0.000000
     9  C    0.000000
    10  C    0.000000
    11  C    0.000000
    12  C    0.000000
    13  C    0.000000
    14  C    0.000026
    15  N   -0.033168
    16  C   -0.004456
    17  C    0.376562
    18  O    0.000073
    19  H   -0.000007
    20  H    0.000000
    21  H    0.000000
    22  H    0.000000
    23  H    0.000000
    24  H    0.000000
    25  H    0.000002
    26  H    0.000040
    27  H    0.005406
    28  H   -0.001349
    29  H   -0.022638
    30  H   -0.033778
    31  H    0.524614
 Mulliken charges:
               1
     1  O   -0.530785
     2  S    1.298195
     3  N   -0.783494
     4  C    0.495685
     5  N   -0.258905
     6  O   -0.407467
     7  C    0.382290
     8  C    0.082542
     9  C   -0.171273
    10  C   -0.142241
    11  C   -0.128066
    12  C   -0.145641
    13  C   -0.174501
    14  C   -0.271944
    15  N   -0.512468
    16  C   -0.328177
    17  C   -0.333124
    18  O   -0.541427
    19  H    0.397779
    20  H    0.162388
    21  H    0.151814
    22  H    0.151090
    23  H    0.152333
    24  H    0.154479
    25  H    0.194401
    26  H    0.203290
    27  H    0.182901
    28  H    0.168335
    29  H    0.188493
    30  H    0.176785
    31  H    0.186712
 Sum of Mulliken charges =   0.00000
 Mulliken charges with hydrogens summed into heavy atoms:
               1
     1  O   -0.530785
     2  S    1.298195
     3  N   -0.385715
     4  C    0.495685
     5  N   -0.258905
     6  O   -0.407467
     7  C    0.382290
     8  C    0.082542
     9  C   -0.008885
    10  C    0.009573
    11  C    0.023024
    12  C    0.006691
    13  C   -0.020022
    14  C   -0.077543
    15  N   -0.512468
    16  C    0.226350
    17  C    0.218865
    18  O   -0.541427
 Electronic spatial extent (au):  <R**2>=           6747.2456
 Charge=              0.0000 electrons
 Dipole moment (field-independent basis, Debye):
    X=              1.3379    Y=             -1.0720    Z=              4.0753  Tot=              4.4213
 Quadrupole moment (field-independent basis, Debye-Ang):
   XX=            -89.5228   YY=           -112.9520   ZZ=           -112.0457
   XY=             -7.3386   XZ=            -14.2373   YZ=             -1.7961
 Traceless Quadrupole moment (field-independent basis, Debye-Ang):
   XX=             15.3174   YY=             -8.1118   ZZ=             -7.2056
   XY=             -7.3386   XZ=            -14.2373   YZ=             -1.7961
 Octapole moment (field-independent basis, Debye-Ang**2):
  XXX=             39.4591  YYY=            -15.3974  ZZZ=             14.2055  XYY=              1.9037
  XXY=             -6.9305  XXZ=             75.7531  XZZ=            -25.9724  YZZ=              3.0571
  YYZ=             -3.9430  XYZ=             16.6288
 Hexadecapole moment (field-independent basis, Debye-Ang**3):
 XXXX=          -6547.4071 YYYY=           -866.8816 ZZZZ=           -573.7440 XXXY=            -19.4949
 XXXZ=           -149.6434 YYYX=            -40.2088 YYYZ=             -0.7071 ZZZX=            -55.4007
 ZZZY=              5.2007 XXYY=          -1278.5927 XXZZ=          -1399.3190 YYZZ=           -241.3002
 XXYZ=             -6.3119 YYXZ=              5.6483 ZZXY=             12.3017
 N-N= 1.455204776927D+03 E-N=-5.757246946161D+03  KE= 1.205943965582D+03
 No NMR shielding tensors so no spin-rotation constants.
 Leave Link  601 at Thu Aug  6 22:20:40 2020, MaxMem=    33554432 cpu:         0.2
 (Enter /prod/apps/gaussian/g09d1/l9999.exe)
 1\1\GINC-PIRINEUS11\SP\RB3LYP\6-31G(d)\C11H13N3O3S1\UBAFAR01\06-Aug-20
 20\0\\#p b3lyp/6-31G(d) scrf=(iefpcm,read,solvent=n-Octanol) geom=allc
 heck guess=read\\SM43.n.7.pdb.xyz\\0,1\O,0,3.869,-0.515,-0.219\S,0,3.3
 92,0.403,0.808\N,0,3.583,-0.385,2.284\C,0,2.873,-0.085,3.45\N,0,3.486,
 -0.239,4.609\O,0,2.505,0.039,5.568\C,0,1.345,0.37,4.95\C,0,0.204,0.705
 ,5.797\C,0,0.317,0.669,7.196\C,0,-0.777,0.992,7.994\C,0,-1.993,1.353,7
 .409\C,0,-2.11,1.39,6.017\C,0,-1.02,1.069,5.215\C,0,1.515,0.303,3.594\
 N,0,4.524,1.644,0.897\C,0,5.023,2.112,-0.405\C,0,4.171,2.726,1.825\O,0
 ,2.012,0.893,0.786\H,0,4.535,-0.712,2.436\H,0,1.262,0.388,7.645\H,0,-0
 .681,0.961,9.074\H,0,-2.844,1.603,8.033\H,0,-3.051,1.669,5.556\H,0,-1.
 116,1.1,4.135\H,0,0.81,0.499,2.806\H,0,5.298,1.255,-1.015\H,0,5.913,2.
 714,-0.21\H,0,4.29,2.727,-0.941\H,0,3.912,2.312,2.8\H,0,3.341,3.341,1.
 458\H,0,5.058,3.351,1.944\\Version=AM64L-G09RevD.01\State=1-A\HF=-1215
 .0082626\RMSD=4.389e-09\Dipole=-0.1047952,1.6293162,0.6000402\Quadrupo
 le=9.0765015,-4.3608481,-4.7156534,4.1482274,-11.1104377,-6.2055228\PG
 =C01 [X(C11H13N3O3S1)]\\@


 WE TEND TO MEET ANY NEW SITUATION BY REORGANIZING. IT CAN BE A
 WONDERFUL METHOD FOR CREATING THE ILLUSION OF PROGRESS WHILE PRODUCING
 CONFUSION, INEFFICIENCY, AND DEMORALIZATION.
     -- PETRONIUS ARBITER, 210 B.C.
 Job cpu time:       0 days  0 hours  2 minutes 43.3 seconds.
 File lengths (MBytes):  RWF=    161 Int=      0 D2E=      0 Chk=      6 Scr=      1
 Normal termination of Gaussian 09 at Thu Aug  6 22:20:40 2020.
