 Entering Gaussian System, Link 0=g09
 Initial command:
 /prod/apps/gaussian/g09d1/l1.exe "/tmp/ubafar01/1448601/Gau-122383.inp" -scrdir="/tmp/ubafar01/1448601/"
 Entering Link 1 = /prod/apps/gaussian/g09d1/l1.exe PID=    122384.
  
 Copyright (c) 1988,1990,1992,1993,1995,1998,2003,2009,2013,
            Gaussian, Inc.  All Rights Reserved.
  
 This is part of the Gaussian(R) 09 program.  It is based on
 the Gaussian(R) 03 system (copyright 2003, Gaussian, Inc.),
 the Gaussian(R) 98 system (copyright 1998, Gaussian, Inc.),
 the Gaussian(R) 94 system (copyright 1995, Gaussian, Inc.),
 the Gaussian 92(TM) system (copyright 1992, Gaussian, Inc.),
 the Gaussian 90(TM) system (copyright 1990, Gaussian, Inc.),
 the Gaussian 88(TM) system (copyright 1988, Gaussian, Inc.),
 the Gaussian 86(TM) system (copyright 1986, Carnegie Mellon
 University), and the Gaussian 82(TM) system (copyright 1983,
 Carnegie Mellon University). Gaussian is a federally registered
 trademark of Gaussian, Inc.
  
 This software contains proprietary and confidential information,
 including trade secrets, belonging to Gaussian, Inc.
  
 This software is provided under written license and may be
 used, copied, transmitted, or stored only in accord with that
 written license.
  
 The following legend is applicable only to US Government
 contracts under FAR:
  
                    RESTRICTED RIGHTS LEGEND
  
 Use, reproduction and disclosure by the US Government is
 subject to restrictions as set forth in subparagraphs (a)
 and (c) of the Commercial Computer Software - Restricted
 Rights clause in FAR 52.227-19.
  
 Gaussian, Inc.
 340 Quinnipiac St., Bldg. 40, Wallingford CT 06492
  
  
 ---------------------------------------------------------------
 Warning -- This program may not be used in any manner that
 competes with the business of Gaussian, Inc. or will provide
 assistance to any competitor of Gaussian, Inc.  The licensee
 of this program is prohibited from giving any competitor of
 Gaussian, Inc. access to this program.  By using this program,
 the user acknowledges that Gaussian, Inc. is engaged in the
 business of creating and licensing software in the field of
 computational chemistry and represents and warrants to the
 licensee that it is not a competitor of Gaussian, Inc. and that
 it will not use this program in any manner prohibited above.
 ---------------------------------------------------------------
  

 Cite this work as:
 Gaussian 09, Revision D.01,
 M. J. Frisch, G. W. Trucks, H. B. Schlegel, G. E. Scuseria, 
 M. A. Robb, J. R. Cheeseman, G. Scalmani, V. Barone, B. Mennucci, 
 G. A. Petersson, H. Nakatsuji, M. Caricato, X. Li, H. P. Hratchian, 
 A. F. Izmaylov, J. Bloino, G. Zheng, J. L. Sonnenberg, M. Hada, 
 M. Ehara, K. Toyota, R. Fukuda, J. Hasegawa, M. Ishida, T. Nakajima, 
 Y. Honda, O. Kitao, H. Nakai, T. Vreven, J. A. Montgomery, Jr., 
 J. E. Peralta, F. Ogliaro, M. Bearpark, J. J. Heyd, E. Brothers, 
 K. N. Kudin, V. N. Staroverov, T. Keith, R. Kobayashi, J. Normand, 
 K. Raghavachari, A. Rendell, J. C. Burant, S. S. Iyengar, J. Tomasi, 
 M. Cossi, N. Rega, J. M. Millam, M. Klene, J. E. Knox, J. B. Cross, 
 V. Bakken, C. Adamo, J. Jaramillo, R. Gomperts, R. E. Stratmann, 
 O. Yazyev, A. J. Austin, R. Cammi, C. Pomelli, J. W. Ochterski, 
 R. L. Martin, K. Morokuma, V. G. Zakrzewski, G. A. Voth, 
 P. Salvador, J. J. Dannenberg, S. Dapprich, A. D. Daniels, 
 O. Farkas, J. B. Foresman, J. V. Ortiz, J. Cioslowski, 
 and D. J. Fox, Gaussian, Inc., Wallingford CT, 2013.
 
 ******************************************
 Gaussian 09:  AM64L-G09RevD.01 24-Apr-2013
                 6-Aug-2020 
 ******************************************
 %nproc=1
 Will use up to    1 processors via shared memory.
 %Chk=SM43.n.10.pdb.xyz.mst.n.w.chk
 -----------------
 #p b3lyp/6-31G(d)
 -----------------
 1/38=1/1;
 2/12=2,17=6,18=5,40=1/2;
 3/5=1,6=6,7=1,11=2,16=1,25=1,30=1,74=-5/1,2,3;
 4//1;
 5/5=2,38=5/2;
 6/7=2,8=2,9=2,10=2,28=1/1;
 99/5=1,9=1/99;
 Leave Link    1 at Thu Aug  6 21:56:18 2020, MaxMem=           0 cpu:         0.0
 (Enter /prod/apps/gaussian/g09d1/l101.exe)
 -----------------
 SM43.n.10.pdb.xyz
 -----------------
 Symbolic Z-matrix:
 Charge =  0 Multiplicity = 1
 O                     1.952    -3.824     1.441 
 S                     2.342    -2.79      0.483 
 N                     1.857    -1.256     1.047 
 C                     1.73     -0.907     2.388 
 N                     2.496    -1.429     3.327 
 O                     2.083    -0.799     4.513 
 C                     1.096     0.088     4.239 
 C                     0.542     0.842     5.357 
 C                    -0.447     1.814     5.131 
 C                    -0.978     2.532     6.198 
 C                    -0.531     2.292     7.5 
 C                     0.452     1.327     7.73 
 C                     0.988     0.605     6.667 
 C                     0.825     0.063     2.899 
 N                     3.995    -2.811     0.381 
 C                     4.591    -1.774    -0.472 
 C                     4.767    -3.136     1.591 
 O                     1.817    -2.797    -0.883 
 H                     1.166    -0.844     0.424 
 H                    -0.795     2.006     4.122 
 H                    -1.741     3.281     6.013 
 H                    -0.947     2.853     8.33 
 H                     0.803     1.136     8.739 
 H                     1.749    -0.145     6.843 
 H                     0.094     0.634     2.349 
 H                     4.013    -1.681    -1.39 
 H                     5.601    -2.1      -0.724 
 H                     4.641    -0.805     0.035 
 H                     4.281    -3.951     2.122 
 H                     4.874    -2.274     2.257 
 H                     5.753    -3.463     1.257 
 
 NAtoms=     31 NQM=       31 NQMF=       0 NMMI=      0 NMMIF=      0
                NMic=       0 NMicF=      0.
                    Isotopes and Nuclear Properties:
 (Nuclear quadrupole moments (NQMom) in fm**2, nuclear magnetic moments (NMagM)
  in nuclear magnetons)

  Atom         1           2           3           4           5           6           7           8           9          10
 IAtWgt=          16          32          14          12          14          16          12          12          12          12
 AtmWgt=  15.9949146  31.9720718  14.0030740  12.0000000  14.0030740  15.9949146  12.0000000  12.0000000  12.0000000  12.0000000
 NucSpn=           0           0           2           0           2           0           0           0           0           0
 AtZEff=   0.0000000   0.0000000   0.0000000   0.0000000   0.0000000   0.0000000   0.0000000   0.0000000   0.0000000   0.0000000
 NQMom=    0.0000000   0.0000000   2.0440000   0.0000000   2.0440000   0.0000000   0.0000000   0.0000000   0.0000000   0.0000000
 NMagM=    0.0000000   0.0000000   0.4037610   0.0000000   0.4037610   0.0000000   0.0000000   0.0000000   0.0000000   0.0000000
 AtZNuc=   8.0000000  16.0000000   7.0000000   6.0000000   7.0000000   8.0000000   6.0000000   6.0000000   6.0000000   6.0000000

  Atom        11          12          13          14          15          16          17          18          19          20
 IAtWgt=          12          12          12          12          14          12          12          16           1           1
 AtmWgt=  12.0000000  12.0000000  12.0000000  12.0000000  14.0030740  12.0000000  12.0000000  15.9949146   1.0078250   1.0078250
 NucSpn=           0           0           0           0           2           0           0           0           1           1
 AtZEff=   0.0000000   0.0000000   0.0000000   0.0000000   0.0000000   0.0000000   0.0000000   0.0000000   0.0000000   0.0000000
 NQMom=    0.0000000   0.0000000   0.0000000   0.0000000   2.0440000   0.0000000   0.0000000   0.0000000   0.0000000   0.0000000
 NMagM=    0.0000000   0.0000000   0.0000000   0.0000000   0.4037610   0.0000000   0.0000000   0.0000000   2.7928460   2.7928460
 AtZNuc=   6.0000000   6.0000000   6.0000000   6.0000000   7.0000000   6.0000000   6.0000000   8.0000000   1.0000000   1.0000000

  Atom        21          22          23          24          25          26          27          28          29          30
 IAtWgt=           1           1           1           1           1           1           1           1           1           1
 AtmWgt=   1.0078250   1.0078250   1.0078250   1.0078250   1.0078250   1.0078250   1.0078250   1.0078250   1.0078250   1.0078250
 NucSpn=           1           1           1           1           1           1           1           1           1           1
 AtZEff=   0.0000000   0.0000000   0.0000000   0.0000000   0.0000000   0.0000000   0.0000000   0.0000000   0.0000000   0.0000000
 NQMom=    0.0000000   0.0000000   0.0000000   0.0000000   0.0000000   0.0000000   0.0000000   0.0000000   0.0000000   0.0000000
 NMagM=    2.7928460   2.7928460   2.7928460   2.7928460   2.7928460   2.7928460   2.7928460   2.7928460   2.7928460   2.7928460
 AtZNuc=   1.0000000   1.0000000   1.0000000   1.0000000   1.0000000   1.0000000   1.0000000   1.0000000   1.0000000   1.0000000

  Atom        31
 IAtWgt=           1
 AtmWgt=   1.0078250
 NucSpn=           1
 AtZEff=   0.0000000
 NQMom=    0.0000000
 NMagM=    2.7928460
 AtZNuc=   1.0000000
 Leave Link  101 at Thu Aug  6 21:56:18 2020, MaxMem=    33554432 cpu:         0.1
 (Enter /prod/apps/gaussian/g09d1/l202.exe)
                          Input orientation:                          
 ---------------------------------------------------------------------
 Center     Atomic      Atomic             Coordinates (Angstroms)
 Number     Number       Type             X           Y           Z
 ---------------------------------------------------------------------
      1          8           0        1.952000   -3.824000    1.441000
      2         16           0        2.342000   -2.790000    0.483000
      3          7           0        1.857000   -1.256000    1.047000
      4          6           0        1.730000   -0.907000    2.388000
      5          7           0        2.496000   -1.429000    3.327000
      6          8           0        2.083000   -0.799000    4.513000
      7          6           0        1.096000    0.088000    4.239000
      8          6           0        0.542000    0.842000    5.357000
      9          6           0       -0.447000    1.814000    5.131000
     10          6           0       -0.978000    2.532000    6.198000
     11          6           0       -0.531000    2.292000    7.500000
     12          6           0        0.452000    1.327000    7.730000
     13          6           0        0.988000    0.605000    6.667000
     14          6           0        0.825000    0.063000    2.899000
     15          7           0        3.995000   -2.811000    0.381000
     16          6           0        4.591000   -1.774000   -0.472000
     17          6           0        4.767000   -3.136000    1.591000
     18          8           0        1.817000   -2.797000   -0.883000
     19          1           0        1.166000   -0.844000    0.424000
     20          1           0       -0.795000    2.006000    4.122000
     21          1           0       -1.741000    3.281000    6.013000
     22          1           0       -0.947000    2.853000    8.330000
     23          1           0        0.803000    1.136000    8.739000
     24          1           0        1.749000   -0.145000    6.843000
     25          1           0        0.094000    0.634000    2.349000
     26          1           0        4.013000   -1.681000   -1.390000
     27          1           0        5.601000   -2.100000   -0.724000
     28          1           0        4.641000   -0.805000    0.035000
     29          1           0        4.281000   -3.951000    2.122000
     30          1           0        4.874000   -2.274000    2.257000
     31          1           0        5.753000   -3.463000    1.257000
 ---------------------------------------------------------------------
                    Distance matrix (angstroms):
                    1          2          3          4          5
     1  O    0.000000
     2  S    1.462539   0.000000
     3  N    2.599786   1.704839   0.000000
     4  C    3.074895   2.747591   1.391478   0.000000
     5  N    3.096604   3.156640   2.374163   1.319455   0.000000
     6  O    4.313348   4.502451   3.503296   2.156826   1.405014
     7  C    4.885211   4.893152   3.546029   2.195036   2.256775
     8  C    6.252576   6.339345   4.970607   3.644901   3.618903
     9  C    7.152506   7.111908   5.604674   4.434774   4.736319
    10  C    8.462428   8.485712   6.994210   5.803110   6.000070
    11  C    8.960035   9.127932   7.741580   6.440362   6.357869
    12  C    8.266458   8.546391   7.301260   5.929671   5.582104
    13  C    6.917833   7.183397   5.983551   4.598538   4.191279
    14  C    4.301705   4.034595   2.496936   1.421635   2.280677
    15  N    2.514680   1.656277   2.726284   3.575401   3.582714
    16  C    3.850505   2.646183   3.170243   4.137222   4.352063
    17  C    2.901736   2.688495   3.506913   3.850587   3.329412
    18  O    2.544392   1.463431   2.470057   3.778771   4.478456
    19  H    3.245379   2.274505   1.017523   2.044349   3.246311
    20  H    6.980163   6.788572   5.208586   4.227050   4.823062
    21  H    9.220762   9.171087   7.628311   6.536651   6.881196
    22  H   10.022218  10.209622   8.819772   7.524048   7.431001
    23  H    8.898461   9.270573   8.124004   6.735605   6.223762
    24  H    6.538949   6.913557   5.902508   4.519738   3.816926
    25  H    4.914305   4.501026   2.894041   2.247821   3.313919
    26  H    4.105451   2.744130   3.281452   4.481568   4.961339
    27  H    4.579804   3.543167   4.226856   5.108075   5.147996
    28  H    4.280411   3.070233   2.996365   3.744454   3.978400
    29  H    2.429842   2.791767   3.780797   3.980489   3.316434
    30  H    3.406823   3.134383   3.406276   3.430829   2.741133
    31  H    3.822536   3.561871   4.482607   4.898656   4.362351
                    6          7          8          9         10
     6  O    0.000000
     7  C    1.354996   0.000000
     8  C    2.404142   1.457860   0.000000
     9  C    3.689254   2.481046   1.404984   0.000000
    10  C    4.827474   3.756633   2.423588   1.391393   0.000000
    11  C    5.030849   4.258975   2.801121   2.418202   1.397359
    12  C    4.186780   3.759912   2.423727   2.792879   2.417426
    13  C    2.794630   2.484781   1.403989   2.424913   2.792570
    14  C    2.220496   1.367357   2.593973   3.108988   4.497796
    15  N    4.977681   5.629615   7.073061   7.980256   9.333588
    16  C    5.664884   6.154315   7.564066   8.345585   9.697644
    17  C    4.604727   5.557186   6.917938   8.013732   9.292777
    18  O    5.760172   5.922664   7.335226   7.909185   9.292515
    19  H    4.190804   3.927817   5.250377   5.641151   7.023759
    20  H    4.037795   2.695977   2.160484   1.084458   2.149405
    21  H    5.789592   4.625029   3.404577   2.145798   1.085078
    22  H    6.089950   5.343721   3.885868   3.400459   2.156253
    23  H    4.820965   4.629703   3.404773   3.878124   3.402566
    24  H    2.442984   2.694720   2.153883   3.404562   3.875420
    25  H    3.269940   2.207764   3.048283   3.069952   4.423391
    26  H    6.272817   6.582089   7.995960   8.638869  10.011853
    27  H    6.441669   7.050797   8.439633   9.283250  10.613800
    28  H    5.157120   5.571184   6.916509   7.662645   8.982834
    29  H    4.525836   5.562323   6.886087   8.040105   9.289787
    30  H    3.880057   4.876541   6.171360   7.299634   8.536687
    31  H    5.582771   6.571878   7.905539   9.016352  10.279099
                   11         12         13         14         15
    11  C    0.000000
    12  C    1.396572   0.000000
    13  C    2.418102   1.392318   0.000000
    14  C    5.289270   5.007533   3.810270   0.000000
    15  N    9.859282   9.147879   7.760470   4.964786   0.000000
    16  C   10.311160   9.696408   8.343055   5.377822   1.469079
    17  C    9.615002   8.730688   7.351306   5.242502   1.471635
    18  O   10.083933   9.646469   8.322460   4.844294   2.518249
    19  H    7.923641   7.655108   6.411422   2.657923   3.445893
    20  H    3.400349   3.877333   3.408653   2.809872   7.755171
    21  H    2.157172   3.402272   3.877645   5.161093  10.086307
    22  H    1.084747   2.155430   3.400485   6.357660  10.940332
    23  H    2.156621   1.085248   2.146944   5.937795   9.778744
    24  H    3.401326   2.153082   1.082865   4.056128   7.342310
    25  H    5.447237   5.437240   4.409671   1.078379   5.564068
    26  H   10.745453  10.242226   8.904587   5.621423   2.100872
    27  H   11.159089  10.475049   9.122701   6.372980   2.075038
    28  H    9.595166   9.016993   7.701684   4.849513   2.135666
    29  H    9.542184   8.600476   7.228970   5.353491   2.100590
    30  H    8.806329   7.904114   6.545054   4.718912   2.140184
    31  H   10.563320   9.640769   8.277799   6.278059   2.069552
                   16         17         18         19         20
    16  C    0.000000
    17  C    2.478304   0.000000
    18  O    2.985050   3.864983   0.000000
    19  H    3.660374   4.425195   2.438495   0.000000
    20  H    8.025100   7.986361   7.412245   5.063914   0.000000
    21  H   10.377980  10.153129   9.856788   7.530152   2.469093
    22  H   11.382169  10.673895  11.155338   8.979834   4.295088
    23  H   10.375913   9.222645  10.444116   8.555197   4.962579
    24  H    8.014975   6.755584   8.168770   6.483213   4.301462
    25  H    5.829195   6.051809   5.018597   2.653167   2.411687
    26  H    1.088787   3.401750   2.514940   3.478013   8.191030
    27  H    1.090816   2.669846   3.850941   4.750228   9.013976
    28  H    1.094765   2.805454   3.575719   3.496923   7.359034
    29  H    3.400627   1.087374   4.053768   4.715918   8.077848
    30  H    2.788822   1.094554   4.413432   4.376534   7.343990
    31  H    2.681866   1.091183   4.529377   5.347300   8.999694
                   21         22         23         24         25
    21  H    0.000000
    22  H    2.486385   0.000000
    23  H    4.301632   2.485532   0.000000
    24  H    4.960492   4.297393   2.476024   0.000000
    25  H    4.878394   6.463745   6.448782   4.852000   0.000000
    26  H   10.608222  11.816817  10.992553   8.675672   5.890493
    27  H   11.324632  12.222251  11.092379   8.713175   6.873510
    28  H    9.652036  10.649588   9.708622   7.426179   5.300993
    29  H   10.183624  10.590829   9.042054   6.571492   6.213270
    30  H    9.419330   9.851472   8.379586   5.943876   5.595831
    31  H   11.147247  11.610736  10.081350   7.631811   7.071220
                   26         27         28         29         30
    26  H    0.000000
    27  H    1.772247   0.000000
    28  H    1.786725   1.781770   0.000000
    29  H    4.190330   3.642570   3.792425   0.000000
    30  H    3.793887   3.073299   2.673861   1.783873   0.000000
    31  H    3.634520   2.409405   3.129663   1.775712   1.785038
                   31
    31  H    0.000000
 Stoichiometry    C11H13N3O3S
 Framework group  C1[X(C11H13N3O3S)]
 Deg. of freedom    87
 Full point group                 C1      NOp   1
 Largest Abelian subgroup         C1      NOp   1
 Largest concise Abelian subgroup C1      NOp   1
                         Standard orientation:                         
 ---------------------------------------------------------------------
 Center     Atomic      Atomic             Coordinates (Angstroms)
 Number     Number       Type             X           Y           Z
 ---------------------------------------------------------------------
      1          8           0       -2.767172    0.111540   -1.818034
      2         16           0       -3.097606   -0.505222   -0.533730
      3          7           0       -1.673630   -1.002837    0.260719
      4          6           0       -0.429620   -0.396962    0.113871
      5          7           0       -0.298898    0.894977   -0.120152
      6          8           0        1.089002    1.109372   -0.162975
      7          6           0        1.738517   -0.058297    0.062181
      8          6           0        3.196037   -0.027260    0.056955
      9          6           0        3.927278   -1.194165    0.335526
     10          6           0        5.318359   -1.165706    0.328012
     11          6           0        5.996686    0.022620    0.044520
     12          6           0        5.274509    1.185337   -0.232900
     13          6           0        3.882364    1.164214   -0.226823
     14          6           0        0.822657   -1.057208    0.243959
     15          7           0       -3.836326    0.651816    0.392990
     16          6           0       -4.167192    0.248466    1.766318
     17          6           0       -3.400041    2.049661    0.246725
     18          8           0       -3.923562   -1.711698   -0.471745
     19          1           0       -1.653799   -2.014653    0.366501
     20          1           0        3.405393   -2.118128    0.559084
     21          1           0        5.874017   -2.072097    0.545022
     22          1           0        7.081250    0.041819    0.039001
     23          1           0        5.795739    2.111185   -0.454005
     24          1           0        3.320187    2.064026   -0.443368
     25          1           0        0.996994   -2.104303    0.433962
     26          1           0       -4.582130   -0.758136    1.760279
     27          1           0       -4.926427    0.939474    2.135034
     28          1           0       -3.294460    0.286310    2.426178
     29          1           0       -3.238080    2.269706   -0.805763
     30          1           0       -2.486352    2.258810    0.811949
     31          1           0       -4.212122    2.673938    0.622870
 ---------------------------------------------------------------------
 Rotational constants (GHZ):      1.2242773      0.1534253      0.1464985
 Leave Link  202 at Thu Aug  6 21:56:18 2020, MaxMem=    33554432 cpu:         0.0
 (Enter /prod/apps/gaussian/g09d1/l301.exe)
 Standard basis: 6-31G(d) (6D, 7F)
 Ernie: Thresh=  0.10000D-02 Tol=  0.10000D-05 Strict=F.
 There are   300 symmetry adapted cartesian basis functions of A   symmetry.
 There are   300 symmetry adapted basis functions of A   symmetry.
   300 basis functions,   580 primitive gaussians,   300 cartesian basis functions
    70 alpha electrons       70 beta electrons
       nuclear repulsion energy      1446.4029241006 Hartrees.
 IExCor=  402 DFT=T Ex+Corr=B3LYP ExCW=0 ScaHFX=  0.200000
 ScaDFX=  0.800000  0.720000  1.000000  0.810000 ScalE2=  1.000000  1.000000
 IRadAn=      0 IRanWt=     -1 IRanGd=            0 ICorTp=0 IEmpDi=  4
 NAtoms=   31 NActive=   31 NUniq=   31 SFac= 1.00D+00 NAtFMM=   60 NAOKFM=F Big=F
 Integral buffers will be    131072 words long.
 Raffenetti 2 integral format.
 Two-electron integral symmetry is turned on.
 Leave Link  301 at Thu Aug  6 21:56:18 2020, MaxMem=    33554432 cpu:         0.0
 (Enter /prod/apps/gaussian/g09d1/l302.exe)
 NPDir=0 NMtPBC=     1 NCelOv=     1 NCel=       1 NClECP=     1 NCelD=      1
         NCelK=      1 NCelE2=     1 NClLst=     1 CellRange=     0.0.
 One-electron integrals computed using PRISM.
 NBasis=   300 RedAO= T EigKep=  4.58D-04  NBF=   300
 NBsUse=   300 1.00D-06 EigRej= -1.00D+00 NBFU=   300
 Precomputing XC quadrature grid using
 IXCGrd= 4 IRadAn=           0 IRanWt=          -1 IRanGd=           0 AccXCQ= 0.00D+00.
 Generated NRdTot=       0 NPtTot=           0 NUsed=           0 NTot=          32
 NSgBfM=   295   295   296   296   296 MxSgAt=    31 MxSgA2=    31.
 Leave Link  302 at Thu Aug  6 21:56:19 2020, MaxMem=    33554432 cpu:         1.0
 (Enter /prod/apps/gaussian/g09d1/l303.exe)
 DipDrv:  MaxL=1.
 Leave Link  303 at Thu Aug  6 21:56:19 2020, MaxMem=    33554432 cpu:         0.0
 (Enter /prod/apps/gaussian/g09d1/l401.exe)
 ExpMin= 1.17D-01 ExpMax= 2.19D+04 ExpMxC= 3.30D+03 IAcc=1 IRadAn=         1 AccDes= 0.00D+00
 Harris functional with IExCor=  402 and IRadAn=       1 diagonalized for initial guess.
 HarFok:  IExCor=  402 AccDes= 0.00D+00 IRadAn=         1 IDoV= 1 UseB2=F ITyADJ=14
 ICtDFT=  3500011 ScaDFX=  1.000000  1.000000  1.000000  1.000000
 FoFCou: FMM=F IPFlag=           0 FMFlag=      100000 FMFlg1=           0
         NFxFlg=           0 DoJE=T BraDBF=F KetDBF=T FulRan=T
         wScrn=  0.000000 ICntrl=     500 IOpCl=  0 I1Cent=   200000004 NGrid=           0
         NMat0=    1 NMatS0=      1 NMatT0=    0 NMatD0=    1 NMtDS0=    0 NMtDT0=    0
 Petite list used in FoFCou.
 Harris En= -1215.02464003229    
 JPrj=0 DoOrth=F DoCkMO=F.
 Leave Link  401 at Thu Aug  6 21:56:22 2020, MaxMem=    33554432 cpu:         2.9
 (Enter /prod/apps/gaussian/g09d1/l502.exe)
 Closed shell SCF:
 Using DIIS extrapolation, IDIIS=  1040.
 Integral symmetry usage will be decided dynamically.
 IVT=      292611 IEndB=      292611 NGot=    33554432 MDV=    33368762
 LenX=    33368762 LenY=    33278321
 Requested convergence on RMS density matrix=1.00D-08 within 128 cycles.
 Requested convergence on MAX density matrix=1.00D-06.
 Requested convergence on             energy=1.00D-06.
 No special actions if energy rises.
 Fock matrices will be formed incrementally for  20 cycles.
 Integral accuracy reduced to 1.0D-05 until final iterations.

 Cycle   1  Pass 0  IDiag  1:
 FoFJK:  IHMeth= 1 ICntrl=       0 DoSepK=F KAlg= 0 I1Cent=   0 FoldK=F
 IRaf= 710000000 NMat=   1 IRICut=       1 DoRegI=T DoRafI=F ISym2E= 0.
 FoFCou: FMM=F IPFlag=           0 FMFlag=      100000 FMFlg1=           0
         NFxFlg=           0 DoJE=F BraDBF=F KetDBF=F FulRan=T
         wScrn=  0.000000 ICntrl=       0 IOpCl=  0 I1Cent=           0 NGrid=           0
         NMat0=    1 NMatS0=      1 NMatT0=    0 NMatD0=    1 NMtDS0=    0 NMtDT0=    0
 Symmetry not used in FoFCou.
 E= -1214.43625620912    
 DIIS: error= 3.60D-02 at cycle   1 NSaved=   1.
 NSaved= 1 IEnMin= 1 EnMin= -1214.43625620912     IErMin= 1 ErrMin= 3.60D-02
 ErrMax= 3.60D-02  0.00D+00 EMaxC= 1.00D-01 BMatC= 6.32D-01 BMatP= 6.32D-01
 IDIUse=3 WtCom= 6.40D-01 WtEn= 3.60D-01
 Coeff-Com:  0.100D+01
 Coeff-En:   0.100D+01
 Coeff:      0.100D+01
 Gap=     0.271 Goal=   None    Shift=    0.000
 GapD=    0.271 DampG=1.000 DampE=0.500 DampFc=0.5000 IDamp=-1.
 Damping current iteration by 5.00D-01
 RMSDP=6.67D-03 MaxDP=6.25D-01              OVMax= 2.30D-01

 Cycle   2  Pass 0  IDiag  1:
 RMSU=  3.33D-03    CP:  9.91D-01
 E= -1214.56096898366     Delta-E=       -0.124712774544 Rises=F Damp=T
 DIIS: error= 1.72D-02 at cycle   2 NSaved=   2.
 NSaved= 2 IEnMin= 2 EnMin= -1214.56096898366     IErMin= 2 ErrMin= 1.72D-02
 ErrMax= 1.72D-02  0.00D+00 EMaxC= 1.00D-01 BMatC= 1.09D-01 BMatP= 6.32D-01
 IDIUse=3 WtCom= 8.28D-01 WtEn= 1.72D-01
 Coeff-Com:  0.240D+00 0.760D+00
 Coeff-En:   0.381D+00 0.619D+00
 Coeff:      0.264D+00 0.736D+00
 Gap=     0.230 Goal=   None    Shift=    0.000
 RMSDP=2.03D-03 MaxDP=1.51D-01 DE=-1.25D-01 OVMax= 2.11D-01

 Cycle   3  Pass 0  IDiag  1:
 RMSU=  1.69D-03    CP:  9.79D-01  6.70D-01
 E= -1214.93388058093     Delta-E=       -0.372911597263 Rises=F Damp=F
 DIIS: error= 1.19D-02 at cycle   3 NSaved=   3.
 NSaved= 3 IEnMin= 3 EnMin= -1214.93388058093     IErMin= 3 ErrMin= 1.19D-02
 ErrMax= 1.19D-02  0.00D+00 EMaxC= 1.00D-01 BMatC= 6.00D-02 BMatP= 1.09D-01
 IDIUse=3 WtCom= 8.81D-01 WtEn= 1.19D-01
 Coeff-Com:  0.812D-01 0.424D+00 0.495D+00
 Coeff-En:   0.000D+00 0.000D+00 0.100D+01
 Coeff:      0.715D-01 0.374D+00 0.555D+00
 Gap=     0.186 Goal=   None    Shift=    0.000
 RMSDP=1.14D-03 MaxDP=4.44D-02 DE=-3.73D-01 OVMax= 5.44D-02

 Cycle   4  Pass 0  IDiag  1:
 RMSU=  7.27D-04    CP:  9.85D-01  7.50D-01  5.13D-01
 E= -1214.97698570691     Delta-E=       -0.043105125985 Rises=F Damp=F
 DIIS: error= 3.97D-03 at cycle   4 NSaved=   4.
 NSaved= 4 IEnMin= 4 EnMin= -1214.97698570691     IErMin= 4 ErrMin= 3.97D-03
 ErrMax= 3.97D-03  0.00D+00 EMaxC= 1.00D-01 BMatC= 1.11D-02 BMatP= 6.00D-02
 IDIUse=3 WtCom= 9.60D-01 WtEn= 3.97D-02
 Coeff-Com:  0.103D-01 0.979D-01 0.316D+00 0.576D+00
 Coeff-En:   0.000D+00 0.000D+00 0.157D+00 0.843D+00
 Coeff:      0.986D-02 0.940D-01 0.310D+00 0.587D+00
 Gap=     0.181 Goal=   None    Shift=    0.000
 RMSDP=4.04D-04 MaxDP=1.80D-02 DE=-4.31D-02 OVMax= 2.14D-02

 Cycle   5  Pass 0  IDiag  1:
 RMSU=  2.28D-04    CP:  9.84D-01  7.35D-01  6.25D-01  6.32D-01
 E= -1214.98528290218     Delta-E=       -0.008297195270 Rises=F Damp=F
 DIIS: error= 1.14D-03 at cycle   5 NSaved=   5.
 NSaved= 5 IEnMin= 5 EnMin= -1214.98528290218     IErMin= 5 ErrMin= 1.14D-03
 ErrMax= 1.14D-03  0.00D+00 EMaxC= 1.00D-01 BMatC= 1.22D-03 BMatP= 1.11D-02
 IDIUse=3 WtCom= 9.89D-01 WtEn= 1.14D-02
 Coeff-Com: -0.101D-02 0.237D-01 0.139D+00 0.352D+00 0.486D+00
 Coeff-En:   0.000D+00 0.000D+00 0.000D+00 0.472D-01 0.953D+00
 Coeff:     -0.997D-03 0.234D-01 0.138D+00 0.348D+00 0.492D+00
 Gap=     0.182 Goal=   None    Shift=    0.000
 RMSDP=1.51D-04 MaxDP=7.33D-03 DE=-8.30D-03 OVMax= 9.49D-03

 Cycle   6  Pass 0  IDiag  1:
 RMSU=  7.83D-05    CP:  9.84D-01  7.38D-01  6.28D-01  6.83D-01  4.61D-01
 E= -1214.98620565568     Delta-E=       -0.000922753497 Rises=F Damp=F
 DIIS: error= 6.22D-04 at cycle   6 NSaved=   6.
 NSaved= 6 IEnMin= 6 EnMin= -1214.98620565568     IErMin= 6 ErrMin= 6.22D-04
 ErrMax= 6.22D-04  0.00D+00 EMaxC= 1.00D-01 BMatC= 1.80D-04 BMatP= 1.22D-03
 IDIUse=3 WtCom= 9.94D-01 WtEn= 6.22D-03
 Coeff-Com: -0.174D-02 0.553D-02 0.529D-01 0.156D+00 0.321D+00 0.466D+00
 Coeff-En:   0.000D+00 0.000D+00 0.000D+00 0.000D+00 0.120D+00 0.880D+00
 Coeff:     -0.172D-02 0.550D-02 0.526D-01 0.155D+00 0.320D+00 0.468D+00
 Gap=     0.181 Goal=   None    Shift=    0.000
 RMSDP=5.04D-05 MaxDP=2.59D-03 DE=-9.23D-04 OVMax= 3.45D-03

 Cycle   7  Pass 0  IDiag  1:
 RMSU=  2.77D-05    CP:  9.84D-01  7.38D-01  6.28D-01  6.85D-01  5.48D-01
                    CP:  5.26D-01
 E= -1214.98635581862     Delta-E=       -0.000150162944 Rises=F Damp=F
 DIIS: error= 1.54D-04 at cycle   7 NSaved=   7.
 NSaved= 7 IEnMin= 7 EnMin= -1214.98635581862     IErMin= 7 ErrMin= 1.54D-04
 ErrMax= 1.54D-04  0.00D+00 EMaxC= 1.00D-01 BMatC= 1.28D-05 BMatP= 1.80D-04
 IDIUse=3 WtCom= 9.98D-01 WtEn= 1.54D-03
 Coeff-Com: -0.966D-03 0.364D-03 0.149D-01 0.504D-01 0.132D+00 0.277D+00
 Coeff-Com:  0.526D+00
 Coeff-En:   0.000D+00 0.000D+00 0.000D+00 0.000D+00 0.000D+00 0.171D-01
 Coeff-En:   0.983D+00
 Coeff:     -0.965D-03 0.364D-03 0.149D-01 0.504D-01 0.132D+00 0.277D+00
 Coeff:      0.527D+00
 Gap=     0.181 Goal=   None    Shift=    0.000
 RMSDP=1.29D-05 MaxDP=5.91D-04 DE=-1.50D-04 OVMax= 8.02D-04

 Cycle   8  Pass 0  IDiag  1:
 RMSU=  6.31D-06    CP:  9.84D-01  7.38D-01  6.28D-01  6.86D-01  5.49D-01
                    CP:  5.73D-01  6.20D-01
 E= -1214.98636663419     Delta-E=       -0.000010815565 Rises=F Damp=F
 DIIS: error= 6.59D-05 at cycle   8 NSaved=   8.
 NSaved= 8 IEnMin= 8 EnMin= -1214.98636663419     IErMin= 8 ErrMin= 6.59D-05
 ErrMax= 6.59D-05  0.00D+00 EMaxC= 1.00D-01 BMatC= 7.15D-07 BMatP= 1.28D-05
 IDIUse=1 WtCom= 1.00D+00 WtEn= 0.00D+00
 Coeff-Com: -0.376D-03-0.241D-03 0.352D-02 0.138D-01 0.443D-01 0.112D+00
 Coeff-Com:  0.268D+00 0.558D+00
 Coeff:     -0.376D-03-0.241D-03 0.352D-02 0.138D-01 0.443D-01 0.112D+00
 Coeff:      0.268D+00 0.558D+00
 Gap=     0.181 Goal=   None    Shift=    0.000
 RMSDP=3.88D-06 MaxDP=1.32D-04 DE=-1.08D-05 OVMax= 2.65D-04

 Initial convergence to 1.0D-05 achieved.  Increase integral accuracy.
 Cycle   9  Pass 1  IDiag  1:
 E= -1214.98627756668     Delta-E=        0.000089067502 Rises=F Damp=F
 DIIS: error= 6.94D-05 at cycle   1 NSaved=   1.
 NSaved= 1 IEnMin= 1 EnMin= -1214.98627756668     IErMin= 1 ErrMin= 6.94D-05
 ErrMax= 6.94D-05  0.00D+00 EMaxC= 1.00D-01 BMatC= 7.42D-07 BMatP= 7.42D-07
 IDIUse=1 WtCom= 1.00D+00 WtEn= 0.00D+00
 Coeff-Com:  0.100D+01
 Coeff:      0.100D+01
 Gap=     0.181 Goal=   None    Shift=    0.000
 RMSDP=3.88D-06 MaxDP=1.32D-04 DE= 8.91D-05 OVMax= 3.61D-04

 Cycle  10  Pass 1  IDiag  1:
 RMSU=  4.13D-05    CP:  1.00D+00
 E= -1214.98627773721     Delta-E=       -0.000000170523 Rises=F Damp=F
 DIIS: error= 3.88D-05 at cycle   2 NSaved=   2.
 NSaved= 2 IEnMin= 2 EnMin= -1214.98627773721     IErMin= 2 ErrMin= 3.88D-05
 ErrMax= 3.88D-05  0.00D+00 EMaxC= 1.00D-01 BMatC= 5.88D-07 BMatP= 7.42D-07
 IDIUse=1 WtCom= 1.00D+00 WtEn= 0.00D+00
 Coeff-Com:  0.458D+00 0.542D+00
 Coeff:      0.458D+00 0.542D+00
 Gap=     0.181 Goal=   None    Shift=    0.000
 RMSDP=4.39D-06 MaxDP=2.36D-04 DE=-1.71D-07 OVMax= 4.05D-04

 Cycle  11  Pass 1  IDiag  1:
 RMSU=  4.39D-06    CP:  1.00D+00  9.99D-01
 E= -1214.98627799124     Delta-E=       -0.000000254034 Rises=F Damp=F
 DIIS: error= 2.86D-05 at cycle   3 NSaved=   3.
 NSaved= 3 IEnMin= 3 EnMin= -1214.98627799124     IErMin= 3 ErrMin= 2.86D-05
 ErrMax= 2.86D-05  0.00D+00 EMaxC= 1.00D-01 BMatC= 3.23D-07 BMatP= 5.88D-07
 IDIUse=1 WtCom= 1.00D+00 WtEn= 0.00D+00
 Coeff-Com:  0.590D-02 0.424D+00 0.570D+00
 Coeff:      0.590D-02 0.424D+00 0.570D+00
 Gap=     0.181 Goal=   None    Shift=    0.000
 RMSDP=2.00D-06 MaxDP=1.27D-04 DE=-2.54D-07 OVMax= 1.99D-04

 Cycle  12  Pass 1  IDiag  1:
 RMSU=  5.97D-07    CP:  1.00D+00  1.01D+00  5.75D-01
 E= -1214.98627829146     Delta-E=       -0.000000300217 Rises=F Damp=F
 DIIS: error= 5.39D-06 at cycle   4 NSaved=   4.
 NSaved= 4 IEnMin= 4 EnMin= -1214.98627829146     IErMin= 4 ErrMin= 5.39D-06
 ErrMax= 5.39D-06  0.00D+00 EMaxC= 1.00D-01 BMatC= 1.05D-08 BMatP= 3.23D-07
 IDIUse=1 WtCom= 1.00D+00 WtEn= 0.00D+00
 Coeff-Com: -0.496D-02 0.258D+00 0.362D+00 0.385D+00
 Coeff:     -0.496D-02 0.258D+00 0.362D+00 0.385D+00
 Gap=     0.181 Goal=   None    Shift=    0.000
 RMSDP=3.55D-07 MaxDP=2.03D-05 DE=-3.00D-07 OVMax= 3.10D-05

 Cycle  13  Pass 1  IDiag  1:
 RMSU=  1.82D-07    CP:  1.00D+00  1.01D+00  5.83D-01  4.92D-01
 E= -1214.98627830076     Delta-E=       -0.000000009306 Rises=F Damp=F
 DIIS: error= 5.99D-07 at cycle   5 NSaved=   5.
 NSaved= 5 IEnMin= 5 EnMin= -1214.98627830076     IErMin= 5 ErrMin= 5.99D-07
 ErrMax= 5.99D-07  0.00D+00 EMaxC= 1.00D-01 BMatC= 3.08D-10 BMatP= 1.05D-08
 IDIUse=1 WtCom= 1.00D+00 WtEn= 0.00D+00
 Coeff-Com: -0.314D-02 0.117D+00 0.166D+00 0.214D+00 0.507D+00
 Coeff:     -0.314D-02 0.117D+00 0.166D+00 0.214D+00 0.507D+00
 Gap=     0.181 Goal=   None    Shift=    0.000
 RMSDP=7.77D-08 MaxDP=2.60D-06 DE=-9.31D-09 OVMax= 4.85D-06

 Cycle  14  Pass 1  IDiag  1:
 RMSU=  5.60D-08    CP:  1.00D+00  1.01D+00  5.84D-01  5.18D-01  7.17D-01
 E= -1214.98627830101     Delta-E=       -0.000000000242 Rises=F Damp=F
 DIIS: error= 2.32D-07 at cycle   6 NSaved=   6.
 NSaved= 6 IEnMin= 6 EnMin= -1214.98627830101     IErMin= 6 ErrMin= 2.32D-07
 ErrMax= 2.32D-07  0.00D+00 EMaxC= 1.00D-01 BMatC= 3.79D-11 BMatP= 3.08D-10
 IDIUse=1 WtCom= 1.00D+00 WtEn= 0.00D+00
 Coeff-Com: -0.138D-02 0.436D-01 0.625D-01 0.887D-01 0.302D+00 0.505D+00
 Coeff:     -0.138D-02 0.436D-01 0.625D-01 0.887D-01 0.302D+00 0.505D+00
 Gap=     0.181 Goal=   None    Shift=    0.000
 RMSDP=2.40D-08 MaxDP=1.10D-06 DE=-2.42D-10 OVMax= 1.21D-06

 Cycle  15  Pass 1  IDiag  1:
 RMSU=  1.86D-08    CP:  1.00D+00  1.01D+00  5.84D-01  5.19D-01  7.58D-01
                    CP:  7.65D-01
 E= -1214.98627830103     Delta-E=       -0.000000000025 Rises=F Damp=F
 DIIS: error= 9.89D-08 at cycle   7 NSaved=   7.
 NSaved= 7 IEnMin= 7 EnMin= -1214.98627830103     IErMin= 7 ErrMin= 9.89D-08
 ErrMax= 9.89D-08  0.00D+00 EMaxC= 1.00D-01 BMatC= 4.79D-12 BMatP= 3.79D-11
 IDIUse=1 WtCom= 1.00D+00 WtEn= 0.00D+00
 Coeff-Com: -0.247D-03 0.504D-02 0.749D-02 0.143D-01 0.874D-01 0.296D+00
 Coeff-Com:  0.590D+00
 Coeff:     -0.247D-03 0.504D-02 0.749D-02 0.143D-01 0.874D-01 0.296D+00
 Coeff:      0.590D+00
 Gap=     0.181 Goal=   None    Shift=    0.000
 RMSDP=9.61D-09 MaxDP=4.66D-07 DE=-2.50D-11 OVMax= 4.93D-07

 SCF Done:  E(RB3LYP) =  -1214.98627830     A.U. after   15 cycles
            NFock= 15  Conv=0.96D-08     -V/T= 2.0075
 KE= 1.205897614654D+03 PE=-5.739653056555D+03 EE= 1.872366239499D+03
 Leave Link  502 at Thu Aug  6 21:59:52 2020, MaxMem=    33554432 cpu:       209.9
 (Enter /prod/apps/gaussian/g09d1/l601.exe)
 Copying SCF densities to generalized density rwf, IOpCl= 0 IROHF=0.

 **********************************************************************

            Population analysis using the SCF density.

 **********************************************************************

 Orbital symmetries:
       Occupied  (A) (A) (A) (A) (A) (A) (A) (A) (A) (A) (A) (A)
                 (A) (A) (A) (A) (A) (A) (A) (A) (A) (A) (A) (A)
                 (A) (A) (A) (A) (A) (A) (A) (A) (A) (A) (A) (A)
                 (A) (A) (A) (A) (A) (A) (A) (A) (A) (A) (A) (A)
                 (A) (A) (A) (A) (A) (A) (A) (A) (A) (A) (A) (A)
                 (A) (A) (A) (A) (A) (A) (A) (A) (A) (A)
       Virtual   (A) (A) (A) (A) (A) (A) (A) (A) (A) (A) (A) (A)
                 (A) (A) (A) (A) (A) (A) (A) (A) (A) (A) (A) (A)
                 (A) (A) (A) (A) (A) (A) (A) (A) (A) (A) (A) (A)
                 (A) (A) (A) (A) (A) (A) (A) (A) (A) (A) (A) (A)
                 (A) (A) (A) (A) (A) (A) (A) (A) (A) (A) (A) (A)
                 (A) (A) (A) (A) (A) (A) (A) (A) (A) (A) (A) (A)
                 (A) (A) (A) (A) (A) (A) (A) (A) (A) (A) (A) (A)
                 (A) (A) (A) (A) (A) (A) (A) (A) (A) (A) (A) (A)
                 (A) (A) (A) (A) (A) (A) (A) (A) (A) (A) (A) (A)
                 (A) (A) (A) (A) (A) (A) (A) (A) (A) (A) (A) (A)
                 (A) (A) (A) (A) (A) (A) (A) (A) (A) (A) (A) (A)
                 (A) (A) (A) (A) (A) (A) (A) (A) (A) (A) (A) (A)
                 (A) (A) (A) (A) (A) (A) (A) (A) (A) (A) (A) (A)
                 (A) (A) (A) (A) (A) (A) (A) (A) (A) (A) (A) (A)
                 (A) (A) (A) (A) (A) (A) (A) (A) (A) (A) (A) (A)
                 (A) (A) (A) (A) (A) (A) (A) (A) (A) (A) (A) (A)
                 (A) (A) (A) (A) (A) (A) (A) (A) (A) (A) (A) (A)
                 (A) (A) (A) (A) (A) (A) (A) (A) (A) (A) (A) (A)
                 (A) (A) (A) (A) (A) (A) (A) (A) (A) (A) (A) (A)
                 (A) (A)
 The electronic state is 1-A.
 Alpha  occ. eigenvalues --  -89.13356 -19.23820 -19.14433 -19.14390 -14.39087
 Alpha  occ. eigenvalues --  -14.37849 -14.37769 -10.27609 -10.27163 -10.22619
 Alpha  occ. eigenvalues --  -10.22143 -10.21700 -10.21032 -10.20801 -10.20654
 Alpha  occ. eigenvalues --  -10.20601 -10.20567 -10.20454  -8.15529  -6.12064
 Alpha  occ. eigenvalues --   -6.11932  -6.11908  -1.14271  -1.12344  -1.00423
 Alpha  occ. eigenvalues --   -0.96110  -0.94174  -0.87867  -0.85201  -0.81276
 Alpha  occ. eigenvalues --   -0.76139  -0.75784  -0.72788  -0.71670  -0.65365
 Alpha  occ. eigenvalues --   -0.64863  -0.62163  -0.60682  -0.57111  -0.55703
 Alpha  occ. eigenvalues --   -0.53931  -0.51657  -0.50162  -0.49113  -0.48154
 Alpha  occ. eigenvalues --   -0.47823  -0.47436  -0.46260  -0.45460  -0.43939
 Alpha  occ. eigenvalues --   -0.43572  -0.43429  -0.41861  -0.41154  -0.39651
 Alpha  occ. eigenvalues --   -0.39079  -0.38753  -0.37508  -0.36829  -0.35809
 Alpha  occ. eigenvalues --   -0.34655  -0.32776  -0.31576  -0.31113  -0.30223
 Alpha  occ. eigenvalues --   -0.29809  -0.27235  -0.26632  -0.25146  -0.23626
 Alpha virt. eigenvalues --   -0.05480  -0.01534   0.02119   0.04015   0.06455
 Alpha virt. eigenvalues --    0.07428   0.07602   0.09012   0.09499   0.10318
 Alpha virt. eigenvalues --    0.10804   0.12108   0.12679   0.13930   0.14253
 Alpha virt. eigenvalues --    0.15749   0.16095   0.16373   0.16843   0.17335
 Alpha virt. eigenvalues --    0.18143   0.18575   0.19561   0.20402   0.21988
 Alpha virt. eigenvalues --    0.22313   0.25108   0.25596   0.29050   0.29730
 Alpha virt. eigenvalues --    0.31845   0.32523   0.34216   0.36033   0.37837
 Alpha virt. eigenvalues --    0.40731   0.43103   0.43963   0.46253   0.47436
 Alpha virt. eigenvalues --    0.48537   0.49748   0.50580   0.51516   0.52805
 Alpha virt. eigenvalues --    0.53152   0.54279   0.54783   0.55304   0.56631
 Alpha virt. eigenvalues --    0.57503   0.57764   0.58195   0.58909   0.60069
 Alpha virt. eigenvalues --    0.60396   0.60836   0.61942   0.62380   0.63538
 Alpha virt. eigenvalues --    0.64412   0.65029   0.67124   0.69208   0.70437
 Alpha virt. eigenvalues --    0.71000   0.73238   0.75491   0.76000   0.77143
 Alpha virt. eigenvalues --    0.77977   0.79428   0.80579   0.82064   0.82553
 Alpha virt. eigenvalues --    0.82796   0.83334   0.83933   0.84862   0.85403
 Alpha virt. eigenvalues --    0.86344   0.87067   0.88384   0.89002   0.89816
 Alpha virt. eigenvalues --    0.90642   0.90884   0.92747   0.93029   0.94252
 Alpha virt. eigenvalues --    0.94785   0.95276   0.96376   0.97365   0.98246
 Alpha virt. eigenvalues --    1.00828   1.01529   1.02998   1.04790   1.05167
 Alpha virt. eigenvalues --    1.07737   1.08021   1.09398   1.10329   1.14115
 Alpha virt. eigenvalues --    1.14647   1.15160   1.16990   1.17100   1.19957
 Alpha virt. eigenvalues --    1.21695   1.23388   1.23698   1.25806   1.29582
 Alpha virt. eigenvalues --    1.30367   1.31710   1.33467   1.35083   1.36081
 Alpha virt. eigenvalues --    1.37601   1.41209   1.41671   1.42320   1.43660
 Alpha virt. eigenvalues --    1.45221   1.46664   1.47608   1.48023   1.49497
 Alpha virt. eigenvalues --    1.49646   1.50028   1.54069   1.56387   1.58389
 Alpha virt. eigenvalues --    1.61877   1.68245   1.72032   1.72548   1.77234
 Alpha virt. eigenvalues --    1.78081   1.78926   1.79658   1.81259   1.81881
 Alpha virt. eigenvalues --    1.82678   1.85627   1.86484   1.88200   1.89468
 Alpha virt. eigenvalues --    1.91631   1.93200   1.93957   1.96039   1.96150
 Alpha virt. eigenvalues --    1.97062   1.97436   1.98432   1.99999   2.00462
 Alpha virt. eigenvalues --    2.03823   2.05962   2.07140   2.09695   2.10202
 Alpha virt. eigenvalues --    2.11223   2.11646   2.12766   2.13258   2.14166
 Alpha virt. eigenvalues --    2.17789   2.19549   2.21278   2.22564   2.23656
 Alpha virt. eigenvalues --    2.24499   2.25375   2.26946   2.27916   2.29433
 Alpha virt. eigenvalues --    2.30507   2.32909   2.34846   2.35591   2.42520
 Alpha virt. eigenvalues --    2.43415   2.48596   2.51160   2.52857   2.53351
 Alpha virt. eigenvalues --    2.56943   2.57564   2.59625   2.60300   2.62372
 Alpha virt. eigenvalues --    2.65596   2.66238   2.71106   2.72360   2.73395
 Alpha virt. eigenvalues --    2.73944   2.76248   2.77402   2.85086   2.87815
 Alpha virt. eigenvalues --    2.89051   2.92632   3.02892   3.06263   3.12872
 Alpha virt. eigenvalues --    3.27128   3.42229   3.72507   3.82612   3.99093
 Alpha virt. eigenvalues --    4.02147   4.05310   4.07466   4.08911   4.10252
 Alpha virt. eigenvalues --    4.12835   4.17106   4.23078   4.29737   4.31209
 Alpha virt. eigenvalues --    4.32988   4.38237   4.40643   4.57049   4.73750
          Condensed to atoms (all electrons):
               1          2          3          4          5          6
     1  O    8.203424   0.446005  -0.054624   0.008423  -0.002455   0.000012
     2  S    0.446005  13.541175   0.089165  -0.010861   0.005375  -0.000213
     3  N   -0.054624   0.089165   7.490528   0.220724  -0.072569   0.005395
     4  C    0.008423  -0.010861   0.220724   4.516661   0.384302  -0.027825
     5  N   -0.002455   0.005375  -0.072569   0.384302   6.905721   0.114331
     6  O    0.000012  -0.000213   0.005395  -0.027825   0.114331   8.189134
     7  C    0.000003   0.000257   0.000209  -0.024619  -0.076614   0.249370
     8  C    0.000000  -0.000010  -0.000208   0.003207   0.004090  -0.038192
     9  C    0.000000   0.000000   0.000003   0.000596  -0.000098   0.003186
    10  C    0.000000   0.000000   0.000000  -0.000006   0.000001  -0.000059
    11  C    0.000000   0.000000   0.000000   0.000000   0.000000   0.000001
    12  C    0.000000   0.000000   0.000000   0.000005   0.000000   0.000308
    13  C    0.000000   0.000000  -0.000001  -0.000334   0.000130  -0.006380
    14  C    0.000115   0.001412  -0.058452   0.435569  -0.040555  -0.096097
    15  N   -0.052508   0.175154  -0.053364  -0.005976   0.001058   0.000006
    16  C    0.001689  -0.015555   0.002138   0.000308  -0.000147   0.000000
    17  C   -0.004876  -0.016384   0.000071   0.001067  -0.003649   0.000018
    18  O   -0.041352   0.458438  -0.055151   0.001579  -0.000008   0.000000
    19  H    0.000369  -0.010656   0.304299  -0.022298   0.003179  -0.000074
    20  H    0.000000   0.000000  -0.000001   0.000070  -0.000004   0.000020
    21  H    0.000000   0.000000   0.000000   0.000000   0.000000   0.000000
    22  H    0.000000   0.000000   0.000000   0.000000   0.000000   0.000000
    23  H    0.000000   0.000000   0.000000   0.000000   0.000000  -0.000003
    24  H    0.000000   0.000000   0.000000   0.000067  -0.000261   0.009752
    25  H    0.000002  -0.000143  -0.002090  -0.030243   0.004840   0.003577
    26  H    0.000052   0.003369  -0.001431  -0.000013   0.000003   0.000000
    27  H   -0.000052   0.002762   0.000009  -0.000027   0.000001   0.000000
    28  H   -0.000017  -0.010547   0.006297   0.001132  -0.000134  -0.000001
    29  H    0.010541  -0.003405   0.000046  -0.000070  -0.000010   0.000003
    30  H   -0.000119  -0.008302   0.001408   0.001512   0.007631  -0.000180
    31  H    0.000158   0.003480  -0.000139  -0.000054   0.000207   0.000000
               7          8          9         10         11         12
     1  O    0.000003   0.000000   0.000000   0.000000   0.000000   0.000000
     2  S    0.000257  -0.000010   0.000000   0.000000   0.000000   0.000000
     3  N    0.000209  -0.000208   0.000003   0.000000   0.000000   0.000000
     4  C   -0.024619   0.003207   0.000596  -0.000006   0.000000   0.000005
     5  N   -0.076614   0.004090  -0.000098   0.000001   0.000000   0.000000
     6  O    0.249370  -0.038192   0.003186  -0.000059   0.000001   0.000308
     7  C    4.721850   0.343767  -0.041577   0.006386   0.000942   0.004754
     8  C    0.343767   4.772500   0.536179  -0.008086  -0.033783  -0.008019
     9  C   -0.041577   0.536179   5.004516   0.522763  -0.038502  -0.041267
    10  C    0.006386  -0.008086   0.522763   4.860879   0.545438  -0.023846
    11  C    0.000942  -0.033783  -0.038502   0.545438   4.852106   0.543498
    12  C    0.004754  -0.008019  -0.041267  -0.023846   0.543498   4.875133
    13  C   -0.039595   0.477120  -0.084626  -0.042485  -0.035853   0.504347
    14  C    0.507408  -0.059572  -0.021715   0.000197   0.000015  -0.000243
    15  N   -0.000004   0.000000   0.000000   0.000000   0.000000   0.000000
    16  C    0.000000   0.000000   0.000000   0.000000   0.000000   0.000000
    17  C   -0.000001   0.000000   0.000000   0.000000   0.000000   0.000000
    18  O    0.000000   0.000000   0.000000   0.000000   0.000000   0.000000
    19  H   -0.000001  -0.000003   0.000000   0.000000   0.000000   0.000000
    20  H   -0.013531  -0.037926   0.351527  -0.044507   0.004701   0.000205
    21  H   -0.000213   0.003317  -0.038816   0.359004  -0.041728   0.004492
    22  H    0.000003   0.000550   0.004892  -0.042678   0.360989  -0.042446
    23  H   -0.000184   0.003145   0.000884   0.004478  -0.042073   0.359888
    24  H   -0.013159  -0.038406   0.005407   0.000277   0.004443  -0.042901
    25  H   -0.024109  -0.003559   0.001349   0.000087  -0.000001   0.000002
    26  H    0.000000   0.000000   0.000000   0.000000   0.000000   0.000000
    27  H    0.000000   0.000000   0.000000   0.000000   0.000000   0.000000
    28  H    0.000000   0.000000   0.000000   0.000000   0.000000   0.000000
    29  H    0.000000   0.000000   0.000000   0.000000   0.000000   0.000000
    30  H    0.000019   0.000000   0.000000   0.000000   0.000000   0.000000
    31  H    0.000000   0.000000   0.000000   0.000000   0.000000   0.000000
              13         14         15         16         17         18
     1  O    0.000000   0.000115  -0.052508   0.001689  -0.004876  -0.041352
     2  S    0.000000   0.001412   0.175154  -0.015555  -0.016384   0.458438
     3  N   -0.000001  -0.058452  -0.053364   0.002138   0.000071  -0.055151
     4  C   -0.000334   0.435569  -0.005976   0.000308   0.001067   0.001579
     5  N    0.000130  -0.040555   0.001058  -0.000147  -0.003649  -0.000008
     6  O   -0.006380  -0.096097   0.000006   0.000000   0.000018   0.000000
     7  C   -0.039595   0.507408  -0.000004   0.000000  -0.000001   0.000000
     8  C    0.477120  -0.059572   0.000000   0.000000   0.000000   0.000000
     9  C   -0.084626  -0.021715   0.000000   0.000000   0.000000   0.000000
    10  C   -0.042485   0.000197   0.000000   0.000000   0.000000   0.000000
    11  C   -0.035853   0.000015   0.000000   0.000000   0.000000   0.000000
    12  C    0.504347  -0.000243   0.000000   0.000000   0.000000   0.000000
    13  C    5.043981   0.012474   0.000000   0.000000   0.000000   0.000000
    14  C    0.012474   5.280016  -0.000112  -0.000008   0.000017  -0.000071
    15  N    0.000000  -0.000112   7.167564   0.276645   0.272812  -0.055673
    16  C    0.000000  -0.000008   0.276645   4.997698  -0.049518  -0.007263
    17  C    0.000000   0.000017   0.272812  -0.049518   5.003047   0.001425
    18  O    0.000000  -0.000071  -0.055673  -0.007263   0.001425   8.234305
    19  H    0.000000  -0.004975   0.002058  -0.000225  -0.000029   0.006099
    20  H    0.006074   0.006225   0.000000   0.000000   0.000000   0.000000
    21  H    0.000862   0.000000   0.000000   0.000000   0.000000   0.000000
    22  H    0.004704   0.000000   0.000000   0.000000   0.000000   0.000000
    23  H   -0.037803   0.000001   0.000000   0.000000   0.000000   0.000000
    24  H    0.360532   0.000267   0.000000   0.000000   0.000000   0.000000
    25  H   -0.000124   0.345321   0.000000   0.000000   0.000000  -0.000001
    26  H    0.000000   0.000001  -0.033653   0.374652   0.004370   0.010439
    27  H    0.000000   0.000000  -0.034669   0.374775  -0.003895   0.000051
    28  H    0.000000   0.000012  -0.047826   0.372888  -0.000377  -0.000206
    29  H    0.000000  -0.000002  -0.028903   0.004304   0.379500   0.000030
    30  H    0.000000   0.000075  -0.044567  -0.000946   0.372590  -0.000067
    31  H    0.000000   0.000000  -0.037241  -0.004557   0.366691  -0.000047
              19         20         21         22         23         24
     1  O    0.000369   0.000000   0.000000   0.000000   0.000000   0.000000
     2  S   -0.010656   0.000000   0.000000   0.000000   0.000000   0.000000
     3  N    0.304299  -0.000001   0.000000   0.000000   0.000000   0.000000
     4  C   -0.022298   0.000070   0.000000   0.000000   0.000000   0.000067
     5  N    0.003179  -0.000004   0.000000   0.000000   0.000000  -0.000261
     6  O   -0.000074   0.000020   0.000000   0.000000  -0.000003   0.009752
     7  C   -0.000001  -0.013531  -0.000213   0.000003  -0.000184  -0.013159
     8  C   -0.000003  -0.037926   0.003317   0.000550   0.003145  -0.038406
     9  C    0.000000   0.351527  -0.038816   0.004892   0.000884   0.005407
    10  C    0.000000  -0.044507   0.359004  -0.042678   0.004478   0.000277
    11  C    0.000000   0.004701  -0.041728   0.360989  -0.042073   0.004443
    12  C    0.000000   0.000205   0.004492  -0.042446   0.359888  -0.042901
    13  C    0.000000   0.006074   0.000862   0.004704  -0.037803   0.360532
    14  C   -0.004975   0.006225   0.000000   0.000000   0.000001   0.000267
    15  N    0.002058   0.000000   0.000000   0.000000   0.000000   0.000000
    16  C   -0.000225   0.000000   0.000000   0.000000   0.000000   0.000000
    17  C   -0.000029   0.000000   0.000000   0.000000   0.000000   0.000000
    18  O    0.006099   0.000000   0.000000   0.000000   0.000000   0.000000
    19  H    0.349202   0.000000   0.000000   0.000000   0.000000   0.000000
    20  H    0.000000   0.594878  -0.005310  -0.000171   0.000016  -0.000149
    21  H    0.000000  -0.005310   0.584969  -0.005407  -0.000176   0.000016
    22  H    0.000000  -0.000171  -0.005407   0.585871  -0.005358  -0.000158
    23  H    0.000000   0.000016  -0.000176  -0.005358   0.580332  -0.004887
    24  H    0.000000  -0.000149   0.000016  -0.000158  -0.004887   0.553853
    25  H    0.002255   0.002232  -0.000003   0.000000   0.000000  -0.000009
    26  H    0.000002   0.000000   0.000000   0.000000   0.000000   0.000000
    27  H    0.000009   0.000000   0.000000   0.000000   0.000000   0.000000
    28  H   -0.000295   0.000000   0.000000   0.000000   0.000000   0.000000
    29  H   -0.000002   0.000000   0.000000   0.000000   0.000000   0.000000
    30  H   -0.000040   0.000000   0.000000   0.000000   0.000000   0.000000
    31  H    0.000003   0.000000   0.000000   0.000000   0.000000   0.000000
              25         26         27         28         29         30
     1  O    0.000002   0.000052  -0.000052  -0.000017   0.010541  -0.000119
     2  S   -0.000143   0.003369   0.002762  -0.010547  -0.003405  -0.008302
     3  N   -0.002090  -0.001431   0.000009   0.006297   0.000046   0.001408
     4  C   -0.030243  -0.000013  -0.000027   0.001132  -0.000070   0.001512
     5  N    0.004840   0.000003   0.000001  -0.000134  -0.000010   0.007631
     6  O    0.003577   0.000000   0.000000  -0.000001   0.000003  -0.000180
     7  C   -0.024109   0.000000   0.000000   0.000000   0.000000   0.000019
     8  C   -0.003559   0.000000   0.000000   0.000000   0.000000   0.000000
     9  C    0.001349   0.000000   0.000000   0.000000   0.000000   0.000000
    10  C    0.000087   0.000000   0.000000   0.000000   0.000000   0.000000
    11  C   -0.000001   0.000000   0.000000   0.000000   0.000000   0.000000
    12  C    0.000002   0.000000   0.000000   0.000000   0.000000   0.000000
    13  C   -0.000124   0.000000   0.000000   0.000000   0.000000   0.000000
    14  C    0.345321   0.000001   0.000000   0.000012  -0.000002   0.000075
    15  N    0.000000  -0.033653  -0.034669  -0.047826  -0.028903  -0.044567
    16  C    0.000000   0.374652   0.374775   0.372888   0.004304  -0.000946
    17  C    0.000000   0.004370  -0.003895  -0.000377   0.379500   0.372590
    18  O   -0.000001   0.010439   0.000051  -0.000206   0.000030  -0.000067
    19  H    0.002255   0.000002   0.000009  -0.000295  -0.000002  -0.000040
    20  H    0.002232   0.000000   0.000000   0.000000   0.000000   0.000000
    21  H   -0.000003   0.000000   0.000000   0.000000   0.000000   0.000000
    22  H    0.000000   0.000000   0.000000   0.000000   0.000000   0.000000
    23  H    0.000000   0.000000   0.000000   0.000000   0.000000   0.000000
    24  H   -0.000009   0.000000   0.000000   0.000000   0.000000   0.000000
    25  H    0.545426   0.000000   0.000000   0.000000   0.000000  -0.000001
    26  H    0.000000   0.495277  -0.021334  -0.031190  -0.000184  -0.000171
    27  H    0.000000  -0.021334   0.545928  -0.038420   0.000018  -0.001434
    28  H    0.000000  -0.031190  -0.038420   0.581658  -0.000164   0.007272
    29  H    0.000000  -0.000184   0.000018  -0.000164   0.474991  -0.026385
    30  H   -0.000001  -0.000171  -0.001434   0.007272  -0.026385   0.553163
    31  H    0.000000   0.000030   0.005571  -0.001526  -0.022133  -0.038079
              31
     1  O    0.000158
     2  S    0.003480
     3  N   -0.000139
     4  C   -0.000054
     5  N    0.000207
     6  O    0.000000
     7  C    0.000000
     8  C    0.000000
     9  C    0.000000
    10  C    0.000000
    11  C    0.000000
    12  C    0.000000
    13  C    0.000000
    14  C    0.000000
    15  N   -0.037241
    16  C   -0.004557
    17  C    0.366691
    18  O   -0.000047
    19  H    0.000003
    20  H    0.000000
    21  H    0.000000
    22  H    0.000000
    23  H    0.000000
    24  H    0.000000
    25  H    0.000000
    26  H    0.000030
    27  H    0.005571
    28  H   -0.001526
    29  H   -0.022133
    30  H   -0.038079
    31  H    0.566784
 Mulliken charges:
               1
     1  O   -0.514790
     2  S    1.349485
     3  N   -0.822262
     4  C    0.547105
     5  N   -0.234365
     6  O   -0.406089
     7  C    0.398641
     8  C    0.083892
     9  C   -0.164698
    10  C   -0.137842
    11  C   -0.120194
    12  C   -0.133910
    13  C   -0.163020
    14  C   -0.307321
    15  N   -0.500800
    16  C   -0.326879
    17  C   -0.322879
    18  O   -0.552527
    19  H    0.371121
    20  H    0.135650
    21  H    0.138994
    22  H    0.139210
    23  H    0.141740
    24  H    0.165317
    25  H    0.155191
    26  H    0.199781
    27  H    0.170709
    28  H    0.161442
    29  H    0.211826
    30  H    0.176621
    31  H    0.160852
 Sum of Mulliken charges =   0.00000
 Mulliken charges with hydrogens summed into heavy atoms:
               1
     1  O   -0.514790
     2  S    1.349485
     3  N   -0.451141
     4  C    0.547105
     5  N   -0.234365
     6  O   -0.406089
     7  C    0.398641
     8  C    0.083892
     9  C   -0.029048
    10  C    0.001152
    11  C    0.019016
    12  C    0.007830
    13  C    0.002297
    14  C   -0.152130
    15  N   -0.500800
    16  C    0.205053
    17  C    0.226421
    18  O   -0.552527
 Electronic spatial extent (au):  <R**2>=           7153.0098
 Charge=              0.0000 electrons
 Dipole moment (field-independent basis, Debye):
    X=              3.8205    Y=             -0.5936    Z=              4.0841  Tot=              5.6239
 Quadrupole moment (field-independent basis, Debye-Ang):
   XX=           -100.3926   YY=           -102.7916   ZZ=           -115.9113
   XY=            -10.0142   XZ=            -13.1734   YZ=             -2.4400
 Traceless Quadrupole moment (field-independent basis, Debye-Ang):
   XX=              5.9726   YY=              3.5736   ZZ=             -9.5461
   XY=            -10.0142   XZ=            -13.1734   YZ=             -2.4400
 Octapole moment (field-independent basis, Debye-Ang**2):
  XXX=             94.9881  YYY=             -2.6144  ZZZ=              3.4774  XYY=              3.2895
  XXY=             48.2350  XXZ=             46.7156  XZZ=            -25.6857  YZZ=              1.0645
  YYZ=              3.2968  XYZ=             -6.6625
 Hexadecapole moment (field-independent basis, Debye-Ang**3):
 XXXX=          -7531.7880 YYYY=           -799.7990 ZZZZ=           -449.1879 XXXY=           -160.2324
 XXXZ=           -176.8359 YYYX=            -21.1008 YYYZ=            -19.4601 ZZZX=            -25.1870
 ZZZY=              4.7202 XXYY=          -1425.4017 XXZZ=          -1495.0675 YYZZ=           -214.8835
 XXYZ=            -46.9063 YYXZ=             -7.9252 ZZXY=              4.5218
 N-N= 1.446402924101D+03 E-N=-5.739653086205D+03  KE= 1.205897614654D+03
 No NMR shielding tensors so no spin-rotation constants.
 Leave Link  601 at Thu Aug  6 21:59:52 2020, MaxMem=    33554432 cpu:         0.2
 (Enter /prod/apps/gaussian/g09d1/l9999.exe)
 1\1\GINC-PIRINEUS9\SP\RB3LYP\6-31G(d)\C11H13N3O3S1\UBAFAR01\06-Aug-202
 0\0\\#p b3lyp/6-31G(d)\\SM43.n.10.pdb.xyz\\0,1\O,0,1.952,-3.824,1.441\
 S,0,2.342,-2.79,0.483\N,0,1.857,-1.256,1.047\C,0,1.73,-0.907,2.388\N,0
 ,2.496,-1.429,3.327\O,0,2.083,-0.799,4.513\C,0,1.096,0.088,4.239\C,0,0
 .542,0.842,5.357\C,0,-0.447,1.814,5.131\C,0,-0.978,2.532,6.198\C,0,-0.
 531,2.292,7.5\C,0,0.452,1.327,7.73\C,0,0.988,0.605,6.667\C,0,0.825,0.0
 63,2.899\N,0,3.995,-2.811,0.381\C,0,4.591,-1.774,-0.472\C,0,4.767,-3.1
 36,1.591\O,0,1.817,-2.797,-0.883\H,0,1.166,-0.844,0.424\H,0,-0.795,2.0
 06,4.122\H,0,-1.741,3.281,6.013\H,0,-0.947,2.853,8.33\H,0,0.803,1.136,
 8.739\H,0,1.749,-0.145,6.843\H,0,0.094,0.634,2.349\H,0,4.013,-1.681,-1
 .39\H,0,5.601,-2.1,-0.724\H,0,4.641,-0.805,0.035\H,0,4.281,-3.951,2.12
 2\H,0,4.874,-2.274,2.257\H,0,5.753,-3.463,1.257\\Version=AM64L-G09RevD
 .01\State=1-A\HF=-1214.9862783\RMSD=9.609e-09\Dipole=0.1278911,2.13420
 02,0.5695802\Quadrupole=7.0343271,-7.7148259,0.6804989,-8.9881987,-6.8
 137051,-3.3579014\PG=C01 [X(C11H13N3O3S1)]\\@


       THE DEATH-KNELL OF THE ATOM

 SO THE ATOMS IN TURN, WE NOW CLEARLY DISCERN,
 FLY TO BITS WITH THE UTMOST FACILITY;
 THEY WEND ON THEIR WAY, AND, IN SPLITTING, DISPLAY
 AN ABSOLUTE LACK OF STABILITY.

          SIR WM. RAMSAY, 1905
 Job cpu time:       0 days  0 hours  3 minutes 34.3 seconds.
 File lengths (MBytes):  RWF=     51 Int=      0 D2E=      0 Chk=      4 Scr=      1
 Normal termination of Gaussian 09 at Thu Aug  6 21:59:52 2020.
 Initial command:
 /prod/apps/gaussian/g09d1/l1.exe "/tmp/ubafar01/1448601/Gau-122383.inp" -scrdir="/tmp/ubafar01/1448601/"
 Entering Link 1 = /prod/apps/gaussian/g09d1/l1.exe PID=    123534.
  
 Copyright (c) 1988,1990,1992,1993,1995,1998,2003,2009,2013,
            Gaussian, Inc.  All Rights Reserved.
  
 This is part of the Gaussian(R) 09 program.  It is based on
 the Gaussian(R) 03 system (copyright 2003, Gaussian, Inc.),
 the Gaussian(R) 98 system (copyright 1998, Gaussian, Inc.),
 the Gaussian(R) 94 system (copyright 1995, Gaussian, Inc.),
 the Gaussian 92(TM) system (copyright 1992, Gaussian, Inc.),
 the Gaussian 90(TM) system (copyright 1990, Gaussian, Inc.),
 the Gaussian 88(TM) system (copyright 1988, Gaussian, Inc.),
 the Gaussian 86(TM) system (copyright 1986, Carnegie Mellon
 University), and the Gaussian 82(TM) system (copyright 1983,
 Carnegie Mellon University). Gaussian is a federally registered
 trademark of Gaussian, Inc.
  
 This software contains proprietary and confidential information,
 including trade secrets, belonging to Gaussian, Inc.
  
 This software is provided under written license and may be
 used, copied, transmitted, or stored only in accord with that
 written license.
  
 The following legend is applicable only to US Government
 contracts under FAR:
  
                    RESTRICTED RIGHTS LEGEND
  
 Use, reproduction and disclosure by the US Government is
 subject to restrictions as set forth in subparagraphs (a)
 and (c) of the Commercial Computer Software - Restricted
 Rights clause in FAR 52.227-19.
  
 Gaussian, Inc.
 340 Quinnipiac St., Bldg. 40, Wallingford CT 06492
  
  
 ---------------------------------------------------------------
 Warning -- This program may not be used in any manner that
 competes with the business of Gaussian, Inc. or will provide
 assistance to any competitor of Gaussian, Inc.  The licensee
 of this program is prohibited from giving any competitor of
 Gaussian, Inc. access to this program.  By using this program,
 the user acknowledges that Gaussian, Inc. is engaged in the
 business of creating and licensing software in the field of
 computational chemistry and represents and warrants to the
 licensee that it is not a competitor of Gaussian, Inc. and that
 it will not use this program in any manner prohibited above.
 ---------------------------------------------------------------
  

 Cite this work as:
 Gaussian 09, Revision D.01,
 M. J. Frisch, G. W. Trucks, H. B. Schlegel, G. E. Scuseria, 
 M. A. Robb, J. R. Cheeseman, G. Scalmani, V. Barone, B. Mennucci, 
 G. A. Petersson, H. Nakatsuji, M. Caricato, X. Li, H. P. Hratchian, 
 A. F. Izmaylov, J. Bloino, G. Zheng, J. L. Sonnenberg, M. Hada, 
 M. Ehara, K. Toyota, R. Fukuda, J. Hasegawa, M. Ishida, T. Nakajima, 
 Y. Honda, O. Kitao, H. Nakai, T. Vreven, J. A. Montgomery, Jr., 
 J. E. Peralta, F. Ogliaro, M. Bearpark, J. J. Heyd, E. Brothers, 
 K. N. Kudin, V. N. Staroverov, T. Keith, R. Kobayashi, J. Normand, 
 K. Raghavachari, A. Rendell, J. C. Burant, S. S. Iyengar, J. Tomasi, 
 M. Cossi, N. Rega, J. M. Millam, M. Klene, J. E. Knox, J. B. Cross, 
 V. Bakken, C. Adamo, J. Jaramillo, R. Gomperts, R. E. Stratmann, 
 O. Yazyev, A. J. Austin, R. Cammi, C. Pomelli, J. W. Ochterski, 
 R. L. Martin, K. Morokuma, V. G. Zakrzewski, G. A. Voth, 
 P. Salvador, J. J. Dannenberg, S. Dapprich, A. D. Daniels, 
 O. Farkas, J. B. Foresman, J. V. Ortiz, J. Cioslowski, 
 and D. J. Fox, Gaussian, Inc., Wallingford CT, 2013.
 
 ******************************************
 Gaussian 09:  AM64L-G09RevD.01 24-Apr-2013
                 6-Aug-2020 
 ******************************************
 %nproc=1
 Will use up to    1 processors via shared memory.
 %Chk=SM43.n.10.pdb.xyz.mst.n.w.chk
 %subst l502 /dades/curu/work_g09D01_MST_AddSphPartition_ReadGammas/exe-dir/
 ----------------------------------------------------------------------
 #p b3lyp/6-31G(d) scrf=(iefpcm,read,solvent=Water) geom=allcheck guess
 =read
 ----------------------------------------------------------------------
 1/29=7,38=1,40=2/1;
 2/12=2,40=1/2;
 3/5=1,6=6,7=1,11=2,14=-4,16=1,25=1,30=1,70=2203,72=1,74=-5,116=-2/1,2,3;
 4/5=1/1;
 5/5=2,38=6,53=1/2;
 6/7=2,8=2,9=2,10=2,28=1/1;
 99/5=1,9=1/99;
 Leave Link    1 at Thu Aug  6 21:59:52 2020, MaxMem=           0 cpu:         0.0
 (Enter /prod/apps/gaussian/g09d1/l101.exe)
 Structure from the checkpoint file:  "SM43.n.10.pdb.xyz.mst.n.w.chk"
 -----------------
 SM43.n.10.pdb.xyz
 -----------------
 Charge =  0 Multiplicity = 1
 Z-Matrix found in file.
 O,0,1.952,-3.824,1.441
 S,0,2.342,-2.79,0.483
 N,0,1.857,-1.256,1.047
 C,0,1.73,-0.907,2.388
 N,0,2.496,-1.429,3.327
 O,0,2.083,-0.799,4.513
 C,0,1.096,0.088,4.239
 C,0,0.542,0.842,5.357
 C,0,-0.447,1.814,5.131
 C,0,-0.978,2.532,6.198
 C,0,-0.531,2.292,7.5
 C,0,0.452,1.327,7.73
 C,0,0.988,0.605,6.667
 C,0,0.825,0.063,2.899
 N,0,3.995,-2.811,0.381
 C,0,4.591,-1.774,-0.472
 C,0,4.767,-3.136,1.591
 O,0,1.817,-2.797,-0.883
 H,0,1.166,-0.844,0.424
 H,0,-0.795,2.006,4.122
 H,0,-1.741,3.281,6.013
 H,0,-0.947,2.853,8.33
 H,0,0.803,1.136,8.739
 H,0,1.749,-0.145,6.843
 H,0,0.094,0.634,2.349
 H,0,4.013,-1.681,-1.39
 H,0,5.601,-2.1,-0.724
 H,0,4.641,-0.805,0.035
 H,0,4.281,-3.951,2.122
 H,0,4.874,-2.274,2.257
 H,0,5.753,-3.463,1.257
 Recover connectivity data from disk.
 NAtoms=     31 NQM=       31 NQMF=       0 NMMI=      0 NMMIF=      0
                NMic=       0 NMicF=      0.
                    Isotopes and Nuclear Properties:
 (Nuclear quadrupole moments (NQMom) in fm**2, nuclear magnetic moments (NMagM)
  in nuclear magnetons)

  Atom         1           2           3           4           5           6           7           8           9          10
 IAtWgt=          16          32          14          12          14          16          12          12          12          12
 AtmWgt=  15.9949146  31.9720718  14.0030740  12.0000000  14.0030740  15.9949146  12.0000000  12.0000000  12.0000000  12.0000000
 NucSpn=           0           0           2           0           2           0           0           0           0           0
 AtZEff=  -5.6000000 -13.6000000  -4.5500000  -3.6000000  -4.5500000  -5.6000000  -3.6000000  -3.6000000  -3.6000000  -3.6000000
 NQMom=    0.0000000   0.0000000   2.0440000   0.0000000   2.0440000   0.0000000   0.0000000   0.0000000   0.0000000   0.0000000
 NMagM=    0.0000000   0.0000000   0.4037610   0.0000000   0.4037610   0.0000000   0.0000000   0.0000000   0.0000000   0.0000000
 AtZNuc=   8.0000000  16.0000000   7.0000000   6.0000000   7.0000000   8.0000000   6.0000000   6.0000000   6.0000000   6.0000000

  Atom        11          12          13          14          15          16          17          18          19          20
 IAtWgt=          12          12          12          12          14          12          12          16           1           1
 AtmWgt=  12.0000000  12.0000000  12.0000000  12.0000000  14.0030740  12.0000000  12.0000000  15.9949146   1.0078250   1.0078250
 NucSpn=           0           0           0           0           2           0           0           0           1           1
 AtZEff=  -3.6000000  -3.6000000  -3.6000000  -3.6000000  -4.5500000  -3.6000000  -3.6000000  -5.6000000  -1.0000000  -1.0000000
 NQMom=    0.0000000   0.0000000   0.0000000   0.0000000   2.0440000   0.0000000   0.0000000   0.0000000   0.0000000   0.0000000
 NMagM=    0.0000000   0.0000000   0.0000000   0.0000000   0.4037610   0.0000000   0.0000000   0.0000000   2.7928460   2.7928460
 AtZNuc=   6.0000000   6.0000000   6.0000000   6.0000000   7.0000000   6.0000000   6.0000000   8.0000000   1.0000000   1.0000000

  Atom        21          22          23          24          25          26          27          28          29          30
 IAtWgt=           1           1           1           1           1           1           1           1           1           1
 AtmWgt=   1.0078250   1.0078250   1.0078250   1.0078250   1.0078250   1.0078250   1.0078250   1.0078250   1.0078250   1.0078250
 NucSpn=           1           1           1           1           1           1           1           1           1           1
 AtZEff=  -1.0000000  -1.0000000  -1.0000000  -1.0000000  -1.0000000  -1.0000000  -1.0000000  -1.0000000  -1.0000000  -1.0000000
 NQMom=    0.0000000   0.0000000   0.0000000   0.0000000   0.0000000   0.0000000   0.0000000   0.0000000   0.0000000   0.0000000
 NMagM=    2.7928460   2.7928460   2.7928460   2.7928460   2.7928460   2.7928460   2.7928460   2.7928460   2.7928460   2.7928460
 AtZNuc=   1.0000000   1.0000000   1.0000000   1.0000000   1.0000000   1.0000000   1.0000000   1.0000000   1.0000000   1.0000000

  Atom        31
 IAtWgt=           1
 AtmWgt=   1.0078250
 NucSpn=           1
 AtZEff=  -1.0000000
 NQMom=    0.0000000
 NMagM=    2.7928460
 AtZNuc=   1.0000000
 Leave Link  101 at Thu Aug  6 21:59:52 2020, MaxMem=    33554432 cpu:         0.0
 (Enter /prod/apps/gaussian/g09d1/l202.exe)
                          Input orientation:                          
 ---------------------------------------------------------------------
 Center     Atomic      Atomic             Coordinates (Angstroms)
 Number     Number       Type             X           Y           Z
 ---------------------------------------------------------------------
      1          8           0        1.952000   -3.824000    1.441000
      2         16           0        2.342000   -2.790000    0.483000
      3          7           0        1.857000   -1.256000    1.047000
      4          6           0        1.730000   -0.907000    2.388000
      5          7           0        2.496000   -1.429000    3.327000
      6          8           0        2.083000   -0.799000    4.513000
      7          6           0        1.096000    0.088000    4.239000
      8          6           0        0.542000    0.842000    5.357000
      9          6           0       -0.447000    1.814000    5.131000
     10          6           0       -0.978000    2.532000    6.198000
     11          6           0       -0.531000    2.292000    7.500000
     12          6           0        0.452000    1.327000    7.730000
     13          6           0        0.988000    0.605000    6.667000
     14          6           0        0.825000    0.063000    2.899000
     15          7           0        3.995000   -2.811000    0.381000
     16          6           0        4.591000   -1.774000   -0.472000
     17          6           0        4.767000   -3.136000    1.591000
     18          8           0        1.817000   -2.797000   -0.883000
     19          1           0        1.166000   -0.844000    0.424000
     20          1           0       -0.795000    2.006000    4.122000
     21          1           0       -1.741000    3.281000    6.013000
     22          1           0       -0.947000    2.853000    8.330000
     23          1           0        0.803000    1.136000    8.739000
     24          1           0        1.749000   -0.145000    6.843000
     25          1           0        0.094000    0.634000    2.349000
     26          1           0        4.013000   -1.681000   -1.390000
     27          1           0        5.601000   -2.100000   -0.724000
     28          1           0        4.641000   -0.805000    0.035000
     29          1           0        4.281000   -3.951000    2.122000
     30          1           0        4.874000   -2.274000    2.257000
     31          1           0        5.753000   -3.463000    1.257000
 ---------------------------------------------------------------------
                    Distance matrix (angstroms):
                    1          2          3          4          5
     1  O    0.000000
     2  S    1.462539   0.000000
     3  N    2.599786   1.704839   0.000000
     4  C    3.074895   2.747591   1.391478   0.000000
     5  N    3.096604   3.156640   2.374163   1.319455   0.000000
     6  O    4.313348   4.502451   3.503296   2.156826   1.405014
     7  C    4.885211   4.893152   3.546029   2.195036   2.256775
     8  C    6.252576   6.339345   4.970607   3.644901   3.618903
     9  C    7.152506   7.111908   5.604674   4.434774   4.736319
    10  C    8.462428   8.485712   6.994210   5.803110   6.000070
    11  C    8.960035   9.127932   7.741580   6.440362   6.357869
    12  C    8.266458   8.546391   7.301260   5.929671   5.582104
    13  C    6.917833   7.183397   5.983551   4.598538   4.191279
    14  C    4.301705   4.034595   2.496936   1.421635   2.280677
    15  N    2.514680   1.656277   2.726284   3.575401   3.582714
    16  C    3.850505   2.646183   3.170243   4.137222   4.352063
    17  C    2.901736   2.688495   3.506913   3.850587   3.329412
    18  O    2.544392   1.463431   2.470057   3.778771   4.478456
    19  H    3.245379   2.274505   1.017523   2.044349   3.246311
    20  H    6.980163   6.788572   5.208586   4.227050   4.823062
    21  H    9.220762   9.171087   7.628311   6.536651   6.881196
    22  H   10.022218  10.209622   8.819772   7.524048   7.431001
    23  H    8.898461   9.270573   8.124004   6.735605   6.223762
    24  H    6.538949   6.913557   5.902508   4.519738   3.816926
    25  H    4.914305   4.501026   2.894041   2.247821   3.313919
    26  H    4.105451   2.744130   3.281452   4.481568   4.961339
    27  H    4.579804   3.543167   4.226856   5.108075   5.147996
    28  H    4.280411   3.070233   2.996365   3.744454   3.978400
    29  H    2.429842   2.791767   3.780797   3.980489   3.316434
    30  H    3.406823   3.134383   3.406276   3.430829   2.741133
    31  H    3.822536   3.561871   4.482607   4.898656   4.362351
                    6          7          8          9         10
     6  O    0.000000
     7  C    1.354996   0.000000
     8  C    2.404142   1.457860   0.000000
     9  C    3.689254   2.481046   1.404984   0.000000
    10  C    4.827474   3.756633   2.423588   1.391393   0.000000
    11  C    5.030849   4.258975   2.801121   2.418202   1.397359
    12  C    4.186780   3.759912   2.423727   2.792879   2.417426
    13  C    2.794630   2.484781   1.403989   2.424913   2.792570
    14  C    2.220496   1.367357   2.593973   3.108988   4.497796
    15  N    4.977681   5.629615   7.073061   7.980256   9.333588
    16  C    5.664884   6.154315   7.564066   8.345585   9.697644
    17  C    4.604727   5.557186   6.917938   8.013732   9.292777
    18  O    5.760172   5.922664   7.335226   7.909185   9.292515
    19  H    4.190804   3.927817   5.250377   5.641151   7.023759
    20  H    4.037795   2.695977   2.160484   1.084458   2.149405
    21  H    5.789592   4.625029   3.404577   2.145798   1.085078
    22  H    6.089950   5.343721   3.885868   3.400459   2.156253
    23  H    4.820965   4.629703   3.404773   3.878124   3.402566
    24  H    2.442984   2.694720   2.153883   3.404562   3.875420
    25  H    3.269940   2.207764   3.048283   3.069952   4.423391
    26  H    6.272817   6.582089   7.995960   8.638869  10.011853
    27  H    6.441669   7.050797   8.439633   9.283250  10.613800
    28  H    5.157120   5.571184   6.916509   7.662645   8.982834
    29  H    4.525836   5.562323   6.886087   8.040105   9.289787
    30  H    3.880057   4.876541   6.171360   7.299634   8.536687
    31  H    5.582771   6.571878   7.905539   9.016352  10.279099
                   11         12         13         14         15
    11  C    0.000000
    12  C    1.396572   0.000000
    13  C    2.418102   1.392318   0.000000
    14  C    5.289270   5.007533   3.810270   0.000000
    15  N    9.859282   9.147879   7.760470   4.964786   0.000000
    16  C   10.311160   9.696408   8.343055   5.377822   1.469079
    17  C    9.615002   8.730688   7.351306   5.242502   1.471635
    18  O   10.083933   9.646469   8.322460   4.844294   2.518249
    19  H    7.923641   7.655108   6.411422   2.657923   3.445893
    20  H    3.400349   3.877333   3.408653   2.809872   7.755171
    21  H    2.157172   3.402272   3.877645   5.161093  10.086307
    22  H    1.084747   2.155430   3.400485   6.357660  10.940332
    23  H    2.156621   1.085248   2.146944   5.937795   9.778744
    24  H    3.401326   2.153082   1.082865   4.056128   7.342310
    25  H    5.447237   5.437240   4.409671   1.078379   5.564068
    26  H   10.745453  10.242226   8.904587   5.621423   2.100872
    27  H   11.159089  10.475049   9.122701   6.372980   2.075038
    28  H    9.595166   9.016993   7.701684   4.849513   2.135666
    29  H    9.542184   8.600476   7.228970   5.353491   2.100590
    30  H    8.806329   7.904114   6.545054   4.718912   2.140184
    31  H   10.563320   9.640769   8.277799   6.278059   2.069552
                   16         17         18         19         20
    16  C    0.000000
    17  C    2.478304   0.000000
    18  O    2.985050   3.864983   0.000000
    19  H    3.660374   4.425195   2.438495   0.000000
    20  H    8.025100   7.986361   7.412245   5.063914   0.000000
    21  H   10.377980  10.153129   9.856788   7.530152   2.469093
    22  H   11.382169  10.673895  11.155338   8.979834   4.295088
    23  H   10.375913   9.222645  10.444116   8.555197   4.962579
    24  H    8.014975   6.755584   8.168770   6.483213   4.301462
    25  H    5.829195   6.051809   5.018597   2.653167   2.411687
    26  H    1.088787   3.401750   2.514940   3.478013   8.191030
    27  H    1.090816   2.669846   3.850941   4.750228   9.013976
    28  H    1.094765   2.805454   3.575719   3.496923   7.359034
    29  H    3.400627   1.087374   4.053768   4.715918   8.077848
    30  H    2.788822   1.094554   4.413432   4.376534   7.343990
    31  H    2.681866   1.091183   4.529377   5.347300   8.999694
                   21         22         23         24         25
    21  H    0.000000
    22  H    2.486385   0.000000
    23  H    4.301632   2.485532   0.000000
    24  H    4.960492   4.297393   2.476024   0.000000
    25  H    4.878394   6.463745   6.448782   4.852000   0.000000
    26  H   10.608222  11.816817  10.992553   8.675672   5.890493
    27  H   11.324632  12.222251  11.092379   8.713175   6.873510
    28  H    9.652036  10.649588   9.708622   7.426179   5.300993
    29  H   10.183624  10.590829   9.042054   6.571492   6.213270
    30  H    9.419330   9.851472   8.379586   5.943876   5.595831
    31  H   11.147247  11.610736  10.081350   7.631811   7.071220
                   26         27         28         29         30
    26  H    0.000000
    27  H    1.772247   0.000000
    28  H    1.786725   1.781770   0.000000
    29  H    4.190330   3.642570   3.792425   0.000000
    30  H    3.793887   3.073299   2.673861   1.783873   0.000000
    31  H    3.634520   2.409405   3.129663   1.775712   1.785038
                   31
    31  H    0.000000
 Stoichiometry    C11H13N3O3S
 Framework group  C1[X(C11H13N3O3S)]
 Deg. of freedom    87
 Full point group                 C1      NOp   1
 RotChk:  IX=0 Diff= 3.61D-15
 Largest Abelian subgroup         C1      NOp   1
 Largest concise Abelian subgroup C1      NOp   1
                         Standard orientation:                         
 ---------------------------------------------------------------------
 Center     Atomic      Atomic             Coordinates (Angstroms)
 Number     Number       Type             X           Y           Z
 ---------------------------------------------------------------------
      1          8           0       -2.767172    0.111540   -1.818034
      2         16           0       -3.097606   -0.505222   -0.533730
[...]
 Alpha virt. eigenvalues --    0.78215   0.78553   0.79377   0.81555   0.82656
 Alpha virt. eigenvalues --    0.83197   0.83555   0.84802   0.85048   0.85865
 Alpha virt. eigenvalues --    0.86780   0.87118   0.88380   0.89397   0.90192
 Alpha virt. eigenvalues --    0.90681   0.91086   0.92625   0.93109   0.94190
 Alpha virt. eigenvalues --    0.94629   0.95301   0.96510   0.96731   0.98120
 Alpha virt. eigenvalues --    1.00829   1.00982   1.02524   1.03809   1.04576
 Alpha virt. eigenvalues --    1.06459   1.07156   1.09395   1.10483   1.13284
 Alpha virt. eigenvalues --    1.13557   1.14759   1.16801   1.17712   1.18633
 Alpha virt. eigenvalues --    1.20522   1.22627   1.24117   1.25956   1.29332
 Alpha virt. eigenvalues --    1.30066   1.31586   1.32520   1.35071   1.35860
 Alpha virt. eigenvalues --    1.37380   1.41353   1.41876   1.42372   1.43581
 Alpha virt. eigenvalues --    1.45510   1.47088   1.47688   1.48163   1.48678
 Alpha virt. eigenvalues --    1.50036   1.50306   1.53633   1.55932   1.58240
 Alpha virt. eigenvalues --    1.61545   1.67412   1.71104   1.72117   1.76603
 Alpha virt. eigenvalues --    1.77694   1.78410   1.78960   1.80084   1.80372
 Alpha virt. eigenvalues --    1.81793   1.84236   1.86243   1.88315   1.88818
 Alpha virt. eigenvalues --    1.91827   1.92676   1.93906   1.95674   1.96386
 Alpha virt. eigenvalues --    1.96669   1.97277   1.97701   1.99931   2.00352
 Alpha virt. eigenvalues --    2.04138   2.05022   2.06467   2.09433   2.10281
 Alpha virt. eigenvalues --    2.11199   2.11321   2.12900   2.13214   2.14472
 Alpha virt. eigenvalues --    2.17747   2.19356   2.21099   2.22136   2.23277
 Alpha virt. eigenvalues --    2.24515   2.25465   2.27124   2.27909   2.29730
 Alpha virt. eigenvalues --    2.30053   2.32928   2.34916   2.35079   2.42337
 Alpha virt. eigenvalues --    2.43345   2.48338   2.50938   2.53078   2.53414
 Alpha virt. eigenvalues --    2.56823   2.58084   2.59172   2.60267   2.62524
 Alpha virt. eigenvalues --    2.65975   2.66610   2.70927   2.72101   2.73658
 Alpha virt. eigenvalues --    2.74153   2.74835   2.77501   2.83038   2.87841
 Alpha virt. eigenvalues --    2.89063   2.92535   3.02803   3.05854   3.13075
 Alpha virt. eigenvalues --    3.27164   3.42762   3.70810   3.81909   3.98331
 Alpha virt. eigenvalues --    4.00639   4.04617   4.07706   4.09031   4.10787
 Alpha virt. eigenvalues --    4.12651   4.16801   4.23293   4.29552   4.31653
 Alpha virt. eigenvalues --    4.32738   4.38174   4.40767   4.57064   4.74119
          Condensed to atoms (all electrons):
               1          2          3          4          5          6
     1  O    8.250366   0.443102  -0.055508   0.008207  -0.002350   0.000013
     2  S    0.443102  13.502098   0.119146  -0.013300   0.006025  -0.000247
     3  N   -0.055508   0.119146   7.453951   0.234986  -0.074283   0.005370
     4  C    0.008207  -0.013300   0.234986   4.476518   0.397678  -0.035698
     5  N   -0.002350   0.006025  -0.074283   0.397678   6.955083   0.109546
     6  O    0.000013  -0.000247   0.005370  -0.035698   0.109546   8.216107
     7  C    0.000004   0.000224  -0.000124  -0.019859  -0.081074   0.245188
     8  C    0.000000  -0.000010  -0.000212   0.002812   0.004147  -0.037737
     9  C    0.000000   0.000000   0.000003   0.000608  -0.000099   0.003121
    10  C    0.000000   0.000000   0.000000  -0.000006   0.000001  -0.000061
    11  C    0.000000   0.000000   0.000000   0.000000   0.000000   0.000002
    12  C    0.000000   0.000000   0.000000   0.000005   0.000000   0.000288
    13  C    0.000000   0.000000  -0.000001  -0.000347   0.000140  -0.006738
    14  C    0.000098   0.001251  -0.053818   0.451670  -0.045355  -0.091729
    15  N   -0.053423   0.195107  -0.056664  -0.005601   0.001020   0.000006
    16  C    0.001557  -0.017602   0.002067   0.000367  -0.000161   0.000000
    17  C   -0.004956  -0.018602   0.000148   0.001024  -0.003768   0.000022
    18  O   -0.040378   0.461198  -0.055945   0.001358  -0.000008   0.000000
    19  H    0.000207  -0.009568   0.300690  -0.016966   0.002764  -0.000060
    20  H    0.000000   0.000000  -0.000001   0.000077  -0.000005   0.000023
    21  H    0.000000   0.000000   0.000000   0.000000   0.000000   0.000000
    22  H    0.000000   0.000000   0.000000   0.000000   0.000000   0.000000
    23  H    0.000000   0.000000   0.000000   0.000000   0.000000  -0.000003
    24  H    0.000000   0.000000   0.000000   0.000056  -0.000259   0.009849
    25  H    0.000001  -0.000140  -0.002087  -0.026901   0.004779   0.003327
    26  H    0.000051   0.003168  -0.001551  -0.000017   0.000003   0.000000
    27  H   -0.000050   0.002626   0.000016  -0.000026   0.000000   0.000000
    28  H   -0.000021  -0.009915   0.006117   0.001081  -0.000119  -0.000001
    29  H    0.010197  -0.003491   0.000016  -0.000089   0.000066   0.000001
    30  H   -0.000139  -0.007752   0.001526   0.001537   0.007766  -0.000177
    31  H    0.000146   0.003253  -0.000140  -0.000047   0.000198   0.000000
               7          8          9         10         11         12
     1  O    0.000004   0.000000   0.000000   0.000000   0.000000   0.000000
     2  S    0.000224  -0.000010   0.000000   0.000000   0.000000   0.000000
     3  N   -0.000124  -0.000212   0.000003   0.000000   0.000000   0.000000
     4  C   -0.019859   0.002812   0.000608  -0.000006   0.000000   0.000005
     5  N   -0.081074   0.004147  -0.000099   0.000001   0.000000   0.000000
     6  O    0.245188  -0.037737   0.003121  -0.000061   0.000002   0.000288
     7  C    4.722122   0.346691  -0.042481   0.006348   0.000866   0.004752
     8  C    0.346691   4.786214   0.535668  -0.011193  -0.033860  -0.009716
     9  C   -0.042481   0.535668   5.014151   0.519111  -0.040241  -0.041446
    10  C    0.006348  -0.011193   0.519111   4.882568   0.540025  -0.026106
    11  C    0.000866  -0.033860  -0.040241   0.540025   4.874255   0.539039
    12  C    0.004752  -0.009716  -0.041446  -0.026106   0.539039   4.891504
    13  C   -0.041521   0.472654  -0.081871  -0.042196  -0.038125   0.505937
    14  C    0.510679  -0.057111  -0.019837   0.000216   0.000015  -0.000230
    15  N   -0.000004   0.000000   0.000000   0.000000   0.000000   0.000000
    16  C    0.000000   0.000000   0.000000   0.000000   0.000000   0.000000
    17  C   -0.000001   0.000000   0.000000   0.000000   0.000000   0.000000
    18  O    0.000000   0.000000   0.000000   0.000000   0.000000   0.000000
    19  H    0.000013  -0.000002   0.000000   0.000000   0.000000   0.000000
    20  H   -0.012344  -0.037114   0.357163  -0.041107   0.004481   0.000167
    21  H   -0.000204   0.003223  -0.037304   0.362927  -0.040600   0.004376
    22  H    0.000003   0.000485   0.004801  -0.041442   0.364605  -0.041324
    23  H   -0.000172   0.003225   0.000770   0.004394  -0.040717   0.363432
    24  H   -0.012940  -0.043007   0.005308   0.000198   0.004558  -0.040826
    25  H   -0.025942  -0.003238   0.001181   0.000084  -0.000001   0.000002
    26  H    0.000000   0.000000   0.000000   0.000000   0.000000   0.000000
    27  H    0.000000   0.000000   0.000000   0.000000   0.000000   0.000000
    28  H    0.000001   0.000000   0.000000   0.000000   0.000000   0.000000
    29  H    0.000000   0.000000   0.000000   0.000000   0.000000   0.000000
    30  H    0.000018   0.000000   0.000000   0.000000   0.000000   0.000000
    31  H    0.000000   0.000000   0.000000   0.000000   0.000000   0.000000
              13         14         15         16         17         18
     1  O    0.000000   0.000098  -0.053423   0.001557  -0.004956  -0.040378
     2  S    0.000000   0.001251   0.195107  -0.017602  -0.018602   0.461198
     3  N   -0.000001  -0.053818  -0.056664   0.002067   0.000148  -0.055945
     4  C   -0.000347   0.451670  -0.005601   0.000367   0.001024   0.001358
     5  N    0.000140  -0.045355   0.001020  -0.000161  -0.003768  -0.000008
     6  O   -0.006738  -0.091729   0.000006   0.000000   0.000022   0.000000
     7  C   -0.041521   0.510679  -0.000004   0.000000  -0.000001   0.000000
     8  C    0.472654  -0.057111   0.000000   0.000000   0.000000   0.000000
     9  C   -0.081871  -0.019837   0.000000   0.000000   0.000000   0.000000
    10  C   -0.042196   0.000216   0.000000   0.000000   0.000000   0.000000
    11  C   -0.038125   0.000015   0.000000   0.000000   0.000000   0.000000
    12  C    0.505937  -0.000230   0.000000   0.000000   0.000000   0.000000
    13  C    5.059398   0.011812   0.000000   0.000000   0.000000   0.000000
    14  C    0.011812   5.240099  -0.000106  -0.000006   0.000013  -0.000068
    15  N    0.000000  -0.000106   7.178103   0.267515   0.267867  -0.056014
    16  C    0.000000  -0.000006   0.267515   5.000951  -0.047506  -0.007144
    17  C    0.000000   0.000013   0.267867  -0.047506   5.003589   0.001368
    18  O    0.000000  -0.000068  -0.056014  -0.007144   0.001368   8.261766
    19  H    0.000000  -0.004389   0.001558  -0.000209  -0.000021   0.004578
    20  H    0.005605   0.005942   0.000000   0.000000   0.000000   0.000000
    21  H    0.000794  -0.000001   0.000000   0.000000   0.000000   0.000000
    22  H    0.004670   0.000000   0.000000   0.000000   0.000000   0.000000
    23  H   -0.037368   0.000001   0.000000   0.000000   0.000000   0.000000
    24  H    0.362955   0.000267   0.000000   0.000000   0.000000   0.000000
    25  H   -0.000105   0.352869   0.000000   0.000000   0.000000  -0.000001
    26  H    0.000000   0.000001  -0.034539   0.374623   0.004295   0.009696
    27  H    0.000000   0.000000  -0.033288   0.377751  -0.003817   0.000047
    28  H    0.000000   0.000009  -0.046374   0.377485  -0.000640  -0.000218
    29  H    0.000000  -0.000002  -0.030800   0.004267   0.377860   0.000037
    30  H    0.000000   0.000066  -0.044219  -0.000672   0.372356  -0.000070
    31  H    0.000000   0.000000  -0.035788  -0.004043   0.373022  -0.000044
              19         20         21         22         23         24
     1  O    0.000207   0.000000   0.000000   0.000000   0.000000   0.000000
     2  S   -0.009568   0.000000   0.000000   0.000000   0.000000   0.000000
     3  N    0.300690  -0.000001   0.000000   0.000000   0.000000   0.000000
     4  C   -0.016966   0.000077   0.000000   0.000000   0.000000   0.000056
     5  N    0.002764  -0.000005   0.000000   0.000000   0.000000  -0.000259
     6  O   -0.000060   0.000023   0.000000   0.000000  -0.000003   0.009849
     7  C    0.000013  -0.012344  -0.000204   0.000003  -0.000172  -0.012940
     8  C   -0.000002  -0.037114   0.003223   0.000485   0.003225  -0.043007
     9  C    0.000000   0.357163  -0.037304   0.004801   0.000770   0.005308
    10  C    0.000000  -0.041107   0.362927  -0.041442   0.004394   0.000198
    11  C    0.000000   0.004481  -0.040600   0.364605  -0.040717   0.004558
    12  C    0.000000   0.000167   0.004376  -0.041324   0.363432  -0.040826
    13  C    0.000000   0.005605   0.000794   0.004670  -0.037368   0.362955
    14  C   -0.004389   0.005942  -0.000001   0.000000   0.000001   0.000267
    15  N    0.001558   0.000000   0.000000   0.000000   0.000000   0.000000
    16  C   -0.000209   0.000000   0.000000   0.000000   0.000000   0.000000
    17  C   -0.000021   0.000000   0.000000   0.000000   0.000000   0.000000
    18  O    0.004578   0.000000   0.000000   0.000000   0.000000   0.000000
    19  H    0.292441   0.000000   0.000000   0.000000   0.000000   0.000000
    20  H    0.000000   0.555076  -0.004848  -0.000154   0.000015  -0.000138
    21  H    0.000000  -0.004848   0.556536  -0.005086  -0.000162   0.000015
    22  H    0.000000  -0.000154  -0.005086   0.559285  -0.005069  -0.000150
    23  H    0.000000   0.000015  -0.000162  -0.005069   0.556561  -0.004888
    24  H    0.000000  -0.000138   0.000015  -0.000150  -0.004888   0.553217
    25  H    0.001751   0.001883  -0.000002   0.000000   0.000000  -0.000008
    26  H   -0.000018   0.000000   0.000000   0.000000   0.000000   0.000000
    27  H    0.000007   0.000000   0.000000   0.000000   0.000000   0.000000
    28  H   -0.000199   0.000000   0.000000   0.000000   0.000000   0.000000
    29  H   -0.000001   0.000000   0.000000   0.000000   0.000000   0.000000
    30  H   -0.000029   0.000000   0.000000   0.000000   0.000000   0.000000
    31  H    0.000002   0.000000   0.000000   0.000000   0.000000   0.000000
              25         26         27         28         29         30
     1  O    0.000001   0.000051  -0.000050  -0.000021   0.010197  -0.000139
     2  S   -0.000140   0.003168   0.002626  -0.009915  -0.003491  -0.007752
     3  N   -0.002087  -0.001551   0.000016   0.006117   0.000016   0.001526
     4  C   -0.026901  -0.000017  -0.000026   0.001081  -0.000089   0.001537
     5  N    0.004779   0.000003   0.000000  -0.000119   0.000066   0.007766
     6  O    0.003327   0.000000   0.000000  -0.000001   0.000001  -0.000177
     7  C   -0.025942   0.000000   0.000000   0.000001   0.000000   0.000018
     8  C   -0.003238   0.000000   0.000000   0.000000   0.000000   0.000000
     9  C    0.001181   0.000000   0.000000   0.000000   0.000000   0.000000
    10  C    0.000084   0.000000   0.000000   0.000000   0.000000   0.000000
    11  C   -0.000001   0.000000   0.000000   0.000000   0.000000   0.000000
    12  C    0.000002   0.000000   0.000000   0.000000   0.000000   0.000000
    13  C   -0.000105   0.000000   0.000000   0.000000   0.000000   0.000000
    14  C    0.352869   0.000001   0.000000   0.000009  -0.000002   0.000066
    15  N    0.000000  -0.034539  -0.033288  -0.046374  -0.030800  -0.044219
    16  C    0.000000   0.374623   0.377751   0.377485   0.004267  -0.000672
    17  C    0.000000   0.004295  -0.003817  -0.000640   0.377860   0.372356
    18  O   -0.000001   0.009696   0.000047  -0.000218   0.000037  -0.000070
    19  H    0.001751  -0.000018   0.000007  -0.000199  -0.000001  -0.000029
    20  H    0.001883   0.000000   0.000000   0.000000   0.000000   0.000000
    21  H   -0.000002   0.000000   0.000000   0.000000   0.000000   0.000000
    22  H    0.000000   0.000000   0.000000   0.000000   0.000000   0.000000
    23  H    0.000000   0.000000   0.000000   0.000000   0.000000   0.000000
    24  H   -0.000008   0.000000   0.000000   0.000000   0.000000   0.000000
    25  H    0.496697   0.000000   0.000000   0.000000   0.000000  -0.000001
    26  H    0.000000   0.498528  -0.021310  -0.029706  -0.000192  -0.000160
    27  H    0.000000  -0.021310   0.517356  -0.034259   0.000029  -0.001331
    28  H    0.000000  -0.029706  -0.034259   0.554149  -0.000152   0.006792
    29  H    0.000000  -0.000192   0.000029  -0.000152   0.495233  -0.028101
    30  H   -0.000001  -0.000160  -0.001331   0.006792  -0.028101   0.547553
    31  H    0.000000   0.000029   0.005001  -0.001365  -0.021669  -0.034294
              31
     1  O    0.000146
     2  S    0.003253
     3  N   -0.000140
     4  C   -0.000047
     5  N    0.000198
     6  O    0.000000
     7  C    0.000000
     8  C    0.000000
     9  C    0.000000
    10  C    0.000000
    11  C    0.000000
    12  C    0.000000
    13  C    0.000000
    14  C    0.000000
    15  N   -0.035788
    16  C   -0.004043
    17  C    0.373022
    18  O   -0.000044
    19  H    0.000002
    20  H    0.000000
    21  H    0.000000
    22  H    0.000000
    23  H    0.000000
    24  H    0.000000
    25  H    0.000000
    26  H    0.000029
    27  H    0.005001
    28  H   -0.001365
    29  H   -0.021669
    30  H   -0.034294
    31  H    0.530196
 Mulliken charges:
               1
     1  O   -0.557123
     2  S    1.343428
     3  N   -0.823702
     4  C    0.540871
     5  N   -0.281737
     6  O   -0.420413
     7  C    0.399757
     8  C    0.078083
     9  C   -0.178608
    10  C   -0.153761
    11  C   -0.134303
    12  C   -0.149853
    13  C   -0.175696
    14  C   -0.302355
    15  N   -0.514357
    16  C   -0.329241
    17  C   -0.322251
    18  O   -0.580154
    19  H    0.427450
    20  H    0.165281
    21  H    0.160336
    22  H    0.159376
    23  H    0.159982
    24  H    0.165794
    25  H    0.195849
    26  H    0.197100
    27  H    0.191248
    28  H    0.177334
    29  H    0.196791
    30  H    0.179331
    31  H    0.185543
 Sum of Mulliken charges =   0.00000
 Mulliken charges with hydrogens summed into heavy atoms:
               1
     1  O   -0.557123
     2  S    1.343428
     3  N   -0.396252
     4  C    0.540871
     5  N   -0.281737
     6  O   -0.420413
     7  C    0.399757
     8  C    0.078083
     9  C   -0.013327
    10  C    0.006575
    11  C    0.025073
    12  C    0.010129
    13  C   -0.009902
    14  C   -0.106506
    15  N   -0.514357
    16  C    0.236441
    17  C    0.239413
    18  O   -0.580154
 Electronic spatial extent (au):  <R**2>=           7149.5155
 Charge=              0.0000 electrons
 Dipole moment (field-independent basis, Debye):
    X=              4.6430    Y=             -1.5321    Z=              5.4282  Tot=              7.3055
 Quadrupole moment (field-independent basis, Debye-Ang):
   XX=            -97.6640   YY=           -100.7412   ZZ=           -115.9904
   XY=            -12.3865   XZ=            -16.3925   YZ=             -2.4965
 Traceless Quadrupole moment (field-independent basis, Debye-Ang):
   XX=              7.1345   YY=              4.0573   ZZ=            -11.1919
   XY=            -12.3865   XZ=            -16.3925   YZ=             -2.4965
 Octapole moment (field-independent basis, Debye-Ang**2):
  XXX=            125.5449  YYY=             -5.9599  ZZZ=              9.1578  XYY=              5.6335
  XXY=             52.1702  XXZ=             61.3422  XZZ=            -25.9842  YZZ=              0.9360
  YYZ=              6.1794  XYZ=             -8.9070
 Hexadecapole moment (field-independent basis, Debye-Ang**3):
 XXXX=          -7338.3339 YYYY=           -781.1167 ZZZZ=           -447.8744 XXXY=           -214.3004
 XXXZ=           -224.5578 YYYX=            -36.6069 YYYZ=            -20.3991 ZZZX=            -42.6604
 ZZZY=              5.9133 XXYY=          -1397.0979 XXZZ=          -1487.5195 YYZZ=           -213.2517
 XXYZ=            -46.8467 YYXZ=            -13.7735 ZZXY=              0.4845
 N-N= 1.446406245901D+03 E-N=-5.740252253453D+03  KE= 1.205909269792D+03
 No NMR shielding tensors so no spin-rotation constants.
 Leave Link  601 at Thu Aug  6 22:02:41 2020, MaxMem=    33554432 cpu:         0.2
 (Enter /prod/apps/gaussian/g09d1/l9999.exe)
 1\1\GINC-PIRINEUS9\SP\RB3LYP\6-31G(d)\C11H13N3O3S1\UBAFAR01\06-Aug-202
 0\0\\#p b3lyp/6-31G(d) scrf=(iefpcm,read,solvent=Water) geom=allcheck 
 guess=read\\SM43.n.10.pdb.xyz\\0,1\O,0,1.952,-3.824,1.441\S,0,2.342,-2
 .79,0.483\N,0,1.857,-1.256,1.047\C,0,1.73,-0.907,2.388\N,0,2.496,-1.42
 9,3.327\O,0,2.083,-0.799,4.513\C,0,1.096,0.088,4.239\C,0,0.542,0.842,5
 .357\C,0,-0.447,1.814,5.131\C,0,-0.978,2.532,6.198\C,0,-0.531,2.292,7.
 5\C,0,0.452,1.327,7.73\C,0,0.988,0.605,6.667\C,0,0.825,0.063,2.899\N,0
 ,3.995,-2.811,0.381\C,0,4.591,-1.774,-0.472\C,0,4.767,-3.136,1.591\O,0
 ,1.817,-2.797,-0.883\H,0,1.166,-0.844,0.424\H,0,-0.795,2.006,4.122\H,0
 ,-1.741,3.281,6.013\H,0,-0.947,2.853,8.33\H,0,0.803,1.136,8.739\H,0,1.
 749,-0.145,6.843\H,0,0.094,0.634,2.349\H,0,4.013,-1.681,-1.39\H,0,5.60
 1,-2.1,-0.724\H,0,4.641,-0.805,0.035\H,0,4.281,-3.951,2.122\H,0,4.874,
 -2.274,2.257\H,0,5.753,-3.463,1.257\\Version=AM64L-G09RevD.01\State=1-
 A\HF=-1215.0060745\RMSD=8.767e-09\Dipole=0.022972,2.8383656,0.4518819\
 Quadrupole=9.0145109,-9.5891805,0.5746696,-10.6575307,-8.5410658,-4.08
 85311\PG=C01 [X(C11H13N3O3S1)]\\@


 Any fool can criticize, condemn, and complain -- and most do.
 -- Dale Carnegie
 Job cpu time:       0 days  0 hours  2 minutes 48.7 seconds.
 File lengths (MBytes):  RWF=    154 Int=      0 D2E=      0 Chk=      6 Scr=      1
 Normal termination of Gaussian 09 at Thu Aug  6 22:02:41 2020.
