 Entering Gaussian System, Link 0=g09
 Initial command:
 /prod/apps/gaussian/g09d1/l1.exe "/tmp/ubafar01/1448608/Gau-25488.inp" -scrdir="/tmp/ubafar01/1448608/"
 Entering Link 1 = /prod/apps/gaussian/g09d1/l1.exe PID=     25489.
  
 Copyright (c) 1988,1990,1992,1993,1995,1998,2003,2009,2013,
            Gaussian, Inc.  All Rights Reserved.
  
 This is part of the Gaussian(R) 09 program.  It is based on
 the Gaussian(R) 03 system (copyright 2003, Gaussian, Inc.),
 the Gaussian(R) 98 system (copyright 1998, Gaussian, Inc.),
 the Gaussian(R) 94 system (copyright 1995, Gaussian, Inc.),
 the Gaussian 92(TM) system (copyright 1992, Gaussian, Inc.),
 the Gaussian 90(TM) system (copyright 1990, Gaussian, Inc.),
 the Gaussian 88(TM) system (copyright 1988, Gaussian, Inc.),
 the Gaussian 86(TM) system (copyright 1986, Carnegie Mellon
 University), and the Gaussian 82(TM) system (copyright 1983,
 Carnegie Mellon University). Gaussian is a federally registered
 trademark of Gaussian, Inc.
  
 This software contains proprietary and confidential information,
 including trade secrets, belonging to Gaussian, Inc.
  
 This software is provided under written license and may be
 used, copied, transmitted, or stored only in accord with that
 written license.
  
 The following legend is applicable only to US Government
 contracts under FAR:
  
                    RESTRICTED RIGHTS LEGEND
  
 Use, reproduction and disclosure by the US Government is
 subject to restrictions as set forth in subparagraphs (a)
 and (c) of the Commercial Computer Software - Restricted
 Rights clause in FAR 52.227-19.
  
 Gaussian, Inc.
 340 Quinnipiac St., Bldg. 40, Wallingford CT 06492
  
  
 ---------------------------------------------------------------
 Warning -- This program may not be used in any manner that
 competes with the business of Gaussian, Inc. or will provide
 assistance to any competitor of Gaussian, Inc.  The licensee
 of this program is prohibited from giving any competitor of
 Gaussian, Inc. access to this program.  By using this program,
 the user acknowledges that Gaussian, Inc. is engaged in the
 business of creating and licensing software in the field of
 computational chemistry and represents and warrants to the
 licensee that it is not a competitor of Gaussian, Inc. and that
 it will not use this program in any manner prohibited above.
 ---------------------------------------------------------------
  

 Cite this work as:
 Gaussian 09, Revision D.01,
 M. J. Frisch, G. W. Trucks, H. B. Schlegel, G. E. Scuseria, 
 M. A. Robb, J. R. Cheeseman, G. Scalmani, V. Barone, B. Mennucci, 
 G. A. Petersson, H. Nakatsuji, M. Caricato, X. Li, H. P. Hratchian, 
 A. F. Izmaylov, J. Bloino, G. Zheng, J. L. Sonnenberg, M. Hada, 
 M. Ehara, K. Toyota, R. Fukuda, J. Hasegawa, M. Ishida, T. Nakajima, 
 Y. Honda, O. Kitao, H. Nakai, T. Vreven, J. A. Montgomery, Jr., 
 J. E. Peralta, F. Ogliaro, M. Bearpark, J. J. Heyd, E. Brothers, 
 K. N. Kudin, V. N. Staroverov, T. Keith, R. Kobayashi, J. Normand, 
 K. Raghavachari, A. Rendell, J. C. Burant, S. S. Iyengar, J. Tomasi, 
 M. Cossi, N. Rega, J. M. Millam, M. Klene, J. E. Knox, J. B. Cross, 
 V. Bakken, C. Adamo, J. Jaramillo, R. Gomperts, R. E. Stratmann, 
 O. Yazyev, A. J. Austin, R. Cammi, C. Pomelli, J. W. Ochterski, 
 R. L. Martin, K. Morokuma, V. G. Zakrzewski, G. A. Voth, 
 P. Salvador, J. J. Dannenberg, S. Dapprich, A. D. Daniels, 
 O. Farkas, J. B. Foresman, J. V. Ortiz, J. Cioslowski, 
 and D. J. Fox, Gaussian, Inc., Wallingford CT, 2013.
 
 ******************************************
 Gaussian 09:  AM64L-G09RevD.01 24-Apr-2013
                 6-Aug-2020 
 ******************************************
 %nproc=1
 Will use up to    1 processors via shared memory.
 %Chk=SM43.n.8.pdb.xyz.mst.n.w.chk
 -----------------
 #p b3lyp/6-31G(d)
 -----------------
 1/38=1/1;
 2/12=2,17=6,18=5,40=1/2;
 3/5=1,6=6,7=1,11=2,16=1,25=1,30=1,74=-5/1,2,3;
 4//1;
 5/5=2,38=5/2;
 6/7=2,8=2,9=2,10=2,28=1/1;
 99/5=1,9=1/99;
 Leave Link    1 at Thu Aug  6 21:56:18 2020, MaxMem=           0 cpu:         0.0
 (Enter /prod/apps/gaussian/g09d1/l101.exe)
 ----------------
 SM43.n.8.pdb.xyz
 ----------------
 Symbolic Z-matrix:
 Charge =  0 Multiplicity = 1
 O                     1.136    -3.552     1.896 
 S                     2.322    -2.836     1.428 
 N                     2.328    -1.245     2.047 
 C                     1.73     -0.863     3.244 
 N                     1.683    -1.662     4.293 
 O                     1.049    -0.904     5.291 
 C                     0.752     0.327     4.808 
 C                     0.091     1.261     5.712 
 C                    -0.237     2.554     5.272 
 C                    -0.867     3.448     6.132 
 C                    -1.176     3.065     7.44 
 C                    -0.852     1.781     7.884 
 C                    -0.222     0.882     7.027 
 C                     1.16      0.414     3.506 
 N                     3.646    -3.632     2.021 
 C                     4.945    -3.01      1.728 
 C                     3.546    -4.273     3.342 
 O                     2.547    -2.613    -0.001 
 H                     2.254    -0.566     1.292 
 H                     0.002     2.856     4.258 
 H                    -1.116     4.444     5.783 
 H                    -1.667     3.763     8.109 
 H                    -1.09      1.478     8.898 
 H                     0.03     -0.115     7.369 
 H                     1.071     1.245     2.826 
 H                     4.955    -2.658     0.698 
 H                     5.71     -3.78      1.844 
 H                     5.164    -2.179     2.407 
 H                     2.579    -4.762     3.433 
 H                     3.679    -3.559     4.16 
 H                     4.334    -5.028     3.386 
 
 NAtoms=     31 NQM=       31 NQMF=       0 NMMI=      0 NMMIF=      0
                NMic=       0 NMicF=      0.
                    Isotopes and Nuclear Properties:
 (Nuclear quadrupole moments (NQMom) in fm**2, nuclear magnetic moments (NMagM)
  in nuclear magnetons)

  Atom         1           2           3           4           5           6           7           8           9          10
 IAtWgt=          16          32          14          12          14          16          12          12          12          12
 AtmWgt=  15.9949146  31.9720718  14.0030740  12.0000000  14.0030740  15.9949146  12.0000000  12.0000000  12.0000000  12.0000000
 NucSpn=           0           0           2           0           2           0           0           0           0           0
 AtZEff=   0.0000000   0.0000000   0.0000000   0.0000000   0.0000000   0.0000000   0.0000000   0.0000000   0.0000000   0.0000000
 NQMom=    0.0000000   0.0000000   2.0440000   0.0000000   2.0440000   0.0000000   0.0000000   0.0000000   0.0000000   0.0000000
 NMagM=    0.0000000   0.0000000   0.4037610   0.0000000   0.4037610   0.0000000   0.0000000   0.0000000   0.0000000   0.0000000
 AtZNuc=   8.0000000  16.0000000   7.0000000   6.0000000   7.0000000   8.0000000   6.0000000   6.0000000   6.0000000   6.0000000

  Atom        11          12          13          14          15          16          17          18          19          20
 IAtWgt=          12          12          12          12          14          12          12          16           1           1
 AtmWgt=  12.0000000  12.0000000  12.0000000  12.0000000  14.0030740  12.0000000  12.0000000  15.9949146   1.0078250   1.0078250
 NucSpn=           0           0           0           0           2           0           0           0           1           1
 AtZEff=   0.0000000   0.0000000   0.0000000   0.0000000   0.0000000   0.0000000   0.0000000   0.0000000   0.0000000   0.0000000
 NQMom=    0.0000000   0.0000000   0.0000000   0.0000000   2.0440000   0.0000000   0.0000000   0.0000000   0.0000000   0.0000000
 NMagM=    0.0000000   0.0000000   0.0000000   0.0000000   0.4037610   0.0000000   0.0000000   0.0000000   2.7928460   2.7928460
 AtZNuc=   6.0000000   6.0000000   6.0000000   6.0000000   7.0000000   6.0000000   6.0000000   8.0000000   1.0000000   1.0000000

  Atom        21          22          23          24          25          26          27          28          29          30
 IAtWgt=           1           1           1           1           1           1           1           1           1           1
 AtmWgt=   1.0078250   1.0078250   1.0078250   1.0078250   1.0078250   1.0078250   1.0078250   1.0078250   1.0078250   1.0078250
 NucSpn=           1           1           1           1           1           1           1           1           1           1
 AtZEff=   0.0000000   0.0000000   0.0000000   0.0000000   0.0000000   0.0000000   0.0000000   0.0000000   0.0000000   0.0000000
 NQMom=    0.0000000   0.0000000   0.0000000   0.0000000   0.0000000   0.0000000   0.0000000   0.0000000   0.0000000   0.0000000
 NMagM=    2.7928460   2.7928460   2.7928460   2.7928460   2.7928460   2.7928460   2.7928460   2.7928460   2.7928460   2.7928460
 AtZNuc=   1.0000000   1.0000000   1.0000000   1.0000000   1.0000000   1.0000000   1.0000000   1.0000000   1.0000000   1.0000000

  Atom        31
 IAtWgt=           1
 AtmWgt=   1.0078250
 NucSpn=           1
 AtZEff=   0.0000000
 NQMom=    0.0000000
 NMagM=    2.7928460
 AtZNuc=   1.0000000
 Leave Link  101 at Thu Aug  6 21:56:18 2020, MaxMem=    33554432 cpu:         0.1
 (Enter /prod/apps/gaussian/g09d1/l202.exe)
                          Input orientation:                          
 ---------------------------------------------------------------------
 Center     Atomic      Atomic             Coordinates (Angstroms)
 Number     Number       Type             X           Y           Z
 ---------------------------------------------------------------------
      1          8           0        1.136000   -3.552000    1.896000
      2         16           0        2.322000   -2.836000    1.428000
      3          7           0        2.328000   -1.245000    2.047000
      4          6           0        1.730000   -0.863000    3.244000
      5          7           0        1.683000   -1.662000    4.293000
      6          8           0        1.049000   -0.904000    5.291000
      7          6           0        0.752000    0.327000    4.808000
      8          6           0        0.091000    1.261000    5.712000
      9          6           0       -0.237000    2.554000    5.272000
     10          6           0       -0.867000    3.448000    6.132000
     11          6           0       -1.176000    3.065000    7.440000
     12          6           0       -0.852000    1.781000    7.884000
     13          6           0       -0.222000    0.882000    7.027000
     14          6           0        1.160000    0.414000    3.506000
     15          7           0        3.646000   -3.632000    2.021000
     16          6           0        4.945000   -3.010000    1.728000
     17          6           0        3.546000   -4.273000    3.342000
     18          8           0        2.547000   -2.613000   -0.001000
     19          1           0        2.254000   -0.566000    1.292000
     20          1           0        0.002000    2.856000    4.258000
     21          1           0       -1.116000    4.444000    5.783000
     22          1           0       -1.667000    3.763000    8.109000
     23          1           0       -1.090000    1.478000    8.898000
     24          1           0        0.030000   -0.115000    7.369000
     25          1           0        1.071000    1.245000    2.826000
     26          1           0        4.955000   -2.658000    0.698000
     27          1           0        5.710000   -3.780000    1.844000
     28          1           0        5.164000   -2.179000    2.407000
     29          1           0        2.579000   -4.762000    3.433000
     30          1           0        3.679000   -3.559000    4.160000
     31          1           0        4.334000   -5.028000    3.386000
 ---------------------------------------------------------------------
                    Distance matrix (angstroms):
                    1          2          3          4          5
     1  O    0.000000
     2  S    1.462285   0.000000
     3  N    2.601137   1.707184   0.000000
     4  C    3.066050   2.746097   1.391523   0.000000
     5  N    3.101116   3.161459   2.373695   1.319474   0.000000
     6  O    4.306448   4.502879   3.503664   2.157696   1.404466
     7  C    4.865577   4.888136   3.546559   2.195149   2.255683
     8  C    6.230478   6.333674   4.971562   3.645370   3.618281
     9  C    7.110959   7.097670   5.604663   4.433707   4.734923
    10  C    8.423521   8.472662   6.994248   5.802558   5.999710
    11  C    8.936776   9.121510   7.742000   6.440531   6.357831
    12  C    8.261306   8.548152   7.303400   5.931868   5.583525
    13  C    6.916045   7.186394   5.985568   4.600698   4.192340
    14  C    4.280401   4.028750   2.499037   1.422769   2.280937
    15  N    2.514384   1.654763   2.726824   3.582478   3.591135
    16  C    3.851035   2.645828   3.172645   4.152600   4.363138
    17  C    2.901527   2.688223   3.511315   3.864655   3.345518
    18  O    2.543865   1.463692   2.472588   3.776243   4.482113
    19  H    3.245140   2.275087   1.018107   2.042814   3.245498
    20  H    6.922966   6.766843   5.207398   4.224351   4.820717
    21  H    9.171493   9.153375   7.627814   6.535326   6.880243
    22  H    9.998370  10.202680   8.819747   7.523810   7.430678
    23  H    8.904155   9.276489   8.126109   6.737982   6.225364
    24  H    6.556671   6.924781   5.906047   4.523840   3.819345
    25  H    4.886751   4.491544   2.896030   2.247814   3.313198
    26  H    4.101122   2.738115   3.273759   4.483834   4.962059
    27  H    4.579974   3.541573   4.231472   5.129258   5.167229
    28  H    4.286144   3.076858   3.007466   3.771575   3.992699
    29  H    2.430785   2.792051   3.788573   3.994837   3.339523
    30  H    3.404790   3.134964   3.412414   3.450518   2.756867
    31  H    3.824380   3.561850   4.486429   4.914082   4.379544
                    6          7          8          9         10
     6  O    0.000000
     7  C    1.355308   0.000000
     8  C    2.404627   1.458250   0.000000
     9  C    3.689434   2.480513   1.404647   0.000000
    10  C    4.828896   3.756964   2.424280   1.391307   0.000000
    11  C    5.032076   4.259255   2.801016   2.417243   1.397510
    12  C    4.188875   3.761477   2.424301   2.792543   2.418392
    13  C    2.796236   2.486094   1.403864   2.424012   2.793100
    14  C    2.221637   1.367200   2.593570   3.106439   4.495527
    15  N    4.987915   5.640593   7.085404   7.994579   9.348470
    16  C    5.684102   6.180875   7.594407   8.388752   9.740653
    17  C    4.624259   5.578135   6.941115   8.040144   9.320542
    18  O    5.759336   5.915413   7.326539   7.890062   9.273878
    19  H    4.190259   3.926284   5.249085   5.637365   7.019860
    20  H    4.037437   2.694595   2.160107   1.084676   2.148837
    21  H    5.790543   4.624904   3.404905   2.146127   1.084351
    22  H    6.090868   5.343618   3.885380   3.399287   2.155865
    23  H    4.822830   4.630968   3.404768   3.877275   3.403143
    24  H    2.445192   2.697289   2.154703   3.404741   3.876822
    25  H    3.270307   2.207444   3.047893   3.067126   4.420259
    26  H    6.279252   6.592991   8.009822   8.662753  10.035301
    27  H    6.471330   7.087631   8.482114   9.340104  10.671825
    28  H    5.184236   5.613429   6.963616   7.731773   9.050509
    29  H    4.547222   5.579111   6.903659   8.052058   9.303957
    30  H    3.904496   4.907976   6.206033   7.344411   8.582130
    31  H    5.606035   6.597638   7.935039   9.051948  10.316661
                   11         12         13         14         15
    11  C    0.000000
    12  C    1.396699   0.000000
    13  C    2.417886   1.392677   0.000000
    14  C    5.287821   5.008365   3.811350   0.000000
    15  N    9.872540   9.160095   7.771593   4.975494   0.000000
    16  C   10.344042   9.718808   8.362114   5.404747   1.469739
    17  C    9.640391   8.753461   7.372318   5.261926   1.471707
    18  O   10.073177   9.645396   8.323171   4.835861   2.516872
    19  H    7.921298   7.655724   6.412293   2.656884   3.445208
    20  H    3.399484   3.877218   3.407963   2.805322   7.770267
    21  H    2.156592   3.402274   3.877450   5.158082  10.102033
    22  H    1.084364   2.154803   3.399840   6.355733  10.953435
    23  H    2.156787   1.084735   2.146924   5.938709   9.789531
    24  H    3.401746   2.153594   1.083733   4.059496   7.351588
    25  H    5.445219   5.437701   4.410444   1.077442   5.573489
    26  H   10.760876  10.250101   8.910060   5.632413   2.100592
    27  H   11.206527  10.510289   9.153489   6.407369   2.076856
    28  H    9.645010   9.048281   7.728073   4.895249   2.136476
    29  H    9.561276   8.625196   7.253770   5.367482   2.099794
    30  H    8.843461   7.931818   6.569625   4.749506   2.140500
    31  H   10.596776   9.668975   8.303139   6.301114   2.070117
                   16         17         18         19         20
    16  C    0.000000
    17  C    2.481404   0.000000
    18  O    2.982860   3.863839   0.000000
    19  H    3.661245   4.428726   2.438833   0.000000
    20  H    8.077382   8.013840   7.384177   5.057543   0.000000
    21  H   10.427889  10.182279   9.832267   7.525030   2.469270
    22  H   11.415307  10.699390  11.143755   8.976969   4.293997
    23  H   10.390971   9.243140  10.447787   8.556372   4.961950
    24  H    8.022414   6.772588   8.178765   6.486872   4.301854
    25  H    5.858200   6.069613   5.005464   2.651861   2.405973
    26  H    1.088533   3.403563   2.507806   3.467665   8.222530
    27  H    1.091596   2.677676   3.843239   4.751677   9.079931
    28  H    1.095246   2.806597   3.582668   3.509002   7.444708
    29  H    3.402129   1.087424   4.051121   4.721856   8.084273
    30  H    2.796208   1.093896   4.414778   4.383389   7.394739
    31  H    2.682277   1.092202   4.527401   5.349830   9.037924
                   21         22         23         24         25
    21  H    0.000000
    22  H    2.485485   0.000000
    23  H    4.301286   2.485292   0.000000
    24  H    4.961169   4.297242   2.475861   0.000000
    25  H    4.874466   6.461196   6.449294   4.855114   0.000000
    26  H   10.637324  11.832288  10.994932   8.673218   5.903156
    27  H   11.390530  12.270583  11.119599   8.730421   6.909072
    28  H    9.731388  10.699660   9.727242   7.432328   5.352755
    29  H   10.194408  10.609859   9.070027   6.601826   6.223067
    30  H    9.469644   9.888680   8.400201   5.956007   5.626690
    31  H   11.187801  11.644759  10.105937   7.650247   7.093046
                   26         27         28         29         30
    26  H    0.000000
    27  H    1.772632   0.000000
    28  H    1.787121   1.782775   0.000000
    29  H    4.189560   3.645875   3.795628   0.000000
    30  H    3.798081   3.088310   2.680044   1.784864   0.000000
    31  H    3.637016   2.414258   3.124763   1.775666   1.784954
                   31
    31  H    0.000000
 Stoichiometry    C11H13N3O3S
 Framework group  C1[X(C11H13N3O3S)]
 Deg. of freedom    87
 Full point group                 C1      NOp   1
 Largest Abelian subgroup         C1      NOp   1
 Largest concise Abelian subgroup C1      NOp   1
                         Standard orientation:                         
 ---------------------------------------------------------------------
 Center     Atomic      Atomic             Coordinates (Angstroms)
 Number     Number       Type             X           Y           Z
 ---------------------------------------------------------------------
      1          8           0       -2.742886    0.053761   -1.818881
      2         16           0       -3.089273   -0.523010   -0.520563
      3          7           0       -1.672377   -0.986677    0.311240
      4          6           0       -0.427836   -0.387570    0.142351
      5          7           0       -0.296119    0.900436   -0.112016
      6          8           0        1.090997    1.113196   -0.168294
      7          6           0        1.740352   -0.052570    0.068740
      8          6           0        3.198251   -0.023168    0.056171
      9          6           0        3.928294   -1.197935    0.301108
     10          6           0        5.319346   -1.173433    0.290647
     11          6           0        5.998853    0.021273    0.037703
     12          6           0        5.278941    1.193071   -0.205983
     13          6           0        3.886422    1.173897   -0.197385
     14          6           0        0.825605   -1.048046    0.272464
     15          7           0       -3.848033    0.656469    0.357703
     16          6           0       -4.200965    0.293155    1.737405
     17          6           0       -3.424022    2.053259    0.170319
     18          8           0       -3.909360   -1.732213   -0.432920
     19          1           0       -1.650458   -1.995317    0.448015
     20          1           0        3.405106   -2.127239    0.499069
     21          1           0        5.873958   -2.085562    0.481028
     22          1           0        7.083051    0.038644    0.029939
     23          1           0        5.801023    2.123154   -0.403532
     24          1           0        3.325566    2.081696   -0.386643
     25          1           0        0.999497   -2.091419    0.477443
     26          1           0       -4.598068   -0.720193    1.755822
     27          1           0       -4.980230    0.982363    2.068041
     28          1           0       -3.342541    0.368386    2.413431
     29          1           0       -3.255325    2.239823   -0.887616
     30          1           0       -2.519591    2.291263    0.737742
     31          1           0       -4.247378    2.681422    0.517309
 ---------------------------------------------------------------------
 Rotational constants (GHZ):      1.2272695      0.1533848      0.1461965
 Leave Link  202 at Thu Aug  6 21:56:18 2020, MaxMem=    33554432 cpu:         0.0
 (Enter /prod/apps/gaussian/g09d1/l301.exe)
 Standard basis: 6-31G(d) (6D, 7F)
 Ernie: Thresh=  0.10000D-02 Tol=  0.10000D-05 Strict=F.
 There are   300 symmetry adapted cartesian basis functions of A   symmetry.
 There are   300 symmetry adapted basis functions of A   symmetry.
   300 basis functions,   580 primitive gaussians,   300 cartesian basis functions
    70 alpha electrons       70 beta electrons
       nuclear repulsion energy      1446.0095797189 Hartrees.
 IExCor=  402 DFT=T Ex+Corr=B3LYP ExCW=0 ScaHFX=  0.200000
 ScaDFX=  0.800000  0.720000  1.000000  0.810000 ScalE2=  1.000000  1.000000
 IRadAn=      0 IRanWt=     -1 IRanGd=            0 ICorTp=0 IEmpDi=  4
 NAtoms=   31 NActive=   31 NUniq=   31 SFac= 1.00D+00 NAtFMM=   60 NAOKFM=F Big=F
 Integral buffers will be    131072 words long.
 Raffenetti 2 integral format.
 Two-electron integral symmetry is turned on.
 Leave Link  301 at Thu Aug  6 21:56:18 2020, MaxMem=    33554432 cpu:         0.0
 (Enter /prod/apps/gaussian/g09d1/l302.exe)
 NPDir=0 NMtPBC=     1 NCelOv=     1 NCel=       1 NClECP=     1 NCelD=      1
         NCelK=      1 NCelE2=     1 NClLst=     1 CellRange=     0.0.
 One-electron integrals computed using PRISM.
 NBasis=   300 RedAO= T EigKep=  4.57D-04  NBF=   300
 NBsUse=   300 1.00D-06 EigRej= -1.00D+00 NBFU=   300
 Precomputing XC quadrature grid using
 IXCGrd= 4 IRadAn=           0 IRanWt=          -1 IRanGd=           0 AccXCQ= 0.00D+00.
 Generated NRdTot=       0 NPtTot=           0 NUsed=           0 NTot=          32
 NSgBfM=   295   295   296   296   296 MxSgAt=    31 MxSgA2=    31.
 Leave Link  302 at Thu Aug  6 21:56:19 2020, MaxMem=    33554432 cpu:         1.0
 (Enter /prod/apps/gaussian/g09d1/l303.exe)
 DipDrv:  MaxL=1.
 Leave Link  303 at Thu Aug  6 21:56:19 2020, MaxMem=    33554432 cpu:         0.0
 (Enter /prod/apps/gaussian/g09d1/l401.exe)
 ExpMin= 1.17D-01 ExpMax= 2.19D+04 ExpMxC= 3.30D+03 IAcc=1 IRadAn=         1 AccDes= 0.00D+00
 Harris functional with IExCor=  402 and IRadAn=       1 diagonalized for initial guess.
 HarFok:  IExCor=  402 AccDes= 0.00D+00 IRadAn=         1 IDoV= 1 UseB2=F ITyADJ=14
 ICtDFT=  3500011 ScaDFX=  1.000000  1.000000  1.000000  1.000000
 FoFCou: FMM=F IPFlag=           0 FMFlag=      100000 FMFlg1=           0
         NFxFlg=           0 DoJE=T BraDBF=F KetDBF=T FulRan=T
         wScrn=  0.000000 ICntrl=     500 IOpCl=  0 I1Cent=   200000004 NGrid=           0
         NMat0=    1 NMatS0=      1 NMatT0=    0 NMatD0=    1 NMtDS0=    0 NMtDT0=    0
 Petite list used in FoFCou.
 Harris En= -1215.02446328836    
 JPrj=0 DoOrth=F DoCkMO=F.
 Leave Link  401 at Thu Aug  6 21:56:22 2020, MaxMem=    33554432 cpu:         2.7
 (Enter /prod/apps/gaussian/g09d1/l502.exe)
 Closed shell SCF:
 Using DIIS extrapolation, IDIIS=  1040.
 Integral symmetry usage will be decided dynamically.
 IVT=      292611 IEndB=      292611 NGot=    33554432 MDV=    33368762
 LenX=    33368762 LenY=    33278321
 Requested convergence on RMS density matrix=1.00D-08 within 128 cycles.
 Requested convergence on MAX density matrix=1.00D-06.
 Requested convergence on             energy=1.00D-06.
 No special actions if energy rises.
 Fock matrices will be formed incrementally for  20 cycles.
 Integral accuracy reduced to 1.0D-05 until final iterations.

 Cycle   1  Pass 0  IDiag  1:
 FoFJK:  IHMeth= 1 ICntrl=       0 DoSepK=F KAlg= 0 I1Cent=   0 FoldK=F
 IRaf= 710000000 NMat=   1 IRICut=       1 DoRegI=T DoRafI=F ISym2E= 0.
 FoFCou: FMM=F IPFlag=           0 FMFlag=      100000 FMFlg1=           0
         NFxFlg=           0 DoJE=F BraDBF=F KetDBF=F FulRan=T
         wScrn=  0.000000 ICntrl=       0 IOpCl=  0 I1Cent=           0 NGrid=           0
         NMat0=    1 NMatS0=      1 NMatT0=    0 NMatD0=    1 NMtDS0=    0 NMtDT0=    0
 Symmetry not used in FoFCou.
 E= -1214.43660185013    
 DIIS: error= 3.64D-02 at cycle   1 NSaved=   1.
 NSaved= 1 IEnMin= 1 EnMin= -1214.43660185013     IErMin= 1 ErrMin= 3.64D-02
 ErrMax= 3.64D-02  0.00D+00 EMaxC= 1.00D-01 BMatC= 6.32D-01 BMatP= 6.32D-01
 IDIUse=3 WtCom= 6.36D-01 WtEn= 3.64D-01
 Coeff-Com:  0.100D+01
 Coeff-En:   0.100D+01
 Coeff:      0.100D+01
 Gap=     0.272 Goal=   None    Shift=    0.000
 GapD=    0.272 DampG=1.000 DampE=0.500 DampFc=0.5000 IDamp=-1.
 Damping current iteration by 5.00D-01
 RMSDP=6.66D-03 MaxDP=6.25D-01              OVMax= 2.30D-01

 Cycle   2  Pass 0  IDiag  1:
 RMSU=  3.33D-03    CP:  9.91D-01
 E= -1214.56127218055     Delta-E=       -0.124670330416 Rises=F Damp=T
 DIIS: error= 1.66D-02 at cycle   2 NSaved=   2.
 NSaved= 2 IEnMin= 2 EnMin= -1214.56127218055     IErMin= 2 ErrMin= 1.66D-02
 ErrMax= 1.66D-02  0.00D+00 EMaxC= 1.00D-01 BMatC= 1.09D-01 BMatP= 6.32D-01
 IDIUse=3 WtCom= 8.34D-01 WtEn= 1.66D-01
 Coeff-Com:  0.239D+00 0.761D+00
 Coeff-En:   0.381D+00 0.619D+00
 Coeff:      0.263D+00 0.737D+00
 Gap=     0.233 Goal=   None    Shift=    0.000
 RMSDP=2.03D-03 MaxDP=1.51D-01 DE=-1.25D-01 OVMax= 2.11D-01

 Cycle   3  Pass 0  IDiag  1:
 RMSU=  1.69D-03    CP:  9.79D-01  6.69D-01
 E= -1214.93371945260     Delta-E=       -0.372447272047 Rises=F Damp=F
 DIIS: error= 1.15D-02 at cycle   3 NSaved=   3.
 NSaved= 3 IEnMin= 3 EnMin= -1214.93371945260     IErMin= 3 ErrMin= 1.15D-02
 ErrMax= 1.15D-02  0.00D+00 EMaxC= 1.00D-01 BMatC= 6.03D-02 BMatP= 1.09D-01
 IDIUse=3 WtCom= 8.85D-01 WtEn= 1.15D-01
 Coeff-Com:  0.807D-01 0.425D+00 0.495D+00
 Coeff-En:   0.000D+00 0.000D+00 0.100D+01
 Coeff:      0.714D-01 0.376D+00 0.553D+00
 Gap=     0.186 Goal=   None    Shift=    0.000
 RMSDP=1.14D-03 MaxDP=4.41D-02 DE=-3.72D-01 OVMax= 5.46D-02

 Cycle   4  Pass 0  IDiag  1:
 RMSU=  7.25D-04    CP:  9.85D-01  7.50D-01  5.14D-01
 E= -1214.97724391046     Delta-E=       -0.043524457858 Rises=F Damp=F
 DIIS: error= 3.71D-03 at cycle   4 NSaved=   4.
 NSaved= 4 IEnMin= 4 EnMin= -1214.97724391046     IErMin= 4 ErrMin= 3.71D-03
 ErrMax= 3.71D-03  0.00D+00 EMaxC= 1.00D-01 BMatC= 1.09D-02 BMatP= 6.03D-02
 IDIUse=3 WtCom= 9.63D-01 WtEn= 3.71D-02
 Coeff-Com:  0.975D-02 0.986D-01 0.314D+00 0.578D+00
 Coeff-En:   0.000D+00 0.000D+00 0.153D+00 0.847D+00
 Coeff:      0.938D-02 0.949D-01 0.308D+00 0.588D+00
 Gap=     0.181 Goal=   None    Shift=    0.000
 RMSDP=3.99D-04 MaxDP=1.78D-02 DE=-4.35D-02 OVMax= 2.12D-02

 Cycle   5  Pass 0  IDiag  1:
 RMSU=  2.27D-04    CP:  9.84D-01  7.35D-01  6.24D-01  6.35D-01
 E= -1214.98535962947     Delta-E=       -0.008115719013 Rises=F Damp=F
 DIIS: error= 1.18D-03 at cycle   5 NSaved=   5.
 NSaved= 5 IEnMin= 5 EnMin= -1214.98535962947     IErMin= 5 ErrMin= 1.18D-03
 ErrMax= 1.18D-03  0.00D+00 EMaxC= 1.00D-01 BMatC= 1.19D-03 BMatP= 1.09D-02
 IDIUse=3 WtCom= 9.88D-01 WtEn= 1.18D-02
 Coeff-Com: -0.127D-02 0.240D-01 0.137D+00 0.351D+00 0.489D+00
 Coeff-En:   0.000D+00 0.000D+00 0.000D+00 0.466D-01 0.953D+00
 Coeff:     -0.125D-02 0.237D-01 0.136D+00 0.348D+00 0.494D+00
 Gap=     0.182 Goal=   None    Shift=    0.000
 RMSDP=1.50D-04 MaxDP=7.26D-03 DE=-8.12D-03 OVMax= 9.42D-03

 Cycle   6  Pass 0  IDiag  1:
 RMSU=  7.82D-05    CP:  9.84D-01  7.39D-01  6.27D-01  6.85D-01  4.63D-01
 E= -1214.98625881343     Delta-E=       -0.000899183963 Rises=F Damp=F
 DIIS: error= 6.39D-04 at cycle   6 NSaved=   6.
 NSaved= 6 IEnMin= 6 EnMin= -1214.98625881343     IErMin= 6 ErrMin= 6.39D-04
 ErrMax= 6.39D-04  0.00D+00 EMaxC= 1.00D-01 BMatC= 1.79D-04 BMatP= 1.19D-03
 IDIUse=3 WtCom= 9.94D-01 WtEn= 6.39D-03
 Coeff-Com: -0.184D-02 0.573D-02 0.524D-01 0.156D+00 0.323D+00 0.464D+00
 Coeff-En:   0.000D+00 0.000D+00 0.000D+00 0.000D+00 0.123D+00 0.877D+00
 Coeff:     -0.183D-02 0.569D-02 0.520D-01 0.155D+00 0.322D+00 0.467D+00
 Gap=     0.181 Goal=   None    Shift=    0.000
 RMSDP=5.04D-05 MaxDP=2.59D-03 DE=-8.99D-04 OVMax= 3.43D-03

 Cycle   7  Pass 0  IDiag  1:
 RMSU=  2.77D-05    CP:  9.84D-01  7.38D-01  6.27D-01  6.88D-01  5.50D-01
                    CP:  5.26D-01
 E= -1214.98640875981     Delta-E=       -0.000149946375 Rises=F Damp=F
 DIIS: error= 1.47D-04 at cycle   7 NSaved=   7.
 NSaved= 7 IEnMin= 7 EnMin= -1214.98640875981     IErMin= 7 ErrMin= 1.47D-04
 ErrMax= 1.47D-04  0.00D+00 EMaxC= 1.00D-01 BMatC= 1.29D-05 BMatP= 1.79D-04
 IDIUse=3 WtCom= 9.99D-01 WtEn= 1.47D-03
 Coeff-Com: -0.100D-02 0.429D-03 0.147D-01 0.504D-01 0.133D+00 0.277D+00
 Coeff-Com:  0.526D+00
 Coeff-En:   0.000D+00 0.000D+00 0.000D+00 0.000D+00 0.000D+00 0.180D-01
 Coeff-En:   0.982D+00
 Coeff:     -0.100D-02 0.428D-03 0.147D-01 0.503D-01 0.133D+00 0.277D+00
 Coeff:      0.526D+00
 Gap=     0.181 Goal=   None    Shift=    0.000
 RMSDP=1.29D-05 MaxDP=5.85D-04 DE=-1.50D-04 OVMax= 8.00D-04

 Cycle   8  Pass 0  IDiag  1:
 RMSU=  6.29D-06    CP:  9.84D-01  7.38D-01  6.28D-01  6.89D-01  5.51D-01
                    CP:  5.73D-01  6.20D-01
 E= -1214.98641960531     Delta-E=       -0.000010845501 Rises=F Damp=F
 DIIS: error= 6.57D-05 at cycle   8 NSaved=   8.
 NSaved= 8 IEnMin= 8 EnMin= -1214.98641960531     IErMin= 8 ErrMin= 6.57D-05
 ErrMax= 6.57D-05  0.00D+00 EMaxC= 1.00D-01 BMatC= 7.04D-07 BMatP= 1.29D-05
 IDIUse=1 WtCom= 1.00D+00 WtEn= 0.00D+00
 Coeff-Com: -0.386D-03-0.219D-03 0.345D-02 0.137D-01 0.445D-01 0.112D+00
 Coeff-Com:  0.267D+00 0.560D+00
 Coeff:     -0.386D-03-0.219D-03 0.345D-02 0.137D-01 0.445D-01 0.112D+00
 Coeff:      0.267D+00 0.560D+00
 Gap=     0.182 Goal=   None    Shift=    0.000
 RMSDP=3.87D-06 MaxDP=1.30D-04 DE=-1.08D-05 OVMax= 2.66D-04

 Initial convergence to 1.0D-05 achieved.  Increase integral accuracy.
 Cycle   9  Pass 1  IDiag  1:
 E= -1214.98632772713     Delta-E=        0.000091878183 Rises=F Damp=F
 DIIS: error= 6.87D-05 at cycle   1 NSaved=   1.
 NSaved= 1 IEnMin= 1 EnMin= -1214.98632772713     IErMin= 1 ErrMin= 6.87D-05
 ErrMax= 6.87D-05  0.00D+00 EMaxC= 1.00D-01 BMatC= 7.36D-07 BMatP= 7.36D-07
 IDIUse=1 WtCom= 1.00D+00 WtEn= 0.00D+00
 Coeff-Com:  0.100D+01
 Coeff:      0.100D+01
 Gap=     0.181 Goal=   None    Shift=    0.000
 RMSDP=3.87D-06 MaxDP=1.30D-04 DE= 9.19D-05 OVMax= 3.60D-04

 Cycle  10  Pass 1  IDiag  1:
 RMSU=  4.01D-05    CP:  1.00D+00
 E= -1214.98632787224     Delta-E=       -0.000000145118 Rises=F Damp=F
 DIIS: error= 4.00D-05 at cycle   2 NSaved=   2.
 NSaved= 2 IEnMin= 2 EnMin= -1214.98632787224     IErMin= 2 ErrMin= 4.00D-05
 ErrMax= 4.00D-05  0.00D+00 EMaxC= 1.00D-01 BMatC= 6.11D-07 BMatP= 7.36D-07
 IDIUse=1 WtCom= 1.00D+00 WtEn= 0.00D+00
 Coeff-Com:  0.467D+00 0.533D+00
 Coeff:      0.467D+00 0.533D+00
 Gap=     0.182 Goal=   None    Shift=    0.000
 RMSDP=4.39D-06 MaxDP=2.37D-04 DE=-1.45D-07 OVMax= 4.05D-04

 Cycle  11  Pass 1  IDiag  1:
 RMSU=  4.39D-06    CP:  1.00D+00  9.98D-01
 E= -1214.98632816074     Delta-E=       -0.000000288493 Rises=F Damp=F
 DIIS: error= 2.83D-05 at cycle   3 NSaved=   3.
 NSaved= 3 IEnMin= 3 EnMin= -1214.98632816074     IErMin= 3 ErrMin= 2.83D-05
 ErrMax= 2.83D-05  0.00D+00 EMaxC= 1.00D-01 BMatC= 3.09D-07 BMatP= 6.11D-07
 IDIUse=1 WtCom= 1.00D+00 WtEn= 0.00D+00
 Coeff-Com:  0.670D-02 0.414D+00 0.580D+00
 Coeff:      0.670D-02 0.414D+00 0.580D+00
 Gap=     0.182 Goal=   None    Shift=    0.000
 RMSDP=1.97D-06 MaxDP=1.25D-04 DE=-2.88D-07 OVMax= 1.96D-04

 Cycle  12  Pass 1  IDiag  1:
 RMSU=  6.14D-07    CP:  1.00D+00  1.01D+00  5.82D-01
 E= -1214.98632844685     Delta-E=       -0.000000286116 Rises=F Damp=F
 DIIS: error= 5.58D-06 at cycle   4 NSaved=   4.
 NSaved= 4 IEnMin= 4 EnMin= -1214.98632844685     IErMin= 4 ErrMin= 5.58D-06
 ErrMax= 5.58D-06  0.00D+00 EMaxC= 1.00D-01 BMatC= 1.14D-08 BMatP= 3.09D-07
 IDIUse=1 WtCom= 1.00D+00 WtEn= 0.00D+00
 Coeff-Com: -0.520D-02 0.252D+00 0.369D+00 0.384D+00
 Coeff:     -0.520D-02 0.252D+00 0.369D+00 0.384D+00
 Gap=     0.182 Goal=   None    Shift=    0.000
 RMSDP=3.68D-07 MaxDP=2.10D-05 DE=-2.86D-07 OVMax= 3.19D-05

 Cycle  13  Pass 1  IDiag  1:
 RMSU=  1.84D-07    CP:  1.00D+00  1.01D+00  5.92D-01  4.86D-01
 E= -1214.98632845694     Delta-E=       -0.000000010086 Rises=F Damp=F
 DIIS: error= 6.33D-07 at cycle   5 NSaved=   5.
 NSaved= 5 IEnMin= 5 EnMin= -1214.98632845694     IErMin= 5 ErrMin= 6.33D-07
 ErrMax= 6.33D-07  0.00D+00 EMaxC= 1.00D-01 BMatC= 3.15D-10 BMatP= 1.14D-08
 IDIUse=1 WtCom= 1.00D+00 WtEn= 0.00D+00
 Coeff-Com: -0.331D-02 0.115D+00 0.171D+00 0.213D+00 0.505D+00
 Coeff:     -0.331D-02 0.115D+00 0.171D+00 0.213D+00 0.505D+00
 Gap=     0.182 Goal=   None    Shift=    0.000
 RMSDP=7.82D-08 MaxDP=2.67D-06 DE=-1.01D-08 OVMax= 4.74D-06

 Cycle  14  Pass 1  IDiag  1:
 RMSU=  5.71D-08    CP:  1.00D+00  1.01D+00  5.93D-01  5.11D-01  7.23D-01
 E= -1214.98632845719     Delta-E=       -0.000000000254 Rises=F Damp=F
 DIIS: error= 2.38D-07 at cycle   6 NSaved=   6.
 NSaved= 6 IEnMin= 6 EnMin= -1214.98632845719     IErMin= 6 ErrMin= 2.38D-07
 ErrMax= 2.38D-07  0.00D+00 EMaxC= 1.00D-01 BMatC= 3.84D-11 BMatP= 3.15D-10
 IDIUse=1 WtCom= 1.00D+00 WtEn= 0.00D+00
 Coeff-Com: -0.145D-02 0.428D-01 0.641D-01 0.880D-01 0.300D+00 0.507D+00
 Coeff:     -0.145D-02 0.428D-01 0.641D-01 0.880D-01 0.300D+00 0.507D+00
 Gap=     0.182 Goal=   None    Shift=    0.000
 RMSDP=2.43D-08 MaxDP=1.10D-06 DE=-2.54D-10 OVMax= 1.22D-06

 Cycle  15  Pass 1  IDiag  1:
 RMSU=  1.90D-08    CP:  1.00D+00  1.01D+00  5.93D-01  5.12D-01  7.62D-01
                    CP:  7.66D-01
 E= -1214.98632845719     Delta-E=        0.000000000005 Rises=F Damp=F
 DIIS: error= 9.47D-08 at cycle   7 NSaved=   7.
 NSaved= 7 IEnMin= 6 EnMin= -1214.98632845719     IErMin= 7 ErrMin= 9.47D-08
 ErrMax= 9.47D-08  0.00D+00 EMaxC= 1.00D-01 BMatC= 5.01D-12 BMatP= 3.84D-11
 IDIUse=1 WtCom= 1.00D+00 WtEn= 0.00D+00
 Coeff-Com: -0.255D-03 0.473D-02 0.737D-02 0.140D-01 0.848D-01 0.298D+00
 Coeff-Com:  0.591D+00
 Coeff:     -0.255D-03 0.473D-02 0.737D-02 0.140D-01 0.848D-01 0.298D+00
 Coeff:      0.591D+00
 Gap=     0.182 Goal=   None    Shift=    0.000
 RMSDP=9.80D-09 MaxDP=4.73D-07 DE= 5.00D-12 OVMax= 4.86D-07

 SCF Done:  E(RB3LYP) =  -1214.98632846     A.U. after   15 cycles
            NFock= 15  Conv=0.98D-08     -V/T= 2.0075
 KE= 1.205892063778D+03 PE=-5.738872178706D+03 EE= 1.871984206752D+03
 Leave Link  502 at Thu Aug  6 21:59:45 2020, MaxMem=    33554432 cpu:       202.9
 (Enter /prod/apps/gaussian/g09d1/l601.exe)
 Copying SCF densities to generalized density rwf, IOpCl= 0 IROHF=0.

 **********************************************************************

            Population analysis using the SCF density.

 **********************************************************************

 Orbital symmetries:
       Occupied  (A) (A) (A) (A) (A) (A) (A) (A) (A) (A) (A) (A)
                 (A) (A) (A) (A) (A) (A) (A) (A) (A) (A) (A) (A)
                 (A) (A) (A) (A) (A) (A) (A) (A) (A) (A) (A) (A)
                 (A) (A) (A) (A) (A) (A) (A) (A) (A) (A) (A) (A)
                 (A) (A) (A) (A) (A) (A) (A) (A) (A) (A) (A) (A)
                 (A) (A) (A) (A) (A) (A) (A) (A) (A) (A)
       Virtual   (A) (A) (A) (A) (A) (A) (A) (A) (A) (A) (A) (A)
                 (A) (A) (A) (A) (A) (A) (A) (A) (A) (A) (A) (A)
                 (A) (A) (A) (A) (A) (A) (A) (A) (A) (A) (A) (A)
                 (A) (A) (A) (A) (A) (A) (A) (A) (A) (A) (A) (A)
                 (A) (A) (A) (A) (A) (A) (A) (A) (A) (A) (A) (A)
                 (A) (A) (A) (A) (A) (A) (A) (A) (A) (A) (A) (A)
                 (A) (A) (A) (A) (A) (A) (A) (A) (A) (A) (A) (A)
                 (A) (A) (A) (A) (A) (A) (A) (A) (A) (A) (A) (A)
                 (A) (A) (A) (A) (A) (A) (A) (A) (A) (A) (A) (A)
                 (A) (A) (A) (A) (A) (A) (A) (A) (A) (A) (A) (A)
                 (A) (A) (A) (A) (A) (A) (A) (A) (A) (A) (A) (A)
                 (A) (A) (A) (A) (A) (A) (A) (A) (A) (A) (A) (A)
                 (A) (A) (A) (A) (A) (A) (A) (A) (A) (A) (A) (A)
                 (A) (A) (A) (A) (A) (A) (A) (A) (A) (A) (A) (A)
                 (A) (A) (A) (A) (A) (A) (A) (A) (A) (A) (A) (A)
                 (A) (A) (A) (A) (A) (A) (A) (A) (A) (A) (A) (A)
                 (A) (A) (A) (A) (A) (A) (A) (A) (A) (A) (A) (A)
                 (A) (A) (A) (A) (A) (A) (A) (A) (A) (A) (A) (A)
                 (A) (A) (A) (A) (A) (A) (A) (A) (A) (A) (A) (A)
                 (A) (A)
 The electronic state is 1-A.
 Alpha  occ. eigenvalues --  -89.13349 -19.23825 -19.14454 -19.14385 -14.39061
 Alpha  occ. eigenvalues --  -14.37843 -14.37788 -10.27578 -10.27147 -10.22644
 Alpha  occ. eigenvalues --  -10.22125 -10.21738 -10.21009 -10.20787 -10.20634
 Alpha  occ. eigenvalues --  -10.20580 -10.20563 -10.20440  -8.15526  -6.12059
 Alpha  occ. eigenvalues --   -6.11929  -6.11905  -1.14269  -1.12346  -1.00430
 Alpha  occ. eigenvalues --   -0.96072  -0.94186  -0.87846  -0.85168  -0.81258
 Alpha  occ. eigenvalues --   -0.76122  -0.75760  -0.72812  -0.71681  -0.65333
 Alpha  occ. eigenvalues --   -0.64818  -0.62141  -0.60662  -0.57083  -0.55690
 Alpha  occ. eigenvalues --   -0.53931  -0.51637  -0.50160  -0.49106  -0.48163
 Alpha  occ. eigenvalues --   -0.47815  -0.47427  -0.46263  -0.45439  -0.43935
 Alpha  occ. eigenvalues --   -0.43570  -0.43408  -0.41851  -0.41154  -0.39671
 Alpha  occ. eigenvalues --   -0.39077  -0.38762  -0.37476  -0.36801  -0.35800
 Alpha  occ. eigenvalues --   -0.34661  -0.32801  -0.31568  -0.31108  -0.30226
 Alpha  occ. eigenvalues --   -0.29804  -0.27213  -0.26614  -0.25162  -0.23613
 Alpha virt. eigenvalues --   -0.05461  -0.01521   0.02056   0.04051   0.06387
 Alpha virt. eigenvalues --    0.07501   0.07617   0.09010   0.09497   0.10349
 Alpha virt. eigenvalues --    0.10781   0.12120   0.12680   0.13945   0.14255
 Alpha virt. eigenvalues --    0.15772   0.16058   0.16397   0.16851   0.17355
 Alpha virt. eigenvalues --    0.18152   0.18562   0.19492   0.20403   0.21959
 Alpha virt. eigenvalues --    0.22331   0.25135   0.25600   0.29080   0.29724
 Alpha virt. eigenvalues --    0.31908   0.32537   0.34220   0.36025   0.37825
 Alpha virt. eigenvalues --    0.40727   0.43131   0.43914   0.46263   0.47460
 Alpha virt. eigenvalues --    0.48499   0.49765   0.50534   0.51527   0.52881
 Alpha virt. eigenvalues --    0.53144   0.54288   0.54778   0.55294   0.56635
 Alpha virt. eigenvalues --    0.57506   0.57760   0.58216   0.58949   0.60067
 Alpha virt. eigenvalues --    0.60410   0.60849   0.61929   0.62373   0.63531
 Alpha virt. eigenvalues --    0.64418   0.65018   0.67148   0.69238   0.70410
 Alpha virt. eigenvalues --    0.70954   0.73205   0.75482   0.75975   0.77157
 Alpha virt. eigenvalues --    0.78035   0.79425   0.80529   0.82029   0.82569
 Alpha virt. eigenvalues --    0.82734   0.83311   0.83963   0.84653   0.85374
 Alpha virt. eigenvalues --    0.86355   0.87058   0.88375   0.88997   0.89864
 Alpha virt. eigenvalues --    0.90636   0.90806   0.92737   0.93031   0.94402
 Alpha virt. eigenvalues --    0.94624   0.95272   0.96362   0.97433   0.98171
 Alpha virt. eigenvalues --    1.00762   1.01504   1.03062   1.04716   1.05267
 Alpha virt. eigenvalues --    1.07665   1.08050   1.09337   1.10290   1.14142
 Alpha virt. eigenvalues --    1.14635   1.15203   1.17049   1.17182   1.19939
 Alpha virt. eigenvalues --    1.21551   1.23455   1.23704   1.26260   1.29454
 Alpha virt. eigenvalues --    1.30154   1.31682   1.33492   1.34952   1.36138
 Alpha virt. eigenvalues --    1.37571   1.41222   1.41612   1.42222   1.43884
 Alpha virt. eigenvalues --    1.45304   1.46671   1.47655   1.47835   1.49467
 Alpha virt. eigenvalues --    1.49528   1.50013   1.54039   1.56332   1.58367
 Alpha virt. eigenvalues --    1.62006   1.68079   1.72048   1.72599   1.77212
 Alpha virt. eigenvalues --    1.78107   1.78947   1.79660   1.81275   1.81873
 Alpha virt. eigenvalues --    1.82666   1.85654   1.86469   1.88248   1.89478
 Alpha virt. eigenvalues --    1.91664   1.93112   1.93987   1.96016   1.96144
 Alpha virt. eigenvalues --    1.97063   1.97479   1.98349   2.00042   2.00335
 Alpha virt. eigenvalues --    2.03933   2.06028   2.07141   2.09786   2.10194
 Alpha virt. eigenvalues --    2.11206   2.11656   2.12776   2.13276   2.14155
 Alpha virt. eigenvalues --    2.17805   2.19486   2.21240   2.22586   2.23591
 Alpha virt. eigenvalues --    2.24444   2.25425   2.26930   2.27854   2.29439
 Alpha virt. eigenvalues --    2.30422   2.32982   2.34993   2.35497   2.42449
 Alpha virt. eigenvalues --    2.43204   2.48517   2.51190   2.52895   2.53328
 Alpha virt. eigenvalues --    2.57059   2.57622   2.59704   2.60185   2.62360
 Alpha virt. eigenvalues --    2.65677   2.66229   2.71083   2.72219   2.73410
 Alpha virt. eigenvalues --    2.74012   2.76297   2.77318   2.85037   2.87648
 Alpha virt. eigenvalues --    2.89073   2.92557   3.02814   3.06216   3.12802
 Alpha virt. eigenvalues --    3.27144   3.42251   3.72561   3.82505   3.99101
 Alpha virt. eigenvalues --    4.02180   4.05270   4.07442   4.08854   4.10267
 Alpha virt. eigenvalues --    4.12692   4.16832   4.23053   4.29753   4.31216
 Alpha virt. eigenvalues --    4.32809   4.38249   4.40593   4.56991   4.73744
          Condensed to atoms (all electrons):
               1          2          3          4          5          6
     1  O    8.203236   0.445794  -0.054754   0.008885  -0.002540   0.000010
     2  S    0.445794  13.541498   0.089916  -0.010778   0.005216  -0.000211
     3  N   -0.054754   0.089916   7.488016   0.221691  -0.072070   0.005357
     4  C    0.008885  -0.010778   0.221691   4.517769   0.384189  -0.028014
     5  N   -0.002540   0.005216  -0.072070   0.384189   6.904207   0.115123
     6  O    0.000010  -0.000211   0.005357  -0.028014   0.115123   8.188099
     7  C    0.000005   0.000260   0.000265  -0.024329  -0.077156   0.249544
     8  C    0.000000  -0.000010  -0.000208   0.003214   0.004084  -0.038063
     9  C    0.000000   0.000000   0.000003   0.000600  -0.000098   0.003197
    10  C    0.000000   0.000000   0.000000  -0.000006   0.000001  -0.000059
    11  C    0.000000   0.000000   0.000000   0.000000   0.000000   0.000001
    12  C    0.000000   0.000000   0.000000   0.000005   0.000000   0.000306
    13  C    0.000000   0.000000  -0.000001  -0.000334   0.000128  -0.006373
    14  C    0.000111   0.001357  -0.058834   0.436026  -0.040438  -0.096196
    15  N   -0.052502   0.175668  -0.053265  -0.006098   0.001081   0.000006
    16  C    0.001674  -0.015755   0.002201   0.000303  -0.000146   0.000000
    17  C   -0.004792  -0.016576   0.000040   0.001068  -0.003459   0.000018
    18  O   -0.041423   0.458182  -0.055109   0.001537  -0.000009   0.000000
    19  H    0.000371  -0.010574   0.304324  -0.022888   0.003195  -0.000074
    20  H    0.000000   0.000000  -0.000001   0.000072  -0.000004   0.000021
    21  H    0.000000   0.000000   0.000000   0.000000   0.000000   0.000000
    22  H    0.000000   0.000000   0.000000   0.000000   0.000000   0.000000
    23  H    0.000000   0.000000   0.000000   0.000000   0.000000  -0.000002
    24  H    0.000000   0.000000   0.000000   0.000067  -0.000259   0.009687
    25  H    0.000002  -0.000145  -0.002060  -0.030261   0.004854   0.003567
    26  H    0.000055   0.003417  -0.001426  -0.000010   0.000003   0.000000
    27  H   -0.000051   0.002738   0.000008  -0.000026   0.000001   0.000000
    28  H   -0.000018  -0.010282   0.006140   0.001075  -0.000128  -0.000001
    29  H    0.010531  -0.003477   0.000044  -0.000073  -0.000034   0.000003
    30  H   -0.000127  -0.008196   0.001415   0.001458   0.007575  -0.000175
    31  H    0.000161   0.003498  -0.000138  -0.000052   0.000193   0.000000
               7          8          9         10         11         12
     1  O    0.000005   0.000000   0.000000   0.000000   0.000000   0.000000
     2  S    0.000260  -0.000010   0.000000   0.000000   0.000000   0.000000
     3  N    0.000265  -0.000208   0.000003   0.000000   0.000000   0.000000
     4  C   -0.024329   0.003214   0.000600  -0.000006   0.000000   0.000005
     5  N   -0.077156   0.004084  -0.000098   0.000001   0.000000   0.000000
     6  O    0.249544  -0.038063   0.003197  -0.000059   0.000001   0.000306
     7  C    4.722848   0.343799  -0.041485   0.006374   0.000937   0.004738
     8  C    0.343799   4.771149   0.536449  -0.008210  -0.033787  -0.008088
     9  C   -0.041485   0.536449   5.005070   0.522821  -0.038391  -0.041268
    10  C    0.006374  -0.008210   0.522821   4.860683   0.545354  -0.023911
    11  C    0.000937  -0.033787  -0.038391   0.545354   4.852360   0.543559
    12  C    0.004738  -0.008088  -0.041268  -0.023911   0.543559   4.874959
    13  C   -0.039749   0.476900  -0.084841  -0.042470  -0.035748   0.504237
    14  C    0.507061  -0.059408  -0.021866   0.000198   0.000015  -0.000242
    15  N   -0.000003   0.000000   0.000000   0.000000   0.000000   0.000000
    16  C    0.000000   0.000000   0.000000   0.000000   0.000000   0.000000
    17  C   -0.000001   0.000000   0.000000   0.000000   0.000000   0.000000
    18  O    0.000000   0.000000   0.000000   0.000000   0.000000   0.000000
    19  H   -0.000005  -0.000003   0.000000   0.000000   0.000000   0.000000
    20  H   -0.013653  -0.037831   0.351404  -0.044606   0.004712   0.000210
    21  H   -0.000212   0.003311  -0.038778   0.359177  -0.041774   0.004490
    22  H    0.000003   0.000557   0.004908  -0.042734   0.360943  -0.042514
    23  H   -0.000183   0.003137   0.000881   0.004471  -0.042064   0.359996
    24  H   -0.013102  -0.038348   0.005403   0.000282   0.004442  -0.042905
    25  H   -0.024152  -0.003603   0.001346   0.000088  -0.000001   0.000002
    26  H    0.000000   0.000000   0.000000   0.000000   0.000000   0.000000
    27  H    0.000000   0.000000   0.000000   0.000000   0.000000   0.000000
    28  H    0.000000   0.000000   0.000000   0.000000   0.000000   0.000000
    29  H    0.000000   0.000000   0.000000   0.000000   0.000000   0.000000
    30  H    0.000018   0.000000   0.000000   0.000000   0.000000   0.000000
    31  H    0.000000   0.000000   0.000000   0.000000   0.000000   0.000000
              13         14         15         16         17         18
     1  O    0.000000   0.000111  -0.052502   0.001674  -0.004792  -0.041423
     2  S    0.000000   0.001357   0.175668  -0.015755  -0.016576   0.458182
     3  N   -0.000001  -0.058834  -0.053265   0.002201   0.000040  -0.055109
     4  C   -0.000334   0.436026  -0.006098   0.000303   0.001068   0.001537
     5  N    0.000128  -0.040438   0.001081  -0.000146  -0.003459  -0.000009
     6  O   -0.006373  -0.096196   0.000006   0.000000   0.000018   0.000000
     7  C   -0.039749   0.507061  -0.000003   0.000000  -0.000001   0.000000
     8  C    0.476900  -0.059408   0.000000   0.000000   0.000000   0.000000
     9  C   -0.084841  -0.021866   0.000000   0.000000   0.000000   0.000000
    10  C   -0.042470   0.000198   0.000000   0.000000   0.000000   0.000000
    11  C   -0.035748   0.000015   0.000000   0.000000   0.000000   0.000000
    12  C    0.504237  -0.000242   0.000000   0.000000   0.000000   0.000000
    13  C    5.045423   0.012521   0.000000   0.000000   0.000000   0.000000
    14  C    0.012521   5.278989  -0.000113  -0.000007   0.000016  -0.000069
    15  N    0.000000  -0.000113   7.167009   0.276589   0.272775  -0.055865
    16  C    0.000000  -0.000007   0.276589   4.997544  -0.049076  -0.007479
    17  C    0.000000   0.000016   0.272775  -0.049076   5.002200   0.001428
    18  O    0.000000  -0.000069  -0.055865  -0.007479   0.001428   8.235088
    19  H    0.000000  -0.004893   0.002064  -0.000225  -0.000029   0.006105
    20  H    0.006092   0.006262   0.000000   0.000000   0.000000   0.000000
    21  H    0.000857   0.000000   0.000000   0.000000   0.000000   0.000000
    22  H    0.004715   0.000000   0.000000   0.000000   0.000000   0.000000
    23  H   -0.037807   0.000001   0.000000   0.000000   0.000000   0.000000
    24  H    0.360361   0.000263   0.000000   0.000000   0.000000   0.000000
    25  H   -0.000124   0.345451   0.000000   0.000000   0.000000  -0.000001
    26  H    0.000000   0.000001  -0.033601   0.374525   0.004350   0.010622
    27  H    0.000000   0.000000  -0.034744   0.374652  -0.003863   0.000052
    28  H    0.000000   0.000012  -0.047728   0.372979  -0.000360  -0.000191
    29  H    0.000000  -0.000002  -0.029013   0.004283   0.379575   0.000029
    30  H    0.000000   0.000074  -0.044387  -0.000921   0.372566  -0.000067
    31  H    0.000000   0.000000  -0.037235  -0.004519   0.366769  -0.000047
              19         20         21         22         23         24
     1  O    0.000371   0.000000   0.000000   0.000000   0.000000   0.000000
     2  S   -0.010574   0.000000   0.000000   0.000000   0.000000   0.000000
     3  N    0.304324  -0.000001   0.000000   0.000000   0.000000   0.000000
     4  C   -0.022888   0.000072   0.000000   0.000000   0.000000   0.000067
     5  N    0.003195  -0.000004   0.000000   0.000000   0.000000  -0.000259
     6  O   -0.000074   0.000021   0.000000   0.000000  -0.000002   0.009687
     7  C   -0.000005  -0.013653  -0.000212   0.000003  -0.000183  -0.013102
     8  C   -0.000003  -0.037831   0.003311   0.000557   0.003137  -0.038348
     9  C    0.000000   0.351404  -0.038778   0.004908   0.000881   0.005403
    10  C    0.000000  -0.044606   0.359177  -0.042734   0.004471   0.000282
    11  C    0.000000   0.004712  -0.041774   0.360943  -0.042064   0.004442
    12  C    0.000000   0.000210   0.004490  -0.042514   0.359996  -0.042905
    13  C    0.000000   0.006092   0.000857   0.004715  -0.037807   0.360361
    14  C   -0.004893   0.006262   0.000000   0.000000   0.000001   0.000263
    15  N    0.002064   0.000000   0.000000   0.000000   0.000000   0.000000
    16  C   -0.000225   0.000000   0.000000   0.000000   0.000000   0.000000
    17  C   -0.000029   0.000000   0.000000   0.000000   0.000000   0.000000
    18  O    0.006105   0.000000   0.000000   0.000000   0.000000   0.000000
    19  H    0.349919   0.000000   0.000000   0.000000   0.000000   0.000000
    20  H    0.000000   0.595105  -0.005307  -0.000172   0.000016  -0.000150
    21  H    0.000000  -0.005307   0.584697  -0.005414  -0.000176   0.000016
    22  H    0.000000  -0.000172  -0.005414   0.586223  -0.005363  -0.000159
    23  H    0.000000   0.000016  -0.000176  -0.005363   0.580251  -0.004884
    24  H    0.000000  -0.000150   0.000016  -0.000159  -0.004884   0.554294
    25  H    0.002259   0.002252  -0.000003   0.000000   0.000000  -0.000009
    26  H   -0.000001   0.000000   0.000000   0.000000   0.000000   0.000000
    27  H    0.000009   0.000000   0.000000   0.000000   0.000000   0.000000
    28  H   -0.000287   0.000000   0.000000   0.000000   0.000000   0.000000
    29  H   -0.000001   0.000000   0.000000   0.000000   0.000000   0.000000
    30  H   -0.000040   0.000000   0.000000   0.000000   0.000000   0.000000
    31  H    0.000003   0.000000   0.000000   0.000000   0.000000   0.000000
              25         26         27         28         29         30
     1  O    0.000002   0.000055  -0.000051  -0.000018   0.010531  -0.000127
     2  S   -0.000145   0.003417   0.002738  -0.010282  -0.003477  -0.008196
     3  N   -0.002060  -0.001426   0.000008   0.006140   0.000044   0.001415
     4  C   -0.030261  -0.000010  -0.000026   0.001075  -0.000073   0.001458
     5  N    0.004854   0.000003   0.000001  -0.000128  -0.000034   0.007575
     6  O    0.003567   0.000000   0.000000  -0.000001   0.000003  -0.000175
     7  C   -0.024152   0.000000   0.000000   0.000000   0.000000   0.000018
     8  C   -0.003603   0.000000   0.000000   0.000000   0.000000   0.000000
     9  C    0.001346   0.000000   0.000000   0.000000   0.000000   0.000000
    10  C    0.000088   0.000000   0.000000   0.000000   0.000000   0.000000
    11  C   -0.000001   0.000000   0.000000   0.000000   0.000000   0.000000
    12  C    0.000002   0.000000   0.000000   0.000000   0.000000   0.000000
    13  C   -0.000124   0.000000   0.000000   0.000000   0.000000   0.000000
    14  C    0.345451   0.000001   0.000000   0.000012  -0.000002   0.000074
    15  N    0.000000  -0.033601  -0.034744  -0.047728  -0.029013  -0.044387
    16  C    0.000000   0.374525   0.374652   0.372979   0.004283  -0.000921
    17  C    0.000000   0.004350  -0.003863  -0.000360   0.379575   0.372566
    18  O   -0.000001   0.010622   0.000052  -0.000191   0.000029  -0.000067
    19  H    0.002259  -0.000001   0.000009  -0.000287  -0.000001  -0.000040
    20  H    0.002252   0.000000   0.000000   0.000000   0.000000   0.000000
    21  H   -0.000003   0.000000   0.000000   0.000000   0.000000   0.000000
    22  H    0.000000   0.000000   0.000000   0.000000   0.000000   0.000000
    23  H    0.000000   0.000000   0.000000   0.000000   0.000000   0.000000
    24  H   -0.000009   0.000000   0.000000   0.000000   0.000000   0.000000
    25  H    0.545275   0.000000   0.000000   0.000000   0.000000  -0.000001
    26  H    0.000000   0.494653  -0.021316  -0.030987  -0.000184  -0.000171
    27  H    0.000000  -0.021316   0.546180  -0.038478   0.000016  -0.001401
    28  H    0.000000  -0.030987  -0.038478   0.580928  -0.000163   0.007167
    29  H    0.000000  -0.000184   0.000016  -0.000163   0.475394  -0.026333
    30  H   -0.000001  -0.000171  -0.001401   0.007167  -0.026333   0.552305
    31  H    0.000000   0.000030   0.005554  -0.001534  -0.022201  -0.038060
              31
     1  O    0.000161
     2  S    0.003498
     3  N   -0.000138
     4  C   -0.000052
     5  N    0.000193
     6  O    0.000000
     7  C    0.000000
     8  C    0.000000
     9  C    0.000000
    10  C    0.000000
    11  C    0.000000
    12  C    0.000000
    13  C    0.000000
    14  C    0.000000
    15  N   -0.037235
    16  C   -0.004519
    17  C    0.366769
    18  O   -0.000047
    19  H    0.000003
    20  H    0.000000
    21  H    0.000000
    22  H    0.000000
    23  H    0.000000
    24  H    0.000000
    25  H    0.000000
    26  H    0.000030
    27  H    0.005554
    28  H   -0.001534
    29  H   -0.022201
    30  H   -0.038060
    31  H    0.566860
 Mulliken charges:
               1
     1  O   -0.514627
     2  S    1.348461
     3  N   -0.821555
     4  C    0.544910
     5  N   -0.233510
     6  O   -0.405767
     7  C    0.398180
     8  C    0.084962
     9  C   -0.165354
    10  C   -0.137455
    11  C   -0.120560
    12  C   -0.133574
    13  C   -0.163787
    14  C   -0.306288
    15  N   -0.500638
    16  C   -0.326623
    17  C   -0.322648
    18  O   -0.552783
    19  H    0.370769
    20  H    0.135578
    21  H    0.139116
    22  H    0.139008
    23  H    0.141725
    24  H    0.165001
    25  H    0.155263
    26  H    0.200041
    27  H    0.170671
    28  H    0.161856
    29  H    0.211607
    30  H    0.177300
    31  H    0.160719
 Sum of Mulliken charges =   0.00000
 Mulliken charges with hydrogens summed into heavy atoms:
               1
     1  O   -0.514627
     2  S    1.348461
     3  N   -0.450785
     4  C    0.544910
     5  N   -0.233510
     6  O   -0.405767
     7  C    0.398180
     8  C    0.084962
     9  C   -0.029776
    10  C    0.001662
    11  C    0.018448
    12  C    0.008152
    13  C    0.001214
    14  C   -0.151026
    15  N   -0.500638
    16  C    0.205945
    17  C    0.226978
    18  O   -0.552783
 Electronic spatial extent (au):  <R**2>=           7161.2305
 Charge=              0.0000 electrons
 Dipole moment (field-independent basis, Debye):
    X=              3.7246    Y=             -0.4592    Z=              4.0613  Tot=              5.5297
 Quadrupole moment (field-independent basis, Debye-Ang):
   XX=            -99.7516   YY=           -102.8422   ZZ=           -116.0069
   XY=            -10.5151   XZ=            -12.8544   YZ=             -2.5908
 Traceless Quadrupole moment (field-independent basis, Debye-Ang):
   XX=              6.4486   YY=              3.3580   ZZ=             -9.8067
   XY=            -10.5151   XZ=            -12.8544   YZ=             -2.5908
 Octapole moment (field-independent basis, Debye-Ang**2):
  XXX=             91.1502  YYY=             -2.2123  ZZZ=              3.2587  XYY=              3.9762
  XXY=             49.9134  XXZ=             45.1449  XZZ=            -26.1073  YZZ=              1.0391
  YYZ=              3.4361  XYZ=             -5.2374
 Hexadecapole moment (field-independent basis, Debye-Ang**3):
 XXXX=          -7528.5195 YYYY=           -807.5366 ZZZZ=           -439.3455 XXXY=           -167.6961
 XXXZ=           -174.6082 YYYX=            -22.2071 YYYZ=            -19.8433 ZZZX=            -24.1344
 ZZZY=              3.7866 XXYY=          -1426.6987 XXZZ=          -1498.1600 YYZZ=           -214.2644
 XXYZ=            -43.0391 YYXZ=             -7.0917 ZZXY=              4.5849
 N-N= 1.446009579719D+03 E-N=-5.738872208715D+03  KE= 1.205892063778D+03
 No NMR shielding tensors so no spin-rotation constants.
 Leave Link  601 at Thu Aug  6 21:59:45 2020, MaxMem=    33554432 cpu:         0.2
 (Enter /prod/apps/gaussian/g09d1/l9999.exe)
 1\1\GINC-PIRINEUS25\SP\RB3LYP\6-31G(d)\C11H13N3O3S1\UBAFAR01\06-Aug-20
 20\0\\#p b3lyp/6-31G(d)\\SM43.n.8.pdb.xyz\\0,1\O,0,1.136,-3.552,1.896\
 S,0,2.322,-2.836,1.428\N,0,2.328,-1.245,2.047\C,0,1.73,-0.863,3.244\N,
 0,1.683,-1.662,4.293\O,0,1.049,-0.904,5.291\C,0,0.752,0.327,4.808\C,0,
 0.091,1.261,5.712\C,0,-0.237,2.554,5.272\C,0,-0.867,3.448,6.132\C,0,-1
 .176,3.065,7.44\C,0,-0.852,1.781,7.884\C,0,-0.222,0.882,7.027\C,0,1.16
 ,0.414,3.506\N,0,3.646,-3.632,2.021\C,0,4.945,-3.01,1.728\C,0,3.546,-4
 .273,3.342\O,0,2.547,-2.613,-0.001\H,0,2.254,-0.566,1.292\H,0,0.002,2.
 856,4.258\H,0,-1.116,4.444,5.783\H,0,-1.667,3.763,8.109\H,0,-1.09,1.47
 8,8.898\H,0,0.03,-0.115,7.369\H,0,1.071,1.245,2.826\H,0,4.955,-2.658,0
 .698\H,0,5.71,-3.78,1.844\H,0,5.164,-2.179,2.407\H,0,2.579,-4.762,3.43
 3\H,0,3.679,-3.559,4.16\H,0,4.334,-5.028,3.386\\Version=AM64L-G09RevD.
 01\State=1-A\HF=-1214.9863285\RMSD=9.803e-09\Dipole=0.7056665,1.807791
 3,0.9833067\Quadrupole=3.6565311,2.7874425,-6.4439736,-10.3232325,-5.8
 033737,-5.0764362\PG=C01 [X(C11H13N3O3S1)]\\@


 IT'S WHAT YOU LEARN AFTER YOU KNOW IT ALL
 THAT COUNTS.
 Job cpu time:       0 days  0 hours  3 minutes 27.1 seconds.
 File lengths (MBytes):  RWF=     51 Int=      0 D2E=      0 Chk=      4 Scr=      1
 Normal termination of Gaussian 09 at Thu Aug  6 21:59:45 2020.
 Initial command:
 /prod/apps/gaussian/g09d1/l1.exe "/tmp/ubafar01/1448608/Gau-25488.inp" -scrdir="/tmp/ubafar01/1448608/"
 Entering Link 1 = /prod/apps/gaussian/g09d1/l1.exe PID=     26204.
  
 Copyright (c) 1988,1990,1992,1993,1995,1998,2003,2009,2013,
            Gaussian, Inc.  All Rights Reserved.
  
 This is part of the Gaussian(R) 09 program.  It is based on
 the Gaussian(R) 03 system (copyright 2003, Gaussian, Inc.),
 the Gaussian(R) 98 system (copyright 1998, Gaussian, Inc.),
 the Gaussian(R) 94 system (copyright 1995, Gaussian, Inc.),
 the Gaussian 92(TM) system (copyright 1992, Gaussian, Inc.),
 the Gaussian 90(TM) system (copyright 1990, Gaussian, Inc.),
 the Gaussian 88(TM) system (copyright 1988, Gaussian, Inc.),
 the Gaussian 86(TM) system (copyright 1986, Carnegie Mellon
 University), and the Gaussian 82(TM) system (copyright 1983,
 Carnegie Mellon University). Gaussian is a federally registered
 trademark of Gaussian, Inc.
  
 This software contains proprietary and confidential information,
 including trade secrets, belonging to Gaussian, Inc.
  
 This software is provided under written license and may be
 used, copied, transmitted, or stored only in accord with that
 written license.
  
 The following legend is applicable only to US Government
 contracts under FAR:
  
                    RESTRICTED RIGHTS LEGEND
  
 Use, reproduction and disclosure by the US Government is
 subject to restrictions as set forth in subparagraphs (a)
 and (c) of the Commercial Computer Software - Restricted
 Rights clause in FAR 52.227-19.
  
 Gaussian, Inc.
 340 Quinnipiac St., Bldg. 40, Wallingford CT 06492
  
  
 ---------------------------------------------------------------
 Warning -- This program may not be used in any manner that
 competes with the business of Gaussian, Inc. or will provide
 assistance to any competitor of Gaussian, Inc.  The licensee
 of this program is prohibited from giving any competitor of
 Gaussian, Inc. access to this program.  By using this program,
 the user acknowledges that Gaussian, Inc. is engaged in the
 business of creating and licensing software in the field of
 computational chemistry and represents and warrants to the
 licensee that it is not a competitor of Gaussian, Inc. and that
 it will not use this program in any manner prohibited above.
 ---------------------------------------------------------------
  

 Cite this work as:
 Gaussian 09, Revision D.01,
 M. J. Frisch, G. W. Trucks, H. B. Schlegel, G. E. Scuseria, 
 M. A. Robb, J. R. Cheeseman, G. Scalmani, V. Barone, B. Mennucci, 
 G. A. Petersson, H. Nakatsuji, M. Caricato, X. Li, H. P. Hratchian, 
 A. F. Izmaylov, J. Bloino, G. Zheng, J. L. Sonnenberg, M. Hada, 
 M. Ehara, K. Toyota, R. Fukuda, J. Hasegawa, M. Ishida, T. Nakajima, 
 Y. Honda, O. Kitao, H. Nakai, T. Vreven, J. A. Montgomery, Jr., 
 J. E. Peralta, F. Ogliaro, M. Bearpark, J. J. Heyd, E. Brothers, 
 K. N. Kudin, V. N. Staroverov, T. Keith, R. Kobayashi, J. Normand, 
 K. Raghavachari, A. Rendell, J. C. Burant, S. S. Iyengar, J. Tomasi, 
 M. Cossi, N. Rega, J. M. Millam, M. Klene, J. E. Knox, J. B. Cross, 
 V. Bakken, C. Adamo, J. Jaramillo, R. Gomperts, R. E. Stratmann, 
 O. Yazyev, A. J. Austin, R. Cammi, C. Pomelli, J. W. Ochterski, 
 R. L. Martin, K. Morokuma, V. G. Zakrzewski, G. A. Voth, 
 P. Salvador, J. J. Dannenberg, S. Dapprich, A. D. Daniels, 
 O. Farkas, J. B. Foresman, J. V. Ortiz, J. Cioslowski, 
 and D. J. Fox, Gaussian, Inc., Wallingford CT, 2013.
 
 ******************************************
 Gaussian 09:  AM64L-G09RevD.01 24-Apr-2013
                 6-Aug-2020 
 ******************************************
 %nproc=1
 Will use up to    1 processors via shared memory.
 %Chk=SM43.n.8.pdb.xyz.mst.n.w.chk
 %subst l502 /dades/curu/work_g09D01_MST_AddSphPartition_ReadGammas/exe-dir/
 ----------------------------------------------------------------------
 #p b3lyp/6-31G(d) scrf=(iefpcm,read,solvent=Water) geom=allcheck guess
 =read
 ----------------------------------------------------------------------
 1/29=7,38=1,40=2/1;
 2/12=2,40=1/2;
 3/5=1,6=6,7=1,11=2,14=-4,16=1,25=1,30=1,70=2203,72=1,74=-5,116=-2/1,2,3;
 4/5=1/1;
 5/5=2,38=6,53=1/2;
 6/7=2,8=2,9=2,10=2,28=1/1;
 99/5=1,9=1/99;
 Leave Link    1 at Thu Aug  6 21:59:45 2020, MaxMem=           0 cpu:         0.0
 (Enter /prod/apps/gaussian/g09d1/l101.exe)
 Structure from the checkpoint file:  "SM43.n.8.pdb.xyz.mst.n.w.chk"
 ----------------
 SM43.n.8.pdb.xyz
 ----------------
 Charge =  0 Multiplicity = 1
 Z-Matrix found in file.
 O,0,1.136,-3.552,1.896
 S,0,2.322,-2.836,1.428
 N,0,2.328,-1.245,2.047
 C,0,1.73,-0.863,3.244
 N,0,1.683,-1.662,4.293
 O,0,1.049,-0.904,5.291
 C,0,0.752,0.327,4.808
 C,0,0.091,1.261,5.712
 C,0,-0.237,2.554,5.272
 C,0,-0.867,3.448,6.132
 C,0,-1.176,3.065,7.44
 C,0,-0.852,1.781,7.884
 C,0,-0.222,0.882,7.027
 C,0,1.16,0.414,3.506
 N,0,3.646,-3.632,2.021
 C,0,4.945,-3.01,1.728
 C,0,3.546,-4.273,3.342
 O,0,2.547,-2.613,-0.001
 H,0,2.254,-0.566,1.292
 H,0,0.002,2.856,4.258
 H,0,-1.116,4.444,5.783
 H,0,-1.667,3.763,8.109
 H,0,-1.09,1.478,8.898
 H,0,0.03,-0.115,7.369
 H,0,1.071,1.245,2.826
 H,0,4.955,-2.658,0.698
 H,0,5.71,-3.78,1.844
 H,0,5.164,-2.179,2.407
 H,0,2.579,-4.762,3.433
 H,0,3.679,-3.559,4.16
 H,0,4.334,-5.028,3.386
 Recover connectivity data from disk.
 NAtoms=     31 NQM=       31 NQMF=       0 NMMI=      0 NMMIF=      0
                NMic=       0 NMicF=      0.
                    Isotopes and Nuclear Properties:
 (Nuclear quadrupole moments (NQMom) in fm**2, nuclear magnetic moments (NMagM)
  in nuclear magnetons)

  Atom         1           2           3           4           5           6           7           8           9          10
 IAtWgt=          16          32          14          12          14          16          12          12          12          12
 AtmWgt=  15.9949146  31.9720718  14.0030740  12.0000000  14.0030740  15.9949146  12.0000000  12.0000000  12.0000000  12.0000000
 NucSpn=           0           0           2           0           2           0           0           0           0           0
 AtZEff=  -5.6000000 -13.6000000  -4.5500000  -3.6000000  -4.5500000  -5.6000000  -3.6000000  -3.6000000  -3.6000000  -3.6000000
 NQMom=    0.0000000   0.0000000   2.0440000   0.0000000   2.0440000   0.0000000   0.0000000   0.0000000   0.0000000   0.0000000
 NMagM=    0.0000000   0.0000000   0.4037610   0.0000000   0.4037610   0.0000000   0.0000000   0.0000000   0.0000000   0.0000000
 AtZNuc=   8.0000000  16.0000000   7.0000000   6.0000000   7.0000000   8.0000000   6.0000000   6.0000000   6.0000000   6.0000000

  Atom        11          12          13          14          15          16          17          18          19          20
 IAtWgt=          12          12          12          12          14          12          12          16           1           1
 AtmWgt=  12.0000000  12.0000000  12.0000000  12.0000000  14.0030740  12.0000000  12.0000000  15.9949146   1.0078250   1.0078250
 NucSpn=           0           0           0           0           2           0           0           0           1           1
 AtZEff=  -3.6000000  -3.6000000  -3.6000000  -3.6000000  -4.5500000  -3.6000000  -3.6000000  -5.6000000  -1.0000000  -1.0000000
 NQMom=    0.0000000   0.0000000   0.0000000   0.0000000   2.0440000   0.0000000   0.0000000   0.0000000   0.0000000   0.0000000
 NMagM=    0.0000000   0.0000000   0.0000000   0.0000000   0.4037610   0.0000000   0.0000000   0.0000000   2.7928460   2.7928460
 AtZNuc=   6.0000000   6.0000000   6.0000000   6.0000000   7.0000000   6.0000000   6.0000000   8.0000000   1.0000000   1.0000000

  Atom        21          22          23          24          25          26          27          28          29          30
 IAtWgt=           1           1           1           1           1           1           1           1           1           1
 AtmWgt=   1.0078250   1.0078250   1.0078250   1.0078250   1.0078250   1.0078250   1.0078250   1.0078250   1.0078250   1.0078250
 NucSpn=           1           1           1           1           1           1           1           1           1           1
 AtZEff=  -1.0000000  -1.0000000  -1.0000000  -1.0000000  -1.0000000  -1.0000000  -1.0000000  -1.0000000  -1.0000000  -1.0000000
 NQMom=    0.0000000   0.0000000   0.0000000   0.0000000   0.0000000   0.0000000   0.0000000   0.0000000   0.0000000   0.0000000
 NMagM=    2.7928460   2.7928460   2.7928460   2.7928460   2.7928460   2.7928460   2.7928460   2.7928460   2.7928460   2.7928460
 AtZNuc=   1.0000000   1.0000000   1.0000000   1.0000000   1.0000000   1.0000000   1.0000000   1.0000000   1.0000000   1.0000000

  Atom        31
 IAtWgt=           1
 AtmWgt=   1.0078250
 NucSpn=           1
 AtZEff=  -1.0000000
 NQMom=    0.0000000
 NMagM=    2.7928460
 AtZNuc=   1.0000000
 Leave Link  101 at Thu Aug  6 21:59:45 2020, MaxMem=    33554432 cpu:         0.1
 (Enter /prod/apps/gaussian/g09d1/l202.exe)
                          Input orientation:                          
 ---------------------------------------------------------------------
 Center     Atomic      Atomic             Coordinates (Angstroms)
 Number     Number       Type             X           Y           Z
 ---------------------------------------------------------------------
      1          8           0        1.136000   -3.552000    1.896000
      2         16           0        2.322000   -2.836000    1.428000
      3          7           0        2.328000   -1.245000    2.047000
      4          6           0        1.730000   -0.863000    3.244000
      5          7           0        1.683000   -1.662000    4.293000
      6          8           0        1.049000   -0.904000    5.291000
      7          6           0        0.752000    0.327000    4.808000
      8          6           0        0.091000    1.261000    5.712000
      9          6           0       -0.237000    2.554000    5.272000
     10          6           0       -0.867000    3.448000    6.132000
     11          6           0       -1.176000    3.065000    7.440000
     12          6           0       -0.852000    1.781000    7.884000
     13          6           0       -0.222000    0.882000    7.027000
     14          6           0        1.160000    0.414000    3.506000
     15          7           0        3.646000   -3.632000    2.021000
     16          6           0        4.945000   -3.010000    1.728000
     17          6           0        3.546000   -4.273000    3.342000
     18          8           0        2.547000   -2.613000   -0.001000
     19          1           0        2.254000   -0.566000    1.292000
     20          1           0        0.002000    2.856000    4.258000
     21          1           0       -1.116000    4.444000    5.783000
     22          1           0       -1.667000    3.763000    8.109000
     23          1           0       -1.090000    1.478000    8.898000
     24          1           0        0.030000   -0.115000    7.369000
     25          1           0        1.071000    1.245000    2.826000
     26          1           0        4.955000   -2.658000    0.698000
     27          1           0        5.710000   -3.780000    1.844000
     28          1           0        5.164000   -2.179000    2.407000
     29          1           0        2.579000   -4.762000    3.433000
     30          1           0        3.679000   -3.559000    4.160000
     31          1           0        4.334000   -5.028000    3.386000
 ---------------------------------------------------------------------
                    Distance matrix (angstroms):
                    1          2          3          4          5
     1  O    0.000000
     2  S    1.462285   0.000000
     3  N    2.601137   1.707184   0.000000
     4  C    3.066050   2.746097   1.391523   0.000000
     5  N    3.101116   3.161459   2.373695   1.319474   0.000000
     6  O    4.306448   4.502879   3.503664   2.157696   1.404466
     7  C    4.865577   4.888136   3.546559   2.195149   2.255683
     8  C    6.230478   6.333674   4.971562   3.645370   3.618281
     9  C    7.110959   7.097670   5.604663   4.433707   4.734923
    10  C    8.423521   8.472662   6.994248   5.802558   5.999710
    11  C    8.936776   9.121510   7.742000   6.440531   6.357831
    12  C    8.261306   8.548152   7.303400   5.931868   5.583525
    13  C    6.916045   7.186394   5.985568   4.600698   4.192340
    14  C    4.280401   4.028750   2.499037   1.422769   2.280937
    15  N    2.514384   1.654763   2.726824   3.582478   3.591135
    16  C    3.851035   2.645828   3.172645   4.152600   4.363138
    17  C    2.901527   2.688223   3.511315   3.864655   3.345518
    18  O    2.543865   1.463692   2.472588   3.776243   4.482113
    19  H    3.245140   2.275087   1.018107   2.042814   3.245498
    20  H    6.922966   6.766843   5.207398   4.224351   4.820717
    21  H    9.171493   9.153375   7.627814   6.535326   6.880243
    22  H    9.998370  10.202680   8.819747   7.523810   7.430678
    23  H    8.904155   9.276489   8.126109   6.737982   6.225364
    24  H    6.556671   6.924781   5.906047   4.523840   3.819345
    25  H    4.886751   4.491544   2.896030   2.247814   3.313198
    26  H    4.101122   2.738115   3.273759   4.483834   4.962059
    27  H    4.579974   3.541573   4.231472   5.129258   5.167229
    28  H    4.286144   3.076858   3.007466   3.771575   3.992699
    29  H    2.430785   2.792051   3.788573   3.994837   3.339523
    30  H    3.404790   3.134964   3.412414   3.450518   2.756867
    31  H    3.824380   3.561850   4.486429   4.914082   4.379544
                    6          7          8          9         10
     6  O    0.000000
     7  C    1.355308   0.000000
     8  C    2.404627   1.458250   0.000000
     9  C    3.689434   2.480513   1.404647   0.000000
    10  C    4.828896   3.756964   2.424280   1.391307   0.000000
    11  C    5.032076   4.259255   2.801016   2.417243   1.397510
    12  C    4.188875   3.761477   2.424301   2.792543   2.418392
    13  C    2.796236   2.486094   1.403864   2.424012   2.793100
    14  C    2.221637   1.367200   2.593570   3.106439   4.495527
    15  N    4.987915   5.640593   7.085404   7.994579   9.348470
    16  C    5.684102   6.180875   7.594407   8.388752   9.740653
    17  C    4.624259   5.578135   6.941115   8.040144   9.320542
    18  O    5.759336   5.915413   7.326539   7.890062   9.273878
    19  H    4.190259   3.926284   5.249085   5.637365   7.019860
    20  H    4.037437   2.694595   2.160107   1.084676   2.148837
    21  H    5.790543   4.624904   3.404905   2.146127   1.084351
    22  H    6.090868   5.343618   3.885380   3.399287   2.155865
    23  H    4.822830   4.630968   3.404768   3.877275   3.403143
    24  H    2.445192   2.697289   2.154703   3.404741   3.876822
    25  H    3.270307   2.207444   3.047893   3.067126   4.420259
    26  H    6.279252   6.592991   8.009822   8.662753  10.035301
    27  H    6.471330   7.087631   8.482114   9.340104  10.671825
    28  H    5.184236   5.613429   6.963616   7.731773   9.050509
    29  H    4.547222   5.579111   6.903659   8.052058   9.303957
    30  H    3.904496   4.907976   6.206033   7.344411   8.582130
    31  H    5.606035   6.597638   7.935039   9.051948  10.316661
                   11         12         13         14         15
    11  C    0.000000
    12  C    1.396699   0.000000
    13  C    2.417886   1.392677   0.000000
    14  C    5.287821   5.008365   3.811350   0.000000
    15  N    9.872540   9.160095   7.771593   4.975494   0.000000
    16  C   10.344042   9.718808   8.362114   5.404747   1.469739
    17  C    9.640391   8.753461   7.372318   5.261926   1.471707
    18  O   10.073177   9.645396   8.323171   4.835861   2.516872
    19  H    7.921298   7.655724   6.412293   2.656884   3.445208
    20  H    3.399484   3.877218   3.407963   2.805322   7.770267
    21  H    2.156592   3.402274   3.877450   5.158082  10.102033
    22  H    1.084364   2.154803   3.399840   6.355733  10.953435
    23  H    2.156787   1.084735   2.146924   5.938709   9.789531
    24  H    3.401746   2.153594   1.083733   4.059496   7.351588
    25  H    5.445219   5.437701   4.410444   1.077442   5.573489
    26  H   10.760876  10.250101   8.910060   5.632413   2.100592
    27  H   11.206527  10.510289   9.153489   6.407369   2.076856
    28  H    9.645010   9.048281   7.728073   4.895249   2.136476
    29  H    9.561276   8.625196   7.253770   5.367482   2.099794
    30  H    8.843461   7.931818   6.569625   4.749506   2.140500
    31  H   10.596776   9.668975   8.303139   6.301114   2.070117
                   16         17         18         19         20
    16  C    0.000000
    17  C    2.481404   0.000000
    18  O    2.982860   3.863839   0.000000
    19  H    3.661245   4.428726   2.438833   0.000000
    20  H    8.077382   8.013840   7.384177   5.057543   0.000000
    21  H   10.427889  10.182279   9.832267   7.525030   2.469270
    22  H   11.415307  10.699390  11.143755   8.976969   4.293997
    23  H   10.390971   9.243140  10.447787   8.556372   4.961950
    24  H    8.022414   6.772588   8.178765   6.486872   4.301854
    25  H    5.858200   6.069613   5.005464   2.651861   2.405973
    26  H    1.088533   3.403563   2.507806   3.467665   8.222530
    27  H    1.091596   2.677676   3.843239   4.751677   9.079931
    28  H    1.095246   2.806597   3.582668   3.509002   7.444708
    29  H    3.402129   1.087424   4.051121   4.721856   8.084273
    30  H    2.796208   1.093896   4.414778   4.383389   7.394739
    31  H    2.682277   1.092202   4.527401   5.349830   9.037924
                   21         22         23         24         25
    21  H    0.000000
    22  H    2.485485   0.000000
    23  H    4.301286   2.485292   0.000000
    24  H    4.961169   4.297242   2.475861   0.000000
    25  H    4.874466   6.461196   6.449294   4.855114   0.000000
    26  H   10.637324  11.832288  10.994932   8.673218   5.903156
    27  H   11.390530  12.270583  11.119599   8.730421   6.909072
    28  H    9.731388  10.699660   9.727242   7.432328   5.352755
    29  H   10.194408  10.609859   9.070027   6.601826   6.223067
    30  H    9.469644   9.888680   8.400201   5.956007   5.626690
    31  H   11.187801  11.644759  10.105937   7.650247   7.093046
                   26         27         28         29         30
    26  H    0.000000
    27  H    1.772632   0.000000
    28  H    1.787121   1.782775   0.000000
    29  H    4.189560   3.645875   3.795628   0.000000
    30  H    3.798081   3.088310   2.680044   1.784864   0.000000
    31  H    3.637016   2.414258   3.124763   1.775666   1.784954
                   31
    31  H    0.000000
 Stoichiometry    C11H13N3O3S
 Framework group  C1[X(C11H13N3O3S)]
 Deg. of freedom    87
 Full point group                 C1      NOp   1
 RotChk:  IX=0 Diff= 1.86D-15
 Largest Abelian subgroup         C1      NOp   1
 Largest concise Abelian subgroup C1      NOp   1
                         Standard orientation:                         
 ---------------------------------------------------------------------
 Center     Atomic      Atomic             Coordinates (Angstroms)
 Number     Number       Type             X           Y           Z
 ---------------------------------------------------------------------
      1          8           0       -2.742886    0.053761   -1.818881
      2         16           0       -3.089273   -0.523010   -0.520563
      3          7           0       -1.672377   -0.986677    0.311240
      4          6           0       -0.427836   -0.387570    0.142351
[...]
 Alpha virt. eigenvalues --    0.83137   0.83565   0.84632   0.84981   0.85804
 Alpha virt. eigenvalues --    0.86816   0.87126   0.88298   0.89403   0.90250
 Alpha virt. eigenvalues --    0.90546   0.91124   0.92633   0.93091   0.94126
 Alpha virt. eigenvalues --    0.94684   0.95271   0.96436   0.96769   0.98072
 Alpha virt. eigenvalues --    1.00779   1.00990   1.02564   1.03846   1.04502
 Alpha virt. eigenvalues --    1.06491   1.07059   1.09384   1.10449   1.13273
 Alpha virt. eigenvalues --    1.13565   1.14787   1.16885   1.17712   1.18660
 Alpha virt. eigenvalues --    1.20377   1.22668   1.24142   1.26363   1.29246
 Alpha virt. eigenvalues --    1.29804   1.31488   1.32539   1.34955   1.35899
 Alpha virt. eigenvalues --    1.37339   1.41328   1.41768   1.42347   1.43755
 Alpha virt. eigenvalues --    1.45595   1.47075   1.47512   1.48195   1.48542
 Alpha virt. eigenvalues --    1.50033   1.50237   1.53587   1.55850   1.58214
 Alpha virt. eigenvalues --    1.61661   1.67227   1.71081   1.72192   1.76570
 Alpha virt. eigenvalues --    1.77709   1.78394   1.78947   1.80083   1.80418
 Alpha virt. eigenvalues --    1.81782   1.84231   1.86235   1.88330   1.88851
 Alpha virt. eigenvalues --    1.91832   1.92600   1.93915   1.95698   1.96319
 Alpha virt. eigenvalues --    1.96628   1.97316   1.97687   1.99865   2.00279
 Alpha virt. eigenvalues --    2.04258   2.05013   2.06518   2.09455   2.10317
 Alpha virt. eigenvalues --    2.11125   2.11382   2.12877   2.13219   2.14460
 Alpha virt. eigenvalues --    2.17751   2.19269   2.21044   2.22163   2.23207
 Alpha virt. eigenvalues --    2.24467   2.25476   2.27071   2.27873   2.29668
 Alpha virt. eigenvalues --    2.30015   2.32986   2.34891   2.35121   2.42272
 Alpha virt. eigenvalues --    2.43117   2.48259   2.50965   2.53092   2.53369
 Alpha virt. eigenvalues --    2.56918   2.58125   2.59254   2.60138   2.62495
 Alpha virt. eigenvalues --    2.66038   2.66587   2.70898   2.71959   2.73670
 Alpha virt. eigenvalues --    2.74204   2.74874   2.77410   2.82991   2.87638
 Alpha virt. eigenvalues --    2.89068   2.92461   3.02706   3.05789   3.12988
 Alpha virt. eigenvalues --    3.27165   3.42770   3.70865   3.81789   3.98340
 Alpha virt. eigenvalues --    4.00677   4.04527   4.07656   4.08975   4.10790
 Alpha virt. eigenvalues --    4.12513   4.16510   4.23249   4.29562   4.31648
 Alpha virt. eigenvalues --    4.32565   4.38175   4.40703   4.56993   4.74098
          Condensed to atoms (all electrons):
               1          2          3          4          5          6
     1  O    8.249788   0.443018  -0.055590   0.008651  -0.002442   0.000011
     2  S    0.443018  13.502405   0.119418  -0.013243   0.005911  -0.000246
     3  N   -0.055590   0.119418   7.453327   0.235384  -0.073865   0.005335
     4  C    0.008651  -0.013243   0.235384   4.479056   0.397257  -0.035755
     5  N   -0.002442   0.005911  -0.073865   0.397257   6.953803   0.110046
     6  O    0.000011  -0.000246   0.005335  -0.035755   0.110046   8.215235
     7  C    0.000006   0.000228  -0.000066  -0.019675  -0.081541   0.245330
     8  C    0.000000  -0.000011  -0.000211   0.002827   0.004134  -0.037612
     9  C    0.000000   0.000000   0.000003   0.000613  -0.000100   0.003132
    10  C    0.000000   0.000000   0.000000  -0.000007   0.000001  -0.000061
    11  C    0.000000   0.000000   0.000000   0.000000   0.000000   0.000002
    12  C    0.000000   0.000000   0.000000   0.000005   0.000000   0.000285
    13  C    0.000000   0.000000  -0.000001  -0.000346   0.000138  -0.006723
    14  C    0.000093   0.001185  -0.054164   0.451853  -0.045188  -0.091899
    15  N   -0.053402   0.195628  -0.056553  -0.005721   0.001040   0.000006
    16  C    0.001544  -0.017721   0.002143   0.000361  -0.000159   0.000000
    17  C   -0.004869  -0.018768   0.000118   0.001023  -0.003563   0.000021
    18  O   -0.040452   0.460928  -0.055857   0.001326  -0.000008   0.000000
    19  H    0.000209  -0.009442   0.300741  -0.017553   0.002774  -0.000061
    20  H    0.000000   0.000000  -0.000001   0.000079  -0.000005   0.000024
    21  H    0.000000   0.000000   0.000000   0.000000   0.000000   0.000000
    22  H    0.000000   0.000000   0.000000   0.000000   0.000000   0.000000
    23  H    0.000000   0.000000   0.000000   0.000000   0.000000  -0.000003
    24  H    0.000000   0.000000   0.000000   0.000055  -0.000256   0.009772
    25  H    0.000001  -0.000141  -0.002054  -0.026923   0.004788   0.003317
    26  H    0.000054   0.003238  -0.001551  -0.000014   0.000003   0.000000
    27  H   -0.000049   0.002597   0.000016  -0.000025   0.000000   0.000000
    28  H   -0.000021  -0.009686   0.005990   0.001026  -0.000114  -0.000001
    29  H    0.010184  -0.003573   0.000015  -0.000091   0.000033   0.000002
    30  H   -0.000147  -0.007655   0.001531   0.001483   0.007718  -0.000172
    31  H    0.000148   0.003273  -0.000138  -0.000046   0.000185   0.000000
               7          8          9         10         11         12
     1  O    0.000006   0.000000   0.000000   0.000000   0.000000   0.000000
     2  S    0.000228  -0.000011   0.000000   0.000000   0.000000   0.000000
     3  N   -0.000066  -0.000211   0.000003   0.000000   0.000000   0.000000
     4  C   -0.019675   0.002827   0.000613  -0.000007   0.000000   0.000005
     5  N   -0.081541   0.004134  -0.000100   0.000001   0.000000   0.000000
     6  O    0.245330  -0.037612   0.003132  -0.000061   0.000002   0.000285
     7  C    4.723260   0.346733  -0.042419   0.006337   0.000861   0.004734
     8  C    0.346733   4.784858   0.535915  -0.011304  -0.033860  -0.009798
     9  C   -0.042419   0.535915   5.014858   0.519158  -0.040147  -0.041446
    10  C    0.006337  -0.011304   0.519158   4.882296   0.539940  -0.026158
    11  C    0.000861  -0.033860  -0.040147   0.539940   4.874532   0.539084
    12  C    0.004734  -0.009798  -0.041446  -0.026158   0.539084   4.891314
    13  C   -0.041658   0.472491  -0.082064  -0.042176  -0.038034   0.505825
    14  C    0.510369  -0.056984  -0.019971   0.000218   0.000015  -0.000229
    15  N   -0.000004   0.000000   0.000000   0.000000   0.000000   0.000000
    16  C    0.000000   0.000000   0.000000   0.000000   0.000000   0.000000
    17  C   -0.000001   0.000000   0.000000   0.000000   0.000000   0.000000
    18  O    0.000000   0.000000   0.000000   0.000000   0.000000   0.000000
    19  H    0.000011  -0.000002   0.000000   0.000000   0.000000   0.000000
    20  H   -0.012457  -0.037061   0.357043  -0.041196   0.004492   0.000172
    21  H   -0.000203   0.003218  -0.037270   0.363106  -0.040636   0.004374
    22  H    0.000003   0.000491   0.004818  -0.041493   0.364576  -0.041389
    23  H   -0.000172   0.003216   0.000767   0.004386  -0.040701   0.363551
    24  H   -0.012875  -0.042940   0.005300   0.000204   0.004554  -0.040796
    25  H   -0.025977  -0.003274   0.001176   0.000086  -0.000001   0.000002
    26  H    0.000000   0.000000   0.000000   0.000000   0.000000   0.000000
    27  H    0.000000   0.000000   0.000000   0.000000   0.000000   0.000000
    28  H    0.000001   0.000000   0.000000   0.000000   0.000000   0.000000
    29  H    0.000000   0.000000   0.000000   0.000000   0.000000   0.000000
    30  H    0.000017   0.000000   0.000000   0.000000   0.000000   0.000000
    31  H    0.000000   0.000000   0.000000   0.000000   0.000000   0.000000
              13         14         15         16         17         18
     1  O    0.000000   0.000093  -0.053402   0.001544  -0.004869  -0.040452
     2  S    0.000000   0.001185   0.195628  -0.017721  -0.018768   0.460928
     3  N   -0.000001  -0.054164  -0.056553   0.002143   0.000118  -0.055857
     4  C   -0.000346   0.451853  -0.005721   0.000361   0.001023   0.001326
     5  N    0.000138  -0.045188   0.001040  -0.000159  -0.003563  -0.000008
     6  O   -0.006723  -0.091899   0.000006   0.000000   0.000021   0.000000
     7  C   -0.041658   0.510369  -0.000004   0.000000  -0.000001   0.000000
     8  C    0.472491  -0.056984   0.000000   0.000000   0.000000   0.000000
     9  C   -0.082064  -0.019971   0.000000   0.000000   0.000000   0.000000
    10  C   -0.042176   0.000218   0.000000   0.000000   0.000000   0.000000
    11  C   -0.038034   0.000015   0.000000   0.000000   0.000000   0.000000
    12  C    0.505825  -0.000229   0.000000   0.000000   0.000000   0.000000
    13  C    5.060782   0.011853   0.000000   0.000000   0.000000   0.000000
    14  C    0.011853   5.239244  -0.000107  -0.000005   0.000012  -0.000066
    15  N    0.000000  -0.000107   7.177325   0.267388   0.267809  -0.056229
    16  C    0.000000  -0.000005   0.267388   5.000984  -0.047097  -0.007347
    17  C    0.000000   0.000012   0.267809  -0.047097   5.002767   0.001369
    18  O    0.000000  -0.000066  -0.056229  -0.007347   0.001369   8.262562
    19  H    0.000000  -0.004304   0.001565  -0.000209  -0.000021   0.004591
    20  H    0.005621   0.005984   0.000000   0.000000   0.000000   0.000000
    21  H    0.000789  -0.000001   0.000000   0.000000   0.000000   0.000000
    22  H    0.004682   0.000000   0.000000   0.000000   0.000000   0.000000
    23  H   -0.037353   0.000001   0.000000   0.000000   0.000000   0.000000
    24  H    0.362813   0.000263   0.000000   0.000000   0.000000   0.000000
    25  H   -0.000105   0.353027   0.000000   0.000000   0.000000  -0.000001
    26  H    0.000000   0.000001  -0.034493   0.374505   0.004274   0.009843
    27  H    0.000000   0.000000  -0.033335   0.377645  -0.003788   0.000047
    28  H    0.000000   0.000010  -0.046312   0.377489  -0.000623  -0.000204
    29  H    0.000000  -0.000002  -0.030888   0.004244   0.377969   0.000036
    30  H    0.000000   0.000065  -0.044096  -0.000662   0.372282  -0.000071
    31  H    0.000000   0.000000  -0.035758  -0.004006   0.373113  -0.000045
              19         20         21         22         23         24
     1  O    0.000209   0.000000   0.000000   0.000000   0.000000   0.000000
     2  S   -0.009442   0.000000   0.000000   0.000000   0.000000   0.000000
     3  N    0.300741  -0.000001   0.000000   0.000000   0.000000   0.000000
     4  C   -0.017553   0.000079   0.000000   0.000000   0.000000   0.000055
     5  N    0.002774  -0.000005   0.000000   0.000000   0.000000  -0.000256
     6  O   -0.000061   0.000024   0.000000   0.000000  -0.000003   0.009772
     7  C    0.000011  -0.012457  -0.000203   0.000003  -0.000172  -0.012875
     8  C   -0.000002  -0.037061   0.003218   0.000491   0.003216  -0.042940
     9  C    0.000000   0.357043  -0.037270   0.004818   0.000767   0.005300
    10  C    0.000000  -0.041196   0.363106  -0.041493   0.004386   0.000204
    11  C    0.000000   0.004492  -0.040636   0.364576  -0.040701   0.004554
    12  C    0.000000   0.000172   0.004374  -0.041389   0.363551  -0.040796
    13  C    0.000000   0.005621   0.000789   0.004682  -0.037353   0.362813
    14  C   -0.004304   0.005984  -0.000001   0.000000   0.000001   0.000263
    15  N    0.001565   0.000000   0.000000   0.000000   0.000000   0.000000
    16  C   -0.000209   0.000000   0.000000   0.000000   0.000000   0.000000
    17  C   -0.000021   0.000000   0.000000   0.000000   0.000000   0.000000
    18  O    0.004591   0.000000   0.000000   0.000000   0.000000   0.000000
    19  H    0.293012   0.000000   0.000000   0.000000   0.000000   0.000000
    20  H    0.000000   0.555392  -0.004847  -0.000155   0.000015  -0.000138
    21  H    0.000000  -0.004847   0.556228  -0.005093  -0.000161   0.000015
    22  H    0.000000  -0.000155  -0.005093   0.559583  -0.005072  -0.000151
    23  H    0.000000   0.000015  -0.000161  -0.005072   0.556338  -0.004882
    24  H    0.000000  -0.000138   0.000015  -0.000151  -0.004882   0.553362
    25  H    0.001753   0.001902  -0.000002   0.000000   0.000000  -0.000008
    26  H   -0.000021   0.000000   0.000000   0.000000   0.000000   0.000000
    27  H    0.000007   0.000000   0.000000   0.000000   0.000000   0.000000
    28  H   -0.000194   0.000000   0.000000   0.000000   0.000000   0.000000
    29  H   -0.000001   0.000000   0.000000   0.000000   0.000000   0.000000
    30  H   -0.000029   0.000000   0.000000   0.000000   0.000000   0.000000
    31  H    0.000002   0.000000   0.000000   0.000000   0.000000   0.000000
              25         26         27         28         29         30
     1  O    0.000001   0.000054  -0.000049  -0.000021   0.010184  -0.000147
     2  S   -0.000141   0.003238   0.002597  -0.009686  -0.003573  -0.007655
     3  N   -0.002054  -0.001551   0.000016   0.005990   0.000015   0.001531
     4  C   -0.026923  -0.000014  -0.000025   0.001026  -0.000091   0.001483
     5  N    0.004788   0.000003   0.000000  -0.000114   0.000033   0.007718
     6  O    0.003317   0.000000   0.000000  -0.000001   0.000002  -0.000172
     7  C   -0.025977   0.000000   0.000000   0.000001   0.000000   0.000017
     8  C   -0.003274   0.000000   0.000000   0.000000   0.000000   0.000000
     9  C    0.001176   0.000000   0.000000   0.000000   0.000000   0.000000
    10  C    0.000086   0.000000   0.000000   0.000000   0.000000   0.000000
    11  C   -0.000001   0.000000   0.000000   0.000000   0.000000   0.000000
    12  C    0.000002   0.000000   0.000000   0.000000   0.000000   0.000000
    13  C   -0.000105   0.000000   0.000000   0.000000   0.000000   0.000000
    14  C    0.353027   0.000001   0.000000   0.000010  -0.000002   0.000065
    15  N    0.000000  -0.034493  -0.033335  -0.046312  -0.030888  -0.044096
    16  C    0.000000   0.374505   0.377645   0.377489   0.004244  -0.000662
    17  C    0.000000   0.004274  -0.003788  -0.000623   0.377969   0.372282
    18  O   -0.000001   0.009843   0.000047  -0.000204   0.000036  -0.000071
    19  H    0.001753  -0.000021   0.000007  -0.000194  -0.000001  -0.000029
    20  H    0.001902   0.000000   0.000000   0.000000   0.000000   0.000000
    21  H   -0.000002   0.000000   0.000000   0.000000   0.000000   0.000000
    22  H    0.000000   0.000000   0.000000   0.000000   0.000000   0.000000
    23  H    0.000000   0.000000   0.000000   0.000000   0.000000   0.000000
    24  H   -0.000008   0.000000   0.000000   0.000000   0.000000   0.000000
    25  H    0.496495   0.000000   0.000000   0.000000   0.000000  -0.000001
    26  H    0.000000   0.497849  -0.021288  -0.029551  -0.000191  -0.000160
    27  H    0.000000  -0.021288   0.517476  -0.034291   0.000027  -0.001299
    28  H    0.000000  -0.029551  -0.034291   0.553805  -0.000151   0.006701
    29  H    0.000000  -0.000191   0.000027  -0.000151   0.495245  -0.028058
    30  H   -0.000001  -0.000160  -0.001299   0.006701  -0.028058   0.547226
    31  H    0.000000   0.000028   0.004987  -0.001373  -0.021704  -0.034288
              31
     1  O    0.000148
     2  S    0.003273
     3  N   -0.000138
     4  C   -0.000046
     5  N    0.000185
     6  O    0.000000
     7  C    0.000000
     8  C    0.000000
     9  C    0.000000
    10  C    0.000000
    11  C    0.000000
    12  C    0.000000
    13  C    0.000000
    14  C    0.000000
    15  N   -0.035758
    16  C   -0.004006
    17  C    0.373113
    18  O   -0.000045
    19  H    0.000002
    20  H    0.000000
    21  H    0.000000
    22  H    0.000000
    23  H    0.000000
    24  H    0.000000
    25  H    0.000000
    26  H    0.000028
    27  H    0.004987
    28  H   -0.001373
    29  H   -0.021704
    30  H   -0.034288
    31  H    0.530068
 Mulliken charges:
               1
     1  O   -0.556734
     2  S    1.342657
     3  N   -0.823969
     4  C    0.538398
     5  N   -0.280590
     6  O   -0.419987
     7  C    0.399159
     8  C    0.079172
     9  C   -0.179367
    10  C   -0.153336
    11  C   -0.134678
    12  C   -0.149530
    13  C   -0.176534
    14  C   -0.301273
    15  N   -0.513865
    16  C   -0.329097
    17  C   -0.322028
    18  O   -0.580421
    19  H    0.427170
    20  H    0.165135
    21  H    0.160483
    22  H    0.159201
    23  H    0.160070
    24  H    0.165708
    25  H    0.195939
    26  H    0.197475
    27  H    0.191272
    28  H    0.177501
    29  H    0.196905
    30  H    0.179613
    31  H    0.185552
 Sum of Mulliken charges =   0.00000
 Mulliken charges with hydrogens summed into heavy atoms:
               1
     1  O   -0.556734
     2  S    1.342657
     3  N   -0.396800
     4  C    0.538398
     5  N   -0.280590
     6  O   -0.419987
     7  C    0.399159
     8  C    0.079172
     9  C   -0.014232
    10  C    0.007147
    11  C    0.024523
    12  C    0.010540
    13  C   -0.010826
    14  C   -0.105334
    15  N   -0.513865
    16  C    0.237151
    17  C    0.240042
    18  O   -0.580421
 Electronic spatial extent (au):  <R**2>=           7157.6035
 Charge=              0.0000 electrons
 Dipole moment (field-independent basis, Debye):
    X=              4.5264    Y=             -1.3526    Z=              5.4023  Tot=              7.1765
 Quadrupole moment (field-independent basis, Debye-Ang):
   XX=            -96.8196   YY=           -100.7887   ZZ=           -116.1139
   XY=            -13.0210   XZ=            -16.0308   YZ=             -2.6990
 Traceless Quadrupole moment (field-independent basis, Debye-Ang):
   XX=              7.7544   YY=              3.7854   ZZ=            -11.5398
   XY=            -13.0210   XZ=            -16.0308   YZ=             -2.6990
 Octapole moment (field-independent basis, Debye-Ang**2):
  XXX=            120.7853  YYY=             -5.3021  ZZZ=              8.8221  XYY=              6.2893
  XXY=             54.4401  XXZ=             59.4749  XZZ=            -26.3859  YZZ=              0.9276
  YYZ=              6.3141  XYZ=             -7.2708
 Hexadecapole moment (field-independent basis, Debye-Ang**3):
 XXXX=          -7327.9256 YYYY=           -788.8221 ZZZZ=           -438.3986 XXXY=           -224.1661
 XXXZ=           -222.0590 YYYX=            -38.5009 YYYZ=            -21.0772 ZZZX=            -41.1309
 ZZZY=              4.8438 XXYY=          -1397.4311 XXZZ=          -1490.9847 YYZZ=           -212.6914
 XXYZ=            -42.6471 YYXZ=            -12.8553 ZZXY=              0.5403
 N-N= 1.446012898924D+03 E-N=-5.739477793762D+03  KE= 1.205904222731D+03
 No NMR shielding tensors so no spin-rotation constants.
 Leave Link  601 at Thu Aug  6 22:02:32 2020, MaxMem=    33554432 cpu:         0.2
 (Enter /prod/apps/gaussian/g09d1/l9999.exe)
 1\1\GINC-PIRINEUS25\SP\RB3LYP\6-31G(d)\C11H13N3O3S1\UBAFAR01\06-Aug-20
 20\0\\#p b3lyp/6-31G(d) scrf=(iefpcm,read,solvent=Water) geom=allcheck
  guess=read\\SM43.n.8.pdb.xyz\\0,1\O,0,1.136,-3.552,1.896\S,0,2.322,-2
 .836,1.428\N,0,2.328,-1.245,2.047\C,0,1.73,-0.863,3.244\N,0,1.683,-1.6
 62,4.293\O,0,1.049,-0.904,5.291\C,0,0.752,0.327,4.808\C,0,0.091,1.261,
 5.712\C,0,-0.237,2.554,5.272\C,0,-0.867,3.448,6.132\C,0,-1.176,3.065,7
 .44\C,0,-0.852,1.781,7.884\C,0,-0.222,0.882,7.027\C,0,1.16,0.414,3.506
 \N,0,3.646,-3.632,2.021\C,0,4.945,-3.01,1.728\C,0,3.546,-4.273,3.342\O
 ,0,2.547,-2.613,-0.001\H,0,2.254,-0.566,1.292\H,0,0.002,2.856,4.258\H,
 0,-1.116,4.444,5.783\H,0,-1.667,3.763,8.109\H,0,-1.09,1.478,8.898\H,0,
 0.03,-0.115,7.369\H,0,1.071,1.245,2.826\H,0,4.955,-2.658,0.698\H,0,5.7
 1,-3.78,1.844\H,0,5.164,-2.179,2.407\H,0,2.579,-4.762,3.433\H,0,3.679,
 -3.559,4.16\H,0,4.334,-5.028,3.386\\Version=AM64L-G09RevD.01\State=1-A
 \HF=-1215.0060885\RMSD=8.725e-09\Dipole=0.9611864,2.4681591,0.9778452\
 Quadrupole=5.0140731,3.115463,-8.1295361,-12.7176617,-6.8906806,-6.123
 021\PG=C01 [X(C11H13N3O3S1)]\\@



 WE LOSE BECAUSE WE WIN

 GAMBLERS,

 RECOLLECTING WHICH,

 TOSS THEIR DICE AGAIN....


                          EMILY DICKINSON  BOLTS OF MELODY NO. 533
 Job cpu time:       0 days  0 hours  2 minutes 47.1 seconds.
 File lengths (MBytes):  RWF=    153 Int=      0 D2E=      0 Chk=      6 Scr=      1
 Normal termination of Gaussian 09 at Thu Aug  6 22:02:32 2020.
