 Entering Gaussian System, Link 0=g09
 Initial command:
 /prod/apps/gaussian/g09d1/l1.exe "/tmp/ubafar01/1448652/Gau-126383.inp" -scrdir="/tmp/ubafar01/1448652/"
 Entering Link 1 = /prod/apps/gaussian/g09d1/l1.exe PID=    126385.
  
 Copyright (c) 1988,1990,1992,1993,1995,1998,2003,2009,2013,
            Gaussian, Inc.  All Rights Reserved.
  
 This is part of the Gaussian(R) 09 program.  It is based on
 the Gaussian(R) 03 system (copyright 2003, Gaussian, Inc.),
 the Gaussian(R) 98 system (copyright 1998, Gaussian, Inc.),
 the Gaussian(R) 94 system (copyright 1995, Gaussian, Inc.),
 the Gaussian 92(TM) system (copyright 1992, Gaussian, Inc.),
 the Gaussian 90(TM) system (copyright 1990, Gaussian, Inc.),
 the Gaussian 88(TM) system (copyright 1988, Gaussian, Inc.),
 the Gaussian 86(TM) system (copyright 1986, Carnegie Mellon
 University), and the Gaussian 82(TM) system (copyright 1983,
 Carnegie Mellon University). Gaussian is a federally registered
 trademark of Gaussian, Inc.
  
 This software contains proprietary and confidential information,
 including trade secrets, belonging to Gaussian, Inc.
  
 This software is provided under written license and may be
 used, copied, transmitted, or stored only in accord with that
 written license.
  
 The following legend is applicable only to US Government
 contracts under FAR:
  
                    RESTRICTED RIGHTS LEGEND
  
 Use, reproduction and disclosure by the US Government is
 subject to restrictions as set forth in subparagraphs (a)
 and (c) of the Commercial Computer Software - Restricted
 Rights clause in FAR 52.227-19.
  
 Gaussian, Inc.
 340 Quinnipiac St., Bldg. 40, Wallingford CT 06492
  
  
 ---------------------------------------------------------------
 Warning -- This program may not be used in any manner that
 competes with the business of Gaussian, Inc. or will provide
 assistance to any competitor of Gaussian, Inc.  The licensee
 of this program is prohibited from giving any competitor of
 Gaussian, Inc. access to this program.  By using this program,
 the user acknowledges that Gaussian, Inc. is engaged in the
 business of creating and licensing software in the field of
 computational chemistry and represents and warrants to the
 licensee that it is not a competitor of Gaussian, Inc. and that
 it will not use this program in any manner prohibited above.
 ---------------------------------------------------------------
  

 Cite this work as:
 Gaussian 09, Revision D.01,
 M. J. Frisch, G. W. Trucks, H. B. Schlegel, G. E. Scuseria, 
 M. A. Robb, J. R. Cheeseman, G. Scalmani, V. Barone, B. Mennucci, 
 G. A. Petersson, H. Nakatsuji, M. Caricato, X. Li, H. P. Hratchian, 
 A. F. Izmaylov, J. Bloino, G. Zheng, J. L. Sonnenberg, M. Hada, 
 M. Ehara, K. Toyota, R. Fukuda, J. Hasegawa, M. Ishida, T. Nakajima, 
 Y. Honda, O. Kitao, H. Nakai, T. Vreven, J. A. Montgomery, Jr., 
 J. E. Peralta, F. Ogliaro, M. Bearpark, J. J. Heyd, E. Brothers, 
 K. N. Kudin, V. N. Staroverov, T. Keith, R. Kobayashi, J. Normand, 
 K. Raghavachari, A. Rendell, J. C. Burant, S. S. Iyengar, J. Tomasi, 
 M. Cossi, N. Rega, J. M. Millam, M. Klene, J. E. Knox, J. B. Cross, 
 V. Bakken, C. Adamo, J. Jaramillo, R. Gomperts, R. E. Stratmann, 
 O. Yazyev, A. J. Austin, R. Cammi, C. Pomelli, J. W. Ochterski, 
 R. L. Martin, K. Morokuma, V. G. Zakrzewski, G. A. Voth, 
 P. Salvador, J. J. Dannenberg, S. Dapprich, A. D. Daniels, 
 O. Farkas, J. B. Foresman, J. V. Ortiz, J. Cioslowski, 
 and D. J. Fox, Gaussian, Inc., Wallingford CT, 2013.
 
 ******************************************
 Gaussian 09:  AM64L-G09RevD.01 24-Apr-2013
                 6-Aug-2020 
 ******************************************
 %nproc=1
 Will use up to    1 processors via shared memory.
 %Chk=SM43.n.10.pdb.xyz.mst.n.o.chk
 -----------------
 #p b3lyp/6-31G(d)
 -----------------
 1/38=1/1;
 2/12=2,17=6,18=5,40=1/2;
 3/5=1,6=6,7=1,11=2,16=1,25=1,30=1,74=-5/1,2,3;
 4//1;
 5/5=2,38=5/2;
 6/7=2,8=2,9=2,10=2,28=1/1;
 99/5=1,9=1/99;
 Leave Link    1 at Thu Aug  6 22:09:45 2020, MaxMem=           0 cpu:         0.0
 (Enter /prod/apps/gaussian/g09d1/l101.exe)
 -----------------
 SM43.n.10.pdb.xyz
 -----------------
 Symbolic Z-matrix:
 Charge =  0 Multiplicity = 1
 O                     1.697    -3.65      1.209 
 S                     2.289    -2.635     0.342 
 N                     1.896    -1.061     0.907 
 C                     1.783    -0.726     2.255 
 N                     2.651    -1.172     3.143 
 O                     2.238    -0.612     4.358 
 C                     1.153     0.172     4.155 
 C                     0.588     0.85      5.315 
 C                    -0.523     1.695     5.165 
 C                    -1.063     2.343     6.272 
 C                    -0.503     2.157     7.537 
 C                     0.603     1.318     7.692 
 C                     1.148     0.666     6.589 
 C                     0.812     0.137     2.831 
 N                     3.928    -2.795     0.441 
 C                     4.719    -1.774    -0.25 
 C                     4.514    -3.334     1.677 
 O                     1.92     -2.531    -1.068 
 H                     1.208    -0.637     0.292 
 H                    -0.96      1.842     4.184 
 H                    -1.922     2.993     6.146 
 H                    -0.925     2.663     8.398 
 H                     1.041     1.17      8.673 
 H                     2.005     0.013     6.702 
 H                    -0.006     0.634     2.337 
 H                     4.251    -1.538    -1.204 
 H                     5.708    -2.195    -0.439 
 H                     4.824    -0.861     0.348 
 H                     3.919    -4.182     2.011 
 H                     4.556    -2.583     2.471 
 H                     5.519    -3.677     1.424 
 
 NAtoms=     31 NQM=       31 NQMF=       0 NMMI=      0 NMMIF=      0
                NMic=       0 NMicF=      0.
                    Isotopes and Nuclear Properties:
 (Nuclear quadrupole moments (NQMom) in fm**2, nuclear magnetic moments (NMagM)
  in nuclear magnetons)

  Atom         1           2           3           4           5           6           7           8           9          10
 IAtWgt=          16          32          14          12          14          16          12          12          12          12
 AtmWgt=  15.9949146  31.9720718  14.0030740  12.0000000  14.0030740  15.9949146  12.0000000  12.0000000  12.0000000  12.0000000
 NucSpn=           0           0           2           0           2           0           0           0           0           0
 AtZEff=   0.0000000   0.0000000   0.0000000   0.0000000   0.0000000   0.0000000   0.0000000   0.0000000   0.0000000   0.0000000
 NQMom=    0.0000000   0.0000000   2.0440000   0.0000000   2.0440000   0.0000000   0.0000000   0.0000000   0.0000000   0.0000000
 NMagM=    0.0000000   0.0000000   0.4037610   0.0000000   0.4037610   0.0000000   0.0000000   0.0000000   0.0000000   0.0000000
 AtZNuc=   8.0000000  16.0000000   7.0000000   6.0000000   7.0000000   8.0000000   6.0000000   6.0000000   6.0000000   6.0000000

  Atom        11          12          13          14          15          16          17          18          19          20
 IAtWgt=          12          12          12          12          14          12          12          16           1           1
 AtmWgt=  12.0000000  12.0000000  12.0000000  12.0000000  14.0030740  12.0000000  12.0000000  15.9949146   1.0078250   1.0078250
 NucSpn=           0           0           0           0           2           0           0           0           1           1
 AtZEff=   0.0000000   0.0000000   0.0000000   0.0000000   0.0000000   0.0000000   0.0000000   0.0000000   0.0000000   0.0000000
 NQMom=    0.0000000   0.0000000   0.0000000   0.0000000   2.0440000   0.0000000   0.0000000   0.0000000   0.0000000   0.0000000
 NMagM=    0.0000000   0.0000000   0.0000000   0.0000000   0.4037610   0.0000000   0.0000000   0.0000000   2.7928460   2.7928460
 AtZNuc=   6.0000000   6.0000000   6.0000000   6.0000000   7.0000000   6.0000000   6.0000000   8.0000000   1.0000000   1.0000000

  Atom        21          22          23          24          25          26          27          28          29          30
 IAtWgt=           1           1           1           1           1           1           1           1           1           1
 AtmWgt=   1.0078250   1.0078250   1.0078250   1.0078250   1.0078250   1.0078250   1.0078250   1.0078250   1.0078250   1.0078250
 NucSpn=           1           1           1           1           1           1           1           1           1           1
 AtZEff=   0.0000000   0.0000000   0.0000000   0.0000000   0.0000000   0.0000000   0.0000000   0.0000000   0.0000000   0.0000000
 NQMom=    0.0000000   0.0000000   0.0000000   0.0000000   0.0000000   0.0000000   0.0000000   0.0000000   0.0000000   0.0000000
 NMagM=    2.7928460   2.7928460   2.7928460   2.7928460   2.7928460   2.7928460   2.7928460   2.7928460   2.7928460   2.7928460
 AtZNuc=   1.0000000   1.0000000   1.0000000   1.0000000   1.0000000   1.0000000   1.0000000   1.0000000   1.0000000   1.0000000

  Atom        31
 IAtWgt=           1
 AtmWgt=   1.0078250
 NucSpn=           1
 AtZEff=   0.0000000
 NQMom=    0.0000000
 NMagM=    2.7928460
 AtZNuc=   1.0000000
 Leave Link  101 at Thu Aug  6 22:09:45 2020, MaxMem=    33554432 cpu:         0.1
 (Enter /prod/apps/gaussian/g09d1/l202.exe)
                          Input orientation:                          
 ---------------------------------------------------------------------
 Center     Atomic      Atomic             Coordinates (Angstroms)
 Number     Number       Type             X           Y           Z
 ---------------------------------------------------------------------
      1          8           0        1.697000   -3.650000    1.209000
      2         16           0        2.289000   -2.635000    0.342000
      3          7           0        1.896000   -1.061000    0.907000
      4          6           0        1.783000   -0.726000    2.255000
      5          7           0        2.651000   -1.172000    3.143000
      6          8           0        2.238000   -0.612000    4.358000
      7          6           0        1.153000    0.172000    4.155000
      8          6           0        0.588000    0.850000    5.315000
      9          6           0       -0.523000    1.695000    5.165000
     10          6           0       -1.063000    2.343000    6.272000
     11          6           0       -0.503000    2.157000    7.537000
     12          6           0        0.603000    1.318000    7.692000
     13          6           0        1.148000    0.666000    6.589000
     14          6           0        0.812000    0.137000    2.831000
     15          7           0        3.928000   -2.795000    0.441000
     16          6           0        4.719000   -1.774000   -0.250000
     17          6           0        4.514000   -3.334000    1.677000
     18          8           0        1.920000   -2.531000   -1.068000
     19          1           0        1.208000   -0.637000    0.292000
     20          1           0       -0.960000    1.842000    4.184000
     21          1           0       -1.922000    2.993000    6.146000
     22          1           0       -0.925000    2.663000    8.398000
     23          1           0        1.041000    1.170000    8.673000
     24          1           0        2.005000    0.013000    6.702000
     25          1           0       -0.006000    0.634000    2.337000
     26          1           0        4.251000   -1.538000   -1.204000
     27          1           0        5.708000   -2.195000   -0.439000
     28          1           0        4.824000   -0.861000    0.348000
     29          1           0        3.919000   -4.182000    2.011000
     30          1           0        4.556000   -2.583000    2.471000
     31          1           0        5.519000   -3.677000    1.424000
 ---------------------------------------------------------------------
                    Distance matrix (angstroms):
                    1          2          3          4          5
     1  O    0.000000
     2  S    1.460266   0.000000
     3  N    2.614140   1.717891   0.000000
     4  C    3.106652   2.749525   1.393592   0.000000
     5  N    3.284959   3.180725   2.362635   1.319426   0.000000
     6  O    4.408892   4.497042   3.496851   2.154676   1.400141
     7  C    4.856185   4.869159   3.552723   2.193924   2.252662
     8  C    6.191859   6.306295   4.979282   3.643542   3.614144
     9  C    7.010518   7.065237   5.619400   4.432491   4.731009
    10  C    8.316707   8.436900   7.009003   5.801273   5.994970
    11  C    8.865937   9.084413   7.750331   6.437158   6.351157
    12  C    8.240579   8.514183   7.305321   5.927167   5.575644
    13  C    6.919079   7.157059   5.985579   4.596134   4.184754
    14  C    4.213725   4.007572   2.512377   1.421051   2.278760
    15  N    2.509623   1.649764   2.711630   3.488894   3.400833
    16  C    3.844547   2.645125   3.133105   3.999178   4.018890
    17  C    2.873042   2.687276   3.551528   3.820224   3.208453
    18  O    2.546884   1.461190   2.462133   3.784062   4.484837
    19  H    3.187190   2.272238   1.015552   2.047417   3.239857
    20  H    6.787661   6.735020   5.227129   4.223709   4.817385
    21  H    9.033304   9.115554   7.645859   6.534360   6.875868
    22  H    9.920210  10.163549   8.828437   7.520308   7.423613
    23  H    8.909211   9.243435   8.125216   6.733209   6.217553
    24  H    6.609499   6.895082   5.894691   4.513448   3.806313
    25  H    4.746077   4.464685   2.921563   2.248743   3.312238
    26  H    4.099516   2.728181   3.198418   4.326089   4.646543
    27  H    4.573953   3.534561   4.198692   4.982090   4.818973
    28  H    4.277613   3.094081   2.987585   3.592013   3.553966
    29  H    2.421469   2.799227   3.879689   4.070131   3.456783
    30  H    3.302274   3.110407   3.440666   3.344344   2.464047
    31  H    3.828138   3.562217   4.498541   4.832873   4.177967
                    6          7          8          9         10
     6  O    0.000000
     7  C    1.353917   0.000000
     8  C    2.403288   1.457570   0.000000
     9  C    3.687359   2.479638   1.403868   0.000000
    10  C    4.826181   3.755740   2.422953   1.391745   0.000000
    11  C    5.028567   4.256816   2.799252   2.416656   1.395859
    12  C    4.184935   3.758482   2.422680   2.792084   2.417143
    13  C    2.792623   2.483630   1.403756   2.424636   2.793088
    14  C    2.219506   1.367656   2.593993   3.107595   4.496948
    15  N    4.792127   5.504317   6.942442   7.892254   9.236324
    16  C    5.360902   5.992270   7.410787   8.296671   9.639383
    17  C    4.447159   5.452416   6.793701   7.926434   9.189411
    18  O    5.764127   5.930786   7.344935   7.916919   9.302138
    19  H    4.194506   3.947186   5.275045   5.672805   7.056787
    20  H    4.034798   2.693420   2.158594   1.083946   2.149733
    21  H    5.787795   4.623608   3.403397   2.145779   1.084554
    22  H    6.087018   5.340994   3.883430   3.398664   2.154372
    23  H    4.819498   4.628269   3.403494   3.876569   3.401110
    24  H    2.437058   2.690426   2.152261   3.403274   3.876393
    25  H    3.266878   2.204960   3.044335   3.064408   4.418388
    26  H    5.987110   6.421883   7.849680   8.591131   9.959485
    27  H    6.128458   6.888799   8.282206   9.239171  10.558286
    28  H    4.778022   5.388560   6.748504   7.637214   8.945175
    29  H    4.591195   5.586126   6.879898   8.013626   9.249436
    30  H    3.580326   4.691086   5.968153   7.166252   8.383689
    31  H    5.363538   6.429239   7.742633   8.908380  10.152154
                   11         12         13         14         15
    11  C    0.000000
    12  C    1.396847   0.000000
    13  C    2.418178   1.392386   0.000000
    14  C    5.287349   5.006772   3.809895   0.000000
    15  N    9.721588   8.974931   7.583194   4.900835   0.000000
    16  C   10.166583   9.464528   8.091821   5.330022   1.464788
    17  C    9.468948   8.550863   7.173402   5.204264   1.470242
    18  O   10.094271   9.658514   8.333453   4.852637   2.525637
    19  H    7.951351   7.677763   6.430678   2.683731   3.475279
    20  H    3.398630   3.876030   3.407443   2.806709   7.707423
    21  H    2.155769   3.401671   3.877638   5.159527  10.013514
    22  H    1.084178   2.154587   3.399679   6.355260  10.800705
    23  H    2.156061   1.084486   2.146747   5.937044   9.582370
    24  H    3.403531   2.156091   1.083341   4.052563   7.126213
    25  H    5.441189   5.432749   4.405933   1.077111   5.552406
    26  H   10.614077  10.030127   8.672778   5.559997   2.095329
    27  H   11.006044  10.223275   8.852780   6.332609   2.074319
    28  H    9.442827   8.746383   7.402350   4.822596   2.133500
    29  H    9.501246   8.574358   7.220778   5.383271   2.094934
    30  H    8.586352   7.622523   6.255269   4.641717   2.135469
    31  H   10.376358   9.402388   8.040181   6.219493   2.067727
                   16         17         18         19         20
    16  C    0.000000
    17  C    2.487761   0.000000
    18  O    3.012735   3.861175   0.000000
    19  H    3.730101   4.485718   2.437987   0.000000
    20  H    8.061442   7.939817   7.416268   5.098365   0.000000
    21  H   10.379595  10.070997   9.864955   7.565918   2.469755
    22  H   11.239645  10.522289  11.165877   9.008159   4.293374
    23  H   10.090329   9.016194  10.457396   8.575214   4.960515
    24  H    7.673947   6.538204   8.176311   6.491980   4.298464
    25  H    5.900564   6.050704   5.031970   2.696528   2.404327
    26  H    1.088502   3.405135   2.537342   3.508513   8.222497
    27  H    1.091367   2.683359   3.854540   4.817855   9.062655
    28  H    1.096448   2.824548   3.636918   3.623364   7.448205
    29  H    3.398615   1.088432   4.025176   4.782416   8.050785
    30  H    2.843394   1.093710   4.413131   4.443429   7.276074
    31  H    2.657759   1.091642   4.525061   5.395159   8.947313
                   21         22         23         24         25
    21  H    0.000000
    22  H    2.484837   0.000000
    23  H    4.299817   2.483914   0.000000
    24  H    4.960934   4.299281   2.480481   0.000000
    25  H    4.872824   6.457331   6.444253   4.845925   0.000000
    26  H   10.614066  11.689216  10.732777   8.363908   5.947967
    27  H   11.335540  12.070187  10.776486   8.341544   6.954079
    28  H    9.694258  10.501051   9.367053   7.005994   5.433235
    29  H   10.133910  10.540974   9.017152   6.577758   6.221395
    30  H    9.303864   9.627627   8.056366   5.581055   5.583806
    31  H   11.052360  11.417417   9.802749   7.336319   7.067101
                   26         27         28         29         30
    26  H    0.000000
    27  H    1.771926   0.000000
    28  H    1.787558   1.783362   0.000000
    29  H    4.175786   3.626457   3.822778   0.000000
    30  H    3.832842   3.153688   2.746677   1.781620   0.000000
    31  H    3.617945   2.388057   3.093648   1.777525   1.794551
                   31
    31  H    0.000000
 Stoichiometry    C11H13N3O3S
 Framework group  C1[X(C11H13N3O3S)]
 Deg. of freedom    87
 Full point group                 C1      NOp   1
 Largest Abelian subgroup         C1      NOp   1
 Largest concise Abelian subgroup C1      NOp   1
                         Standard orientation:                         
 ---------------------------------------------------------------------
 Center     Atomic      Atomic             Coordinates (Angstroms)
 Number     Number       Type             X           Y           Z
 ---------------------------------------------------------------------
      1          8           0        2.725061   -0.287862    1.835382
      2         16           0        3.094856   -0.607487    0.459348
      3          7           0        1.700465   -1.019188   -0.455708
      4          6           0        0.452405   -0.425086   -0.278263
      5          7           0        0.337096    0.876672   -0.096571
      6          8           0       -1.040727    1.101159    0.011158
      7          6           0       -1.707568   -0.067937   -0.135905
      8          6           0       -3.162679   -0.024716   -0.063144
      9          6           0       -3.911528   -1.200232   -0.231170
     10          6           0       -5.300972   -1.159882   -0.162115
     11          6           0       -5.957599    0.049063    0.073925
     12          6           0       -5.217596    1.221940    0.241063
     13          6           0       -3.827225    1.188843    0.173891
     14          6           0       -0.807503   -1.081016   -0.320397
     15          7           0        3.733933    0.757877   -0.210790
     16          6           0        4.042692    0.691117   -1.641109
     17          6           0        3.291237    2.067269    0.290335
     18          8           0        3.978411   -1.729713    0.151102
     19          1           0        1.687556   -2.019395   -0.631105
     20          1           0       -3.404788   -2.140620   -0.415080
     21          1           0       -5.870575   -2.073598   -0.292238
     22          1           0       -7.040080    0.078353    0.127022
     23          1           0       -5.723435    2.163376    0.425279
     24          1           0       -3.246897    2.094382    0.303679
     25          1           0       -1.000793   -2.132171   -0.454114
     26          1           0        4.470988   -0.282162   -1.873760
     27          1           0        4.785757    1.461475   -1.854389
     28          1           0        3.155451    0.864267   -2.261609
     29          1           0        3.242389    2.032889    1.377127
     30          1           0        2.313011    2.348785   -0.109695
     31          1           0        4.049326    2.791815   -0.013009
 ---------------------------------------------------------------------
 Rotational constants (GHZ):      1.2040489      0.1569053      0.1483861
 Leave Link  202 at Thu Aug  6 22:09:45 2020, MaxMem=    33554432 cpu:         0.0
 (Enter /prod/apps/gaussian/g09d1/l301.exe)
 Standard basis: 6-31G(d) (6D, 7F)
 Ernie: Thresh=  0.10000D-02 Tol=  0.10000D-05 Strict=F.
 There are   300 symmetry adapted cartesian basis functions of A   symmetry.
 There are   300 symmetry adapted basis functions of A   symmetry.
   300 basis functions,   580 primitive gaussians,   300 cartesian basis functions
    70 alpha electrons       70 beta electrons
       nuclear repulsion energy      1450.8080446391 Hartrees.
 IExCor=  402 DFT=T Ex+Corr=B3LYP ExCW=0 ScaHFX=  0.200000
 ScaDFX=  0.800000  0.720000  1.000000  0.810000 ScalE2=  1.000000  1.000000
 IRadAn=      0 IRanWt=     -1 IRanGd=            0 ICorTp=0 IEmpDi=  4
 NAtoms=   31 NActive=   31 NUniq=   31 SFac= 1.00D+00 NAtFMM=   60 NAOKFM=F Big=F
 Integral buffers will be    131072 words long.
 Raffenetti 2 integral format.
 Two-electron integral symmetry is turned on.
 Leave Link  301 at Thu Aug  6 22:09:45 2020, MaxMem=    33554432 cpu:         0.0
 (Enter /prod/apps/gaussian/g09d1/l302.exe)
 NPDir=0 NMtPBC=     1 NCelOv=     1 NCel=       1 NClECP=     1 NCelD=      1
         NCelK=      1 NCelE2=     1 NClLst=     1 CellRange=     0.0.
 One-electron integrals computed using PRISM.
 NBasis=   300 RedAO= T EigKep=  4.57D-04  NBF=   300
 NBsUse=   300 1.00D-06 EigRej= -1.00D+00 NBFU=   300
 Precomputing XC quadrature grid using
 IXCGrd= 4 IRadAn=           0 IRanWt=          -1 IRanGd=           0 AccXCQ= 0.00D+00.
 Generated NRdTot=       0 NPtTot=           0 NUsed=           0 NTot=          32
 NSgBfM=   295   295   296   296   296 MxSgAt=    31 MxSgA2=    31.
 Leave Link  302 at Thu Aug  6 22:09:46 2020, MaxMem=    33554432 cpu:         1.0
 (Enter /prod/apps/gaussian/g09d1/l303.exe)
 DipDrv:  MaxL=1.
 Leave Link  303 at Thu Aug  6 22:09:46 2020, MaxMem=    33554432 cpu:         0.0
 (Enter /prod/apps/gaussian/g09d1/l401.exe)
 ExpMin= 1.17D-01 ExpMax= 2.19D+04 ExpMxC= 3.30D+03 IAcc=1 IRadAn=         1 AccDes= 0.00D+00
 Harris functional with IExCor=  402 and IRadAn=       1 diagonalized for initial guess.
 HarFok:  IExCor=  402 AccDes= 0.00D+00 IRadAn=         1 IDoV= 1 UseB2=F ITyADJ=14
 ICtDFT=  3500011 ScaDFX=  1.000000  1.000000  1.000000  1.000000
 FoFCou: FMM=F IPFlag=           0 FMFlag=      100000 FMFlg1=           0
         NFxFlg=           0 DoJE=T BraDBF=F KetDBF=T FulRan=T
         wScrn=  0.000000 ICntrl=     500 IOpCl=  0 I1Cent=   200000004 NGrid=           0
         NMat0=    1 NMatS0=      1 NMatT0=    0 NMatD0=    1 NMtDS0=    0 NMtDT0=    0
 Petite list used in FoFCou.
 Harris En= -1215.02344611829    
 JPrj=0 DoOrth=F DoCkMO=F.
 Leave Link  401 at Thu Aug  6 22:09:49 2020, MaxMem=    33554432 cpu:         2.8
 (Enter /prod/apps/gaussian/g09d1/l502.exe)
 Closed shell SCF:
 Using DIIS extrapolation, IDIIS=  1040.
 Integral symmetry usage will be decided dynamically.
 IVT=      292611 IEndB=      292611 NGot=    33554432 MDV=    33368762
 LenX=    33368762 LenY=    33278321
 Requested convergence on RMS density matrix=1.00D-08 within 128 cycles.
 Requested convergence on MAX density matrix=1.00D-06.
 Requested convergence on             energy=1.00D-06.
 No special actions if energy rises.
 Fock matrices will be formed incrementally for  20 cycles.
 Integral accuracy reduced to 1.0D-05 until final iterations.

 Cycle   1  Pass 0  IDiag  1:
 FoFJK:  IHMeth= 1 ICntrl=       0 DoSepK=F KAlg= 0 I1Cent=   0 FoldK=F
 IRaf= 720000000 NMat=   1 IRICut=       1 DoRegI=T DoRafI=F ISym2E= 0.
 FoFCou: FMM=F IPFlag=           0 FMFlag=      100000 FMFlg1=           0
         NFxFlg=           0 DoJE=F BraDBF=F KetDBF=F FulRan=T
         wScrn=  0.000000 ICntrl=       0 IOpCl=  0 I1Cent=           0 NGrid=           0
         NMat0=    1 NMatS0=      1 NMatT0=    0 NMatD0=    1 NMtDS0=    0 NMtDT0=    0
 Symmetry not used in FoFCou.
 E= -1214.43984159009    
 DIIS: error= 3.86D-02 at cycle   1 NSaved=   1.
 NSaved= 1 IEnMin= 1 EnMin= -1214.43984159009     IErMin= 1 ErrMin= 3.86D-02
 ErrMax= 3.86D-02  0.00D+00 EMaxC= 1.00D-01 BMatC= 6.31D-01 BMatP= 6.31D-01
 IDIUse=3 WtCom= 6.14D-01 WtEn= 3.86D-01
 Coeff-Com:  0.100D+01
 Coeff-En:   0.100D+01
 Coeff:      0.100D+01
 Gap=     0.270 Goal=   None    Shift=    0.000
 GapD=    0.270 DampG=1.000 DampE=0.500 DampFc=0.5000 IDamp=-1.
 Damping current iteration by 5.00D-01
 RMSDP=6.59D-03 MaxDP=6.20D-01              OVMax= 2.22D-01

 Cycle   2  Pass 0  IDiag  1:
 RMSU=  3.29D-03    CP:  9.91D-01
 E= -1214.57011865331     Delta-E=       -0.130277063216 Rises=F Damp=T
 DIIS: error= 2.25D-02 at cycle   2 NSaved=   2.
 NSaved= 2 IEnMin= 2 EnMin= -1214.57011865331     IErMin= 2 ErrMin= 2.25D-02
 ErrMax= 2.25D-02  0.00D+00 EMaxC= 1.00D-01 BMatC= 1.04D-01 BMatP= 6.31D-01
 IDIUse=3 WtCom= 7.75D-01 WtEn= 2.25D-01
 Coeff-Com:  0.234D+00 0.766D+00
 Coeff-En:   0.373D+00 0.627D+00
 Coeff:      0.265D+00 0.735D+00
 Gap=     0.224 Goal=   None    Shift=    0.000
 RMSDP=1.97D-03 MaxDP=1.44D-01 DE=-1.30D-01 OVMax= 1.89D-01

 Cycle   3  Pass 0  IDiag  1:
 RMSU=  1.67D-03    CP:  9.79D-01  6.89D-01
 E= -1214.93951656442     Delta-E=       -0.369397911108 Rises=F Damp=F
 DIIS: error= 1.46D-02 at cycle   3 NSaved=   3.
 NSaved= 3 IEnMin= 3 EnMin= -1214.93951656442     IErMin= 3 ErrMin= 1.46D-02
 ErrMax= 1.46D-02  0.00D+00 EMaxC= 1.00D-01 BMatC= 5.43D-02 BMatP= 1.04D-01
 IDIUse=3 WtCom= 8.54D-01 WtEn= 1.46D-01
 Coeff-Com:  0.832D-01 0.415D+00 0.501D+00
 Coeff-En:   0.000D+00 0.000D+00 0.100D+01
 Coeff:      0.711D-01 0.355D+00 0.574D+00
 Gap=     0.187 Goal=   None    Shift=    0.000
 RMSDP=1.15D-03 MaxDP=4.32D-02 DE=-3.69D-01 OVMax= 5.41D-02

 Cycle   4  Pass 0  IDiag  1:
 RMSU=  7.41D-04    CP:  9.85D-01  7.63D-01  4.98D-01
 E= -1214.97682742760     Delta-E=       -0.037310863180 Rises=F Damp=F
 DIIS: error= 5.77D-03 at cycle   4 NSaved=   4.
 NSaved= 4 IEnMin= 4 EnMin= -1214.97682742760     IErMin= 4 ErrMin= 5.77D-03
 ErrMax= 5.77D-03  0.00D+00 EMaxC= 1.00D-01 BMatC= 1.28D-02 BMatP= 5.43D-02
 IDIUse=3 WtCom= 9.42D-01 WtEn= 5.77D-02
 Coeff-Com:  0.138D-01 0.896D-01 0.336D+00 0.561D+00
 Coeff-En:   0.000D+00 0.000D+00 0.199D+00 0.801D+00
 Coeff:      0.130D-01 0.844D-01 0.328D+00 0.575D+00
 Gap=     0.181 Goal=   None    Shift=    0.000
 RMSDP=4.25D-04 MaxDP=1.84D-02 DE=-3.73D-02 OVMax= 2.22D-02

 Cycle   5  Pass 0  IDiag  1:
 RMSU=  2.14D-04    CP:  9.84D-01  7.43D-01  6.31D-01  6.15D-01
 E= -1214.98663615584     Delta-E=       -0.009808728239 Rises=F Damp=F
 DIIS: error= 1.26D-03 at cycle   5 NSaved=   5.
 NSaved= 5 IEnMin= 5 EnMin= -1214.98663615584     IErMin= 5 ErrMin= 1.26D-03
 ErrMax= 1.26D-03  0.00D+00 EMaxC= 1.00D-01 BMatC= 1.06D-03 BMatP= 1.28D-02
 IDIUse=3 WtCom= 9.87D-01 WtEn= 1.26D-02
 Coeff-Com:  0.838D-03 0.186D-01 0.145D+00 0.334D+00 0.502D+00
 Coeff-En:   0.000D+00 0.000D+00 0.000D+00 0.473D-02 0.995D+00
 Coeff:      0.828D-03 0.183D-01 0.143D+00 0.330D+00 0.508D+00
 Gap=     0.182 Goal=   None    Shift=    0.000
 RMSDP=1.41D-04 MaxDP=6.40D-03 DE=-9.81D-03 OVMax= 7.97D-03

 Cycle   6  Pass 0  IDiag  1:
 RMSU=  7.54D-05    CP:  9.84D-01  7.47D-01  6.30D-01  6.62D-01  4.71D-01
 E= -1214.98743625273     Delta-E=       -0.000800096894 Rises=F Damp=F
 DIIS: error= 5.27D-04 at cycle   6 NSaved=   6.
 NSaved= 6 IEnMin= 6 EnMin= -1214.98743625273     IErMin= 6 ErrMin= 5.27D-04
 ErrMax= 5.27D-04  0.00D+00 EMaxC= 1.00D-01 BMatC= 1.57D-04 BMatP= 1.06D-03
 IDIUse=3 WtCom= 9.95D-01 WtEn= 5.27D-03
 Coeff-Com: -0.750D-03 0.394D-02 0.571D-01 0.150D+00 0.328D+00 0.462D+00
 Coeff-En:   0.000D+00 0.000D+00 0.000D+00 0.000D+00 0.115D+00 0.885D+00
 Coeff:     -0.746D-03 0.392D-02 0.568D-01 0.149D+00 0.327D+00 0.464D+00
 Gap=     0.182 Goal=   None    Shift=    0.000
 RMSDP=4.76D-05 MaxDP=2.49D-03 DE=-8.00D-04 OVMax= 3.26D-03

 Cycle   7  Pass 0  IDiag  1:
 RMSU=  2.63D-05    CP:  9.83D-01  7.46D-01  6.31D-01  6.65D-01  5.57D-01
                    CP:  5.36D-01
 E= -1214.98756702452     Delta-E=       -0.000130771788 Rises=F Damp=F
 DIIS: error= 1.39D-04 at cycle   7 NSaved=   7.
 NSaved= 7 IEnMin= 7 EnMin= -1214.98756702452     IErMin= 7 ErrMin= 1.39D-04
 ErrMax= 1.39D-04  0.00D+00 EMaxC= 1.00D-01 BMatC= 1.26D-05 BMatP= 1.57D-04
 IDIUse=3 WtCom= 9.99D-01 WtEn= 1.39D-03
 Coeff-Com: -0.617D-03-0.189D-03 0.165D-01 0.485D-01 0.137D+00 0.281D+00
 Coeff-Com:  0.518D+00
 Coeff-En:   0.000D+00 0.000D+00 0.000D+00 0.000D+00 0.000D+00 0.300D-01
 Coeff-En:   0.970D+00
 Coeff:     -0.616D-03-0.189D-03 0.164D-01 0.485D-01 0.137D+00 0.281D+00
 Coeff:      0.518D+00
 Gap=     0.182 Goal=   None    Shift=    0.000
 RMSDP=1.24D-05 MaxDP=5.31D-04 DE=-1.31D-04 OVMax= 7.75D-04

 Cycle   8  Pass 0  IDiag  1:
 RMSU=  5.94D-06    CP:  9.83D-01  7.46D-01  6.32D-01  6.66D-01  5.58D-01
                    CP:  5.83D-01  6.11D-01
 E= -1214.98757766121     Delta-E=       -0.000010636694 Rises=F Damp=F
 DIIS: error= 5.85D-05 at cycle   8 NSaved=   8.
 NSaved= 8 IEnMin= 8 EnMin= -1214.98757766121     IErMin= 8 ErrMin= 5.85D-05
 ErrMax= 5.85D-05  0.00D+00 EMaxC= 1.00D-01 BMatC= 5.98D-07 BMatP= 1.26D-05
 IDIUse=1 WtCom= 1.00D+00 WtEn= 0.00D+00
 Coeff-Com: -0.254D-03-0.379D-03 0.394D-02 0.129D-01 0.451D-01 0.111D+00
 Coeff-Com:  0.257D+00 0.570D+00
 Coeff:     -0.254D-03-0.379D-03 0.394D-02 0.129D-01 0.451D-01 0.111D+00
 Coeff:      0.257D+00 0.570D+00
 Gap=     0.182 Goal=   None    Shift=    0.000
 RMSDP=3.63D-06 MaxDP=1.31D-04 DE=-1.06D-05 OVMax= 2.53D-04

 Initial convergence to 1.0D-05 achieved.  Increase integral accuracy.
 Cycle   9  Pass 1  IDiag  1:
 E= -1214.98755043975     Delta-E=        0.000027221460 Rises=F Damp=F
 DIIS: error= 6.97D-05 at cycle   1 NSaved=   1.
 NSaved= 1 IEnMin= 1 EnMin= -1214.98755043975     IErMin= 1 ErrMin= 6.97D-05
 ErrMax= 6.97D-05  0.00D+00 EMaxC= 1.00D-01 BMatC= 9.82D-07 BMatP= 9.82D-07
 IDIUse=1 WtCom= 1.00D+00 WtEn= 0.00D+00
 Coeff-Com:  0.100D+01
 Coeff:      0.100D+01
 Gap=     0.182 Goal=   None    Shift=    0.000
 RMSDP=3.63D-06 MaxDP=1.31D-04 DE= 2.72D-05 OVMax= 3.46D-04

 Cycle  10  Pass 1  IDiag  1:
 RMSU=  5.11D-05    CP:  1.00D+00
 E= -1214.98755082954     Delta-E=       -0.000000389789 Rises=F Damp=F
 DIIS: error= 3.34D-05 at cycle   2 NSaved=   2.
 NSaved= 2 IEnMin= 2 EnMin= -1214.98755082954     IErMin= 2 ErrMin= 3.34D-05
 ErrMax= 3.34D-05  0.00D+00 EMaxC= 1.00D-01 BMatC= 6.71D-07 BMatP= 9.82D-07
 IDIUse=1 WtCom= 1.00D+00 WtEn= 0.00D+00
 Coeff-Com:  0.431D+00 0.569D+00
 Coeff:      0.431D+00 0.569D+00
 Gap=     0.182 Goal=   None    Shift=    0.000
 RMSDP=4.84D-06 MaxDP=2.55D-04 DE=-3.90D-07 OVMax= 4.33D-04

 Cycle  11  Pass 1  IDiag  1:
 RMSU=  4.83D-06    CP:  1.00D+00  9.99D-01
 E= -1214.98755103032     Delta-E=       -0.000000200776 Rises=F Damp=F
 DIIS: error= 3.17D-05 at cycle   3 NSaved=   3.
 NSaved= 3 IEnMin= 3 EnMin= -1214.98755103032     IErMin= 3 ErrMin= 3.17D-05
 ErrMax= 3.17D-05  0.00D+00 EMaxC= 1.00D-01 BMatC= 4.52D-07 BMatP= 6.71D-07
 IDIUse=1 WtCom= 1.00D+00 WtEn= 0.00D+00
 Coeff-Com:  0.482D-02 0.449D+00 0.546D+00
 Coeff:      0.482D-02 0.449D+00 0.546D+00
 Gap=     0.182 Goal=   None    Shift=    0.000
 RMSDP=2.37D-06 MaxDP=1.45D-04 DE=-2.01D-07 OVMax= 2.26D-04

 Cycle  12  Pass 1  IDiag  1:
 RMSU=  6.74D-07    CP:  1.00D+00  1.01D+00  5.39D-01
 E= -1214.98755143979     Delta-E=       -0.000000409478 Rises=F Damp=F
 DIIS: error= 7.22D-06 at cycle   4 NSaved=   4.
 NSaved= 4 IEnMin= 4 EnMin= -1214.98755143979     IErMin= 4 ErrMin= 7.22D-06
 ErrMax= 7.22D-06  0.00D+00 EMaxC= 1.00D-01 BMatC= 1.58D-08 BMatP= 4.52D-07
 IDIUse=1 WtCom= 1.00D+00 WtEn= 0.00D+00
 Coeff-Com: -0.633D-02 0.273D+00 0.348D+00 0.385D+00
 Coeff:     -0.633D-02 0.273D+00 0.348D+00 0.385D+00
 Gap=     0.182 Goal=   None    Shift=    0.000
 RMSDP=4.22D-07 MaxDP=2.18D-05 DE=-4.09D-07 OVMax= 3.25D-05

 Cycle  13  Pass 1  IDiag  1:
 RMSU=  2.10D-07    CP:  1.00D+00  1.01D+00  5.52D-01  4.66D-01
 E= -1214.98755145346     Delta-E=       -0.000000013661 Rises=F Damp=F
 DIIS: error= 8.06D-07 at cycle   5 NSaved=   5.
 NSaved= 5 IEnMin= 5 EnMin= -1214.98755145346     IErMin= 5 ErrMin= 8.06D-07
 ErrMax= 8.06D-07  0.00D+00 EMaxC= 1.00D-01 BMatC= 3.52D-10 BMatP= 1.58D-08
 IDIUse=1 WtCom= 1.00D+00 WtEn= 0.00D+00
 Coeff-Com: -0.358D-02 0.120D+00 0.155D+00 0.207D+00 0.521D+00
 Coeff:     -0.358D-02 0.120D+00 0.155D+00 0.207D+00 0.521D+00
 Gap=     0.182 Goal=   None    Shift=    0.000
 RMSDP=8.21D-08 MaxDP=2.94D-06 DE=-1.37D-08 OVMax= 4.52D-06

 Cycle  14  Pass 1  IDiag  1:
 RMSU=  6.65D-08    CP:  1.00D+00  1.01D+00  5.53D-01  4.91D-01  7.86D-01
 E= -1214.98755145369     Delta-E=       -0.000000000239 Rises=F Damp=F
 DIIS: error= 3.03D-07 at cycle   6 NSaved=   6.
 NSaved= 6 IEnMin= 6 EnMin= -1214.98755145369     IErMin= 6 ErrMin= 3.03D-07
 ErrMax= 3.03D-07  0.00D+00 EMaxC= 1.00D-01 BMatC= 4.25D-11 BMatP= 3.52D-10
 IDIUse=1 WtCom= 1.00D+00 WtEn= 0.00D+00
 Coeff-Com: -0.126D-02 0.356D-01 0.468D-01 0.736D-01 0.292D+00 0.553D+00
 Coeff:     -0.126D-02 0.356D-01 0.468D-01 0.736D-01 0.292D+00 0.553D+00
 Gap=     0.182 Goal=   None    Shift=    0.000
 RMSDP=2.81D-08 MaxDP=1.30D-06 DE=-2.39D-10 OVMax= 1.54D-06

 Cycle  15  Pass 1  IDiag  1:
 RMSU=  2.33D-08    CP:  1.00D+00  1.01D+00  5.53D-01  4.94D-01  8.31D-01
                    CP:  8.17D-01
 E= -1214.98755145378     Delta-E=       -0.000000000084 Rises=F Damp=F
 DIIS: error= 1.99D-07 at cycle   7 NSaved=   7.
 NSaved= 7 IEnMin= 7 EnMin= -1214.98755145378     IErMin= 7 ErrMin= 1.99D-07
 ErrMax= 1.99D-07  0.00D+00 EMaxC= 1.00D-01 BMatC= 9.56D-12 BMatP= 4.25D-11
 IDIUse=1 WtCom= 1.00D+00 WtEn= 0.00D+00
 Coeff-Com: -0.970D-04-0.122D-02-0.110D-02 0.676D-02 0.810D-01 0.357D+00
 Coeff-Com:  0.558D+00
 Coeff:     -0.970D-04-0.122D-02-0.110D-02 0.676D-02 0.810D-01 0.357D+00
 Coeff:      0.558D+00
 Gap=     0.182 Goal=   None    Shift=    0.000
 RMSDP=1.21D-08 MaxDP=5.16D-07 DE=-8.37D-11 OVMax= 6.38D-07

 Cycle  16  Pass 1  IDiag  1:
 RMSU=  6.68D-09    CP:  1.00D+00  1.01D+00  5.53D-01  4.96D-01  8.43D-01
                    CP:  8.50D-01  5.98D-01
 E= -1214.98755145380     Delta-E=       -0.000000000019 Rises=F Damp=F
 DIIS: error= 4.34D-08 at cycle   8 NSaved=   8.
 NSaved= 8 IEnMin= 8 EnMin= -1214.98755145380     IErMin= 8 ErrMin= 4.34D-08
 ErrMax= 4.34D-08  0.00D+00 EMaxC= 1.00D-01 BMatC= 5.75D-13 BMatP= 9.56D-12
 IDIUse=1 WtCom= 1.00D+00 WtEn= 0.00D+00
 Coeff-Com:  0.430D-04-0.329D-02-0.408D-02-0.191D-02 0.186D-01 0.143D+00
 Coeff-Com:  0.297D+00 0.551D+00
 Coeff:      0.430D-04-0.329D-02-0.408D-02-0.191D-02 0.186D-01 0.143D+00
 Coeff:      0.297D+00 0.551D+00
 Gap=     0.182 Goal=   None    Shift=    0.000
 RMSDP=3.23D-09 MaxDP=1.16D-07 DE=-1.86D-11 OVMax= 2.26D-07

 SCF Done:  E(RB3LYP) =  -1214.98755145     A.U. after   16 cycles
            NFock= 16  Conv=0.32D-08     -V/T= 2.0075
 KE= 1.205933759254D+03 PE=-5.748495989312D+03 EE= 1.876766633965D+03
 Leave Link  502 at Thu Aug  6 22:13:31 2020, MaxMem=    33554432 cpu:       221.4
 (Enter /prod/apps/gaussian/g09d1/l601.exe)
 Copying SCF densities to generalized density rwf, IOpCl= 0 IROHF=0.

 **********************************************************************

            Population analysis using the SCF density.

 **********************************************************************

 Orbital symmetries:
       Occupied  (A) (A) (A) (A) (A) (A) (A) (A) (A) (A) (A) (A)
                 (A) (A) (A) (A) (A) (A) (A) (A) (A) (A) (A) (A)
                 (A) (A) (A) (A) (A) (A) (A) (A) (A) (A) (A) (A)
                 (A) (A) (A) (A) (A) (A) (A) (A) (A) (A) (A) (A)
                 (A) (A) (A) (A) (A) (A) (A) (A) (A) (A) (A) (A)
                 (A) (A) (A) (A) (A) (A) (A) (A) (A) (A)
       Virtual   (A) (A) (A) (A) (A) (A) (A) (A) (A) (A) (A) (A)
                 (A) (A) (A) (A) (A) (A) (A) (A) (A) (A) (A) (A)
                 (A) (A) (A) (A) (A) (A) (A) (A) (A) (A) (A) (A)
                 (A) (A) (A) (A) (A) (A) (A) (A) (A) (A) (A) (A)
                 (A) (A) (A) (A) (A) (A) (A) (A) (A) (A) (A) (A)
                 (A) (A) (A) (A) (A) (A) (A) (A) (A) (A) (A) (A)
                 (A) (A) (A) (A) (A) (A) (A) (A) (A) (A) (A) (A)
                 (A) (A) (A) (A) (A) (A) (A) (A) (A) (A) (A) (A)
                 (A) (A) (A) (A) (A) (A) (A) (A) (A) (A) (A) (A)
                 (A) (A) (A) (A) (A) (A) (A) (A) (A) (A) (A) (A)
                 (A) (A) (A) (A) (A) (A) (A) (A) (A) (A) (A) (A)
                 (A) (A) (A) (A) (A) (A) (A) (A) (A) (A) (A) (A)
                 (A) (A) (A) (A) (A) (A) (A) (A) (A) (A) (A) (A)
                 (A) (A) (A) (A) (A) (A) (A) (A) (A) (A) (A) (A)
                 (A) (A) (A) (A) (A) (A) (A) (A) (A) (A) (A) (A)
                 (A) (A) (A) (A) (A) (A) (A) (A) (A) (A) (A) (A)
                 (A) (A) (A) (A) (A) (A) (A) (A) (A) (A) (A) (A)
                 (A) (A) (A) (A) (A) (A) (A) (A) (A) (A) (A) (A)
                 (A) (A) (A) (A) (A) (A) (A) (A) (A) (A) (A) (A)
                 (A) (A)
 The electronic state is 1-A.
 Alpha  occ. eigenvalues --  -89.13281 -19.24057 -19.14597 -19.14371 -14.38678
 Alpha  occ. eigenvalues --  -14.38078 -14.37585 -10.27580 -10.27271 -10.22422
 Alpha  occ. eigenvalues --  -10.22192 -10.21290 -10.21077 -10.20859 -10.20697
 Alpha  occ. eigenvalues --  -10.20648 -10.20639 -10.20518  -8.15459  -6.11987
 Alpha  occ. eigenvalues --   -6.11869  -6.11838  -1.14668  -1.12410  -1.00607
 Alpha  occ. eigenvalues --   -0.95868  -0.94095  -0.87958  -0.85210  -0.81381
 Alpha  occ. eigenvalues --   -0.76208  -0.75869  -0.72639  -0.71550  -0.65410
 Alpha  occ. eigenvalues --   -0.64635  -0.62079  -0.60742  -0.56990  -0.55824
 Alpha  occ. eigenvalues --   -0.53678  -0.51770  -0.50178  -0.49105  -0.48147
 Alpha  occ. eigenvalues --   -0.47981  -0.47451  -0.46076  -0.45523  -0.44056
 Alpha  occ. eigenvalues --   -0.43670  -0.43525  -0.41577  -0.41007  -0.39872
 Alpha  occ. eigenvalues --   -0.38917  -0.38666  -0.37412  -0.36731  -0.35886
 Alpha  occ. eigenvalues --   -0.34600  -0.33003  -0.31611  -0.31368  -0.30357
 Alpha  occ. eigenvalues --   -0.30076  -0.26897  -0.26585  -0.25185  -0.23762
 Alpha virt. eigenvalues --   -0.05590  -0.01610   0.01613   0.04558   0.06197
 Alpha virt. eigenvalues --    0.07493   0.08259   0.09204   0.09325   0.10411
 Alpha virt. eigenvalues --    0.11329   0.12263   0.12716   0.13944   0.14266
 Alpha virt. eigenvalues --    0.15714   0.16208   0.16400   0.17209   0.18058
 Alpha virt. eigenvalues --    0.18092   0.18913   0.19656   0.20693   0.22291
 Alpha virt. eigenvalues --    0.22480   0.25342   0.25701   0.29007   0.29332
 Alpha virt. eigenvalues --    0.31985   0.32463   0.34191   0.35815   0.37733
 Alpha virt. eigenvalues --    0.41077   0.43158   0.43676   0.46371   0.47446
 Alpha virt. eigenvalues --    0.48637   0.49699   0.50726   0.51529   0.52810
 Alpha virt. eigenvalues --    0.53059   0.54560   0.54927   0.55284   0.56865
 Alpha virt. eigenvalues --    0.57482   0.57754   0.58216   0.58657   0.59989
 Alpha virt. eigenvalues --    0.60571   0.60962   0.61788   0.62525   0.63550
 Alpha virt. eigenvalues --    0.64388   0.65213   0.66914   0.69734   0.70481
 Alpha virt. eigenvalues --    0.70950   0.73288   0.75266   0.75804   0.77191
 Alpha virt. eigenvalues --    0.78067   0.80052   0.80879   0.82043   0.82495
 Alpha virt. eigenvalues --    0.82972   0.83614   0.83936   0.84479   0.85621
 Alpha virt. eigenvalues --    0.86864   0.86950   0.88343   0.89525   0.89867
 Alpha virt. eigenvalues --    0.90052   0.91373   0.92382   0.93215   0.94919
 Alpha virt. eigenvalues --    0.95164   0.95350   0.96672   0.97573   0.98774
 Alpha virt. eigenvalues --    1.00548   1.01409   1.03937   1.05231   1.05732
 Alpha virt. eigenvalues --    1.07930   1.09128   1.09547   1.10768   1.13987
 Alpha virt. eigenvalues --    1.14639   1.15557   1.16773   1.17243   1.19160
 Alpha virt. eigenvalues --    1.21300   1.23088   1.23584   1.25818   1.29183
 Alpha virt. eigenvalues --    1.30476   1.31152   1.34197   1.35312   1.36790
 Alpha virt. eigenvalues --    1.37315   1.40947   1.41583   1.41827   1.44676
 Alpha virt. eigenvalues --    1.45291   1.46446   1.47566   1.48535   1.49377
 Alpha virt. eigenvalues --    1.49489   1.49928   1.53698   1.56669   1.58050
 Alpha virt. eigenvalues --    1.62136   1.69576   1.71687   1.72929   1.77374
 Alpha virt. eigenvalues --    1.77944   1.78934   1.79663   1.81156   1.81801
 Alpha virt. eigenvalues --    1.82294   1.85619   1.86500   1.88149   1.89692
 Alpha virt. eigenvalues --    1.91795   1.92765   1.94150   1.95973   1.96341
 Alpha virt. eigenvalues --    1.97027   1.97916   1.98907   2.00039   2.00666
 Alpha virt. eigenvalues --    2.04105   2.06271   2.07954   2.09753   2.10353
 Alpha virt. eigenvalues --    2.11037   2.11600   2.12733   2.13962   2.14025
 Alpha virt. eigenvalues --    2.17849   2.19553   2.21134   2.22778   2.23482
 Alpha virt. eigenvalues --    2.24333   2.25602   2.27071   2.27761   2.29358
 Alpha virt. eigenvalues --    2.30298   2.33335   2.34782   2.36287   2.41912
 Alpha virt. eigenvalues --    2.43307   2.48714   2.51458   2.53276   2.53591
 Alpha virt. eigenvalues --    2.56994   2.57590   2.60391   2.60560   2.62750
 Alpha virt. eigenvalues --    2.65693   2.66492   2.70580   2.72403   2.73340
 Alpha virt. eigenvalues --    2.73915   2.76709   2.78039   2.84963   2.87351
 Alpha virt. eigenvalues --    2.89176   2.92922   3.02509   3.06154   3.12902
 Alpha virt. eigenvalues --    3.26948   3.42296   3.72448   3.83104   3.98187
 Alpha virt. eigenvalues --    4.01280   4.05170   4.07419   4.09391   4.10174
 Alpha virt. eigenvalues --    4.14597   4.17277   4.23062   4.29034   4.31055
 Alpha virt. eigenvalues --    4.32171   4.38945   4.40187   4.56370   4.73727
          Condensed to atoms (all electrons):
               1          2          3          4          5          6
     1  O    8.197331   0.451354  -0.056785   0.009800  -0.002443  -0.000008
     2  S    0.451354  13.534701   0.094794  -0.006106   0.004025  -0.000238
     3  N   -0.056785   0.094794   7.492648   0.218149  -0.072211   0.005450
     4  C    0.009800  -0.006106   0.218149   4.530195   0.371940  -0.026920
     5  N   -0.002443   0.004025  -0.072211   0.371940   6.912347   0.114196
     6  O   -0.000008  -0.000238   0.005450  -0.026920   0.114196   8.187246
     7  C    0.000016   0.000246   0.000422  -0.025421  -0.077485   0.249810
     8  C    0.000000  -0.000011  -0.000209   0.003051   0.004081  -0.037713
     9  C    0.000000   0.000000   0.000003   0.000614  -0.000100   0.003207
    10  C    0.000000   0.000000   0.000000  -0.000006   0.000001  -0.000060
    11  C    0.000000   0.000000   0.000000   0.000000   0.000000   0.000001
    12  C    0.000000   0.000000   0.000000   0.000005   0.000000   0.000306
    13  C    0.000000   0.000000  -0.000001  -0.000333   0.000141  -0.006574
    14  C    0.000071   0.001003  -0.062582   0.435883  -0.037112  -0.098392
    15  N   -0.053753   0.177712  -0.051777  -0.009319   0.003566   0.000020
    16  C    0.001596  -0.018577   0.003322   0.000411  -0.000526   0.000001
    17  C   -0.003554  -0.018163  -0.000014   0.001638  -0.011088   0.000104
    18  O   -0.040528   0.460911  -0.056878   0.001905  -0.000022   0.000000
    19  H    0.000097  -0.010829   0.305221  -0.024746   0.003319  -0.000075
    20  H    0.000000   0.000000  -0.000001   0.000074  -0.000004   0.000021
    21  H    0.000000   0.000000   0.000000   0.000000   0.000000   0.000000
    22  H    0.000000   0.000000   0.000000   0.000000   0.000000   0.000000
    23  H    0.000000   0.000000   0.000000   0.000000   0.000000  -0.000003
    24  H    0.000000   0.000000   0.000000   0.000075  -0.000272   0.009918
    25  H    0.000002  -0.000122  -0.001819  -0.029064   0.004696   0.003579
    26  H    0.000058   0.004114  -0.001763  -0.000026   0.000011   0.000000
    27  H   -0.000053   0.002512   0.000063  -0.000049   0.000009   0.000000
    28  H   -0.000015  -0.009321   0.004491   0.001764   0.000236  -0.000009
    29  H    0.009654  -0.004311   0.000073  -0.000115  -0.000137   0.000003
    30  H   -0.000146  -0.007492   0.000967   0.001078   0.016719  -0.000569
    31  H    0.000226   0.003805  -0.000131  -0.000055   0.000325  -0.000001
               7          8          9         10         11         12
     1  O    0.000016   0.000000   0.000000   0.000000   0.000000   0.000000
     2  S    0.000246  -0.000011   0.000000   0.000000   0.000000   0.000000
     3  N    0.000422  -0.000209   0.000003   0.000000   0.000000   0.000000
     4  C   -0.025421   0.003051   0.000614  -0.000006   0.000000   0.000005
     5  N   -0.077485   0.004081  -0.000100   0.000001   0.000000   0.000000
     6  O    0.249810  -0.037713   0.003207  -0.000060   0.000001   0.000306
     7  C    4.728103   0.342194  -0.041513   0.006409   0.000944   0.004789
     8  C    0.342194   4.770774   0.536975  -0.007978  -0.033811  -0.007953
     9  C   -0.041513   0.536975   5.004236   0.522344  -0.038488  -0.041439
    10  C    0.006409  -0.007978   0.522344   4.860048   0.546059  -0.023712
    11  C    0.000944  -0.033811  -0.038488   0.546059   4.851171   0.543210
    12  C    0.004789  -0.007953  -0.041439  -0.023712   0.543210   4.875347
    13  C   -0.039598   0.477268  -0.084660  -0.042588  -0.035751   0.504530
    14  C    0.507481  -0.058894  -0.021604   0.000194   0.000015  -0.000242
    15  N   -0.000007   0.000000   0.000000   0.000000   0.000000   0.000000
    16  C    0.000000   0.000000   0.000000   0.000000   0.000000   0.000000
    17  C   -0.000010   0.000000   0.000000   0.000000   0.000000   0.000000
    18  O    0.000000   0.000000   0.000000   0.000000   0.000000   0.000000
    19  H    0.000001  -0.000004   0.000000   0.000000   0.000000   0.000000
    20  H   -0.013563  -0.037945   0.351591  -0.044418   0.004705   0.000207
    21  H   -0.000214   0.003315  -0.038771   0.359177  -0.041756   0.004499
    22  H    0.000003   0.000549   0.004920  -0.042742   0.361146  -0.042535
    23  H   -0.000185   0.003144   0.000888   0.004488  -0.042037   0.359961
    24  H   -0.013325  -0.038572   0.005444   0.000275   0.004416  -0.042735
    25  H   -0.024613  -0.003711   0.001362   0.000087  -0.000001   0.000002
    26  H    0.000000   0.000000   0.000000   0.000000   0.000000   0.000000
    27  H    0.000000   0.000000   0.000000   0.000000   0.000000   0.000000
    28  H    0.000002   0.000000   0.000000   0.000000   0.000000   0.000000
    29  H    0.000000   0.000000   0.000000   0.000000   0.000000   0.000000
    30  H    0.000064   0.000000   0.000000   0.000000   0.000000   0.000000
    31  H    0.000000   0.000000   0.000000   0.000000   0.000000   0.000000
              13         14         15         16         17         18
     1  O    0.000000   0.000071  -0.053753   0.001596  -0.003554  -0.040528
     2  S    0.000000   0.001003   0.177712  -0.018577  -0.018163   0.460911
     3  N   -0.000001  -0.062582  -0.051777   0.003322  -0.000014  -0.056878
     4  C   -0.000333   0.435883  -0.009319   0.000411   0.001638   0.001905
     5  N    0.000141  -0.037112   0.003566  -0.000526  -0.011088  -0.000022
     6  O   -0.006574  -0.098392   0.000020   0.000001   0.000104   0.000000
     7  C   -0.039598   0.507481  -0.000007   0.000000  -0.000010   0.000000
     8  C    0.477268  -0.058894   0.000000   0.000000   0.000000   0.000000
     9  C   -0.084660  -0.021604   0.000000   0.000000   0.000000   0.000000
    10  C   -0.042588   0.000194   0.000000   0.000000   0.000000   0.000000
    11  C   -0.035751   0.000015   0.000000   0.000000   0.000000   0.000000
    12  C    0.504530  -0.000242   0.000000   0.000000   0.000000   0.000000
    13  C    5.044145   0.012392   0.000000   0.000000   0.000000   0.000000
    14  C    0.012392   5.278317  -0.000118  -0.000009  -0.000019  -0.000056
    15  N    0.000000  -0.000118   7.171869   0.278865   0.271807  -0.055896
    16  C    0.000000  -0.000009   0.278865   4.988656  -0.047169  -0.007393
    17  C    0.000000  -0.000019   0.271807  -0.047169   5.017675   0.001353
    18  O    0.000000  -0.000056  -0.055896  -0.007393   0.001353   8.229486
    19  H    0.000000  -0.004241   0.002273  -0.000168  -0.000037   0.006120
    20  H    0.006095   0.006237   0.000000   0.000000   0.000000   0.000000
    21  H    0.000864  -0.000001   0.000000   0.000000   0.000000   0.000000
    22  H    0.004716   0.000000   0.000000   0.000000   0.000000   0.000000
    23  H   -0.037868   0.000001   0.000000   0.000000   0.000000   0.000000
    24  H    0.360228   0.000261   0.000000   0.000000   0.000000   0.000000
    25  H   -0.000125   0.346638   0.000000   0.000000   0.000000  -0.000001
    26  H    0.000000   0.000000  -0.034182   0.374324   0.004346   0.010150
    27  H    0.000000   0.000000  -0.034987   0.374115  -0.004477   0.000022
    28  H    0.000000   0.000023  -0.048004   0.375822   0.000010  -0.000193
    29  H    0.000000  -0.000003  -0.030036   0.004230   0.380073   0.000024
    30  H    0.000000   0.000149  -0.045114  -0.000287   0.369226  -0.000073
    31  H    0.000000   0.000000  -0.037297  -0.004917   0.364701  -0.000045
              19         20         21         22         23         24
     1  O    0.000097   0.000000   0.000000   0.000000   0.000000   0.000000
     2  S   -0.010829   0.000000   0.000000   0.000000   0.000000   0.000000
     3  N    0.305221  -0.000001   0.000000   0.000000   0.000000   0.000000
     4  C   -0.024746   0.000074   0.000000   0.000000   0.000000   0.000075
     5  N    0.003319  -0.000004   0.000000   0.000000   0.000000  -0.000272
     6  O   -0.000075   0.000021   0.000000   0.000000  -0.000003   0.009918
     7  C    0.000001  -0.013563  -0.000214   0.000003  -0.000185  -0.013325
     8  C   -0.000004  -0.037945   0.003315   0.000549   0.003144  -0.038572
     9  C    0.000000   0.351591  -0.038771   0.004920   0.000888   0.005444
    10  C    0.000000  -0.044418   0.359177  -0.042742   0.004488   0.000275
    11  C    0.000000   0.004705  -0.041756   0.361146  -0.042037   0.004416
    12  C    0.000000   0.000207   0.004499  -0.042535   0.359961  -0.042735
    13  C    0.000000   0.006095   0.000864   0.004716  -0.037868   0.360228
    14  C   -0.004241   0.006237  -0.000001   0.000000   0.000001   0.000261
    15  N    0.002273   0.000000   0.000000   0.000000   0.000000   0.000000
    16  C   -0.000168   0.000000   0.000000   0.000000   0.000000   0.000000
    17  C   -0.000037   0.000000   0.000000   0.000000   0.000000   0.000000
    18  O    0.006120   0.000000   0.000000   0.000000   0.000000   0.000000
    19  H    0.353226   0.000000   0.000000   0.000000   0.000000   0.000000
    20  H    0.000000   0.593916  -0.005284  -0.000172   0.000016  -0.000150
    21  H    0.000000  -0.005284   0.584215  -0.005438  -0.000176   0.000016
    22  H    0.000000  -0.000172  -0.005438   0.585644  -0.005382  -0.000157
    23  H    0.000000   0.000016  -0.000176  -0.005382   0.580185  -0.004846
    24  H    0.000000  -0.000150   0.000016  -0.000157  -0.004846   0.554784
    25  H    0.001954   0.002231  -0.000003   0.000000   0.000000  -0.000009
    26  H   -0.000017   0.000000   0.000000   0.000000   0.000000   0.000000
    27  H    0.000010   0.000000   0.000000   0.000000   0.000000   0.000000
    28  H   -0.000274   0.000000   0.000000   0.000000   0.000000   0.000000
    29  H    0.000000   0.000000   0.000000   0.000000   0.000000   0.000000
    30  H   -0.000046   0.000000   0.000000   0.000000   0.000000   0.000000
    31  H    0.000003   0.000000   0.000000   0.000000   0.000000   0.000000
              25         26         27         28         29         30
     1  O    0.000002   0.000058  -0.000053  -0.000015   0.009654  -0.000146
     2  S   -0.000122   0.004114   0.002512  -0.009321  -0.004311  -0.007492
     3  N   -0.001819  -0.001763   0.000063   0.004491   0.000073   0.000967
     4  C   -0.029064  -0.000026  -0.000049   0.001764  -0.000115   0.001078
     5  N    0.004696   0.000011   0.000009   0.000236  -0.000137   0.016719
     6  O    0.003579   0.000000   0.000000  -0.000009   0.000003  -0.000569
     7  C   -0.024613   0.000000   0.000000   0.000002   0.000000   0.000064
     8  C   -0.003711   0.000000   0.000000   0.000000   0.000000   0.000000
     9  C    0.001362   0.000000   0.000000   0.000000   0.000000   0.000000
    10  C    0.000087   0.000000   0.000000   0.000000   0.000000   0.000000
    11  C   -0.000001   0.000000   0.000000   0.000000   0.000000   0.000000
    12  C    0.000002   0.000000   0.000000   0.000000   0.000000   0.000000
    13  C   -0.000125   0.000000   0.000000   0.000000   0.000000   0.000000
    14  C    0.346638   0.000000   0.000000   0.000023  -0.000003   0.000149
    15  N    0.000000  -0.034182  -0.034987  -0.048004  -0.030036  -0.045114
    16  C    0.000000   0.374324   0.374115   0.375822   0.004230  -0.000287
    17  C    0.000000   0.004346  -0.004477   0.000010   0.380073   0.369226
    18  O   -0.000001   0.010150   0.000022  -0.000193   0.000024  -0.000073
    19  H    0.001954  -0.000017   0.000010  -0.000274   0.000000  -0.000046
    20  H    0.002231   0.000000   0.000000   0.000000   0.000000   0.000000
    21  H   -0.000003   0.000000   0.000000   0.000000   0.000000   0.000000
    22  H    0.000000   0.000000   0.000000   0.000000   0.000000   0.000000
    23  H    0.000000   0.000000   0.000000   0.000000   0.000000   0.000000
    24  H   -0.000009   0.000000   0.000000   0.000000   0.000000   0.000000
    25  H    0.541783   0.000000   0.000000   0.000000   0.000000  -0.000001
    26  H    0.000000   0.497887  -0.021734  -0.030573  -0.000186  -0.000185
    27  H    0.000000  -0.021734   0.549573  -0.038669   0.000054  -0.001186
    28  H    0.000000  -0.030573  -0.038669   0.573640  -0.000175   0.006169
    29  H    0.000000  -0.000186   0.000054  -0.000175   0.487507  -0.027014
    30  H   -0.000001  -0.000185  -0.001186   0.006169  -0.027014   0.529346
    31  H    0.000000   0.000054   0.005834  -0.001459  -0.022730  -0.034913
              31
     1  O    0.000226
     2  S    0.003805
     3  N   -0.000131
     4  C   -0.000055
     5  N    0.000325
     6  O   -0.000001
     7  C    0.000000
     8  C    0.000000
     9  C    0.000000
    10  C    0.000000
    11  C    0.000000
    12  C    0.000000
    13  C    0.000000
    14  C    0.000000
    15  N   -0.037297
    16  C   -0.004917
    17  C    0.364701
    18  O   -0.000045
    19  H    0.000003
    20  H    0.000000
    21  H    0.000000
    22  H    0.000000
    23  H    0.000000
    24  H    0.000000
    25  H    0.000000
    26  H    0.000054
    27  H    0.005834
    28  H   -0.001459
    29  H   -0.022730
    30  H   -0.034913
    31  H    0.569933
 Mulliken charges:
               1
     1  O   -0.512918
     2  S    1.339992
     3  N   -0.821431
     4  C    0.545576
     5  N   -0.234215
     6  O   -0.403302
     7  C    0.395448
     8  C    0.085450
     9  C   -0.165010
    10  C   -0.137579
    11  C   -0.119823
    12  C   -0.134241
    13  C   -0.162882
    14  C   -0.305395
    15  N   -0.505621
    16  C   -0.322297
    17  C   -0.326403
    18  O   -0.548887
    19  H    0.368213
    20  H    0.136444
    21  H    0.139557
    22  H    0.139448
    23  H    0.141812
    24  H    0.164651
    25  H    0.157133
    26  H    0.197723
    27  H    0.168963
    28  H    0.166536
    29  H    0.203087
    30  H    0.193307
    31  H    0.156665
 Sum of Mulliken charges =   0.00000
 Mulliken charges with hydrogens summed into heavy atoms:
               1
     1  O   -0.512918
     2  S    1.339992
     3  N   -0.453218
     4  C    0.545576
     5  N   -0.234215
     6  O   -0.403302
     7  C    0.395448
     8  C    0.085450
     9  C   -0.028566
    10  C    0.001977
    11  C    0.019625
    12  C    0.007571
    13  C    0.001769
    14  C   -0.148262
    15  N   -0.505621
    16  C    0.210924
    17  C    0.226656
    18  O   -0.548887
 Electronic spatial extent (au):  <R**2>=           7043.4991
 Charge=              0.0000 electrons
 Dipole moment (field-independent basis, Debye):
    X=             -4.0989    Y=              0.0945    Z=             -3.2366  Tot=              5.2236
 Quadrupole moment (field-independent basis, Debye-Ang):
   XX=           -101.5508   YY=           -102.3028   ZZ=           -115.9766
   XY=             12.3049   XZ=            -10.4643   YZ=              3.3287
 Traceless Quadrupole moment (field-independent basis, Debye-Ang):
   XX=              5.0593   YY=              4.3072   ZZ=             -9.3665
   XY=             12.3049   XZ=            -10.4643   YZ=              3.3287
 Octapole moment (field-independent basis, Debye-Ang**2):
  XXX=           -102.1930  YYY=             -4.1287  ZZZ=             -4.5638  XYY=             -4.5647
  XXY=             55.1544  XXZ=            -29.9094  XZZ=             26.3926  YZZ=              2.9313
  YYZ=             -1.6742  XYZ=             -3.6042
 Hexadecapole moment (field-independent basis, Debye-Ang**3):
 XXXX=          -7417.2189 YYYY=           -844.6986 ZZZZ=           -419.4785 XXXY=            193.2935
 XXXZ=           -148.2452 YYYX=             18.6867 YYYZ=             18.2744 ZZZX=            -19.9115
 ZZZY=             -0.2638 XXYY=          -1403.9190 XXZZ=          -1466.6301 YYZZ=           -217.0157
 XXYZ=             30.9707 YYXZ=             -2.5089 ZZXY=             -0.7313
 N-N= 1.450808044639D+03 E-N=-5.748495986407D+03  KE= 1.205933759254D+03
 No NMR shielding tensors so no spin-rotation constants.
 Leave Link  601 at Thu Aug  6 22:13:31 2020, MaxMem=    33554432 cpu:         0.2
 (Enter /prod/apps/gaussian/g09d1/l9999.exe)
 1\1\GINC-PIRINEUS9\SP\RB3LYP\6-31G(d)\C11H13N3O3S1\UBAFAR01\06-Aug-202
 0\0\\#p b3lyp/6-31G(d)\\SM43.n.10.pdb.xyz\\0,1\O,0,1.697,-3.65,1.209\S
 ,0,2.289,-2.635,0.342\N,0,1.896,-1.061,0.907\C,0,1.783,-0.726,2.255\N,
 0,2.651,-1.172,3.143\O,0,2.238,-0.612,4.358\C,0,1.153,0.172,4.155\C,0,
 0.588,0.85,5.315\C,0,-0.523,1.695,5.165\C,0,-1.063,2.343,6.272\C,0,-0.
 503,2.157,7.537\C,0,0.603,1.318,7.692\C,0,1.148,0.666,6.589\C,0,0.812,
 0.137,2.831\N,0,3.928,-2.795,0.441\C,0,4.719,-1.774,-0.25\C,0,4.514,-3
 .334,1.677\O,0,1.92,-2.531,-1.068\H,0,1.208,-0.637,0.292\H,0,-0.96,1.8
 42,4.184\H,0,-1.922,2.993,6.146\H,0,-0.925,2.663,8.398\H,0,1.041,1.17,
 8.673\H,0,2.005,0.013,6.702\H,0,-0.006,0.634,2.337\H,0,4.251,-1.538,-1
 .204\H,0,5.708,-2.195,-0.439\H,0,4.824,-0.861,0.348\H,0,3.919,-4.182,2
 .011\H,0,4.556,-2.583,2.471\H,0,5.519,-3.677,1.424\\Version=AM64L-G09R
 evD.01\State=1-A\HF=-1214.9875515\RMSD=3.233e-09\Dipole=0.0503211,1.85
 39685,0.8853203\Quadrupole=7.2389814,-6.1650903,-1.0738912,-9.6834805,
 -6.0956756,-3.1757139\PG=C01 [X(C11H13N3O3S1)]\\@


 Cherishing children is the mark of a civilized society.
 -- Joan Ganz Cooney
 Job cpu time:       0 days  0 hours  3 minutes 45.7 seconds.
 File lengths (MBytes):  RWF=     51 Int=      0 D2E=      0 Chk=      4 Scr=      1
 Normal termination of Gaussian 09 at Thu Aug  6 22:13:31 2020.
 Initial command:
 /prod/apps/gaussian/g09d1/l1.exe "/tmp/ubafar01/1448652/Gau-126383.inp" -scrdir="/tmp/ubafar01/1448652/"
 Entering Link 1 = /prod/apps/gaussian/g09d1/l1.exe PID=    127216.
  
 Copyright (c) 1988,1990,1992,1993,1995,1998,2003,2009,2013,
            Gaussian, Inc.  All Rights Reserved.
  
 This is part of the Gaussian(R) 09 program.  It is based on
 the Gaussian(R) 03 system (copyright 2003, Gaussian, Inc.),
 the Gaussian(R) 98 system (copyright 1998, Gaussian, Inc.),
 the Gaussian(R) 94 system (copyright 1995, Gaussian, Inc.),
 the Gaussian 92(TM) system (copyright 1992, Gaussian, Inc.),
 the Gaussian 90(TM) system (copyright 1990, Gaussian, Inc.),
 the Gaussian 88(TM) system (copyright 1988, Gaussian, Inc.),
 the Gaussian 86(TM) system (copyright 1986, Carnegie Mellon
 University), and the Gaussian 82(TM) system (copyright 1983,
 Carnegie Mellon University). Gaussian is a federally registered
 trademark of Gaussian, Inc.
  
 This software contains proprietary and confidential information,
 including trade secrets, belonging to Gaussian, Inc.
  
 This software is provided under written license and may be
 used, copied, transmitted, or stored only in accord with that
 written license.
  
 The following legend is applicable only to US Government
 contracts under FAR:
  
                    RESTRICTED RIGHTS LEGEND
  
 Use, reproduction and disclosure by the US Government is
 subject to restrictions as set forth in subparagraphs (a)
 and (c) of the Commercial Computer Software - Restricted
 Rights clause in FAR 52.227-19.
  
 Gaussian, Inc.
 340 Quinnipiac St., Bldg. 40, Wallingford CT 06492
  
  
 ---------------------------------------------------------------
 Warning -- This program may not be used in any manner that
 competes with the business of Gaussian, Inc. or will provide
 assistance to any competitor of Gaussian, Inc.  The licensee
 of this program is prohibited from giving any competitor of
 Gaussian, Inc. access to this program.  By using this program,
 the user acknowledges that Gaussian, Inc. is engaged in the
 business of creating and licensing software in the field of
 computational chemistry and represents and warrants to the
 licensee that it is not a competitor of Gaussian, Inc. and that
 it will not use this program in any manner prohibited above.
 ---------------------------------------------------------------
  

 Cite this work as:
 Gaussian 09, Revision D.01,
 M. J. Frisch, G. W. Trucks, H. B. Schlegel, G. E. Scuseria, 
 M. A. Robb, J. R. Cheeseman, G. Scalmani, V. Barone, B. Mennucci, 
 G. A. Petersson, H. Nakatsuji, M. Caricato, X. Li, H. P. Hratchian, 
 A. F. Izmaylov, J. Bloino, G. Zheng, J. L. Sonnenberg, M. Hada, 
 M. Ehara, K. Toyota, R. Fukuda, J. Hasegawa, M. Ishida, T. Nakajima, 
 Y. Honda, O. Kitao, H. Nakai, T. Vreven, J. A. Montgomery, Jr., 
 J. E. Peralta, F. Ogliaro, M. Bearpark, J. J. Heyd, E. Brothers, 
 K. N. Kudin, V. N. Staroverov, T. Keith, R. Kobayashi, J. Normand, 
 K. Raghavachari, A. Rendell, J. C. Burant, S. S. Iyengar, J. Tomasi, 
 M. Cossi, N. Rega, J. M. Millam, M. Klene, J. E. Knox, J. B. Cross, 
 V. Bakken, C. Adamo, J. Jaramillo, R. Gomperts, R. E. Stratmann, 
 O. Yazyev, A. J. Austin, R. Cammi, C. Pomelli, J. W. Ochterski, 
 R. L. Martin, K. Morokuma, V. G. Zakrzewski, G. A. Voth, 
 P. Salvador, J. J. Dannenberg, S. Dapprich, A. D. Daniels, 
 O. Farkas, J. B. Foresman, J. V. Ortiz, J. Cioslowski, 
 and D. J. Fox, Gaussian, Inc., Wallingford CT, 2013.
 
 ******************************************
 Gaussian 09:  AM64L-G09RevD.01 24-Apr-2013
                 6-Aug-2020 
 ******************************************
 %nproc=1
 Will use up to    1 processors via shared memory.
 %Chk=SM43.n.10.pdb.xyz.mst.n.o.chk
 %subst l301 /dades/curu/work_g09D01_MST_AddSphPartition_ReadGammas/exe-dir/
 %subst l502 /dades/curu/work_g09D01_MST_AddSphPartition_ReadGammas/exe-dir/
 ----------------------------------------------------------------------
 #p b3lyp/6-31G(d) scrf=(iefpcm,read,solvent=n-Octanol) geom=allcheck g
 uess=read
 ----------------------------------------------------------------------
 1/29=7,38=1,40=2/1;
 2/12=2,40=1/2;
 3/5=1,6=6,7=1,11=2,14=-4,16=1,25=1,30=1,70=2203,72=25,74=-5,116=-2/1,2,3;
 4/5=1/1;
 5/5=2,38=6,53=25/2;
 6/7=2,8=2,9=2,10=2,28=1/1;
 99/5=1,9=1/99;
 Leave Link    1 at Thu Aug  6 22:13:31 2020, MaxMem=           0 cpu:         0.0
 (Enter /prod/apps/gaussian/g09d1/l101.exe)
 Structure from the checkpoint file:  "SM43.n.10.pdb.xyz.mst.n.o.chk"
 -----------------
 SM43.n.10.pdb.xyz
 -----------------
 Charge =  0 Multiplicity = 1
 Z-Matrix found in file.
 O,0,1.697,-3.65,1.209
 S,0,2.289,-2.635,0.342
 N,0,1.896,-1.061,0.907
 C,0,1.783,-0.726,2.255
 N,0,2.651,-1.172,3.143
 O,0,2.238,-0.612,4.358
 C,0,1.153,0.172,4.155
 C,0,0.588,0.85,5.315
 C,0,-0.523,1.695,5.165
 C,0,-1.063,2.343,6.272
 C,0,-0.503,2.157,7.537
 C,0,0.603,1.318,7.692
 C,0,1.148,0.666,6.589
 C,0,0.812,0.137,2.831
 N,0,3.928,-2.795,0.441
 C,0,4.719,-1.774,-0.25
 C,0,4.514,-3.334,1.677
 O,0,1.92,-2.531,-1.068
 H,0,1.208,-0.637,0.292
 H,0,-0.96,1.842,4.184
 H,0,-1.922,2.993,6.146
 H,0,-0.925,2.663,8.398
 H,0,1.041,1.17,8.673
 H,0,2.005,0.013,6.702
 H,0,-0.006,0.634,2.337
 H,0,4.251,-1.538,-1.204
 H,0,5.708,-2.195,-0.439
 H,0,4.824,-0.861,0.348
 H,0,3.919,-4.182,2.011
 H,0,4.556,-2.583,2.471
 H,0,5.519,-3.677,1.424
 Recover connectivity data from disk.
 NAtoms=     31 NQM=       31 NQMF=       0 NMMI=      0 NMMIF=      0
                NMic=       0 NMicF=      0.
                    Isotopes and Nuclear Properties:
 (Nuclear quadrupole moments (NQMom) in fm**2, nuclear magnetic moments (NMagM)
  in nuclear magnetons)

  Atom         1           2           3           4           5           6           7           8           9          10
 IAtWgt=          16          32          14          12          14          16          12          12          12          12
 AtmWgt=  15.9949146  31.9720718  14.0030740  12.0000000  14.0030740  15.9949146  12.0000000  12.0000000  12.0000000  12.0000000
 NucSpn=           0           0           2           0           2           0           0           0           0           0
 AtZEff=  -5.6000000 -13.6000000  -4.5500000  -3.6000000  -4.5500000  -5.6000000  -3.6000000  -3.6000000  -3.6000000  -3.6000000
 NQMom=    0.0000000   0.0000000   2.0440000   0.0000000   2.0440000   0.0000000   0.0000000   0.0000000   0.0000000   0.0000000
 NMagM=    0.0000000   0.0000000   0.4037610   0.0000000   0.4037610   0.0000000   0.0000000   0.0000000   0.0000000   0.0000000
 AtZNuc=   8.0000000  16.0000000   7.0000000   6.0000000   7.0000000   8.0000000   6.0000000   6.0000000   6.0000000   6.0000000

  Atom        11          12          13          14          15          16          17          18          19          20
 IAtWgt=          12          12          12          12          14          12          12          16           1           1
 AtmWgt=  12.0000000  12.0000000  12.0000000  12.0000000  14.0030740  12.0000000  12.0000000  15.9949146   1.0078250   1.0078250
 NucSpn=           0           0           0           0           2           0           0           0           1           1
 AtZEff=  -3.6000000  -3.6000000  -3.6000000  -3.6000000  -4.5500000  -3.6000000  -3.6000000  -5.6000000  -1.0000000  -1.0000000
 NQMom=    0.0000000   0.0000000   0.0000000   0.0000000   2.0440000   0.0000000   0.0000000   0.0000000   0.0000000   0.0000000
 NMagM=    0.0000000   0.0000000   0.0000000   0.0000000   0.4037610   0.0000000   0.0000000   0.0000000   2.7928460   2.7928460
 AtZNuc=   6.0000000   6.0000000   6.0000000   6.0000000   7.0000000   6.0000000   6.0000000   8.0000000   1.0000000   1.0000000

  Atom        21          22          23          24          25          26          27          28          29          30
 IAtWgt=           1           1           1           1           1           1           1           1           1           1
 AtmWgt=   1.0078250   1.0078250   1.0078250   1.0078250   1.0078250   1.0078250   1.0078250   1.0078250   1.0078250   1.0078250
 NucSpn=           1           1           1           1           1           1           1           1           1           1
 AtZEff=  -1.0000000  -1.0000000  -1.0000000  -1.0000000  -1.0000000  -1.0000000  -1.0000000  -1.0000000  -1.0000000  -1.0000000
 NQMom=    0.0000000   0.0000000   0.0000000   0.0000000   0.0000000   0.0000000   0.0000000   0.0000000   0.0000000   0.0000000
 NMagM=    2.7928460   2.7928460   2.7928460   2.7928460   2.7928460   2.7928460   2.7928460   2.7928460   2.7928460   2.7928460
 AtZNuc=   1.0000000   1.0000000   1.0000000   1.0000000   1.0000000   1.0000000   1.0000000   1.0000000   1.0000000   1.0000000

  Atom        31
 IAtWgt=           1
 AtmWgt=   1.0078250
 NucSpn=           1
 AtZEff=  -1.0000000
 NQMom=    0.0000000
 NMagM=    2.7928460
 AtZNuc=   1.0000000
 Leave Link  101 at Thu Aug  6 22:13:31 2020, MaxMem=    33554432 cpu:         0.0
 (Enter /prod/apps/gaussian/g09d1/l202.exe)
                          Input orientation:                          
 ---------------------------------------------------------------------
 Center     Atomic      Atomic             Coordinates (Angstroms)
 Number     Number       Type             X           Y           Z
 ---------------------------------------------------------------------
      1          8           0        1.697000   -3.650000    1.209000
      2         16           0        2.289000   -2.635000    0.342000
      3          7           0        1.896000   -1.061000    0.907000
      4          6           0        1.783000   -0.726000    2.255000
      5          7           0        2.651000   -1.172000    3.143000
      6          8           0        2.238000   -0.612000    4.358000
      7          6           0        1.153000    0.172000    4.155000
      8          6           0        0.588000    0.850000    5.315000
      9          6           0       -0.523000    1.695000    5.165000
     10          6           0       -1.063000    2.343000    6.272000
     11          6           0       -0.503000    2.157000    7.537000
     12          6           0        0.603000    1.318000    7.692000
     13          6           0        1.148000    0.666000    6.589000
     14          6           0        0.812000    0.137000    2.831000
     15          7           0        3.928000   -2.795000    0.441000
     16          6           0        4.719000   -1.774000   -0.250000
     17          6           0        4.514000   -3.334000    1.677000
     18          8           0        1.920000   -2.531000   -1.068000
     19          1           0        1.208000   -0.637000    0.292000
     20          1           0       -0.960000    1.842000    4.184000
     21          1           0       -1.922000    2.993000    6.146000
     22          1           0       -0.925000    2.663000    8.398000
     23          1           0        1.041000    1.170000    8.673000
     24          1           0        2.005000    0.013000    6.702000
     25          1           0       -0.006000    0.634000    2.337000
     26          1           0        4.251000   -1.538000   -1.204000
     27          1           0        5.708000   -2.195000   -0.439000
     28          1           0        4.824000   -0.861000    0.348000
     29          1           0        3.919000   -4.182000    2.011000
     30          1           0        4.556000   -2.583000    2.471000
     31          1           0        5.519000   -3.677000    1.424000
 ---------------------------------------------------------------------
                    Distance matrix (angstroms):
                    1          2          3          4          5
     1  O    0.000000
     2  S    1.460266   0.000000
     3  N    2.614140   1.717891   0.000000
     4  C    3.106652   2.749525   1.393592   0.000000
     5  N    3.284959   3.180725   2.362635   1.319426   0.000000
     6  O    4.408892   4.497042   3.496851   2.154676   1.400141
     7  C    4.856185   4.869159   3.552723   2.193924   2.252662
     8  C    6.191859   6.306295   4.979282   3.643542   3.614144
     9  C    7.010518   7.065237   5.619400   4.432491   4.731009
    10  C    8.316707   8.436900   7.009003   5.801273   5.994970
    11  C    8.865937   9.084413   7.750331   6.437158   6.351157
    12  C    8.240579   8.514183   7.305321   5.927167   5.575644
    13  C    6.919079   7.157059   5.985579   4.596134   4.184754
    14  C    4.213725   4.007572   2.512377   1.421051   2.278760
    15  N    2.509623   1.649764   2.711630   3.488894   3.400833
    16  C    3.844547   2.645125   3.133105   3.999178   4.018890
    17  C    2.873042   2.687276   3.551528   3.820224   3.208453
    18  O    2.546884   1.461190   2.462133   3.784062   4.484837
    19  H    3.187190   2.272238   1.015552   2.047417   3.239857
    20  H    6.787661   6.735020   5.227129   4.223709   4.817385
    21  H    9.033304   9.115554   7.645859   6.534360   6.875868
    22  H    9.920210  10.163549   8.828437   7.520308   7.423613
    23  H    8.909211   9.243435   8.125216   6.733209   6.217553
    24  H    6.609499   6.895082   5.894691   4.513448   3.806313
    25  H    4.746077   4.464685   2.921563   2.248743   3.312238
    26  H    4.099516   2.728181   3.198418   4.326089   4.646543
    27  H    4.573953   3.534561   4.198692   4.982090   4.818973
    28  H    4.277613   3.094081   2.987585   3.592013   3.553966
    29  H    2.421469   2.799227   3.879689   4.070131   3.456783
    30  H    3.302274   3.110407   3.440666   3.344344   2.464047
    31  H    3.828138   3.562217   4.498541   4.832873   4.177967
                    6          7          8          9         10
     6  O    0.000000
     7  C    1.353917   0.000000
     8  C    2.403288   1.457570   0.000000
     9  C    3.687359   2.479638   1.403868   0.000000
    10  C    4.826181   3.755740   2.422953   1.391745   0.000000
    11  C    5.028567   4.256816   2.799252   2.416656   1.395859
    12  C    4.184935   3.758482   2.422680   2.792084   2.417143
    13  C    2.792623   2.483630   1.403756   2.424636   2.793088
    14  C    2.219506   1.367656   2.593993   3.107595   4.496948
    15  N    4.792127   5.504317   6.942442   7.892254   9.236324
    16  C    5.360902   5.992270   7.410787   8.296671   9.639383
    17  C    4.447159   5.452416   6.793701   7.926434   9.189411
    18  O    5.764127   5.930786   7.344935   7.916919   9.302138
    19  H    4.194506   3.947186   5.275045   5.672805   7.056787
    20  H    4.034798   2.693420   2.158594   1.083946   2.149733
    21  H    5.787795   4.623608   3.403397   2.145779   1.084554
    22  H    6.087018   5.340994   3.883430   3.398664   2.154372
    23  H    4.819498   4.628269   3.403494   3.876569   3.401110
    24  H    2.437058   2.690426   2.152261   3.403274   3.876393
    25  H    3.266878   2.204960   3.044335   3.064408   4.418388
    26  H    5.987110   6.421883   7.849680   8.591131   9.959485
    27  H    6.128458   6.888799   8.282206   9.239171  10.558286
    28  H    4.778022   5.388560   6.748504   7.637214   8.945175
    29  H    4.591195   5.586126   6.879898   8.013626   9.249436
    30  H    3.580326   4.691086   5.968153   7.166252   8.383689
    31  H    5.363538   6.429239   7.742633   8.908380  10.152154
                   11         12         13         14         15
    11  C    0.000000
    12  C    1.396847   0.000000
    13  C    2.418178   1.392386   0.000000
    14  C    5.287349   5.006772   3.809895   0.000000
    15  N    9.721588   8.974931   7.583194   4.900835   0.000000
    16  C   10.166583   9.464528   8.091821   5.330022   1.464788
    17  C    9.468948   8.550863   7.173402   5.204264   1.470242
    18  O   10.094271   9.658514   8.333453   4.852637   2.525637
    19  H    7.951351   7.677763   6.430678   2.683731   3.475279
    20  H    3.398630   3.876030   3.407443   2.806709   7.707423
    21  H    2.155769   3.401671   3.877638   5.159527  10.013514
    22  H    1.084178   2.154587   3.399679   6.355260  10.800705
    23  H    2.156061   1.084486   2.146747   5.937044   9.582370
    24  H    3.403531   2.156091   1.083341   4.052563   7.126213
    25  H    5.441189   5.432749   4.405933   1.077111   5.552406
    26  H   10.614077  10.030127   8.672778   5.559997   2.095329
    27  H   11.006044  10.223275   8.852780   6.332609   2.074319
    28  H    9.442827   8.746383   7.402350   4.822596   2.133500
    29  H    9.501246   8.574358   7.220778   5.383271   2.094934
    30  H    8.586352   7.622523   6.255269   4.641717   2.135469
    31  H   10.376358   9.402388   8.040181   6.219493   2.067727
                   16         17         18         19         20
    16  C    0.000000
    17  C    2.487761   0.000000
    18  O    3.012735   3.861175   0.000000
    19  H    3.730101   4.485718   2.437987   0.000000
    20  H    8.061442   7.939817   7.416268   5.098365   0.000000
    21  H   10.379595  10.070997   9.864955   7.565918   2.469755
    22  H   11.239645  10.522289  11.165877   9.008159   4.293374
    23  H   10.090329   9.016194  10.457396   8.575214   4.960515
    24  H    7.673947   6.538204   8.176311   6.491980   4.298464
    25  H    5.900564   6.050704   5.031970   2.696528   2.404327
    26  H    1.088502   3.405135   2.537342   3.508513   8.222497
    27  H    1.091367   2.683359   3.854540   4.817855   9.062655
    28  H    1.096448   2.824548   3.636918   3.623364   7.448205
    29  H    3.398615   1.088432   4.025176   4.782416   8.050785
    30  H    2.843394   1.093710   4.413131   4.443429   7.276074
    31  H    2.657759   1.091642   4.525061   5.395159   8.947313
                   21         22         23         24         25
    21  H    0.000000
    22  H    2.484837   0.000000
    23  H    4.299817   2.483914   0.000000
    24  H    4.960934   4.299281   2.480481   0.000000
    25  H    4.872824   6.457331   6.444253   4.845925   0.000000
    26  H   10.614066  11.689216  10.732777   8.363908   5.947967
    27  H   11.335540  12.070187  10.776486   8.341544   6.954079
    28  H    9.694258  10.501051   9.367053   7.005994   5.433235
    29  H   10.133910  10.540974   9.017152   6.577758   6.221395
    30  H    9.303864   9.627627   8.056366   5.581055   5.583806
    31  H   11.052360  11.417417   9.802749   7.336319   7.067101
                   26         27         28         29         30
    26  H    0.000000
    27  H    1.771926   0.000000
    28  H    1.787558   1.783362   0.000000
    29  H    4.175786   3.626457   3.822778   0.000000
    30  H    3.832842   3.153688   2.746677   1.781620   0.000000
    31  H    3.617945   2.388057   3.093648   1.777525   1.794551
                   31
    31  H    0.000000
 Stoichiometry    C11H13N3O3S
[...]
 Alpha virt. eigenvalues --    0.70637   0.72867   0.75251   0.75538   0.77254
 Alpha virt. eigenvalues --    0.78034   0.79277   0.80267   0.81720   0.82985
 Alpha virt. eigenvalues --    0.83057   0.83469   0.84060   0.84643   0.85907
 Alpha virt. eigenvalues --    0.86595   0.87125   0.88468   0.89454   0.89886
 Alpha virt. eigenvalues --    0.90372   0.91338   0.92075   0.93208   0.94493
 Alpha virt. eigenvalues --    0.95012   0.95372   0.96686   0.97572   0.98324
 Alpha virt. eigenvalues --    1.00528   1.01174   1.03161   1.04508   1.05001
 Alpha virt. eigenvalues --    1.07609   1.09110   1.09268   1.10786   1.13659
 Alpha virt. eigenvalues --    1.14001   1.15169   1.16549   1.17532   1.18364
 Alpha virt. eigenvalues --    1.20437   1.22652   1.23897   1.25898   1.28904
 Alpha virt. eigenvalues --    1.30173   1.31150   1.33554   1.35204   1.36496
 Alpha virt. eigenvalues --    1.37120   1.40883   1.41659   1.42085   1.44575
 Alpha virt. eigenvalues --    1.45325   1.46744   1.47965   1.48327   1.48949
 Alpha virt. eigenvalues --    1.49816   1.50018   1.53481   1.56313   1.57959
 Alpha virt. eigenvalues --    1.61761   1.68877   1.70906   1.72794   1.77085
 Alpha virt. eigenvalues --    1.77951   1.78529   1.79022   1.80412   1.80724
 Alpha virt. eigenvalues --    1.81880   1.84881   1.86168   1.88380   1.89255
 Alpha virt. eigenvalues --    1.91833   1.92453   1.94076   1.95944   1.96143
 Alpha virt. eigenvalues --    1.96745   1.97505   1.98578   1.99732   2.00653
 Alpha virt. eigenvalues --    2.04406   2.05402   2.07576   2.09538   2.10197
 Alpha virt. eigenvalues --    2.10806   2.11739   2.13062   2.13518   2.14290
 Alpha virt. eigenvalues --    2.17762   2.19343   2.20889   2.22610   2.23426
 Alpha virt. eigenvalues --    2.24084   2.25492   2.26995   2.27871   2.29707
 Alpha virt. eigenvalues --    2.29898   2.33328   2.34678   2.35836   2.41779
 Alpha virt. eigenvalues --    2.43022   2.48340   2.51380   2.53334   2.53674
 Alpha virt. eigenvalues --    2.56941   2.57968   2.60066   2.60508   2.62791
 Alpha virt. eigenvalues --    2.65966   2.66739   2.70518   2.72021   2.73690
 Alpha virt. eigenvalues --    2.74211   2.75884   2.77814   2.83681   2.87354
 Alpha virt. eigenvalues --    2.89215   2.92908   3.02504   3.05953   3.13023
 Alpha virt. eigenvalues --    3.27019   3.42667   3.71397   3.82779   3.97598
 Alpha virt. eigenvalues --    4.00456   4.04603   4.07694   4.09513   4.10563
 Alpha virt. eigenvalues --    4.14103   4.16954   4.23183   4.28743   4.31383
 Alpha virt. eigenvalues --    4.31818   4.38893   4.40309   4.56435   4.73988
          Condensed to atoms (all electrons):
               1          2          3          4          5          6
     1  O    8.219395   0.450312  -0.057383   0.009666  -0.002458  -0.000008
     2  S    0.450312  13.518366   0.111163  -0.008133   0.004785  -0.000254
     3  N   -0.057383   0.111163   7.477265   0.222823  -0.073297   0.005481
     4  C    0.009666  -0.008133   0.222823   4.522641   0.376135  -0.028945
     5  N   -0.002458   0.004785  -0.073297   0.376135   6.928947   0.111429
     6  O   -0.000008  -0.000254   0.005481  -0.028945   0.111429   8.200182
     7  C    0.000016   0.000222   0.000266  -0.024744  -0.078707   0.247629
     8  C    0.000000  -0.000012  -0.000209   0.002997   0.004079  -0.037605
     9  C    0.000000   0.000000   0.000003   0.000618  -0.000099   0.003170
    10  C    0.000000   0.000000   0.000000  -0.000006   0.000001  -0.000061
    11  C    0.000000   0.000000   0.000000   0.000000   0.000000   0.000001
    12  C    0.000000   0.000000   0.000000   0.000005   0.000000   0.000295
    13  C    0.000000   0.000000  -0.000001  -0.000336   0.000144  -0.006738
    14  C    0.000068   0.000939  -0.060911   0.441487  -0.039109  -0.097813
    15  N   -0.054351   0.187283  -0.053819  -0.009140   0.003482   0.000020
    16  C    0.001528  -0.019336   0.003260   0.000465  -0.000545   0.000001
    17  C   -0.003690  -0.019486  -0.000001   0.001614  -0.011300   0.000108
    18  O   -0.040082   0.462328  -0.057618   0.001753  -0.000021   0.000000
    19  H    0.000038  -0.010208   0.304781  -0.022169   0.003073  -0.000068
    20  H    0.000000   0.000000  -0.000001   0.000083  -0.000005   0.000023
    21  H    0.000000   0.000000   0.000000   0.000000   0.000000   0.000000
    22  H    0.000000   0.000000   0.000000   0.000000   0.000000   0.000000
    23  H    0.000000   0.000000   0.000000   0.000000   0.000000  -0.000003
    24  H    0.000000   0.000000   0.000000   0.000069  -0.000271   0.009927
    25  H    0.000001  -0.000119  -0.001774  -0.026935   0.004561   0.003413
    26  H    0.000057   0.004068  -0.001864  -0.000027   0.000010   0.000000
    27  H   -0.000051   0.002448   0.000069  -0.000047   0.000009   0.000000
    28  H   -0.000017  -0.009173   0.004459   0.001727   0.000259  -0.000009
    29  H    0.009523  -0.004394   0.000058  -0.000119  -0.000143   0.000003
    30  H   -0.000156  -0.007180   0.001021   0.001130   0.017165  -0.000586
    31  H    0.000214   0.003693  -0.000132  -0.000052   0.000321  -0.000001
               7          8          9         10         11         12
     1  O    0.000016   0.000000   0.000000   0.000000   0.000000   0.000000
     2  S    0.000222  -0.000012   0.000000   0.000000   0.000000   0.000000
     3  N    0.000266  -0.000209   0.000003   0.000000   0.000000   0.000000
     4  C   -0.024744   0.002997   0.000618  -0.000006   0.000000   0.000005
     5  N   -0.078707   0.004079  -0.000099   0.000001   0.000000   0.000000
     6  O    0.247629  -0.037605   0.003170  -0.000061   0.000001   0.000295
     7  C    4.732025   0.343370  -0.042321   0.006385   0.000903   0.004794
     8  C    0.343370   4.780460   0.536568  -0.009757  -0.033784  -0.008865
     9  C   -0.042321   0.536568   5.009009   0.521113  -0.039448  -0.041566
    10  C    0.006385  -0.009757   0.521113   4.869160   0.543457  -0.024849
    11  C    0.000903  -0.033784  -0.039448   0.543457   4.861754   0.541039
    12  C    0.004794  -0.008865  -0.041566  -0.024849   0.541039   4.882593
    13  C   -0.040612   0.475163  -0.082883  -0.042317  -0.036973   0.505820
    14  C    0.510696  -0.058185  -0.020533   0.000205   0.000015  -0.000235
    15  N   -0.000007   0.000000   0.000000   0.000000   0.000000   0.000000
    16  C    0.000000   0.000000   0.000000   0.000000   0.000000   0.000000
    17  C   -0.000010   0.000000   0.000000   0.000000   0.000000   0.000000
    18  O    0.000000   0.000000   0.000000   0.000000   0.000000   0.000000
    19  H    0.000006  -0.000003   0.000000   0.000000   0.000000   0.000000
    20  H   -0.012828  -0.038029   0.354921  -0.041952   0.004559   0.000195
    21  H   -0.000209   0.003239  -0.037716   0.361447  -0.040962   0.004409
    22  H    0.000003   0.000521   0.004853  -0.041882   0.363247  -0.041783
    23  H   -0.000178   0.003177   0.000827   0.004421  -0.041094   0.362003
    24  H   -0.013208  -0.041451   0.005390   0.000230   0.004486  -0.041649
    25  H   -0.024728  -0.003506   0.001292   0.000085  -0.000001   0.000002
    26  H    0.000000   0.000000   0.000000   0.000000   0.000000   0.000000
    27  H    0.000000   0.000000   0.000000   0.000000   0.000000   0.000000
    28  H    0.000002   0.000000   0.000000   0.000000   0.000000   0.000000
    29  H    0.000000   0.000000   0.000000   0.000000   0.000000   0.000000
    30  H    0.000065   0.000000   0.000000   0.000000   0.000000   0.000000
    31  H    0.000000   0.000000   0.000000   0.000000   0.000000   0.000000
              13         14         15         16         17         18
     1  O    0.000000   0.000068  -0.054351   0.001528  -0.003690  -0.040082
     2  S    0.000000   0.000939   0.187283  -0.019336  -0.019486   0.462328
     3  N   -0.000001  -0.060911  -0.053819   0.003260  -0.000001  -0.057618
     4  C   -0.000336   0.441487  -0.009140   0.000465   0.001614   0.001753
     5  N    0.000144  -0.039109   0.003482  -0.000545  -0.011300  -0.000021
     6  O   -0.006738  -0.097813   0.000020   0.000001   0.000108   0.000000
     7  C   -0.040612   0.510696  -0.000007   0.000000  -0.000010   0.000000
     8  C    0.475163  -0.058185   0.000000   0.000000   0.000000   0.000000
     9  C   -0.082883  -0.020533   0.000000   0.000000   0.000000   0.000000
    10  C   -0.042317   0.000205   0.000000   0.000000   0.000000   0.000000
    11  C   -0.036973   0.000015   0.000000   0.000000   0.000000   0.000000
    12  C    0.505820  -0.000235   0.000000   0.000000   0.000000   0.000000
    13  C    5.051611   0.012069   0.000000   0.000000   0.000000   0.000000
    14  C    0.012069   5.262803  -0.000117  -0.000007  -0.000021  -0.000055
    15  N    0.000000  -0.000117   7.175725   0.273909   0.270238  -0.056090
    16  C    0.000000  -0.000007   0.273909   4.991646  -0.046211  -0.007369
    17  C    0.000000  -0.000021   0.270238  -0.046211   5.017591   0.001327
    18  O    0.000000  -0.000055  -0.056090  -0.007369   0.001327   8.244306
    19  H    0.000000  -0.003881   0.002006  -0.000168  -0.000032   0.005264
    20  H    0.005780   0.006103   0.000000   0.000000   0.000000   0.000000
    21  H    0.000832  -0.000001   0.000000   0.000000   0.000000   0.000000
    22  H    0.004671   0.000000   0.000000   0.000000   0.000000   0.000000
    23  H   -0.037598   0.000001   0.000000   0.000000   0.000000   0.000000
    24  H    0.361539   0.000264   0.000000   0.000000   0.000000   0.000000
    25  H   -0.000114   0.350472   0.000000   0.000000   0.000000  -0.000001
    26  H    0.000000   0.000000  -0.034695   0.374292   0.004318   0.009764
    27  H    0.000000   0.000000  -0.034223   0.376274  -0.004393   0.000019
    28  H    0.000000   0.000021  -0.047421   0.377779  -0.000168  -0.000197
    29  H    0.000000  -0.000003  -0.030945   0.004213   0.379236   0.000029
    30  H    0.000000   0.000148  -0.045250  -0.000189   0.368336  -0.000076
    31  H    0.000000   0.000000  -0.036552  -0.004583   0.368489  -0.000043
              19         20         21         22         23         24
     1  O    0.000038   0.000000   0.000000   0.000000   0.000000   0.000000
     2  S   -0.010208   0.000000   0.000000   0.000000   0.000000   0.000000
     3  N    0.304781  -0.000001   0.000000   0.000000   0.000000   0.000000
     4  C   -0.022169   0.000083   0.000000   0.000000   0.000000   0.000069
     5  N    0.003073  -0.000005   0.000000   0.000000   0.000000  -0.000271
     6  O   -0.000068   0.000023   0.000000   0.000000  -0.000003   0.009927
     7  C    0.000006  -0.012828  -0.000209   0.000003  -0.000178  -0.013208
     8  C   -0.000003  -0.038029   0.003239   0.000521   0.003177  -0.041451
     9  C    0.000000   0.354921  -0.037716   0.004853   0.000827   0.005390
    10  C    0.000000  -0.041952   0.361447  -0.041882   0.004421   0.000230
    11  C    0.000000   0.004559  -0.040962   0.363247  -0.041094   0.004486
    12  C    0.000000   0.000195   0.004409  -0.041783   0.362003  -0.041649
    13  C    0.000000   0.005780   0.000832   0.004671  -0.037598   0.361539
    14  C   -0.003881   0.006103  -0.000001   0.000000   0.000001   0.000264
    15  N    0.002006   0.000000   0.000000   0.000000   0.000000   0.000000
    16  C   -0.000168   0.000000   0.000000   0.000000   0.000000   0.000000
    17  C   -0.000032   0.000000   0.000000   0.000000   0.000000   0.000000
    18  O    0.005264   0.000000   0.000000   0.000000   0.000000   0.000000
    19  H    0.325286   0.000000   0.000000   0.000000   0.000000   0.000000
    20  H    0.000000   0.571198  -0.004996  -0.000162   0.000015  -0.000145
    21  H    0.000000  -0.004996   0.566871  -0.005218  -0.000168   0.000015
    22  H    0.000000  -0.000162  -0.005218   0.569529  -0.005187  -0.000153
    23  H    0.000000   0.000015  -0.000168  -0.005187   0.566116  -0.004848
    24  H    0.000000  -0.000145   0.000015  -0.000153  -0.004848   0.556238
    25  H    0.001716   0.002064  -0.000002   0.000000   0.000000  -0.000009
    26  H   -0.000026   0.000000   0.000000   0.000000   0.000000   0.000000
    27  H    0.000009   0.000000   0.000000   0.000000   0.000000   0.000000
    28  H   -0.000232   0.000000   0.000000   0.000000   0.000000   0.000000
    29  H    0.000001   0.000000   0.000000   0.000000   0.000000   0.000000
    30  H   -0.000041   0.000000   0.000000   0.000000   0.000000   0.000000
    31  H    0.000003   0.000000   0.000000   0.000000   0.000000   0.000000
              25         26         27         28         29         30
     1  O    0.000001   0.000057  -0.000051  -0.000017   0.009523  -0.000156
     2  S   -0.000119   0.004068   0.002448  -0.009173  -0.004394  -0.007180
     3  N   -0.001774  -0.001864   0.000069   0.004459   0.000058   0.001021
     4  C   -0.026935  -0.000027  -0.000047   0.001727  -0.000119   0.001130
     5  N    0.004561   0.000010   0.000009   0.000259  -0.000143   0.017165
     6  O    0.003413   0.000000   0.000000  -0.000009   0.000003  -0.000586
     7  C   -0.024728   0.000000   0.000000   0.000002   0.000000   0.000065
     8  C   -0.003506   0.000000   0.000000   0.000000   0.000000   0.000000
     9  C    0.001292   0.000000   0.000000   0.000000   0.000000   0.000000
    10  C    0.000085   0.000000   0.000000   0.000000   0.000000   0.000000
    11  C   -0.000001   0.000000   0.000000   0.000000   0.000000   0.000000
    12  C    0.000002   0.000000   0.000000   0.000000   0.000000   0.000000
    13  C   -0.000114   0.000000   0.000000   0.000000   0.000000   0.000000
    14  C    0.350472   0.000000   0.000000   0.000021  -0.000003   0.000148
    15  N    0.000000  -0.034695  -0.034223  -0.047421  -0.030945  -0.045250
    16  C    0.000000   0.374292   0.376274   0.377779   0.004213  -0.000189
    17  C    0.000000   0.004318  -0.004393  -0.000168   0.379236   0.368336
    18  O   -0.000001   0.009764   0.000019  -0.000197   0.000029  -0.000076
    19  H    0.001716  -0.000026   0.000009  -0.000232   0.000001  -0.000041
    20  H    0.002064   0.000000   0.000000   0.000000   0.000000   0.000000
    21  H   -0.000002   0.000000   0.000000   0.000000   0.000000   0.000000
    22  H    0.000000   0.000000   0.000000   0.000000   0.000000   0.000000
    23  H    0.000000   0.000000   0.000000   0.000000   0.000000   0.000000
    24  H   -0.000009   0.000000   0.000000   0.000000   0.000000   0.000000
    25  H    0.511890   0.000000   0.000000   0.000000   0.000000  -0.000001
    26  H    0.000000   0.500403  -0.021668  -0.029906  -0.000191  -0.000183
    27  H    0.000000  -0.021668   0.531499  -0.036364   0.000057  -0.001142
    28  H    0.000000  -0.029906  -0.036364   0.561348  -0.000169   0.006044
    29  H    0.000000  -0.000191   0.000057  -0.000169   0.498492  -0.027890
    30  H   -0.000001  -0.000183  -0.001142   0.006044  -0.027890   0.530808
    31  H    0.000000   0.000053   0.005493  -0.001388  -0.022508  -0.033325
              31
     1  O    0.000214
     2  S    0.003693
     3  N   -0.000132
     4  C   -0.000052
     5  N    0.000321
     6  O   -0.000001
     7  C    0.000000
     8  C    0.000000
     9  C    0.000000
    10  C    0.000000
    11  C    0.000000
    12  C    0.000000
    13  C    0.000000
    14  C    0.000000
    15  N   -0.036552
    16  C   -0.004583
    17  C    0.368489
    18  O   -0.000043
    19  H    0.000003
    20  H    0.000000
    21  H    0.000000
    22  H    0.000000
    23  H    0.000000
    24  H    0.000000
    25  H    0.000000
    26  H    0.000053
    27  H    0.005493
    28  H   -0.001388
    29  H   -0.022508
    30  H   -0.033325
    31  H    0.548869
 Mulliken charges:
               1
     1  O   -0.532622
     2  S    1.332689
     3  N   -0.823640
     4  C    0.537438
     5  N   -0.248446
     6  O   -0.409594
     7  C    0.391169
     8  C    0.081832
     9  C   -0.173201
    10  C   -0.145678
    11  C   -0.127200
    12  C   -0.142208
    13  C   -0.170056
    14  C   -0.304421
    15  N   -0.510054
    16  C   -0.324962
    17  C   -0.325944
    18  O   -0.563237
    19  H    0.394645
    20  H    0.153176
    21  H    0.152458
    22  H    0.151562
    23  H    0.152516
    24  H    0.163577
    25  H    0.181693
    26  H    0.195593
    27  H    0.182011
    28  H    0.173406
    29  H    0.194751
    30  H    0.191299
    31  H    0.171448
 Sum of Mulliken charges =   0.00000
 Mulliken charges with hydrogens summed into heavy atoms:
               1
     1  O   -0.532622
     2  S    1.332689
     3  N   -0.428995
     4  C    0.537438
     5  N   -0.248446
     6  O   -0.409594
     7  C    0.391169
     8  C    0.081832
     9  C   -0.020025
    10  C    0.006780
    11  C    0.024362
    12  C    0.010307
    13  C   -0.006479
    14  C   -0.122728
    15  N   -0.510054
    16  C    0.226048
    17  C    0.231555
    18  O   -0.563237
 Electronic spatial extent (au):  <R**2>=           7041.3152
 Charge=              0.0000 electrons
 Dipole moment (field-independent basis, Debye):
    X=             -4.6717    Y=             -0.2078    Z=             -3.8519  Tot=              6.0584
 Quadrupole moment (field-independent basis, Debye-Ang):
   XX=            -99.7060   YY=           -101.0873   ZZ=           -116.0994
   XY=             14.1229   XZ=            -11.9587   YZ=              3.5054
 Traceless Quadrupole moment (field-independent basis, Debye-Ang):
   XX=              5.9249   YY=              4.5436   ZZ=            -10.4685
   XY=             14.1229   XZ=            -11.9587   YZ=              3.5054
 Octapole moment (field-independent basis, Debye-Ang**2):
  XXX=           -123.5912  YYY=             -5.2311  ZZZ=             -7.1765  XYY=             -5.9097
  XXY=             58.5631  XXZ=            -36.0095  XZZ=             26.0671  YZZ=              3.1063
  YYZ=             -3.0596  XYZ=             -4.4818
 Hexadecapole moment (field-independent basis, Debye-Ang**3):
 XXXX=          -7293.4613 YYYY=           -833.3688 ZZZZ=           -419.8814 XXXY=            230.0222
 XXXZ=           -170.7446 YYYX=             29.7893 YYYZ=             19.4358 ZZZX=            -27.7206
 ZZZY=             -0.6463 XXYY=          -1386.1031 XXZZ=          -1464.7053 YYZZ=           -216.0355
 XXYZ=             30.7456 YYXZ=             -5.3796 ZZXY=              1.9815
 N-N= 1.450796619870D+03 E-N=-5.748837432609D+03  KE= 1.205942294630D+03
 No NMR shielding tensors so no spin-rotation constants.
 Leave Link  601 at Thu Aug  6 22:16:07 2020, MaxMem=    33554432 cpu:         0.2
 (Enter /prod/apps/gaussian/g09d1/l9999.exe)
 1\1\GINC-PIRINEUS9\SP\RB3LYP\6-31G(d)\C11H13N3O3S1\UBAFAR01\06-Aug-202
 0\0\\#p b3lyp/6-31G(d) scrf=(iefpcm,read,solvent=n-Octanol) geom=allch
 eck guess=read\\SM43.n.10.pdb.xyz\\0,1\O,0,1.697,-3.65,1.209\S,0,2.289
 ,-2.635,0.342\N,0,1.896,-1.061,0.907\C,0,1.783,-0.726,2.255\N,0,2.651,
 -1.172,3.143\O,0,2.238,-0.612,4.358\C,0,1.153,0.172,4.155\C,0,0.588,0.
 85,5.315\C,0,-0.523,1.695,5.165\C,0,-1.063,2.343,6.272\C,0,-0.503,2.15
 7,7.537\C,0,0.603,1.318,7.692\C,0,1.148,0.666,6.589\C,0,0.812,0.137,2.
 831\N,0,3.928,-2.795,0.441\C,0,4.719,-1.774,-0.25\C,0,4.514,-3.334,1.6
 77\O,0,1.92,-2.531,-1.068\H,0,1.208,-0.637,0.292\H,0,-0.96,1.842,4.184
 \H,0,-1.922,2.993,6.146\H,0,-0.925,2.663,8.398\H,0,1.041,1.17,8.673\H,
 0,2.005,0.013,6.702\H,0,-0.006,0.634,2.337\H,0,4.251,-1.538,-1.204\H,0
 ,5.708,-2.195,-0.439\H,0,4.824,-0.861,0.348\H,0,3.919,-4.182,2.011\H,0
 ,4.556,-2.583,2.471\H,0,5.519,-3.677,1.424\\Version=AM64L-G09RevD.01\S
 tate=1-A\HF=-1215.0092805\RMSD=5.019e-09\Dipole=-0.0059806,2.1992104,0
 .9191665\Quadrupole=8.3659654,-7.0094203,-1.3565451,-10.8702504,-7.150
 1681,-3.4669247\PG=C01 [X(C11H13N3O3S1)]\\@


 QED = W**5 (WHICH WAS WHAT WE WANTED)
 Job cpu time:       0 days  0 hours  2 minutes 35.7 seconds.
 File lengths (MBytes):  RWF=    156 Int=      0 D2E=      0 Chk=      6 Scr=      1
 Normal termination of Gaussian 09 at Thu Aug  6 22:16:07 2020.
