 Entering Gaussian System, Link 0=g09
 Initial command:
 /prod/apps/gaussian/g09d1/l1.exe "/tmp/ubafar01/1448612/Gau-59405.inp" -scrdir="/tmp/ubafar01/1448612/"
 Entering Link 1 = /prod/apps/gaussian/g09d1/l1.exe PID=     59406.
  
 Copyright (c) 1988,1990,1992,1993,1995,1998,2003,2009,2013,
            Gaussian, Inc.  All Rights Reserved.
  
 This is part of the Gaussian(R) 09 program.  It is based on
 the Gaussian(R) 03 system (copyright 2003, Gaussian, Inc.),
 the Gaussian(R) 98 system (copyright 1998, Gaussian, Inc.),
 the Gaussian(R) 94 system (copyright 1995, Gaussian, Inc.),
 the Gaussian 92(TM) system (copyright 1992, Gaussian, Inc.),
 the Gaussian 90(TM) system (copyright 1990, Gaussian, Inc.),
 the Gaussian 88(TM) system (copyright 1988, Gaussian, Inc.),
 the Gaussian 86(TM) system (copyright 1986, Carnegie Mellon
 University), and the Gaussian 82(TM) system (copyright 1983,
 Carnegie Mellon University). Gaussian is a federally registered
 trademark of Gaussian, Inc.
  
 This software contains proprietary and confidential information,
 including trade secrets, belonging to Gaussian, Inc.
  
 This software is provided under written license and may be
 used, copied, transmitted, or stored only in accord with that
 written license.
  
 The following legend is applicable only to US Government
 contracts under FAR:
  
                    RESTRICTED RIGHTS LEGEND
  
 Use, reproduction and disclosure by the US Government is
 subject to restrictions as set forth in subparagraphs (a)
 and (c) of the Commercial Computer Software - Restricted
 Rights clause in FAR 52.227-19.
  
 Gaussian, Inc.
 340 Quinnipiac St., Bldg. 40, Wallingford CT 06492
  
  
 ---------------------------------------------------------------
 Warning -- This program may not be used in any manner that
 competes with the business of Gaussian, Inc. or will provide
 assistance to any competitor of Gaussian, Inc.  The licensee
 of this program is prohibited from giving any competitor of
 Gaussian, Inc. access to this program.  By using this program,
 the user acknowledges that Gaussian, Inc. is engaged in the
 business of creating and licensing software in the field of
 computational chemistry and represents and warrants to the
 licensee that it is not a competitor of Gaussian, Inc. and that
 it will not use this program in any manner prohibited above.
 ---------------------------------------------------------------
  

 Cite this work as:
 Gaussian 09, Revision D.01,
 M. J. Frisch, G. W. Trucks, H. B. Schlegel, G. E. Scuseria, 
 M. A. Robb, J. R. Cheeseman, G. Scalmani, V. Barone, B. Mennucci, 
 G. A. Petersson, H. Nakatsuji, M. Caricato, X. Li, H. P. Hratchian, 
 A. F. Izmaylov, J. Bloino, G. Zheng, J. L. Sonnenberg, M. Hada, 
 M. Ehara, K. Toyota, R. Fukuda, J. Hasegawa, M. Ishida, T. Nakajima, 
 Y. Honda, O. Kitao, H. Nakai, T. Vreven, J. A. Montgomery, Jr., 
 J. E. Peralta, F. Ogliaro, M. Bearpark, J. J. Heyd, E. Brothers, 
 K. N. Kudin, V. N. Staroverov, T. Keith, R. Kobayashi, J. Normand, 
 K. Raghavachari, A. Rendell, J. C. Burant, S. S. Iyengar, J. Tomasi, 
 M. Cossi, N. Rega, J. M. Millam, M. Klene, J. E. Knox, J. B. Cross, 
 V. Bakken, C. Adamo, J. Jaramillo, R. Gomperts, R. E. Stratmann, 
 O. Yazyev, A. J. Austin, R. Cammi, C. Pomelli, J. W. Ochterski, 
 R. L. Martin, K. Morokuma, V. G. Zakrzewski, G. A. Voth, 
 P. Salvador, J. J. Dannenberg, S. Dapprich, A. D. Daniels, 
 O. Farkas, J. B. Foresman, J. V. Ortiz, J. Cioslowski, 
 and D. J. Fox, Gaussian, Inc., Wallingford CT, 2013.
 
 ******************************************
 Gaussian 09:  AM64L-G09RevD.01 24-Apr-2013
                 6-Aug-2020 
 ******************************************
 %nproc=1
 Will use up to    1 processors via shared memory.
 %Chk=SM44.n.2.pdb.xyz.mst.n.w.chk
 -----------------
 #p b3lyp/6-31G(d)
 -----------------
 1/38=1/1;
 2/12=2,17=6,18=5,40=1/2;
 3/5=1,6=6,7=1,11=2,16=1,25=1,30=1,74=-5/1,2,3;
 4//1;
 5/5=2,38=5/2;
 6/7=2,8=2,9=2,10=2,28=1/1;
 99/5=1,9=1/99;
 Leave Link    1 at Thu Aug  6 21:56:18 2020, MaxMem=           0 cpu:         0.0
 (Enter /prod/apps/gaussian/g09d1/l101.exe)
 ----------------
 SM44.n.2.pdb.xyz
 ----------------
 Symbolic Z-matrix:
 Charge =  0 Multiplicity = 1
 O                     2.026    -3.59     -1.943 
 S                     2.96     -2.499    -1.627 
 N                     2.735    -1.946    -0.027 
 C                     2.222    -2.831     0.936 
 N                     2.901    -3.953     1.299 
 N                     2.225    -4.573     2.233 
 C                     1.068    -2.746     1.685 
 N                     1.117    -3.842     2.487 
 C                     0.184    -4.249     3.483 
 C                    -0.618    -3.29      4.104 
 C                    -1.537    -3.695     5.071 
 C                    -1.643    -5.042     5.422 
 C                    -0.828    -5.989     4.797 
 C                     0.086    -5.6       3.82 
 C                     4.617    -3.174    -1.562 
 O                     2.947    -1.28     -2.448 
 H                     2.265    -1.04     -0.055 
 H                     0.259    -2.038     1.7 
 H                    -0.517    -2.243     3.844 
 H                    -2.163    -2.953     5.554 
 H                    -2.356    -5.353     6.177 
 H                    -0.908    -7.037     5.063 
 H                     0.713    -6.325     3.318 
 H                     4.632    -3.955    -0.802 
 H                     5.306    -2.37     -1.31 
 H                     4.836    -3.584    -2.548 
 
 NAtoms=     26 NQM=       26 NQMF=       0 NMMI=      0 NMMIF=      0
                NMic=       0 NMicF=      0.
                    Isotopes and Nuclear Properties:
 (Nuclear quadrupole moments (NQMom) in fm**2, nuclear magnetic moments (NMagM)
  in nuclear magnetons)

  Atom         1           2           3           4           5           6           7           8           9          10
 IAtWgt=          16          32          14          12          14          14          12          14          12          12
 AtmWgt=  15.9949146  31.9720718  14.0030740  12.0000000  14.0030740  14.0030740  12.0000000  14.0030740  12.0000000  12.0000000
 NucSpn=           0           0           2           0           2           2           0           2           0           0
 AtZEff=   0.0000000   0.0000000   0.0000000   0.0000000   0.0000000   0.0000000   0.0000000   0.0000000   0.0000000   0.0000000
 NQMom=    0.0000000   0.0000000   2.0440000   0.0000000   2.0440000   2.0440000   0.0000000   2.0440000   0.0000000   0.0000000
 NMagM=    0.0000000   0.0000000   0.4037610   0.0000000   0.4037610   0.4037610   0.0000000   0.4037610   0.0000000   0.0000000
 AtZNuc=   8.0000000  16.0000000   7.0000000   6.0000000   7.0000000   7.0000000   6.0000000   7.0000000   6.0000000   6.0000000

  Atom        11          12          13          14          15          16          17          18          19          20
 IAtWgt=          12          12          12          12          12          16           1           1           1           1
 AtmWgt=  12.0000000  12.0000000  12.0000000  12.0000000  12.0000000  15.9949146   1.0078250   1.0078250   1.0078250   1.0078250
 NucSpn=           0           0           0           0           0           0           1           1           1           1
 AtZEff=   0.0000000   0.0000000   0.0000000   0.0000000   0.0000000   0.0000000   0.0000000   0.0000000   0.0000000   0.0000000
 NQMom=    0.0000000   0.0000000   0.0000000   0.0000000   0.0000000   0.0000000   0.0000000   0.0000000   0.0000000   0.0000000
 NMagM=    0.0000000   0.0000000   0.0000000   0.0000000   0.0000000   0.0000000   2.7928460   2.7928460   2.7928460   2.7928460
 AtZNuc=   6.0000000   6.0000000   6.0000000   6.0000000   6.0000000   8.0000000   1.0000000   1.0000000   1.0000000   1.0000000

  Atom        21          22          23          24          25          26
 IAtWgt=           1           1           1           1           1           1
 AtmWgt=   1.0078250   1.0078250   1.0078250   1.0078250   1.0078250   1.0078250
 NucSpn=           1           1           1           1           1           1
 AtZEff=   0.0000000   0.0000000   0.0000000   0.0000000   0.0000000   0.0000000
 NQMom=    0.0000000   0.0000000   0.0000000   0.0000000   0.0000000   0.0000000
 NMagM=    2.7928460   2.7928460   2.7928460   2.7928460   2.7928460   2.7928460
 AtZNuc=   1.0000000   1.0000000   1.0000000   1.0000000   1.0000000   1.0000000
 Leave Link  101 at Thu Aug  6 21:56:18 2020, MaxMem=    33554432 cpu:         0.1
 (Enter /prod/apps/gaussian/g09d1/l202.exe)
                          Input orientation:                          
 ---------------------------------------------------------------------
 Center     Atomic      Atomic             Coordinates (Angstroms)
 Number     Number       Type             X           Y           Z
 ---------------------------------------------------------------------
      1          8           0        2.026000   -3.590000   -1.943000
      2         16           0        2.960000   -2.499000   -1.627000
      3          7           0        2.735000   -1.946000   -0.027000
      4          6           0        2.222000   -2.831000    0.936000
      5          7           0        2.901000   -3.953000    1.299000
      6          7           0        2.225000   -4.573000    2.233000
      7          6           0        1.068000   -2.746000    1.685000
      8          7           0        1.117000   -3.842000    2.487000
      9          6           0        0.184000   -4.249000    3.483000
     10          6           0       -0.618000   -3.290000    4.104000
     11          6           0       -1.537000   -3.695000    5.071000
     12          6           0       -1.643000   -5.042000    5.422000
     13          6           0       -0.828000   -5.989000    4.797000
     14          6           0        0.086000   -5.600000    3.820000
     15          6           0        4.617000   -3.174000   -1.562000
     16          8           0        2.947000   -1.280000   -2.448000
     17          1           0        2.265000   -1.040000   -0.055000
     18          1           0        0.259000   -2.038000    1.700000
     19          1           0       -0.517000   -2.243000    3.844000
     20          1           0       -2.163000   -2.953000    5.554000
     21          1           0       -2.356000   -5.353000    6.177000
     22          1           0       -0.908000   -7.037000    5.063000
     23          1           0        0.713000   -6.325000    3.318000
     24          1           0        4.632000   -3.955000   -0.802000
     25          1           0        5.306000   -2.370000   -1.310000
     26          1           0        4.836000   -3.584000   -2.548000
 ---------------------------------------------------------------------
                    Distance matrix (angstroms):
                    1          2          3          4          5
     1  O    0.000000
     2  S    1.470542   0.000000
     3  N    2.622303   1.707757   0.000000
     4  C    2.983813   2.687720   1.404907   0.000000
     5  N    3.377567   3.267885   2.411199   1.360770   0.000000
     6  N    4.294749   4.443118   3.502689   2.171815   1.309096
     7  C    3.846100   3.822305   2.519887   1.378384   2.228393
     8  N    4.529314   4.703753   3.540189   2.156095   2.146234
     9  C    5.767904   6.072954   4.912383   3.556877   3.498508
    10  C    6.606583   6.802362   5.487632   4.279311   4.548731
    11  C    7.867794   8.155773   6.877397   5.654627   5.830128
    12  C    8.355423   8.794479   7.644848   6.320676   6.231612
    13  C    7.702475   8.233882   7.232689   5.846605   5.503339
    14  C    6.404363   6.895352   5.930289   4.532914   4.122169
    15  C    2.651697   1.790391   2.721421   3.477597   3.425904
    16  O    2.537591   1.469752   2.519869   3.792451   4.602940
    17  H    3.181849   2.254527   1.021039   2.047342   3.274657
    18  H    4.336178   4.310087   3.020194   2.250759   3.287581
    19  H    6.463020   6.487442   5.064420   4.037862   4.591715
    20  H    8.611533   8.832780   7.493465   6.369382   6.689478
    21  H    9.393854   9.864461   8.718689   7.401800   7.306910
    22  H    8.341115   8.961639   8.068323   6.672291   6.179582
    23  H    6.073081   6.643817   5.869681   4.489882   3.806585
    24  H    2.868160   2.365617   2.869724   3.176810   2.722235
    25  H    3.556331   2.370832   2.904463   3.842928   3.885459
    26  H    2.874398   2.354749   3.667790   4.420211   4.322013
                    6          7          8          9         10
     6  N    0.000000
     7  C    2.230893   0.000000
     8  N    1.351496   1.358978   0.000000
     9  C    2.415193   2.504649   1.424133   0.000000
    10  C    3.637221   2.998348   2.435081   1.395896   0.000000
    11  C    4.793514   4.376257   3.707072   2.406346   1.394157
    12  C    5.034988   5.156191   4.203787   2.779658   2.420176
    13  C    4.230835   4.878156   3.705231   2.403818   2.794450
    14  C    2.854579   3.697008   2.435244   1.395842   2.431537
    15  C    4.699031   4.829244   5.393573   6.801407   7.715066
    16  O    5.768613   4.770900   5.853800   7.185116   7.725156
    17  H    4.209351   2.714930   3.953590   5.210152   5.538183
    18  H    3.251995   1.075160   2.147079   2.841344   2.848833
    19  H    3.942434   2.725163   2.658610   2.155402   1.083517
    20  H    5.736548   5.044935   4.577686   3.387782   2.145482
    21  H    6.095006   6.220795   5.287811   3.863684   3.402050
    22  H    4.888342   5.807593   4.576508   3.385529   3.878632
    23  H    2.555949   3.949931   2.649352   2.148684   3.405963
    24  H    3.922601   4.510981   4.815134   6.183233   7.216201
    25  H    5.186388   5.203080   5.842235   7.262119   8.077845
    26  H    5.536552   5.728731   6.264882   7.645671   8.607070
                   11         12         13         14         15
    11  C    0.000000
    12  C    1.396011   0.000000
    13  C    2.416649   1.397018   0.000000
    14  C    2.797884   2.422232   1.393286   0.000000
    15  C    9.063104   9.563121   8.832278   7.441865   0.000000
    16  O    9.081511   9.856858   9.429493   8.132376   2.676029
    17  H    6.912315   7.828537   7.589542   6.368459   3.515240
    18  H    4.163521   5.147320   5.136475   4.148756   5.560873
    19  H    2.157367   3.404756   3.877815   3.410811   7.513292
    20  H    1.084310   2.156790   3.401848   3.882186   9.831312
    21  H    2.154753   1.084027   2.154920   3.402914  10.642504
    22  H    3.400687   2.156184   1.084186   2.144307   9.451932
    23  H    3.879743   3.409346   2.162179   1.082016   6.998887
    24  H    8.521519   8.904795   8.080690   6.688425   1.089856
    25  H    9.449838  10.037331   9.381821   7.999887   1.088412
    26  H    9.933610  10.374204   9.581959   8.196230   1.090072
                   16         17         18         19         20
    16  O    0.000000
    17  H    2.499835   0.000000
    18  H    5.000581   2.846061   0.000000
    19  H    7.246787   4.938515   2.289309   0.000000
    20  H    9.640697   7.397813   4.642911   2.477401   0.000000
    21  H   10.913375   8.876567   6.153940   4.300803   2.487042
    22  H   10.218571   8.498580   6.136910   4.961983   4.300600
    23  H    7.980572   6.458874   4.604607   4.295614   4.964016
    24  H    3.564290   3.828567   5.390549   7.143421   9.358139
    25  H    2.836904   3.548465   5.885791   7.777350  10.160726
    26  H    2.981063   4.392838   6.433082   8.444558  10.725044
                   21         22         23         24         25
    21  H    0.000000
    22  H    2.484664   0.000000
    23  H    4.305511   2.485882   0.000000
    24  H    9.974617   8.636466   6.160346   0.000000
    25  H   11.120238  10.050364   7.626012   1.795707   0.000000
    26  H   11.444643  10.141206   7.676078   1.796600   1.796480
                   26
    26  H    0.000000
 Stoichiometry    C9H10N4O2S
 Framework group  C1[X(C9H10N4O2S)]
 Deg. of freedom    72
 Full point group                 C1      NOp   1
 Largest Abelian subgroup         C1      NOp   1
 Largest concise Abelian subgroup C1      NOp   1
                         Standard orientation:                         
 ---------------------------------------------------------------------
 Center     Atomic      Atomic             Coordinates (Angstroms)
 Number     Number       Type             X           Y           Z
 ---------------------------------------------------------------------
      1          8           0        2.912891    0.289477    1.620547
      2         16           0        3.461186   -0.181518    0.339910
      3          7           0        2.218654   -0.748230   -0.685461
      4          6           0        0.922749   -0.224874   -0.542303
      5          7           0        0.662467    1.091752   -0.766900
      6          7           0       -0.618881    1.303690   -0.602699
      7          6           0       -0.256450   -0.865305   -0.227218
      8          7           0       -1.190534    0.119807   -0.289373
      9          6           0       -2.594433    0.019603   -0.072162
     10          6           0       -3.235261   -1.202563   -0.282342
     11          6           0       -4.607995   -1.297925   -0.058328
     12          6           0       -5.333274   -0.180240    0.358320
     13          6           0       -4.678991    1.037998    0.556988
     14          6           0       -3.305450    1.144544    0.348950
     15          6           0        4.079484    1.233950   -0.565438
     16          8           0        4.464761   -1.255298    0.338075
     17          1           0        2.256865   -1.768091   -0.716162
     18          1           0       -0.486783   -1.883097    0.031655
     19          1           0       -2.672096   -2.061799   -0.626683
     20          1           0       -5.108697   -2.246248   -0.218672
     21          1           0       -6.401194   -0.256936    0.527963
     22          1           0       -5.236298    1.908715    0.883670
     23          1           0       -2.784075    2.078369    0.512954
     24          1           0        3.252143    1.928838   -0.708347
     25          1           0        4.468554    0.887499   -1.521073
     26          1           0        4.867190    1.683337    0.039398
 ---------------------------------------------------------------------
 Rotational constants (GHZ):      1.7341731      0.1940408      0.1859849
 Leave Link  202 at Thu Aug  6 21:56:18 2020, MaxMem=    33554432 cpu:         0.0
 (Enter /prod/apps/gaussian/g09d1/l301.exe)
 Standard basis: 6-31G(d) (6D, 7F)
 Ernie: Thresh=  0.10000D-02 Tol=  0.10000D-05 Strict=F.
 There are   264 symmetry adapted cartesian basis functions of A   symmetry.
 There are   264 symmetry adapted basis functions of A   symmetry.
   264 basis functions,   512 primitive gaussians,   264 cartesian basis functions
    62 alpha electrons       62 beta electrons
       nuclear repulsion energy      1183.4649515529 Hartrees.
 IExCor=  402 DFT=T Ex+Corr=B3LYP ExCW=0 ScaHFX=  0.200000
 ScaDFX=  0.800000  0.720000  1.000000  0.810000 ScalE2=  1.000000  1.000000
 IRadAn=      0 IRanWt=     -1 IRanGd=            0 ICorTp=0 IEmpDi=  4
 NAtoms=   26 NActive=   26 NUniq=   26 SFac= 1.00D+00 NAtFMM=   60 NAOKFM=F Big=F
 Integral buffers will be    131072 words long.
 Raffenetti 2 integral format.
 Two-electron integral symmetry is turned on.
 Leave Link  301 at Thu Aug  6 21:56:18 2020, MaxMem=    33554432 cpu:         0.0
 (Enter /prod/apps/gaussian/g09d1/l302.exe)
 NPDir=0 NMtPBC=     1 NCelOv=     1 NCel=       1 NClECP=     1 NCelD=      1
         NCelK=      1 NCelE2=     1 NClLst=     1 CellRange=     0.0.
 One-electron integrals computed using PRISM.
 NBasis=   264 RedAO= T EigKep=  4.67D-04  NBF=   264
 NBsUse=   264 1.00D-06 EigRej= -1.00D+00 NBFU=   264
 Precomputing XC quadrature grid using
 IXCGrd= 4 IRadAn=           0 IRanWt=          -1 IRanGd=           0 AccXCQ= 0.00D+00.
 Generated NRdTot=       0 NPtTot=           0 NUsed=           0 NTot=          32
 NSgBfM=   262   262   262   262   262 MxSgAt=    26 MxSgA2=    26.
 Leave Link  302 at Thu Aug  6 21:56:19 2020, MaxMem=    33554432 cpu:         0.7
 (Enter /prod/apps/gaussian/g09d1/l303.exe)
 DipDrv:  MaxL=1.
 Leave Link  303 at Thu Aug  6 21:56:19 2020, MaxMem=    33554432 cpu:         0.1
 (Enter /prod/apps/gaussian/g09d1/l401.exe)
 ExpMin= 1.17D-01 ExpMax= 2.19D+04 ExpMxC= 3.30D+03 IAcc=1 IRadAn=         1 AccDes= 0.00D+00
 Harris functional with IExCor=  402 and IRadAn=       1 diagonalized for initial guess.
 HarFok:  IExCor=  402 AccDes= 0.00D+00 IRadAn=         1 IDoV= 1 UseB2=F ITyADJ=14
 ICtDFT=  3500011 ScaDFX=  1.000000  1.000000  1.000000  1.000000
 FoFCou: FMM=F IPFlag=           0 FMFlag=      100000 FMFlg1=           0
         NFxFlg=           0 DoJE=T BraDBF=F KetDBF=T FulRan=T
         wScrn=  0.000000 ICntrl=     500 IOpCl=  0 I1Cent=   200000004 NGrid=           0
         NMat0=    1 NMatS0=      1 NMatT0=    0 NMatD0=    1 NMtDS0=    0 NMtDT0=    0
 Petite list used in FoFCou.
 Harris En= -1116.52953158348    
 JPrj=0 DoOrth=F DoCkMO=F.
 Leave Link  401 at Thu Aug  6 21:56:21 2020, MaxMem=    33554432 cpu:         2.2
 (Enter /prod/apps/gaussian/g09d1/l502.exe)
 Closed shell SCF:
 Using DIIS extrapolation, IDIIS=  1040.
 Integral symmetry usage will be decided dynamically.
 IVT=      231207 IEndB=      231207 NGot=    33554432 MDV=    33409826
 LenX=    33409826 LenY=    33339689
 Requested convergence on RMS density matrix=1.00D-08 within 128 cycles.
 Requested convergence on MAX density matrix=1.00D-06.
 Requested convergence on             energy=1.00D-06.
 No special actions if energy rises.
 Fock matrices will be formed incrementally for  20 cycles.
 Integral accuracy reduced to 1.0D-05 until final iterations.

 Cycle   1  Pass 0  IDiag  1:
 FoFJK:  IHMeth= 1 ICntrl=       0 DoSepK=F KAlg= 0 I1Cent=   0 FoldK=F
 IRaf= 750000000 NMat=   1 IRICut=       1 DoRegI=T DoRafI=F ISym2E= 0.
 FoFCou: FMM=F IPFlag=           0 FMFlag=      100000 FMFlg1=           0
         NFxFlg=           0 DoJE=F BraDBF=F KetDBF=F FulRan=T
         wScrn=  0.000000 ICntrl=       0 IOpCl=  0 I1Cent=           0 NGrid=           0
         NMat0=    1 NMatS0=      1 NMatT0=    0 NMatD0=    1 NMtDS0=    0 NMtDT0=    0
 Symmetry not used in FoFCou.
 E= -1116.01058226696    
 DIIS: error= 2.93D-02 at cycle   1 NSaved=   1.
 NSaved= 1 IEnMin= 1 EnMin= -1116.01058226696     IErMin= 1 ErrMin= 2.93D-02
 ErrMax= 2.93D-02  0.00D+00 EMaxC= 1.00D-01 BMatC= 5.87D-01 BMatP= 5.87D-01
 IDIUse=3 WtCom= 7.07D-01 WtEn= 2.93D-01
 Coeff-Com:  0.100D+01
 Coeff-En:   0.100D+01
 Coeff:      0.100D+01
 Gap=     0.311 Goal=   None    Shift=    0.000
 GapD=    0.311 DampG=1.000 DampE=0.500 DampFc=0.5000 IDamp=-1.
 Damping current iteration by 5.00D-01
 RMSDP=7.40D-03 MaxDP=5.76D-01              OVMax= 2.65D-01

 Cycle   2  Pass 0  IDiag  1:
 RMSU=  3.70D-03    CP:  9.95D-01
 E= -1116.11925509057     Delta-E=       -0.108672823611 Rises=F Damp=T
 DIIS: error= 1.81D-02 at cycle   2 NSaved=   2.
 NSaved= 2 IEnMin= 2 EnMin= -1116.11925509057     IErMin= 2 ErrMin= 1.81D-02
 ErrMax= 1.81D-02  0.00D+00 EMaxC= 1.00D-01 BMatC= 1.02D-01 BMatP= 5.87D-01
 IDIUse=3 WtCom= 8.19D-01 WtEn= 1.81D-01
 Coeff-Com:  0.245D+00 0.755D+00
 Coeff-En:   0.391D+00 0.609D+00
 Coeff:      0.272D+00 0.728D+00
 Gap=     0.231 Goal=   None    Shift=    0.000
 RMSDP=2.12D-03 MaxDP=1.16D-01 DE=-1.09D-01 OVMax= 1.98D-01

 Cycle   3  Pass 0  IDiag  1:
 RMSU=  1.73D-03    CP:  9.85D-01  6.72D-01
 E= -1116.46960602854     Delta-E=       -0.350350937964 Rises=F Damp=F
 DIIS: error= 1.11D-02 at cycle   3 NSaved=   3.
 NSaved= 3 IEnMin= 3 EnMin= -1116.46960602854     IErMin= 3 ErrMin= 1.11D-02
 ErrMax= 1.11D-02  0.00D+00 EMaxC= 1.00D-01 BMatC= 4.81D-02 BMatP= 1.02D-01
 IDIUse=3 WtCom= 8.89D-01 WtEn= 1.11D-01
 Coeff-Com:  0.887D-01 0.408D+00 0.503D+00
 Coeff-En:   0.000D+00 0.000D+00 0.100D+01
 Coeff:      0.788D-01 0.363D+00 0.558D+00
 Gap=     0.195 Goal=   None    Shift=    0.000
 RMSDP=1.17D-03 MaxDP=4.27D-02 DE=-3.50D-01 OVMax= 4.47D-02

 Cycle   4  Pass 0  IDiag  1:
 RMSU=  7.51D-04    CP:  9.89D-01  7.46D-01  5.12D-01
 E= -1116.50671194536     Delta-E=       -0.037105916829 Rises=F Damp=F
 DIIS: error= 3.66D-03 at cycle   4 NSaved=   4.
 NSaved= 4 IEnMin= 4 EnMin= -1116.50671194536     IErMin= 4 ErrMin= 3.66D-03
 ErrMax= 3.66D-03  0.00D+00 EMaxC= 1.00D-01 BMatC= 8.45D-03 BMatP= 4.81D-02
 IDIUse=3 WtCom= 9.63D-01 WtEn= 3.66D-02
 Coeff-Com:  0.110D-01 0.757D-01 0.308D+00 0.605D+00
 Coeff-En:   0.000D+00 0.000D+00 0.145D+00 0.855D+00
 Coeff:      0.106D-01 0.729D-01 0.302D+00 0.614D+00
 Gap=     0.192 Goal=   None    Shift=    0.000
 RMSDP=3.88D-04 MaxDP=1.78D-02 DE=-3.71D-02 OVMax= 1.75D-02

 Cycle   5  Pass 0  IDiag  1:
 RMSU=  2.02D-04    CP:  9.89D-01  7.29D-01  6.25D-01  6.53D-01
 E= -1116.51343812510     Delta-E=       -0.006726179735 Rises=F Damp=F
 DIIS: error= 1.33D-03 at cycle   5 NSaved=   5.
 NSaved= 5 IEnMin= 5 EnMin= -1116.51343812510     IErMin= 5 ErrMin= 1.33D-03
 ErrMax= 1.33D-03  0.00D+00 EMaxC= 1.00D-01 BMatC= 6.86D-04 BMatP= 8.45D-03
 IDIUse=3 WtCom= 9.87D-01 WtEn= 1.33D-02
 Coeff-Com:  0.602D-03 0.169D-01 0.135D+00 0.345D+00 0.503D+00
 Coeff-En:   0.000D+00 0.000D+00 0.000D+00 0.000D+00 0.100D+01
 Coeff:      0.594D-03 0.167D-01 0.133D+00 0.340D+00 0.510D+00
 Gap=     0.193 Goal=   None    Shift=    0.000
 RMSDP=1.28D-04 MaxDP=3.76D-03 DE=-6.73D-03 OVMax= 7.19D-03

 Cycle   6  Pass 0  IDiag  1:
 RMSU=  7.24D-05    CP:  9.88D-01  7.32D-01  6.30D-01  6.94D-01  5.03D-01
 E= -1116.51395219981     Delta-E=       -0.000514074710 Rises=F Damp=F
 DIIS: error= 7.24D-04 at cycle   6 NSaved=   6.
 NSaved= 6 IEnMin= 6 EnMin= -1116.51395219981     IErMin= 6 ErrMin= 7.24D-04
 ErrMax= 7.24D-04  0.00D+00 EMaxC= 1.00D-01 BMatC= 1.08D-04 BMatP= 6.86D-04
 IDIUse=3 WtCom= 9.93D-01 WtEn= 7.24D-03
 Coeff-Com: -0.781D-03 0.270D-02 0.503D-01 0.144D+00 0.325D+00 0.479D+00
 Coeff-En:   0.000D+00 0.000D+00 0.000D+00 0.000D+00 0.112D+00 0.888D+00
 Coeff:     -0.776D-03 0.268D-02 0.499D-01 0.143D+00 0.323D+00 0.482D+00
 Gap=     0.193 Goal=   None    Shift=    0.000
 RMSDP=4.39D-05 MaxDP=1.81D-03 DE=-5.14D-04 OVMax= 2.66D-03

 Cycle   7  Pass 0  IDiag  1:
 RMSU=  2.60D-05    CP:  9.88D-01  7.32D-01  6.30D-01  6.95D-01  5.89D-01
                    CP:  5.77D-01
 E= -1116.51403453913     Delta-E=       -0.000082339321 Rises=F Damp=F
 DIIS: error= 1.73D-04 at cycle   7 NSaved=   7.
 NSaved= 7 IEnMin= 7 EnMin= -1116.51403453913     IErMin= 7 ErrMin= 1.73D-04
 ErrMax= 1.73D-04  0.00D+00 EMaxC= 1.00D-01 BMatC= 9.06D-06 BMatP= 1.08D-04
 IDIUse=3 WtCom= 9.98D-01 WtEn= 1.73D-03
 Coeff-Com: -0.535D-03-0.928D-04 0.170D-01 0.527D-01 0.148D+00 0.293D+00
 Coeff-Com:  0.490D+00
 Coeff-En:   0.000D+00 0.000D+00 0.000D+00 0.000D+00 0.000D+00 0.104D-01
 Coeff-En:   0.990D+00
 Coeff:     -0.534D-03-0.927D-04 0.170D-01 0.526D-01 0.148D+00 0.293D+00
 Coeff:      0.490D+00
 Gap=     0.193 Goal=   None    Shift=    0.000
 RMSDP=1.25D-05 MaxDP=3.98D-04 DE=-8.23D-05 OVMax= 6.31D-04

 Cycle   8  Pass 0  IDiag  1:
 RMSU=  7.20D-06    CP:  9.88D-01  7.31D-01  6.30D-01  6.96D-01  5.89D-01
                    CP:  6.06D-01  6.20D-01
 E= -1116.51404163105     Delta-E=       -0.000007091918 Rises=F Damp=F
 DIIS: error= 3.91D-05 at cycle   8 NSaved=   8.
 NSaved= 8 IEnMin= 8 EnMin= -1116.51404163105     IErMin= 8 ErrMin= 3.91D-05
 ErrMax= 3.91D-05  0.00D+00 EMaxC= 1.00D-01 BMatC= 5.85D-07 BMatP= 9.06D-06
 IDIUse=1 WtCom= 1.00D+00 WtEn= 0.00D+00
 Coeff-Com: -0.211D-03-0.408D-03 0.392D-02 0.133D-01 0.472D-01 0.110D+00
 Coeff-Com:  0.264D+00 0.562D+00
 Coeff:     -0.211D-03-0.408D-03 0.392D-02 0.133D-01 0.472D-01 0.110D+00
 Coeff:      0.264D+00 0.562D+00
 Gap=     0.193 Goal=   None    Shift=    0.000
 RMSDP=3.75D-06 MaxDP=1.36D-04 DE=-7.09D-06 OVMax= 2.65D-04

 Initial convergence to 1.0D-05 achieved.  Increase integral accuracy.
 Cycle   9  Pass 1  IDiag  1:
 E= -1116.51401210710     Delta-E=        0.000029523945 Rises=F Damp=F
 DIIS: error= 6.25D-05 at cycle   1 NSaved=   1.
 NSaved= 1 IEnMin= 1 EnMin= -1116.51401210710     IErMin= 1 ErrMin= 6.25D-05
 ErrMax= 6.25D-05  0.00D+00 EMaxC= 1.00D-01 BMatC= 3.00D-07 BMatP= 3.00D-07
 IDIUse=1 WtCom= 1.00D+00 WtEn= 0.00D+00
 Coeff-Com:  0.100D+01
 Coeff:      0.100D+01
 Gap=     0.193 Goal=   None    Shift=    0.000
 RMSDP=3.75D-06 MaxDP=1.36D-04 DE= 2.95D-05 OVMax= 1.76D-04

 Cycle  10  Pass 1  IDiag  1:
 RMSU=  3.04D-05    CP:  1.00D+00
 E= -1116.51401231159     Delta-E=       -0.000000204486 Rises=F Damp=F
 DIIS: error= 1.34D-05 at cycle   2 NSaved=   2.
 NSaved= 2 IEnMin= 2 EnMin= -1116.51401231159     IErMin= 2 ErrMin= 1.34D-05
 ErrMax= 1.34D-05  0.00D+00 EMaxC= 1.00D-01 BMatC= 1.21D-07 BMatP= 3.00D-07
 IDIUse=1 WtCom= 1.00D+00 WtEn= 0.00D+00
 Coeff-Com:  0.338D+00 0.662D+00
 Coeff:      0.338D+00 0.662D+00
 Gap=     0.193 Goal=   None    Shift=    0.000
 RMSDP=2.62D-06 MaxDP=1.11D-04 DE=-2.04D-07 OVMax= 2.19D-04

 Cycle  11  Pass 1  IDiag  1:
 RMSU=  2.62D-06    CP:  1.00D+00  1.00D+00
 E= -1116.51401231748     Delta-E=       -0.000000005886 Rises=F Damp=F
 DIIS: error= 1.31D-05 at cycle   3 NSaved=   3.
 NSaved= 3 IEnMin= 3 EnMin= -1116.51401231748     IErMin= 3 ErrMin= 1.31D-05
 ErrMax= 1.31D-05  0.00D+00 EMaxC= 1.00D-01 BMatC= 1.16D-07 BMatP= 1.21D-07
 IDIUse=1 WtCom= 1.00D+00 WtEn= 0.00D+00
 Coeff-Com:  0.198D-01 0.490D+00 0.490D+00
 Coeff:      0.198D-01 0.490D+00 0.490D+00
 Gap=     0.193 Goal=   None    Shift=    0.000
 RMSDP=1.46D-06 MaxDP=6.47D-05 DE=-5.89D-09 OVMax= 1.17D-04

 Cycle  12  Pass 1  IDiag  1:
 RMSU=  5.97D-07    CP:  1.00D+00  1.01D+00  4.98D-01
 E= -1116.51401242274     Delta-E=       -0.000000105262 Rises=F Damp=F
 DIIS: error= 3.26D-06 at cycle   4 NSaved=   4.
 NSaved= 4 IEnMin= 4 EnMin= -1116.51401242274     IErMin= 4 ErrMin= 3.26D-06
 ErrMax= 3.26D-06  0.00D+00 EMaxC= 1.00D-01 BMatC= 7.88D-09 BMatP= 1.16D-07
 IDIUse=1 WtCom= 1.00D+00 WtEn= 0.00D+00
 Coeff-Com: -0.545D-02 0.287D+00 0.321D+00 0.398D+00
 Coeff:     -0.545D-02 0.287D+00 0.321D+00 0.398D+00
 Gap=     0.193 Goal=   None    Shift=    0.000
 RMSDP=3.66D-07 MaxDP=1.65D-05 DE=-1.05D-07 OVMax= 2.18D-05

 Cycle  13  Pass 1  IDiag  1:
 RMSU=  1.49D-07    CP:  1.00D+00  1.01D+00  5.26D-01  4.55D-01
 E= -1116.51401242971     Delta-E=       -0.000000006971 Rises=F Damp=F
 DIIS: error= 6.28D-07 at cycle   5 NSaved=   5.
 NSaved= 5 IEnMin= 5 EnMin= -1116.51401242971     IErMin= 5 ErrMin= 6.28D-07
 ErrMax= 6.28D-07  0.00D+00 EMaxC= 1.00D-01 BMatC= 2.53D-10 BMatP= 7.88D-09
 IDIUse=1 WtCom= 1.00D+00 WtEn= 0.00D+00
 Coeff-Com: -0.408D-02 0.139D+00 0.159D+00 0.230D+00 0.476D+00
 Coeff:     -0.408D-02 0.139D+00 0.159D+00 0.230D+00 0.476D+00
 Gap=     0.193 Goal=   None    Shift=    0.000
 RMSDP=7.28D-08 MaxDP=3.12D-06 DE=-6.97D-09 OVMax= 4.59D-06

 Cycle  14  Pass 1  IDiag  1:
 RMSU=  5.74D-08    CP:  1.00D+00  1.01D+00  5.24D-01  4.72D-01  7.13D-01
 E= -1116.51401242992     Delta-E=       -0.000000000213 Rises=F Damp=F
 DIIS: error= 1.80D-07 at cycle   6 NSaved=   6.
 NSaved= 6 IEnMin= 6 EnMin= -1116.51401242992     IErMin= 6 ErrMin= 1.80D-07
 ErrMax= 1.80D-07  0.00D+00 EMaxC= 1.00D-01 BMatC= 1.28D-11 BMatP= 2.53D-10
 IDIUse=1 WtCom= 1.00D+00 WtEn= 0.00D+00
 Coeff-Com: -0.149D-02 0.421D-01 0.484D-01 0.762D-01 0.234D+00 0.601D+00
 Coeff:     -0.149D-02 0.421D-01 0.484D-01 0.762D-01 0.234D+00 0.601D+00
 Gap=     0.193 Goal=   None    Shift=    0.000
 RMSDP=1.91D-08 MaxDP=6.48D-07 DE=-2.13D-10 OVMax= 1.62D-06

 Cycle  15  Pass 1  IDiag  1:
 RMSU=  1.53D-08    CP:  1.00D+00  1.01D+00  5.24D-01  4.75D-01  7.63D-01
                    CP:  8.56D-01
 E= -1116.51401242992     Delta-E=        0.000000000004 Rises=F Damp=F
 DIIS: error= 1.00D-07 at cycle   7 NSaved=   7.
 NSaved= 7 IEnMin= 6 EnMin= -1116.51401242992     IErMin= 7 ErrMin= 1.00D-07
 ErrMax= 1.00D-07  0.00D+00 EMaxC= 1.00D-01 BMatC= 3.34D-12 BMatP= 1.28D-11
 IDIUse=1 WtCom= 1.00D+00 WtEn= 0.00D+00
 Coeff-Com: -0.273D-03 0.338D-02 0.404D-02 0.964D-02 0.700D-01 0.377D+00
 Coeff-Com:  0.536D+00
 Coeff:     -0.273D-03 0.338D-02 0.404D-02 0.964D-02 0.700D-01 0.377D+00
 Coeff:      0.536D+00
 Gap=     0.193 Goal=   None    Shift=    0.000
 RMSDP=8.83D-09 MaxDP=3.23D-07 DE= 4.09D-12 OVMax= 5.32D-07

 SCF Done:  E(RB3LYP) =  -1116.51401243     A.U. after   15 cycles
            NFock= 15  Conv=0.88D-08     -V/T= 2.0073
 KE= 1.108370204605D+03 PE=-4.983771523470D+03 EE= 1.575422354882D+03
 Leave Link  502 at Thu Aug  6 21:59:00 2020, MaxMem=    33554432 cpu:       158.6
 (Enter /prod/apps/gaussian/g09d1/l601.exe)
 Copying SCF densities to generalized density rwf, IOpCl= 0 IROHF=0.

 **********************************************************************

            Population analysis using the SCF density.

 **********************************************************************

 Orbital symmetries:
       Occupied  (A) (A) (A) (A) (A) (A) (A) (A) (A) (A) (A) (A)
                 (A) (A) (A) (A) (A) (A) (A) (A) (A) (A) (A) (A)
                 (A) (A) (A) (A) (A) (A) (A) (A) (A) (A) (A) (A)
                 (A) (A) (A) (A) (A) (A) (A) (A) (A) (A) (A) (A)
                 (A) (A) (A) (A) (A) (A) (A) (A) (A) (A) (A) (A)
                 (A) (A)
       Virtual   (A) (A) (A) (A) (A) (A) (A) (A) (A) (A) (A) (A)
                 (A) (A) (A) (A) (A) (A) (A) (A) (A) (A) (A) (A)
                 (A) (A) (A) (A) (A) (A) (A) (A) (A) (A) (A) (A)
                 (A) (A) (A) (A) (A) (A) (A) (A) (A) (A) (A) (A)
                 (A) (A) (A) (A) (A) (A) (A) (A) (A) (A) (A) (A)
                 (A) (A) (A) (A) (A) (A) (A) (A) (A) (A) (A) (A)
                 (A) (A) (A) (A) (A) (A) (A) (A) (A) (A) (A) (A)
                 (A) (A) (A) (A) (A) (A) (A) (A) (A) (A) (A) (A)
                 (A) (A) (A) (A) (A) (A) (A) (A) (A) (A) (A) (A)
                 (A) (A) (A) (A) (A) (A) (A) (A) (A) (A) (A) (A)
                 (A) (A) (A) (A) (A) (A) (A) (A) (A) (A) (A) (A)
                 (A) (A) (A) (A) (A) (A) (A) (A) (A) (A) (A) (A)
                 (A) (A) (A) (A) (A) (A) (A) (A) (A) (A) (A) (A)
                 (A) (A) (A) (A) (A) (A) (A) (A) (A) (A) (A) (A)
                 (A) (A) (A) (A) (A) (A) (A) (A) (A) (A) (A) (A)
                 (A) (A) (A) (A) (A) (A) (A) (A) (A) (A) (A) (A)
                 (A) (A) (A) (A) (A) (A) (A) (A) (A) (A)
 The electronic state is 1-A.
 Alpha  occ. eigenvalues --  -89.11446 -19.14267 -19.14111 -14.44737 -14.40252
 Alpha  occ. eigenvalues --  -14.38755 -14.36696 -10.26723 -10.25899 -10.24755
 Alpha  occ. eigenvalues --  -10.22374 -10.21813 -10.21406 -10.21189 -10.21132
 Alpha  occ. eigenvalues --  -10.20985  -8.14050  -6.10586  -6.10435  -6.10315
 Alpha  occ. eigenvalues --   -1.11467  -1.10769  -0.99622  -0.96003  -0.93074
 Alpha  occ. eigenvalues --   -0.86869  -0.81392  -0.77635  -0.77241  -0.76679
 Alpha  occ. eigenvalues --   -0.67443  -0.66439  -0.63492  -0.61751  -0.59111
 Alpha  occ. eigenvalues --   -0.57118  -0.53567  -0.52508  -0.50701  -0.49391
 Alpha  occ. eigenvalues --   -0.48919  -0.47969  -0.46477  -0.46213  -0.45462
 Alpha  occ. eigenvalues --   -0.44489  -0.43878  -0.42403  -0.39508  -0.38434
 Alpha  occ. eigenvalues --   -0.37175  -0.35877  -0.34920  -0.33956  -0.32016
 Alpha  occ. eigenvalues --   -0.31246  -0.30722  -0.29425  -0.28585  -0.27321
 Alpha  occ. eigenvalues --   -0.26657  -0.24080
 Alpha virt. eigenvalues --   -0.04776  -0.02381   0.01133   0.02282   0.05388
 Alpha virt. eigenvalues --    0.07207   0.08200   0.09096   0.10325   0.10651
 Alpha virt. eigenvalues --    0.11641   0.12179   0.13550   0.14185   0.14555
 Alpha virt. eigenvalues --    0.15356   0.16480   0.17473   0.17507   0.19357
 Alpha virt. eigenvalues --    0.21130   0.22541   0.24558   0.28253   0.29800
 Alpha virt. eigenvalues --    0.30726   0.32472   0.34756   0.35276   0.37706
 Alpha virt. eigenvalues --    0.40313   0.42211   0.42457   0.45015   0.47151
 Alpha virt. eigenvalues --    0.48470   0.49338   0.51189   0.51351   0.52005
 Alpha virt. eigenvalues --    0.53338   0.53888   0.55062   0.56306   0.57034
 Alpha virt. eigenvalues --    0.57187   0.57937   0.59226   0.59845   0.60025
 Alpha virt. eigenvalues --    0.60606   0.61492   0.62570   0.63949   0.66033
 Alpha virt. eigenvalues --    0.68562   0.69634   0.70086   0.71419   0.73277
 Alpha virt. eigenvalues --    0.74227   0.76952   0.78263   0.79654   0.80135
 Alpha virt. eigenvalues --    0.81995   0.82071   0.82426   0.82652   0.83868
 Alpha virt. eigenvalues --    0.84583   0.85547   0.86649   0.87791   0.88075
 Alpha virt. eigenvalues --    0.89333   0.89673   0.92001   0.93129   0.94387
 Alpha virt. eigenvalues --    0.95889   0.96164   0.97650   0.99515   1.00791
 Alpha virt. eigenvalues --    1.02246   1.03873   1.04734   1.05237   1.06442
 Alpha virt. eigenvalues --    1.08923   1.11613   1.12442   1.14363   1.15199
 Alpha virt. eigenvalues --    1.15410   1.17833   1.19252   1.20462   1.22466
 Alpha virt. eigenvalues --    1.24634   1.26975   1.31363   1.34081   1.36420
 Alpha virt. eigenvalues --    1.37649   1.40814   1.40973   1.42944   1.43419
 Alpha virt. eigenvalues --    1.44980   1.46845   1.47428   1.48838   1.50968
 Alpha virt. eigenvalues --    1.52657   1.56780   1.59163   1.61385   1.65777
 Alpha virt. eigenvalues --    1.68028   1.70102   1.74540   1.77822   1.78978
 Alpha virt. eigenvalues --    1.79504   1.79762   1.81176   1.83056   1.83216
 Alpha virt. eigenvalues --    1.84301   1.86637   1.87057   1.88830   1.91531
 Alpha virt. eigenvalues --    1.93305   1.95431   1.96036   2.02861   2.03675
 Alpha virt. eigenvalues --    2.06229   2.07294   2.07706   2.09931   2.10683
 Alpha virt. eigenvalues --    2.11029   2.12518   2.13765   2.13870   2.16858
 Alpha virt. eigenvalues --    2.19040   2.20875   2.22710   2.23354   2.24783
 Alpha virt. eigenvalues --    2.26421   2.28127   2.28256   2.29757   2.31272
 Alpha virt. eigenvalues --    2.32193   2.37433   2.37960   2.47759   2.50401
 Alpha virt. eigenvalues --    2.53890   2.56214   2.57171   2.58723   2.63117
 Alpha virt. eigenvalues --    2.63351   2.66547   2.69226   2.70841   2.72929
 Alpha virt. eigenvalues --    2.73179   2.77143   2.78262   2.82611   2.85676
 Alpha virt. eigenvalues --    2.88058   3.00681   3.06182   3.12695   3.25082
 Alpha virt. eigenvalues --    3.41250   3.61441   3.78350   3.88978   3.96886
 Alpha virt. eigenvalues --    4.00799   4.03946   4.07055   4.09277   4.09967
 Alpha virt. eigenvalues --    4.13938   4.19346   4.22781   4.30700   4.37869
 Alpha virt. eigenvalues --    4.46248   4.70057
          Condensed to atoms (all electrons):
               1          2          3          4          5          6
     1  O    8.220714   0.438560  -0.057352   0.012496  -0.002024  -0.000064
     2  S    0.438560  13.680396   0.083990  -0.003707  -0.003187  -0.000138
     3  N   -0.057352   0.083990   7.441508   0.242236  -0.056203   0.005827
     4  C    0.012496  -0.003707   0.242236   4.640370   0.341901  -0.061688
     5  N   -0.002024  -0.003187  -0.056203   0.341901   6.871715   0.295718
     6  N   -0.000064  -0.000138   0.005827  -0.061688   0.295718   6.749234
     7  C    0.000312   0.000005  -0.079652   0.498589  -0.063209  -0.103163
     8  N   -0.000022   0.000135   0.003588  -0.045192  -0.082094   0.200160
     9  C    0.000000  -0.000022  -0.000106   0.005668   0.006431  -0.044330
    10  C    0.000000   0.000001   0.000004   0.000971  -0.000319   0.002986
    11  C    0.000000   0.000000   0.000000  -0.000008   0.000002  -0.000069
    12  C    0.000000   0.000000   0.000000   0.000000   0.000000   0.000016
    13  C    0.000000   0.000000   0.000000   0.000006  -0.000004   0.000348
    14  C    0.000000   0.000000   0.000000  -0.000434   0.000259   0.001185
    15  C   -0.057479   0.218227  -0.051204  -0.009257  -0.003274   0.000139
    16  O   -0.045230   0.450399  -0.049487   0.001398  -0.000031   0.000000
    17  H   -0.000117  -0.011972   0.304971  -0.027127   0.002748  -0.000117
    18  H    0.000017   0.000023  -0.000702  -0.026579   0.004080   0.003551
    19  H    0.000000   0.000000   0.000000   0.000023  -0.000005  -0.000095
    20  H    0.000000   0.000000   0.000000   0.000000   0.000000   0.000001
    21  H    0.000000   0.000000   0.000000   0.000000   0.000000   0.000000
    22  H    0.000000   0.000000   0.000000   0.000000   0.000000  -0.000007
    23  H    0.000000   0.000000   0.000000   0.000052  -0.000355   0.014923
    24  H   -0.000786  -0.000946  -0.001731  -0.000521   0.012784  -0.000293
    25  H    0.001905  -0.006513   0.001008   0.000340  -0.000041  -0.000001
    26  H    0.000002  -0.018681   0.002409   0.000135   0.000111  -0.000001
               7          8          9         10         11         12
     1  O    0.000312  -0.000022   0.000000   0.000000   0.000000   0.000000
     2  S    0.000005   0.000135  -0.000022   0.000001   0.000000   0.000000
     3  N   -0.079652   0.003588  -0.000106   0.000004   0.000000   0.000000
     4  C    0.498589  -0.045192   0.005668   0.000971  -0.000008   0.000000
     5  N   -0.063209  -0.082094   0.006431  -0.000319   0.000002   0.000000
     6  N   -0.103163   0.200160  -0.044330   0.002986  -0.000069   0.000016
     7  C    5.090249   0.316720  -0.035528  -0.007704  -0.000026   0.000018
     8  N    0.316720   6.925932   0.200176  -0.051581   0.004700   0.000396
     9  C   -0.035528   0.200176   4.612472   0.529400  -0.007724  -0.037983
    10  C   -0.007704  -0.051581   0.529400   4.993001   0.529234  -0.039483
    11  C   -0.000026   0.004700  -0.007724   0.529234   4.844468   0.550155
    12  C    0.000018   0.000396  -0.037983  -0.039483   0.550155   4.848903
    13  C   -0.000086   0.004594  -0.009518  -0.042175  -0.022746   0.543378
    14  C    0.007746  -0.057245   0.519740  -0.073127  -0.041379  -0.037361
    15  C   -0.000222  -0.000008   0.000000   0.000000   0.000000   0.000000
    16  O   -0.000008   0.000000   0.000000   0.000000   0.000000   0.000000
    17  H   -0.002578  -0.000012   0.000000   0.000000   0.000000   0.000000
    18  H    0.358644  -0.035360  -0.001403   0.002200   0.000169  -0.000001
    19  H    0.006426  -0.009771  -0.041142   0.347868  -0.037806   0.004504
    20  H   -0.000004  -0.000115   0.003554  -0.039310   0.359657  -0.040223
    21  H    0.000000   0.000004   0.000534   0.004989  -0.042363   0.362476
    22  H    0.000002  -0.000109   0.003447   0.000816   0.004548  -0.041257
    23  H    0.000255  -0.013170  -0.034186   0.005600   0.000164   0.004374
    24  H    0.000180   0.000031   0.000000   0.000000   0.000000   0.000000
    25  H    0.000000   0.000000   0.000000   0.000000   0.000000   0.000000
    26  H    0.000005   0.000000   0.000000   0.000000   0.000000   0.000000
              13         14         15         16         17         18
     1  O    0.000000   0.000000  -0.057479  -0.045230  -0.000117   0.000017
     2  S    0.000000   0.000000   0.218227   0.450399  -0.011972   0.000023
     3  N    0.000000   0.000000  -0.051204  -0.049487   0.304971  -0.000702
     4  C    0.000006  -0.000434  -0.009257   0.001398  -0.027127  -0.026579
     5  N   -0.000004   0.000259  -0.003274  -0.000031   0.002748   0.004080
     6  N    0.000348   0.001185   0.000139   0.000000  -0.000117   0.003551
     7  C   -0.000086   0.007746  -0.000222  -0.000008  -0.002578   0.358644
     8  N    0.004594  -0.057245  -0.000008   0.000000  -0.000012  -0.035360
     9  C   -0.009518   0.519740   0.000000   0.000000   0.000000  -0.001403
    10  C   -0.042175  -0.073127   0.000000   0.000000   0.000000   0.002200
    11  C   -0.022746  -0.041379   0.000000   0.000000   0.000000   0.000169
    12  C    0.543378  -0.037361   0.000000   0.000000   0.000000  -0.000001
    13  C    4.866207   0.517587   0.000000   0.000000   0.000000  -0.000006
    14  C    0.517587   4.976562   0.000000   0.000000   0.000000  -0.000106
    15  C    0.000000   0.000000   5.564124  -0.058377   0.003120   0.000000
    16  O    0.000000   0.000000  -0.058377   8.227901   0.005499  -0.000001
    17  H    0.000000   0.000000   0.003120   0.005499   0.359734   0.001244
    18  H   -0.000006  -0.000106   0.000000  -0.000001   0.001244   0.506339
    19  H    0.000255   0.005777   0.000000   0.000000   0.000001   0.001972
    20  H    0.004537   0.000781   0.000000   0.000000   0.000000  -0.000002
    21  H   -0.042308   0.004691   0.000000   0.000000   0.000000   0.000000
    22  H    0.360643  -0.038009   0.000000   0.000000   0.000000   0.000000
    23  H   -0.039906   0.354997   0.000000   0.000000   0.000000  -0.000011
    24  H    0.000000   0.000000   0.329124   0.001576  -0.000085  -0.000001
    25  H    0.000000   0.000000   0.339360  -0.000008  -0.000026   0.000000
    26  H    0.000000   0.000000   0.355789  -0.000460  -0.000063   0.000000
              19         20         21         22         23         24
     1  O    0.000000   0.000000   0.000000   0.000000   0.000000  -0.000786
     2  S    0.000000   0.000000   0.000000   0.000000   0.000000  -0.000946
     3  N    0.000000   0.000000   0.000000   0.000000   0.000000  -0.001731
     4  C    0.000023   0.000000   0.000000   0.000000   0.000052  -0.000521
     5  N   -0.000005   0.000000   0.000000   0.000000  -0.000355   0.012784
     6  N   -0.000095   0.000001   0.000000  -0.000007   0.014923  -0.000293
     7  C    0.006426  -0.000004   0.000000   0.000002   0.000255   0.000180
     8  N   -0.009771  -0.000115   0.000004  -0.000109  -0.013170   0.000031
     9  C   -0.041142   0.003554   0.000534   0.003447  -0.034186   0.000000
    10  C    0.347868  -0.039310   0.004989   0.000816   0.005600   0.000000
    11  C   -0.037806   0.359657  -0.042363   0.004548   0.000164   0.000000
    12  C    0.004504  -0.040223   0.362476  -0.041257   0.004374   0.000000
    13  C    0.000255   0.004537  -0.042308   0.360643  -0.039906   0.000000
    14  C    0.005777   0.000781   0.004691  -0.038009   0.354997   0.000000
    15  C    0.000000   0.000000   0.000000   0.000000   0.000000   0.329124
    16  O    0.000000   0.000000   0.000000   0.000000   0.000000   0.001576
    17  H    0.000001   0.000000   0.000000   0.000000   0.000000  -0.000085
    18  H    0.001972  -0.000002   0.000000   0.000000  -0.000011  -0.000001
    19  H    0.584493  -0.005548  -0.000160   0.000015  -0.000140   0.000000
    20  H   -0.005548   0.578507  -0.005347  -0.000178   0.000013   0.000000
    21  H   -0.000160  -0.005347   0.581409  -0.005339  -0.000140   0.000000
    22  H    0.000015  -0.000178  -0.005339   0.573344  -0.005055   0.000000
    23  H   -0.000140   0.000013  -0.000140  -0.005055   0.533478   0.000000
    24  H    0.000000   0.000000   0.000000   0.000000   0.000000   0.458026
    25  H    0.000000   0.000000   0.000000   0.000000   0.000000  -0.021824
    26  H    0.000000   0.000000   0.000000   0.000000   0.000000  -0.016133
              25         26
     1  O    0.001905   0.000002
     2  S   -0.006513  -0.018681
     3  N    0.001008   0.002409
     4  C    0.000340   0.000135
     5  N   -0.000041   0.000111
     6  N   -0.000001  -0.000001
     7  C    0.000000   0.000005
     8  N    0.000000   0.000000
     9  C    0.000000   0.000000
    10  C    0.000000   0.000000
    11  C    0.000000   0.000000
    12  C    0.000000   0.000000
    13  C    0.000000   0.000000
    14  C    0.000000   0.000000
    15  C    0.339360   0.355789
    16  O   -0.000008  -0.000460
    17  H   -0.000026  -0.000063
    18  H    0.000000   0.000000
    19  H    0.000000   0.000000
    20  H    0.000000   0.000000
    21  H    0.000000   0.000000
    22  H    0.000000   0.000000
    23  H    0.000000   0.000000
    24  H   -0.021824  -0.016133
    25  H    0.495488  -0.019791
    26  H   -0.019791   0.481322
 Mulliken charges:
               1
     1  O   -0.510932
     2  S    1.173429
     3  N   -0.789106
     4  C    0.430327
     5  N   -0.325002
     6  N   -0.064122
     7  C    0.013028
     8  N   -0.361757
     9  C    0.330520
    10  C   -0.163373
    11  C   -0.140979
    12  C   -0.117913
    13  C   -0.140807
    14  C   -0.141663
    15  C   -0.630061
    16  O   -0.533172
    17  H    0.364781
    18  H    0.185933
    19  H    0.143334
    20  H    0.143676
    21  H    0.141553
    22  H    0.147140
    23  H    0.179106
    24  H    0.240602
    25  H    0.210102
    26  H    0.215354
 Sum of Mulliken charges =   0.00000
 Mulliken charges with hydrogens summed into heavy atoms:
               1
     1  O   -0.510932
     2  S    1.173429
     3  N   -0.424325
     4  C    0.430327
     5  N   -0.325002
     6  N   -0.064122
     7  C    0.198962
     8  N   -0.361757
     9  C    0.330520
    10  C   -0.020038
    11  C    0.002698
    12  C    0.023640
    13  C    0.006333
    14  C    0.037443
    15  C    0.035996
    16  O   -0.533172
 Electronic spatial extent (au):  <R**2>=           5590.1416
 Charge=              0.0000 electrons
 Dipole moment (field-independent basis, Debye):
    X=             -4.3872    Y=             -1.6393    Z=             -1.8721  Tot=              5.0438
 Quadrupole moment (field-independent basis, Debye-Ang):
   XX=            -89.3704   YY=            -92.1973   ZZ=           -105.8532
   XY=             10.6785   XZ=            -11.4500   YZ=              3.9014
 Traceless Quadrupole moment (field-independent basis, Debye-Ang):
   XX=              6.4366   YY=              3.6097   ZZ=            -10.0463
   XY=             10.6785   XZ=            -11.4500   YZ=              3.9014
 Octapole moment (field-independent basis, Debye-Ang**2):
  XXX=            -79.8001  YYY=            -15.3002  ZZZ=             -2.4674  XYY=             -0.7476
  XXY=             55.3993  XXZ=            -18.7898  XZZ=             11.7462  YZZ=             -1.8949
  YYZ=              2.0102  XYZ=             -7.1462
 Hexadecapole moment (field-independent basis, Debye-Ang**3):
 XXXX=          -5982.9952 YYYY=           -594.3475 ZZZZ=           -322.9441 XXXY=            285.2655
 XXXZ=           -179.0636 YYYX=              0.0140 YYYZ=             22.3268 ZZZX=              0.9902
 ZZZY=             -2.1804 XXYY=          -1101.0033 XXZZ=          -1186.7793 YYZZ=           -160.4803
 XXYZ=             40.8157 YYXZ=             -8.7247 ZZXY=            -12.5245
 N-N= 1.183464951553D+03 E-N=-4.983771545166D+03  KE= 1.108370204605D+03
 No NMR shielding tensors so no spin-rotation constants.
 Leave Link  601 at Thu Aug  6 21:59:00 2020, MaxMem=    33554432 cpu:         0.2
 (Enter /prod/apps/gaussian/g09d1/l9999.exe)
 1\1\GINC-PIRINEUS17\SP\RB3LYP\6-31G(d)\C9H10N4O2S1\UBAFAR01\06-Aug-202
 0\0\\#p b3lyp/6-31G(d)\\SM44.n.2.pdb.xyz\\0,1\O,0,2.026,-3.59,-1.943\S
 ,0,2.96,-2.499,-1.627\N,0,2.735,-1.946,-0.027\C,0,2.222,-2.831,0.936\N
 ,0,2.901,-3.953,1.299\N,0,2.225,-4.573,2.233\C,0,1.068,-2.746,1.685\N,
 0,1.117,-3.842,2.487\C,0,0.184,-4.249,3.483\C,0,-0.618,-3.29,4.104\C,0
 ,-1.537,-3.695,5.071\C,0,-1.643,-5.042,5.422\C,0,-0.828,-5.989,4.797\C
 ,0,0.086,-5.6,3.82\C,0,4.617,-3.174,-1.562\O,0,2.947,-1.28,-2.448\H,0,
 2.265,-1.04,-0.055\H,0,0.259,-2.038,1.7\H,0,-0.517,-2.243,3.844\H,0,-2
 .163,-2.953,5.554\H,0,-2.356,-5.353,6.177\H,0,-0.908,-7.037,5.063\H,0,
 0.713,-6.325,3.318\H,0,4.632,-3.955,-0.802\H,0,5.306,-2.37,-1.31\H,0,4
 .836,-3.584,-2.548\\Version=AM64L-G09RevD.01\State=1-A\HF=-1116.514012
 4\RMSD=8.825e-09\Dipole=-0.7159348,0.3628343,1.8147979\Quadrupole=6.70
 21802,1.2625768,-7.964757,-0.3461874,-11.1529231,2.7156938\PG=C01 [X(C
 9H10N4O2S1)]\\@


 THE MOST INCOMPREHENSIBLE THING ABOUT THE WORLD
 IS THAT IT IS COMPREHENSIBLE. -- A. EINSTEIN
 Job cpu time:       0 days  0 hours  2 minutes 42.1 seconds.
 File lengths (MBytes):  RWF=     40 Int=      0 D2E=      0 Chk=      4 Scr=      1
 Normal termination of Gaussian 09 at Thu Aug  6 21:59:00 2020.
 Initial command:
 /prod/apps/gaussian/g09d1/l1.exe "/tmp/ubafar01/1448612/Gau-59405.inp" -scrdir="/tmp/ubafar01/1448612/"
 Entering Link 1 = /prod/apps/gaussian/g09d1/l1.exe PID=     59442.
  
 Copyright (c) 1988,1990,1992,1993,1995,1998,2003,2009,2013,
            Gaussian, Inc.  All Rights Reserved.
  
 This is part of the Gaussian(R) 09 program.  It is based on
 the Gaussian(R) 03 system (copyright 2003, Gaussian, Inc.),
 the Gaussian(R) 98 system (copyright 1998, Gaussian, Inc.),
 the Gaussian(R) 94 system (copyright 1995, Gaussian, Inc.),
 the Gaussian 92(TM) system (copyright 1992, Gaussian, Inc.),
 the Gaussian 90(TM) system (copyright 1990, Gaussian, Inc.),
 the Gaussian 88(TM) system (copyright 1988, Gaussian, Inc.),
 the Gaussian 86(TM) system (copyright 1986, Carnegie Mellon
 University), and the Gaussian 82(TM) system (copyright 1983,
 Carnegie Mellon University). Gaussian is a federally registered
 trademark of Gaussian, Inc.
  
 This software contains proprietary and confidential information,
 including trade secrets, belonging to Gaussian, Inc.
  
 This software is provided under written license and may be
 used, copied, transmitted, or stored only in accord with that
 written license.
  
 The following legend is applicable only to US Government
 contracts under FAR:
  
                    RESTRICTED RIGHTS LEGEND
  
 Use, reproduction and disclosure by the US Government is
 subject to restrictions as set forth in subparagraphs (a)
 and (c) of the Commercial Computer Software - Restricted
 Rights clause in FAR 52.227-19.
  
 Gaussian, Inc.
 340 Quinnipiac St., Bldg. 40, Wallingford CT 06492
  
  
 ---------------------------------------------------------------
 Warning -- This program may not be used in any manner that
 competes with the business of Gaussian, Inc. or will provide
 assistance to any competitor of Gaussian, Inc.  The licensee
 of this program is prohibited from giving any competitor of
 Gaussian, Inc. access to this program.  By using this program,
 the user acknowledges that Gaussian, Inc. is engaged in the
 business of creating and licensing software in the field of
 computational chemistry and represents and warrants to the
 licensee that it is not a competitor of Gaussian, Inc. and that
 it will not use this program in any manner prohibited above.
 ---------------------------------------------------------------
  

 Cite this work as:
 Gaussian 09, Revision D.01,
 M. J. Frisch, G. W. Trucks, H. B. Schlegel, G. E. Scuseria, 
 M. A. Robb, J. R. Cheeseman, G. Scalmani, V. Barone, B. Mennucci, 
 G. A. Petersson, H. Nakatsuji, M. Caricato, X. Li, H. P. Hratchian, 
 A. F. Izmaylov, J. Bloino, G. Zheng, J. L. Sonnenberg, M. Hada, 
 M. Ehara, K. Toyota, R. Fukuda, J. Hasegawa, M. Ishida, T. Nakajima, 
 Y. Honda, O. Kitao, H. Nakai, T. Vreven, J. A. Montgomery, Jr., 
 J. E. Peralta, F. Ogliaro, M. Bearpark, J. J. Heyd, E. Brothers, 
 K. N. Kudin, V. N. Staroverov, T. Keith, R. Kobayashi, J. Normand, 
 K. Raghavachari, A. Rendell, J. C. Burant, S. S. Iyengar, J. Tomasi, 
 M. Cossi, N. Rega, J. M. Millam, M. Klene, J. E. Knox, J. B. Cross, 
 V. Bakken, C. Adamo, J. Jaramillo, R. Gomperts, R. E. Stratmann, 
 O. Yazyev, A. J. Austin, R. Cammi, C. Pomelli, J. W. Ochterski, 
 R. L. Martin, K. Morokuma, V. G. Zakrzewski, G. A. Voth, 
 P. Salvador, J. J. Dannenberg, S. Dapprich, A. D. Daniels, 
 O. Farkas, J. B. Foresman, J. V. Ortiz, J. Cioslowski, 
 and D. J. Fox, Gaussian, Inc., Wallingford CT, 2013.
 
 ******************************************
 Gaussian 09:  AM64L-G09RevD.01 24-Apr-2013
                 6-Aug-2020 
 ******************************************
 %nproc=1
 Will use up to    1 processors via shared memory.
 %Chk=SM44.n.2.pdb.xyz.mst.n.w.chk
 %subst l502 /dades/curu/work_g09D01_MST_AddSphPartition_ReadGammas/exe-dir/
 ----------------------------------------------------------------------
 #p b3lyp/6-31G(d) scrf=(iefpcm,read,solvent=Water) geom=allcheck guess
 =read
 ----------------------------------------------------------------------
 1/29=7,38=1,40=2/1;
 2/12=2,40=1/2;
 3/5=1,6=6,7=1,11=2,14=-4,16=1,25=1,30=1,70=2203,72=1,74=-5,116=-2/1,2,3;
 4/5=1/1;
 5/5=2,38=6,53=1/2;
 6/7=2,8=2,9=2,10=2,28=1/1;
 99/5=1,9=1/99;
 Leave Link    1 at Thu Aug  6 21:59:00 2020, MaxMem=           0 cpu:         0.0
 (Enter /prod/apps/gaussian/g09d1/l101.exe)
 Structure from the checkpoint file:  "SM44.n.2.pdb.xyz.mst.n.w.chk"
 ----------------
 SM44.n.2.pdb.xyz
 ----------------
 Charge =  0 Multiplicity = 1
 Z-Matrix found in file.
 O,0,2.026,-3.59,-1.943
 S,0,2.96,-2.499,-1.627
 N,0,2.735,-1.946,-0.027
 C,0,2.222,-2.831,0.936
 N,0,2.901,-3.953,1.299
 N,0,2.225,-4.573,2.233
 C,0,1.068,-2.746,1.685
 N,0,1.117,-3.842,2.487
 C,0,0.184,-4.249,3.483
 C,0,-0.618,-3.29,4.104
 C,0,-1.537,-3.695,5.071
 C,0,-1.643,-5.042,5.422
 C,0,-0.828,-5.989,4.797
 C,0,0.086,-5.6,3.82
 C,0,4.617,-3.174,-1.562
 O,0,2.947,-1.28,-2.448
 H,0,2.265,-1.04,-0.055
 H,0,0.259,-2.038,1.7
 H,0,-0.517,-2.243,3.844
 H,0,-2.163,-2.953,5.554
 H,0,-2.356,-5.353,6.177
 H,0,-0.908,-7.037,5.063
 H,0,0.713,-6.325,3.318
 H,0,4.632,-3.955,-0.802
 H,0,5.306,-2.37,-1.31
 H,0,4.836,-3.584,-2.548
 Recover connectivity data from disk.
 NAtoms=     26 NQM=       26 NQMF=       0 NMMI=      0 NMMIF=      0
                NMic=       0 NMicF=      0.
                    Isotopes and Nuclear Properties:
 (Nuclear quadrupole moments (NQMom) in fm**2, nuclear magnetic moments (NMagM)
  in nuclear magnetons)

  Atom         1           2           3           4           5           6           7           8           9          10
 IAtWgt=          16          32          14          12          14          14          12          14          12          12
 AtmWgt=  15.9949146  31.9720718  14.0030740  12.0000000  14.0030740  14.0030740  12.0000000  14.0030740  12.0000000  12.0000000
 NucSpn=           0           0           2           0           2           2           0           2           0           0
 AtZEff=  -5.6000000 -13.6000000  -4.5500000  -3.6000000  -4.5500000  -4.5500000  -3.6000000  -4.5500000  -3.6000000  -3.6000000
 NQMom=    0.0000000   0.0000000   2.0440000   0.0000000   2.0440000   2.0440000   0.0000000   2.0440000   0.0000000   0.0000000
 NMagM=    0.0000000   0.0000000   0.4037610   0.0000000   0.4037610   0.4037610   0.0000000   0.4037610   0.0000000   0.0000000
 AtZNuc=   8.0000000  16.0000000   7.0000000   6.0000000   7.0000000   7.0000000   6.0000000   7.0000000   6.0000000   6.0000000

  Atom        11          12          13          14          15          16          17          18          19          20
 IAtWgt=          12          12          12          12          12          16           1           1           1           1
 AtmWgt=  12.0000000  12.0000000  12.0000000  12.0000000  12.0000000  15.9949146   1.0078250   1.0078250   1.0078250   1.0078250
 NucSpn=           0           0           0           0           0           0           1           1           1           1
 AtZEff=  -3.6000000  -3.6000000  -3.6000000  -3.6000000  -3.6000000  -5.6000000  -1.0000000  -1.0000000  -1.0000000  -1.0000000
 NQMom=    0.0000000   0.0000000   0.0000000   0.0000000   0.0000000   0.0000000   0.0000000   0.0000000   0.0000000   0.0000000
 NMagM=    0.0000000   0.0000000   0.0000000   0.0000000   0.0000000   0.0000000   2.7928460   2.7928460   2.7928460   2.7928460
 AtZNuc=   6.0000000   6.0000000   6.0000000   6.0000000   6.0000000   8.0000000   1.0000000   1.0000000   1.0000000   1.0000000

  Atom        21          22          23          24          25          26
 IAtWgt=           1           1           1           1           1           1
 AtmWgt=   1.0078250   1.0078250   1.0078250   1.0078250   1.0078250   1.0078250
 NucSpn=           1           1           1           1           1           1
 AtZEff=  -1.0000000  -1.0000000  -1.0000000  -1.0000000  -1.0000000  -1.0000000
 NQMom=    0.0000000   0.0000000   0.0000000   0.0000000   0.0000000   0.0000000
 NMagM=    2.7928460   2.7928460   2.7928460   2.7928460   2.7928460   2.7928460
 AtZNuc=   1.0000000   1.0000000   1.0000000   1.0000000   1.0000000   1.0000000
 Leave Link  101 at Thu Aug  6 21:59:01 2020, MaxMem=    33554432 cpu:         0.1
 (Enter /prod/apps/gaussian/g09d1/l202.exe)
                          Input orientation:                          
 ---------------------------------------------------------------------
 Center     Atomic      Atomic             Coordinates (Angstroms)
 Number     Number       Type             X           Y           Z
 ---------------------------------------------------------------------
      1          8           0        2.026000   -3.590000   -1.943000
      2         16           0        2.960000   -2.499000   -1.627000
      3          7           0        2.735000   -1.946000   -0.027000
      4          6           0        2.222000   -2.831000    0.936000
      5          7           0        2.901000   -3.953000    1.299000
      6          7           0        2.225000   -4.573000    2.233000
      7          6           0        1.068000   -2.746000    1.685000
      8          7           0        1.117000   -3.842000    2.487000
      9          6           0        0.184000   -4.249000    3.483000
     10          6           0       -0.618000   -3.290000    4.104000
     11          6           0       -1.537000   -3.695000    5.071000
     12          6           0       -1.643000   -5.042000    5.422000
     13          6           0       -0.828000   -5.989000    4.797000
     14          6           0        0.086000   -5.600000    3.820000
     15          6           0        4.617000   -3.174000   -1.562000
     16          8           0        2.947000   -1.280000   -2.448000
     17          1           0        2.265000   -1.040000   -0.055000
     18          1           0        0.259000   -2.038000    1.700000
     19          1           0       -0.517000   -2.243000    3.844000
     20          1           0       -2.163000   -2.953000    5.554000
     21          1           0       -2.356000   -5.353000    6.177000
     22          1           0       -0.908000   -7.037000    5.063000
     23          1           0        0.713000   -6.325000    3.318000
     24          1           0        4.632000   -3.955000   -0.802000
     25          1           0        5.306000   -2.370000   -1.310000
     26          1           0        4.836000   -3.584000   -2.548000
 ---------------------------------------------------------------------
                    Distance matrix (angstroms):
                    1          2          3          4          5
     1  O    0.000000
     2  S    1.470542   0.000000
     3  N    2.622303   1.707757   0.000000
     4  C    2.983813   2.687720   1.404907   0.000000
     5  N    3.377567   3.267885   2.411199   1.360770   0.000000
     6  N    4.294749   4.443118   3.502689   2.171815   1.309096
     7  C    3.846100   3.822305   2.519887   1.378384   2.228393
     8  N    4.529314   4.703753   3.540189   2.156095   2.146234
     9  C    5.767904   6.072954   4.912383   3.556877   3.498508
    10  C    6.606583   6.802362   5.487632   4.279311   4.548731
    11  C    7.867794   8.155773   6.877397   5.654627   5.830128
    12  C    8.355423   8.794479   7.644848   6.320676   6.231612
    13  C    7.702475   8.233882   7.232689   5.846605   5.503339
    14  C    6.404363   6.895352   5.930289   4.532914   4.122169
    15  C    2.651697   1.790391   2.721421   3.477597   3.425904
    16  O    2.537591   1.469752   2.519869   3.792451   4.602940
    17  H    3.181849   2.254527   1.021039   2.047342   3.274657
    18  H    4.336178   4.310087   3.020194   2.250759   3.287581
    19  H    6.463020   6.487442   5.064420   4.037862   4.591715
    20  H    8.611533   8.832780   7.493465   6.369382   6.689478
    21  H    9.393854   9.864461   8.718689   7.401800   7.306910
    22  H    8.341115   8.961639   8.068323   6.672291   6.179582
    23  H    6.073081   6.643817   5.869681   4.489882   3.806585
    24  H    2.868160   2.365617   2.869724   3.176810   2.722235
    25  H    3.556331   2.370832   2.904463   3.842928   3.885459
    26  H    2.874398   2.354749   3.667790   4.420211   4.322013
                    6          7          8          9         10
     6  N    0.000000
     7  C    2.230893   0.000000
     8  N    1.351496   1.358978   0.000000
     9  C    2.415193   2.504649   1.424133   0.000000
    10  C    3.637221   2.998348   2.435081   1.395896   0.000000
    11  C    4.793514   4.376257   3.707072   2.406346   1.394157
    12  C    5.034988   5.156191   4.203787   2.779658   2.420176
    13  C    4.230835   4.878156   3.705231   2.403818   2.794450
    14  C    2.854579   3.697008   2.435244   1.395842   2.431537
    15  C    4.699031   4.829244   5.393573   6.801407   7.715066
    16  O    5.768613   4.770900   5.853800   7.185116   7.725156
    17  H    4.209351   2.714930   3.953590   5.210152   5.538183
    18  H    3.251995   1.075160   2.147079   2.841344   2.848833
    19  H    3.942434   2.725163   2.658610   2.155402   1.083517
    20  H    5.736548   5.044935   4.577686   3.387782   2.145482
    21  H    6.095006   6.220795   5.287811   3.863684   3.402050
    22  H    4.888342   5.807593   4.576508   3.385529   3.878632
    23  H    2.555949   3.949931   2.649352   2.148684   3.405963
    24  H    3.922601   4.510981   4.815134   6.183233   7.216201
    25  H    5.186388   5.203080   5.842235   7.262119   8.077845
    26  H    5.536552   5.728731   6.264882   7.645671   8.607070
                   11         12         13         14         15
    11  C    0.000000
    12  C    1.396011   0.000000
    13  C    2.416649   1.397018   0.000000
    14  C    2.797884   2.422232   1.393286   0.000000
    15  C    9.063104   9.563121   8.832278   7.441865   0.000000
    16  O    9.081511   9.856858   9.429493   8.132376   2.676029
    17  H    6.912315   7.828537   7.589542   6.368459   3.515240
    18  H    4.163521   5.147320   5.136475   4.148756   5.560873
    19  H    2.157367   3.404756   3.877815   3.410811   7.513292
    20  H    1.084310   2.156790   3.401848   3.882186   9.831312
    21  H    2.154753   1.084027   2.154920   3.402914  10.642504
    22  H    3.400687   2.156184   1.084186   2.144307   9.451932
    23  H    3.879743   3.409346   2.162179   1.082016   6.998887
    24  H    8.521519   8.904795   8.080690   6.688425   1.089856
    25  H    9.449838  10.037331   9.381821   7.999887   1.088412
    26  H    9.933610  10.374204   9.581959   8.196230   1.090072
                   16         17         18         19         20
    16  O    0.000000
    17  H    2.499835   0.000000
    18  H    5.000581   2.846061   0.000000
    19  H    7.246787   4.938515   2.289309   0.000000
    20  H    9.640697   7.397813   4.642911   2.477401   0.000000
    21  H   10.913375   8.876567   6.153940   4.300803   2.487042
    22  H   10.218571   8.498580   6.136910   4.961983   4.300600
    23  H    7.980572   6.458874   4.604607   4.295614   4.964016
    24  H    3.564290   3.828567   5.390549   7.143421   9.358139
    25  H    2.836904   3.548465   5.885791   7.777350  10.160726
    26  H    2.981063   4.392838   6.433082   8.444558  10.725044
                   21         22         23         24         25
    21  H    0.000000
    22  H    2.484664   0.000000
    23  H    4.305511   2.485882   0.000000
    24  H    9.974617   8.636466   6.160346   0.000000
    25  H   11.120238  10.050364   7.626012   1.795707   0.000000
    26  H   11.444643  10.141206   7.676078   1.796600   1.796480
                   26
    26  H    0.000000
 Stoichiometry    C9H10N4O2S
 Framework group  C1[X(C9H10N4O2S)]
 Deg. of freedom    72
 Full point group                 C1      NOp   1
 RotChk:  IX=0 Diff= 2.28D-15
 Largest Abelian subgroup         C1      NOp   1
 Largest concise Abelian subgroup C1      NOp   1
                         Standard orientation:                         
 ---------------------------------------------------------------------
 Center     Atomic      Atomic             Coordinates (Angstroms)
 Number     Number       Type             X           Y           Z
 ---------------------------------------------------------------------
      1          8           0        2.912891    0.289477    1.620547
      2         16           0        3.461186   -0.181518    0.339910
      3          7           0        2.218654   -0.748230   -0.685461
      4          6           0        0.922749   -0.224874   -0.542303
      5          7           0        0.662467    1.091752   -0.766900
      6          7           0       -0.618881    1.303690   -0.602699
      7          6           0       -0.256450   -0.865305   -0.227218
      8          7           0       -1.190534    0.119807   -0.289373
      9          6           0       -2.594433    0.019603   -0.072162
     10          6           0       -3.235261   -1.202563   -0.282342
     11          6           0       -4.607995   -1.297925   -0.058328
     12          6           0       -5.333274   -0.180240    0.358320
     13          6           0       -4.678991    1.037998    0.556988
     14          6           0       -3.305450    1.144544    0.348950
     15          6           0        4.079484    1.233950   -0.565438
     16          8           0        4.464761   -1.255298    0.338075
     17          1           0        2.256865   -1.768091   -0.716162
     18          1           0       -0.486783   -1.883097    0.031655
     19          1           0       -2.672096   -2.061799   -0.626683
     20          1           0       -5.108697   -2.246248   -0.218672
     21          1           0       -6.401194   -0.256936    0.527963
     22          1           0       -5.236298    1.908715    0.883670
     23          1           0       -2.784075    2.078369    0.512954
     24          1           0        3.252143    1.928838   -0.708347
     25          1           0        4.468554    0.887499   -1.521073
     26          1           0        4.867190    1.683337    0.039398
 ---------------------------------------------------------------------
 Rotational constants (GHZ):      1.7341731      0.1940408      0.1859849
 Leave Link  202 at Thu Aug  6 21:59:01 2020, MaxMem=    33554432 cpu:         0.0
 (Enter /prod/apps/gaussian/g09d1/l301.exe)
 Standard basis: 6-31G(d) (6D, 7F)
 Ernie: Thresh=  0.10000D-02 Tol=  0.10000D-05 Strict=F.
 There are   264 symmetry adapted cartesian basis functions of A   symmetry.
 There are   264 symmetry adapted basis functions of A   symmetry.
   264 basis functions,   512 primitive gaussians,   264 cartesian basis functions
    62 alpha electrons       62 beta electrons
       nuclear repulsion energy      1183.4649515529 Hartrees.
 IExCor=  402 DFT=T Ex+Corr=B3LYP ExCW=0 ScaHFX=  0.200000
 ScaDFX=  0.800000  0.720000  1.000000  0.810000 ScalE2=  1.000000  1.000000
 IRadAn=      0 IRanWt=     -1 IRanGd=            0 ICorTp=0 IEmpDi=  4
 NAtoms=   26 NActive=   26 NUniq=   26 SFac= 1.00D+00 NAtFMM=   60 NAOKFM=F Big=F
 Integral buffers will be    131072 words long.
 Raffenetti 2 integral format.
 Two-electron integral symmetry is turned on.
 Using the following non-standard input for PCM:
 MSTModel=DFT cav g03defaults OFac=0.8 Rmin=0.3
 Warning! Using old PCM defaults because the g03defaults keyword was found.
 These settings can be overridden by following keywords.
 --- end of non-standard input.
 MST model for solvation energy: B3LYP parametrization.
 MST cavity parameters:
 ISph   IAn     Re0     Alpha   Atom Type   QCorr
 ------------------------------------------------
   1      8     1.40     1.25      O          F
   2     16     1.75     1.25      S          F
   3      7     1.50     1.25      NH         F
   4      6     1.50     1.25      C          F
   5      7     1.40     1.25      N          F
   6      7     1.40     1.25      N          F
   7      6     1.50     1.25      CH         F
   8      7     1.40     1.25      N          F
   9      6     1.50     1.25      C          F
  10      6     1.50     1.25      CH         F
  11      6     1.50     1.25      CH         F
  12      6     1.50     1.25      CH         F
  13      6     1.50     1.25      CH         F
  14      6     1.50     1.25      CH         F
  15      6     1.50     1.25      CH3        F
  16      8     1.40     1.25      O          F
  17      1     0.90     1.25      NH         F
  18      1     1.20     1.25      CH         F
  19      1     1.20     1.25      CH         F
  20      1     1.20     1.25      CH         F
  21      1     1.20     1.25      CH         F
  22      1     1.20     1.25      CH         F
  23      1     1.20     1.25      CH         F
  24      1     1.20     1.25      CH3        F
  25      1     1.20     1.25      CH3        F
  26      1     1.20     1.25      CH3        F
 ------------------------------------------------------------------------------
 Polarizable Continuum Model (PCM)
 =================================
 Model                : PCM (using non-symmetric T matrix).
 Atomic radii         : MST.
 Polarization charges : Total charges.
 Charge compensation  : None.
 Solution method      : On-the-fly selection.
 Cavity type          : Scaled SES (Solvent Excluding Surface) (Alpha=1.250).
 Cavity algorithm     : GePol (RMin=0.300 OFac=0.800).
                        Default sphere list used, NSphG=   26.
                        Tesserae with average area of 0.200 Ang**2.
                        Smoothing algorithm: None.
                        Polarization charges: point-like.
                        Self-potential: constant (ISelfS= 1).
                        Self-field    : global E.n sum rule (ISelfD= 3).
 Solvent              : Water, Eps=  78.355300 Eps(inf)=   1.777849
                        RSolv=   1.385000 Ang.
 ------------------------------------------------------------------------------
 GePol: Number of generator spheres                  =      26
 GePol: Total number of spheres                      =      55
 GePol: Number of exposed spheres                    =      52 ( 94.55%)
 GePol: Number of tesserae                           =    2094
 GePol: Average area of tesserae                     =       0.13 Ang**2
 GePol: Minimum area of tessera                      =   0.10D-02 Ang**2
 GePol: Maximum area of tessera                      =    0.30575 Ang**2
 GePol: Number of small tesserae                     =      12
 GePol: Fraction of small tesserae (<1% of avg)      =       0.57%
 GePol: Total count of vertices                      =    7314
 GePol: Maximum number of vertices in a tessera      =       7
 GePol: Cavity surface area                          =    266.774 Ang**2
 GePol: Cavity volume                                =    258.187 Ang**3
 PCM non-electrostatic energy =         0.0029793099 Hartrees.
 Nuclear repulsion after PCM non-electrostatic terms =     1183.4679308628 Hartrees.
 Leave Link  301 at Thu Aug  6 21:59:01 2020, MaxMem=    33554432 cpu:         0.1
 (Enter /prod/apps/gaussian/g09d1/l302.exe)
 NPDir=0 NMtPBC=     1 NCelOv=     1 NCel=       1 NClECP=     1 NCelD=      1
         NCelK=      1 NCelE2=     1 NClLst=     1 CellRange=     0.0.
 One-electron integrals computed using PRISM.
 NBasis=   264 RedAO= T EigKep=  4.67D-04  NBF=   264
 NBsUse=   264 1.00D-06 EigRej= -1.00D+00 NBFU=   264
 Precomputing XC quadrature grid using
 IXCGrd= 4 IRadAn=           0 IRanWt=          -1 IRanGd=           0 AccXCQ= 0.00D+00.
 Generated NRdTot=       0 NPtTot=           0 NUsed=           0 NTot=          32
 NSgBfM=   262   262   262   262   262 MxSgAt=    26 MxSgA2=    26.
 Leave Link  302 at Thu Aug  6 21:59:01 2020, MaxMem=    33554432 cpu:         0.7
 (Enter /prod/apps/gaussian/g09d1/l303.exe)
 DipDrv:  MaxL=1.
 Leave Link  303 at Thu Aug  6 21:59:01 2020, MaxMem=    33554432 cpu:         0.0
 (Enter /prod/apps/gaussian/g09d1/l401.exe)
 Initial guess from the checkpoint file:  "SM44.n.2.pdb.xyz.mst.n.w.chk"
 B after Tr=     0.000000    0.000000    0.000000
         Rot=    1.000000    0.000000    0.000000    0.000000 Ang=   0.00 deg.
 Guess basis will be translated and rotated to current coordinates.
 JPrj=2 DoOrth=T DoCkMO=T.
 Leave Link  401 at Thu Aug  6 21:59:02 2020, MaxMem=    33554432 cpu:         0.2
 (Enter /dades/curu/work_g09D01_MST_AddSphPartition_ReadGammas/exe-dir/l502.exe)
 Closed shell SCF:
 Using DIIS extrapolation, IDIIS=  1040.
 Integral symmetry usage will be decided dynamically.
 IVT=      231207 IEndB=      231207 NGot=    33554432 MDV=    33409826
 LenX=    33409826 LenY=    33339689
 Requested convergence on RMS density matrix=1.00D-08 within 128 cycles.
 Requested convergence on MAX density matrix=1.00D-06.
 Requested convergence on             energy=1.00D-06.
 No special actions if energy rises.
 Fock matrices will be formed incrementally for  20 cycles.

 Cycle   1  Pass 1  IDiag  1:
 FoFJK:  IHMeth= 1 ICntrl=       0 DoSepK=F KAlg= 0 I1Cent=   0 FoldK=F
 IRaf= 750000000 NMat=   1 IRICut=       1 DoRegI=T DoRafI=F ISym2E= 0.
 FoFCou: FMM=F IPFlag=           0 FMFlag=      100000 FMFlg1=           0
         NFxFlg=           0 DoJE=F BraDBF=F KetDBF=F FulRan=T
         wScrn=  0.000000 ICntrl=       0 IOpCl=  0 I1Cent=           0 NGrid=           0
         NMat0=    1 NMatS0=      1 NMatT0=    0 NMatD0=    1 NMtDS0=    0 NMtDT0=    0
 Symmetry not used in FoFCou.
 Inv3:  Mode=1 IEnd=    13154508.
 Iteration    1 A*A^-1 deviation from unit magnitude is 1.42D-14 for   1281.
 Iteration    1 A*A^-1 deviation from orthogonality  is 1.24D-14 for   1281   1236.
 Iteration    1 A^-1*A deviation from unit magnitude is 2.78D-14 for   2077.
 Iteration    1 A^-1*A deviation from orthogonality  is 2.36D-14 for   2077   1281.
 E= -1116.53351699196    
 DIIS: error= 2.03D-03 at cycle   1 NSaved=   1.
 NSaved= 1 IEnMin= 1 EnMin= -1116.53351699196     IErMin= 1 ErrMin= 2.03D-03
 ErrMax= 2.03D-03  0.00D+00 EMaxC= 1.00D-01 BMatC= 1.62D-03 BMatP= 1.62D-03
 IDIUse=3 WtCom= 9.80D-01 WtEn= 2.03D-02
 Coeff-Com:  0.100D+01
 Coeff-En:   0.100D+01
 Coeff:      0.100D+01
 Gap=     0.195 Goal=   None    Shift=    0.000
 GapD=    0.195 DampG=1.000 DampE=1.000 DampFc=1.0000 IDamp=-1.
 RMSDP=7.60D-04 MaxDP=1.74D-02              OVMax= 4.05D-02

 Cycle   2  Pass 1  IDiag  1:
 RMSU=  7.54D-04    CP:  9.96D-01
 E= -1116.53565400284     Delta-E=       -0.002137010875 Rises=F Damp=F
 DIIS: error= 1.92D-03 at cycle   2 NSaved=   2.
 NSaved= 2 IEnMin= 2 EnMin= -1116.53565400284     IErMin= 2 ErrMin= 1.92D-03
 ErrMax= 1.92D-03  0.00D+00 EMaxC= 1.00D-01 BMatC= 2.35D-03 BMatP= 1.62D-03
 IDIUse=3 WtCom= 1.86D-01 WtEn= 8.14D-01
 Coeff-Com:  0.566D+00 0.434D+00
 Coeff-En:   0.178D+00 0.822D+00
 Coeff:      0.250D+00 0.750D+00
 Gap=     0.196 Goal=   None    Shift=    0.000
 RMSDP=3.96D-04 MaxDP=1.51D-02 DE=-2.14D-03 OVMax= 3.11D-02

 Cycle   3  Pass 1  IDiag  1:
 RMSU=  3.29D-04    CP:  9.97D-01  7.09D-01
 E= -1116.53492491130     Delta-E=        0.000729091539 Rises=F Damp=F
 DIIS: error= 2.14D-03 at cycle   3 NSaved=   3.
 NSaved= 3 IEnMin= 2 EnMin= -1116.53565400284     IErMin= 2 ErrMin= 1.92D-03
 ErrMax= 2.14D-03  0.00D+00 EMaxC= 1.00D-01 BMatC= 3.29D-03 BMatP= 1.62D-03
 IDIUse=3 WtCom= 1.78D-01 WtEn= 8.22D-01
 Coeff-Com:  0.692D-01 0.515D+00 0.416D+00
 Coeff-En:   0.000D+00 0.557D+00 0.443D+00
 Coeff:      0.123D-01 0.549D+00 0.438D+00
 Gap=     0.195 Goal=   None    Shift=    0.000
 RMSDP=1.97D-04 MaxDP=8.56D-03 DE= 7.29D-04 OVMax= 1.78D-02

 Cycle   4  Pass 1  IDiag  1:
 RMSU=  6.33D-05    CP:  9.96D-01  8.63D-01  5.60D-01
 E= -1116.53778331933     Delta-E=       -0.002858408032 Rises=F Damp=F
 DIIS: error= 1.84D-04 at cycle   4 NSaved=   4.
 NSaved= 4 IEnMin= 4 EnMin= -1116.53778331933     IErMin= 4 ErrMin= 1.84D-04
[...]
   24      H24      9.88  -0.043   -0.09
   25      H25     11.09  -0.059   -0.34
   26      H26     12.84  -0.072   -0.36
 Added spheres:    27.82  -0.065    0.00
 --------------------------------------------------------------------
 After PCM corrections, the energy is  -1116.53780959     a.u.
 --------------------------------------------------------------------
 Leave Link  502 at Thu Aug  6 22:01:25 2020, MaxMem=    33554432 cpu:       143.4
 (Enter /prod/apps/gaussian/g09d1/l601.exe)
 Copying SCF densities to generalized density rwf, IOpCl= 0 IROHF=0.

 **********************************************************************

            Population analysis using the SCF density.

 **********************************************************************

 Orbital symmetries:
       Occupied  (A) (A) (A) (A) (A) (A) (A) (A) (A) (A) (A) (A)
                 (A) (A) (A) (A) (A) (A) (A) (A) (A) (A) (A) (A)
                 (A) (A) (A) (A) (A) (A) (A) (A) (A) (A) (A) (A)
                 (A) (A) (A) (A) (A) (A) (A) (A) (A) (A) (A) (A)
                 (A) (A) (A) (A) (A) (A) (A) (A) (A) (A) (A) (A)
                 (A) (A)
       Virtual   (A) (A) (A) (A) (A) (A) (A) (A) (A) (A) (A) (A)
                 (A) (A) (A) (A) (A) (A) (A) (A) (A) (A) (A) (A)
                 (A) (A) (A) (A) (A) (A) (A) (A) (A) (A) (A) (A)
                 (A) (A) (A) (A) (A) (A) (A) (A) (A) (A) (A) (A)
                 (A) (A) (A) (A) (A) (A) (A) (A) (A) (A) (A) (A)
                 (A) (A) (A) (A) (A) (A) (A) (A) (A) (A) (A) (A)
                 (A) (A) (A) (A) (A) (A) (A) (A) (A) (A) (A) (A)
                 (A) (A) (A) (A) (A) (A) (A) (A) (A) (A) (A) (A)
                 (A) (A) (A) (A) (A) (A) (A) (A) (A) (A) (A) (A)
                 (A) (A) (A) (A) (A) (A) (A) (A) (A) (A) (A) (A)
                 (A) (A) (A) (A) (A) (A) (A) (A) (A) (A) (A) (A)
                 (A) (A) (A) (A) (A) (A) (A) (A) (A) (A) (A) (A)
                 (A) (A) (A) (A) (A) (A) (A) (A) (A) (A) (A) (A)
                 (A) (A) (A) (A) (A) (A) (A) (A) (A) (A) (A) (A)
                 (A) (A) (A) (A) (A) (A) (A) (A) (A) (A) (A) (A)
                 (A) (A) (A) (A) (A) (A) (A) (A) (A) (A) (A) (A)
                 (A) (A) (A) (A) (A) (A) (A) (A) (A) (A)
 The electronic state is 1-A.
 Alpha  occ. eigenvalues --  -89.12655 -19.15835 -19.15808 -14.44768 -14.40567
 Alpha  occ. eigenvalues --  -14.38513 -14.37227 -10.26686 -10.25191 -10.24381
 Alpha  occ. eigenvalues --  -10.22360 -10.20765 -10.20497 -10.20292 -10.20224
 Alpha  occ. eigenvalues --  -10.19980  -8.15258  -6.11775  -6.11682  -6.11503
 Alpha  occ. eigenvalues --   -1.12417  -1.11446  -1.01355  -0.95984  -0.93018
 Alpha  occ. eigenvalues --   -0.86189  -0.81389  -0.77789  -0.76540  -0.75957
 Alpha  occ. eigenvalues --   -0.66988  -0.66449  -0.63243  -0.61067  -0.58656
 Alpha  occ. eigenvalues --   -0.56543  -0.53342  -0.52712  -0.49959  -0.49537
 Alpha  occ. eigenvalues --   -0.49012  -0.48158  -0.47322  -0.45557  -0.44534
 Alpha  occ. eigenvalues --   -0.43837  -0.43440  -0.43322  -0.39081  -0.37529
 Alpha  occ. eigenvalues --   -0.36588  -0.36162  -0.35649  -0.34819  -0.32978
 Alpha  occ. eigenvalues --   -0.32624  -0.31680  -0.31190  -0.29436  -0.26594
 Alpha  occ. eigenvalues --   -0.26249  -0.24020
 Alpha virt. eigenvalues --   -0.04537  -0.01562   0.01152   0.02291   0.06325
 Alpha virt. eigenvalues --    0.07369   0.08778   0.09215   0.10454   0.11629
 Alpha virt. eigenvalues --    0.11961   0.12935   0.14943   0.15065   0.15423
 Alpha virt. eigenvalues --    0.15916   0.16609   0.18402   0.19132   0.20184
 Alpha virt. eigenvalues --    0.21550   0.23322   0.24754   0.29349   0.30524
 Alpha virt. eigenvalues --    0.31387   0.33122   0.34016   0.35187   0.36821
 Alpha virt. eigenvalues --    0.40629   0.41639   0.42496   0.44567   0.47782
 Alpha virt. eigenvalues --    0.49045   0.49403   0.51388   0.51438   0.52411
 Alpha virt. eigenvalues --    0.53899   0.54145   0.55673   0.57028   0.57504
 Alpha virt. eigenvalues --    0.58073   0.58543   0.59713   0.60548   0.60637
 Alpha virt. eigenvalues --    0.61089   0.61873   0.63104   0.64005   0.66387
 Alpha virt. eigenvalues --    0.67862   0.68981   0.69638   0.71134   0.72651
 Alpha virt. eigenvalues --    0.74600   0.77469   0.77777   0.78777   0.79565
 Alpha virt. eigenvalues --    0.80436   0.82234   0.83705   0.83848   0.84020
 Alpha virt. eigenvalues --    0.85304   0.85969   0.87076   0.87763   0.88664
 Alpha virt. eigenvalues --    0.89158   0.90359   0.92508   0.93661   0.94555
 Alpha virt. eigenvalues --    0.96292   0.96553   0.97262   0.99911   1.00511
 Alpha virt. eigenvalues --    1.01164   1.01796   1.04380   1.05601   1.06147
 Alpha virt. eigenvalues --    1.09017   1.11214   1.12422   1.13600   1.14909
 Alpha virt. eigenvalues --    1.15968   1.17997   1.18750   1.19725   1.21561
 Alpha virt. eigenvalues --    1.25195   1.27050   1.31164   1.33760   1.36077
 Alpha virt. eigenvalues --    1.37698   1.41279   1.41740   1.43035   1.43809
 Alpha virt. eigenvalues --    1.45472   1.46896   1.47884   1.49699   1.50786
 Alpha virt. eigenvalues --    1.52208   1.57108   1.58924   1.61511   1.64982
 Alpha virt. eigenvalues --    1.68320   1.69775   1.73443   1.77541   1.78734
 Alpha virt. eigenvalues --    1.79211   1.79536   1.80405   1.82262   1.82400
 Alpha virt. eigenvalues --    1.83636   1.85081   1.87781   1.88412   1.91392
 Alpha virt. eigenvalues --    1.94217   1.96055   1.96580   2.01902   2.03896
 Alpha virt. eigenvalues --    2.05923   2.07051   2.07668   2.09527   2.10596
 Alpha virt. eigenvalues --    2.11338   2.13277   2.13714   2.14516   2.16892
 Alpha virt. eigenvalues --    2.18908   2.20807   2.23088   2.23468   2.24777
 Alpha virt. eigenvalues --    2.26409   2.27686   2.28930   2.29647   2.31355
 Alpha virt. eigenvalues --    2.32289   2.37608   2.38005   2.47915   2.50923
 Alpha virt. eigenvalues --    2.53764   2.56143   2.57920   2.58739   2.63480
 Alpha virt. eigenvalues --    2.64006   2.67081   2.69725   2.70984   2.72264
 Alpha virt. eigenvalues --    2.73822   2.76682   2.78206   2.80829   2.85658
 Alpha virt. eigenvalues --    2.88671   3.00751   3.05883   3.13002   3.25370
 Alpha virt. eigenvalues --    3.42100   3.60797   3.77080   3.87259   3.95913
 Alpha virt. eigenvalues --    4.00436   4.03732   4.07766   4.09398   4.10509
 Alpha virt. eigenvalues --    4.14678   4.19351   4.22661   4.31608   4.38567
 Alpha virt. eigenvalues --    4.46557   4.70860
          Condensed to atoms (all electrons):
               1          2          3          4          5          6
     1  O    8.272586   0.433263  -0.057399   0.012265  -0.002016  -0.000063
     2  S    0.433263  13.630309   0.114252  -0.006981  -0.002070  -0.000117
     3  N   -0.057399   0.114252   7.413854   0.251606  -0.058103   0.005865
     4  C    0.012265  -0.006981   0.251606   4.603691   0.358742  -0.075184
     5  N   -0.002016  -0.002070  -0.058103   0.358742   6.916211   0.289223
     6  N   -0.000063  -0.000117   0.005865  -0.075184   0.289223   6.781364
     7  C    0.000346  -0.000365  -0.072287   0.524910  -0.063251  -0.104320
     8  N   -0.000021   0.000111   0.003247  -0.036279  -0.093192   0.228440
     9  C    0.000000  -0.000022  -0.000118   0.004442   0.006362  -0.042997
    10  C    0.000000   0.000001   0.000004   0.001020  -0.000316   0.002947
    11  C    0.000000   0.000000   0.000000  -0.000008   0.000002  -0.000068
    12  C    0.000000   0.000000   0.000000   0.000000   0.000000   0.000017
    13  C    0.000000   0.000000   0.000000   0.000006  -0.000004   0.000285
    14  C    0.000000   0.000000   0.000000  -0.000424   0.000319   0.000104
    15  C   -0.057926   0.242722  -0.053245  -0.008885  -0.003658   0.000148
    16  O   -0.044181   0.451622  -0.049503   0.001273  -0.000030   0.000000
    17  H   -0.000193  -0.010652   0.302239  -0.021633   0.002313  -0.000095
    18  H    0.000013  -0.000003  -0.000889  -0.024656   0.003995   0.003515
    19  H    0.000000   0.000000   0.000000   0.000051  -0.000007  -0.000090
    20  H    0.000000   0.000000   0.000000   0.000000   0.000000   0.000001
    21  H    0.000000   0.000000   0.000000   0.000000   0.000000   0.000000
    22  H    0.000000   0.000000   0.000000   0.000000   0.000000  -0.000008
    23  H    0.000000   0.000000   0.000000   0.000039  -0.000332   0.015372
    24  H   -0.000718  -0.002161  -0.001725  -0.000507   0.013179  -0.000284
    25  H    0.001850  -0.007107   0.000765   0.000300  -0.000042  -0.000001
    26  H    0.000161  -0.017535   0.002442   0.000129   0.000103  -0.000001
               7          8          9         10         11         12
     1  O    0.000346  -0.000021   0.000000   0.000000   0.000000   0.000000
     2  S   -0.000365   0.000111  -0.000022   0.000001   0.000000   0.000000
     3  N   -0.072287   0.003247  -0.000118   0.000004   0.000000   0.000000
     4  C    0.524910  -0.036279   0.004442   0.001020  -0.000008   0.000000
     5  N   -0.063251  -0.093192   0.006362  -0.000316   0.000002   0.000000
     6  N   -0.104320   0.228440  -0.042997   0.002947  -0.000068   0.000017
     7  C    5.011733   0.330771  -0.031816  -0.006674   0.000010   0.000019
     8  N    0.330771   6.877481   0.199144  -0.050671   0.004720   0.000332
     9  C   -0.031816   0.199144   4.625513   0.528721  -0.010130  -0.038214
    10  C   -0.006674  -0.050671   0.528721   4.993703   0.527103  -0.041010
    11  C    0.000010   0.004720  -0.010130   0.527103   4.864479   0.543921
    12  C    0.000019   0.000332  -0.038214  -0.041010   0.543921   4.871723
    13  C   -0.000086   0.004580  -0.010715  -0.042229  -0.024837   0.539430
    14  C    0.007208  -0.059250   0.513938  -0.070924  -0.041368  -0.039424
    15  C   -0.000208  -0.000008   0.000000   0.000000   0.000000   0.000000
    16  O   -0.000008   0.000000   0.000000   0.000000   0.000000   0.000000
    17  H   -0.002253  -0.000002   0.000001   0.000000   0.000000   0.000000
    18  H    0.362292  -0.034629  -0.001758   0.002120   0.000166  -0.000001
    19  H    0.006007  -0.009217  -0.039811   0.353786  -0.034533   0.004295
    20  H   -0.000004  -0.000109   0.003433  -0.037434   0.363435  -0.039400
    21  H    0.000000   0.000003   0.000483   0.004876  -0.041164   0.365834
    22  H    0.000001  -0.000104   0.003533   0.000710   0.004460  -0.039931
    23  H    0.000217  -0.013240  -0.039588   0.005498   0.000092   0.004517
    24  H    0.000157   0.000030   0.000000   0.000000   0.000000   0.000000
    25  H    0.000000   0.000000   0.000000   0.000000   0.000000   0.000000
    26  H    0.000005   0.000000   0.000000   0.000000   0.000000   0.000000
              13         14         15         16         17         18
     1  O    0.000000   0.000000  -0.057926  -0.044181  -0.000193   0.000013
     2  S    0.000000   0.000000   0.242722   0.451622  -0.010652  -0.000003
     3  N    0.000000   0.000000  -0.053245  -0.049503   0.302239  -0.000889
     4  C    0.000006  -0.000424  -0.008885   0.001273  -0.021633  -0.024656
     5  N   -0.000004   0.000319  -0.003658  -0.000030   0.002313   0.003995
     6  N    0.000285   0.000104   0.000148   0.000000  -0.000095   0.003515
     7  C   -0.000086   0.007208  -0.000208  -0.000008  -0.002253   0.362292
     8  N    0.004580  -0.059250  -0.000008   0.000000  -0.000002  -0.034629
     9  C   -0.010715   0.513938   0.000000   0.000000   0.000001  -0.001758
    10  C   -0.042229  -0.070924   0.000000   0.000000   0.000000   0.002120
    11  C   -0.024837  -0.041368   0.000000   0.000000   0.000000   0.000166
    12  C    0.539430  -0.039424   0.000000   0.000000   0.000000  -0.000001
    13  C    4.880390   0.519264   0.000000   0.000000   0.000000  -0.000004
    14  C    0.519264   4.996005   0.000000   0.000000   0.000000  -0.000097
    15  C    0.000000   0.000000   5.533532  -0.057818   0.002369   0.000000
    16  O    0.000000   0.000000  -0.057818   8.263452   0.004240  -0.000001
    17  H    0.000000   0.000000   0.002369   0.004240   0.300235   0.000964
    18  H   -0.000004  -0.000097   0.000000  -0.000001   0.000964   0.459954
    19  H    0.000213   0.005295   0.000000   0.000000   0.000001   0.001526
    20  H    0.004412   0.000728   0.000000   0.000000   0.000000  -0.000001
    21  H   -0.041348   0.004666   0.000000   0.000000   0.000000   0.000000
    22  H    0.363865  -0.037642   0.000000   0.000000   0.000000   0.000000
    23  H   -0.037954   0.356902   0.000000   0.000000   0.000000  -0.000010
    24  H    0.000000   0.000000   0.328934   0.001634  -0.000058  -0.000001
    25  H    0.000000   0.000000   0.343175  -0.000093  -0.000030   0.000000
    26  H    0.000000   0.000000   0.353816  -0.000370  -0.000047   0.000000
              19         20         21         22         23         24
     1  O    0.000000   0.000000   0.000000   0.000000   0.000000  -0.000718
     2  S    0.000000   0.000000   0.000000   0.000000   0.000000  -0.002161
     3  N    0.000000   0.000000   0.000000   0.000000   0.000000  -0.001725
     4  C    0.000051   0.000000   0.000000   0.000000   0.000039  -0.000507
     5  N   -0.000007   0.000000   0.000000   0.000000  -0.000332   0.013179
     6  N   -0.000090   0.000001   0.000000  -0.000008   0.015372  -0.000284
     7  C    0.006007  -0.000004   0.000000   0.000001   0.000217   0.000157
     8  N   -0.009217  -0.000109   0.000003  -0.000104  -0.013240   0.000030
     9  C   -0.039811   0.003433   0.000483   0.003533  -0.039588   0.000000
    10  C    0.353786  -0.037434   0.004876   0.000710   0.005498   0.000000
    11  C   -0.034533   0.363435  -0.041164   0.004460   0.000092   0.000000
    12  C    0.004295  -0.039400   0.365834  -0.039931   0.004517   0.000000
    13  C    0.000213   0.004412  -0.041348   0.363865  -0.037954   0.000000
    14  C    0.005295   0.000728   0.004666  -0.037642   0.356902   0.000000
    15  C    0.000000   0.000000   0.000000   0.000000   0.000000   0.328934
    16  O    0.000000   0.000000   0.000000   0.000000   0.000000   0.001634
    17  H    0.000001   0.000000   0.000000   0.000000   0.000000  -0.000058
    18  H    0.001526  -0.000001   0.000000   0.000000  -0.000010  -0.000001
    19  H    0.542881  -0.005066  -0.000144   0.000013  -0.000130   0.000000
    20  H   -0.005066   0.549838  -0.005030  -0.000163   0.000013   0.000000
    21  H   -0.000144  -0.005030   0.556238  -0.005068  -0.000134   0.000000
    22  H    0.000013  -0.000163  -0.005068   0.550836  -0.005111   0.000000
    23  H   -0.000130   0.000013  -0.000134  -0.005111   0.538824   0.000000
    24  H    0.000000   0.000000   0.000000   0.000000   0.000000   0.462758
    25  H    0.000000   0.000000   0.000000   0.000000   0.000000  -0.020296
    26  H    0.000000   0.000000   0.000000   0.000000   0.000000  -0.015155
              25         26
     1  O    0.001850   0.000161
     2  S   -0.007107  -0.017535
     3  N    0.000765   0.002442
     4  C    0.000300   0.000129
     5  N   -0.000042   0.000103
     6  N   -0.000001  -0.000001
     7  C    0.000000   0.000005
     8  N    0.000000   0.000000
     9  C    0.000000   0.000000
    10  C    0.000000   0.000000
    11  C    0.000000   0.000000
    12  C    0.000000   0.000000
    13  C    0.000000   0.000000
    14  C    0.000000   0.000000
    15  C    0.343175   0.353816
    16  O   -0.000093  -0.000370
    17  H   -0.000030  -0.000047
    18  H    0.000000   0.000000
    19  H    0.000000   0.000000
    20  H    0.000000   0.000000
    21  H    0.000000   0.000000
    22  H    0.000000   0.000000
    23  H    0.000000   0.000000
    24  H   -0.020296  -0.015155
    25  H    0.469384  -0.017219
    26  H   -0.017219   0.460087
 Mulliken charges:
               1
     1  O   -0.557965
     2  S    1.174732
     3  N   -0.801007
     4  C    0.416084
     5  N   -0.367431
     6  N   -0.104054
     7  C    0.037598
     8  N   -0.352137
     9  C    0.329601
    10  C   -0.171230
    11  C   -0.156278
    12  C   -0.132108
    13  C   -0.155265
    14  C   -0.155302
    15  C   -0.622947
    16  O   -0.570216
    17  H    0.422603
    18  H    0.227506
    19  H    0.174931
    20  H    0.165350
    21  H    0.160788
    22  H    0.164610
    23  H    0.175027
    24  H    0.234214
    25  H    0.229313
    26  H    0.233584
 Sum of Mulliken charges =   0.00000
 Mulliken charges with hydrogens summed into heavy atoms:
               1
     1  O   -0.557965
     2  S    1.174732
     3  N   -0.378404
     4  C    0.416084
     5  N   -0.367431
     6  N   -0.104054
     7  C    0.265104
     8  N   -0.352137
     9  C    0.329601
    10  C    0.003702
    11  C    0.009072
    12  C    0.028680
    13  C    0.009345
    14  C    0.019725
    15  C    0.074164
    16  O   -0.570216
 Electronic spatial extent (au):  <R**2>=           5587.9891
 Charge=              0.0000 electrons
 Dipole moment (field-independent basis, Debye):
    X=             -5.2543    Y=             -3.0345    Z=             -2.3944  Tot=              6.5229
 Quadrupole moment (field-independent basis, Debye-Ang):
   XX=            -87.0805   YY=            -90.9832   ZZ=           -106.4619
   XY=             12.8619   XZ=            -13.8451   YZ=              4.7431
 Traceless Quadrupole moment (field-independent basis, Debye-Ang):
   XX=              7.7614   YY=              3.8587   ZZ=            -11.6201
   XY=             12.8619   XZ=            -13.8451   YZ=              4.7431
 Octapole moment (field-independent basis, Debye-Ang**2):
  XXX=           -104.2095  YYY=            -21.4019  ZZZ=             -4.6859  XYY=             -2.9644
  XXY=             57.6712  XXZ=            -25.8859  XZZ=              9.8554  YZZ=             -3.1235
  YYZ=              1.3548  XYZ=             -7.9107
 Hexadecapole moment (field-independent basis, Debye-Ang**3):
 XXXX=          -5860.4130 YYYY=           -584.6970 ZZZZ=           -326.4956 XXXY=            343.3007
 XXXZ=           -222.7659 YYYX=             10.4520 YYYZ=             26.3246 ZZZX=             -7.3222
 ZZZY=             -1.2922 XXYY=          -1080.5727 XXZZ=          -1187.4448 YYZZ=           -159.9095
 XXYZ=             44.6141 YYXZ=            -12.4605 ZZXY=            -11.4546
 N-N= 1.183467930863D+03 E-N=-4.984166648667D+03  KE= 1.108366885460D+03
 No NMR shielding tensors so no spin-rotation constants.
 Leave Link  601 at Thu Aug  6 22:01:26 2020, MaxMem=    33554432 cpu:         0.2
 (Enter /prod/apps/gaussian/g09d1/l9999.exe)
 1\1\GINC-PIRINEUS17\SP\RB3LYP\6-31G(d)\C9H10N4O2S1\UBAFAR01\06-Aug-202
 0\0\\#p b3lyp/6-31G(d) scrf=(iefpcm,read,solvent=Water) geom=allcheck 
 guess=read\\SM44.n.2.pdb.xyz\\0,1\O,0,2.026,-3.59,-1.943\S,0,2.96,-2.4
 99,-1.627\N,0,2.735,-1.946,-0.027\C,0,2.222,-2.831,0.936\N,0,2.901,-3.
 953,1.299\N,0,2.225,-4.573,2.233\C,0,1.068,-2.746,1.685\N,0,1.117,-3.8
 42,2.487\C,0,0.184,-4.249,3.483\C,0,-0.618,-3.29,4.104\C,0,-1.537,-3.6
 95,5.071\C,0,-1.643,-5.042,5.422\C,0,-0.828,-5.989,4.797\C,0,0.086,-5.
 6,3.82\C,0,4.617,-3.174,-1.562\O,0,2.947,-1.28,-2.448\H,0,2.265,-1.04,
 -0.055\H,0,0.259,-2.038,1.7\H,0,-0.517,-2.243,3.844\H,0,-2.163,-2.953,
 5.554\H,0,-2.356,-5.353,6.177\H,0,-0.908,-7.037,5.063\H,0,0.713,-6.325
 ,3.318\H,0,4.632,-3.955,-0.802\H,0,5.306,-2.37,-1.31\H,0,4.836,-3.584,
 -2.548\\Version=AM64L-G09RevD.01\State=1-A\HF=-1116.5378096\RMSD=3.947
 e-09\Dipole=-1.0273315,0.8237769,2.2027205\Quadrupole=8.1593266,1.3419
 699,-9.5012964,-0.1278109,-13.3117485,3.3719399\PG=C01 [X(C9H10N4O2S1)
 ]\\@


 IF YOU WANT TO LEARN FROM THE THEORETICAL PHYSICISTS ABOUT THE
 METHODS WHICH THEY USE, I ADVISE YOU TO FOLLOW THIS PRINCIPLE VERY STRICTLY:
 DON'T LISTEN TO THEIR WORDS; PAY ATTENTION, INSTEAD, TO THEIR ACTIONS.
 -- A.EINSTEIN, 1934
 Job cpu time:       0 days  0 hours  2 minutes 24.9 seconds.
 File lengths (MBytes):  RWF=    113 Int=      0 D2E=      0 Chk=      5 Scr=      1
 Normal termination of Gaussian 09 at Thu Aug  6 22:01:26 2020.
