 Entering Gaussian System, Link 0=g09
 Initial command:
 /prod/apps/gaussian/g09d1/l1.exe "/tmp/ubafar01/1448610/Gau-59401.inp" -scrdir="/tmp/ubafar01/1448610/"
 Entering Link 1 = /prod/apps/gaussian/g09d1/l1.exe PID=     59402.
  
 Copyright (c) 1988,1990,1992,1993,1995,1998,2003,2009,2013,
            Gaussian, Inc.  All Rights Reserved.
  
 This is part of the Gaussian(R) 09 program.  It is based on
 the Gaussian(R) 03 system (copyright 2003, Gaussian, Inc.),
 the Gaussian(R) 98 system (copyright 1998, Gaussian, Inc.),
 the Gaussian(R) 94 system (copyright 1995, Gaussian, Inc.),
 the Gaussian 92(TM) system (copyright 1992, Gaussian, Inc.),
 the Gaussian 90(TM) system (copyright 1990, Gaussian, Inc.),
 the Gaussian 88(TM) system (copyright 1988, Gaussian, Inc.),
 the Gaussian 86(TM) system (copyright 1986, Carnegie Mellon
 University), and the Gaussian 82(TM) system (copyright 1983,
 Carnegie Mellon University). Gaussian is a federally registered
 trademark of Gaussian, Inc.
  
 This software contains proprietary and confidential information,
 including trade secrets, belonging to Gaussian, Inc.
  
 This software is provided under written license and may be
 used, copied, transmitted, or stored only in accord with that
 written license.
  
 The following legend is applicable only to US Government
 contracts under FAR:
  
                    RESTRICTED RIGHTS LEGEND
  
 Use, reproduction and disclosure by the US Government is
 subject to restrictions as set forth in subparagraphs (a)
 and (c) of the Commercial Computer Software - Restricted
 Rights clause in FAR 52.227-19.
  
 Gaussian, Inc.
 340 Quinnipiac St., Bldg. 40, Wallingford CT 06492
  
  
 ---------------------------------------------------------------
 Warning -- This program may not be used in any manner that
 competes with the business of Gaussian, Inc. or will provide
 assistance to any competitor of Gaussian, Inc.  The licensee
 of this program is prohibited from giving any competitor of
 Gaussian, Inc. access to this program.  By using this program,
 the user acknowledges that Gaussian, Inc. is engaged in the
 business of creating and licensing software in the field of
 computational chemistry and represents and warrants to the
 licensee that it is not a competitor of Gaussian, Inc. and that
 it will not use this program in any manner prohibited above.
 ---------------------------------------------------------------
  

 Cite this work as:
 Gaussian 09, Revision D.01,
 M. J. Frisch, G. W. Trucks, H. B. Schlegel, G. E. Scuseria, 
 M. A. Robb, J. R. Cheeseman, G. Scalmani, V. Barone, B. Mennucci, 
 G. A. Petersson, H. Nakatsuji, M. Caricato, X. Li, H. P. Hratchian, 
 A. F. Izmaylov, J. Bloino, G. Zheng, J. L. Sonnenberg, M. Hada, 
 M. Ehara, K. Toyota, R. Fukuda, J. Hasegawa, M. Ishida, T. Nakajima, 
 Y. Honda, O. Kitao, H. Nakai, T. Vreven, J. A. Montgomery, Jr., 
 J. E. Peralta, F. Ogliaro, M. Bearpark, J. J. Heyd, E. Brothers, 
 K. N. Kudin, V. N. Staroverov, T. Keith, R. Kobayashi, J. Normand, 
 K. Raghavachari, A. Rendell, J. C. Burant, S. S. Iyengar, J. Tomasi, 
 M. Cossi, N. Rega, J. M. Millam, M. Klene, J. E. Knox, J. B. Cross, 
 V. Bakken, C. Adamo, J. Jaramillo, R. Gomperts, R. E. Stratmann, 
 O. Yazyev, A. J. Austin, R. Cammi, C. Pomelli, J. W. Ochterski, 
 R. L. Martin, K. Morokuma, V. G. Zakrzewski, G. A. Voth, 
 P. Salvador, J. J. Dannenberg, S. Dapprich, A. D. Daniels, 
 O. Farkas, J. B. Foresman, J. V. Ortiz, J. Cioslowski, 
 and D. J. Fox, Gaussian, Inc., Wallingford CT, 2013.
 
 ******************************************
 Gaussian 09:  AM64L-G09RevD.01 24-Apr-2013
                 6-Aug-2020 
 ******************************************
 %nproc=1
 Will use up to    1 processors via shared memory.
 %Chk=SM44.n.10.pdb.xyz.mst.n.w.chk
 -----------------
 #p b3lyp/6-31G(d)
 -----------------
 1/38=1/1;
 2/12=2,17=6,18=5,40=1/2;
 3/5=1,6=6,7=1,11=2,16=1,25=1,30=1,74=-5/1,2,3;
 4//1;
 5/5=2,38=5/2;
 6/7=2,8=2,9=2,10=2,28=1/1;
 99/5=1,9=1/99;
 Leave Link    1 at Thu Aug  6 21:56:18 2020, MaxMem=           0 cpu:         0.0
 (Enter /prod/apps/gaussian/g09d1/l101.exe)
 -----------------
 SM44.n.10.pdb.xyz
 -----------------
 Symbolic Z-matrix:
 Charge =  0 Multiplicity = 1
 O                     3.58     -0.624    -2.104 
 S                     3.11     -1.838    -1.428 
 N                     2.851    -1.367     0.181 
 C                     2.392    -2.31      1.122 
 N                     3.222    -3.245     1.661 
 N                     2.549    -3.953     2.529 
 C                     1.143    -2.442     1.691 
 N                     1.284    -3.466     2.566 
 C                     0.313    -4.028     3.444 
 C                     0.466    -5.346     3.878 
 C                    -0.484    -5.89      4.74 
 C                    -1.581    -5.131     5.154 
 C                    -1.724    -3.817     4.707 
 C                    -0.775    -3.255     3.854 
 C                     1.514    -2.299    -2.107 
 O                     3.96     -3.033    -1.398 
 H                     2.357    -0.474     0.211 
 H                     0.217    -1.915     1.537 
 H                     1.314    -5.926     3.538 
 H                    -0.369    -6.913     5.08 
 H                    -2.32     -5.562     5.821 
 H                    -2.569    -3.22      5.027 
 H                    -0.873    -2.228     3.523 
 H                     0.862    -1.427    -2.087 
 H                     1.1      -3.113    -1.512 
 H                     1.687    -2.628    -3.133 
 
 NAtoms=     26 NQM=       26 NQMF=       0 NMMI=      0 NMMIF=      0
                NMic=       0 NMicF=      0.
                    Isotopes and Nuclear Properties:
 (Nuclear quadrupole moments (NQMom) in fm**2, nuclear magnetic moments (NMagM)
  in nuclear magnetons)

  Atom         1           2           3           4           5           6           7           8           9          10
 IAtWgt=          16          32          14          12          14          14          12          14          12          12
 AtmWgt=  15.9949146  31.9720718  14.0030740  12.0000000  14.0030740  14.0030740  12.0000000  14.0030740  12.0000000  12.0000000
 NucSpn=           0           0           2           0           2           2           0           2           0           0
 AtZEff=   0.0000000   0.0000000   0.0000000   0.0000000   0.0000000   0.0000000   0.0000000   0.0000000   0.0000000   0.0000000
 NQMom=    0.0000000   0.0000000   2.0440000   0.0000000   2.0440000   2.0440000   0.0000000   2.0440000   0.0000000   0.0000000
 NMagM=    0.0000000   0.0000000   0.4037610   0.0000000   0.4037610   0.4037610   0.0000000   0.4037610   0.0000000   0.0000000
 AtZNuc=   8.0000000  16.0000000   7.0000000   6.0000000   7.0000000   7.0000000   6.0000000   7.0000000   6.0000000   6.0000000

  Atom        11          12          13          14          15          16          17          18          19          20
 IAtWgt=          12          12          12          12          12          16           1           1           1           1
 AtmWgt=  12.0000000  12.0000000  12.0000000  12.0000000  12.0000000  15.9949146   1.0078250   1.0078250   1.0078250   1.0078250
 NucSpn=           0           0           0           0           0           0           1           1           1           1
 AtZEff=   0.0000000   0.0000000   0.0000000   0.0000000   0.0000000   0.0000000   0.0000000   0.0000000   0.0000000   0.0000000
 NQMom=    0.0000000   0.0000000   0.0000000   0.0000000   0.0000000   0.0000000   0.0000000   0.0000000   0.0000000   0.0000000
 NMagM=    0.0000000   0.0000000   0.0000000   0.0000000   0.0000000   0.0000000   2.7928460   2.7928460   2.7928460   2.7928460
 AtZNuc=   6.0000000   6.0000000   6.0000000   6.0000000   6.0000000   8.0000000   1.0000000   1.0000000   1.0000000   1.0000000

  Atom        21          22          23          24          25          26
 IAtWgt=           1           1           1           1           1           1
 AtmWgt=   1.0078250   1.0078250   1.0078250   1.0078250   1.0078250   1.0078250
 NucSpn=           1           1           1           1           1           1
 AtZEff=   0.0000000   0.0000000   0.0000000   0.0000000   0.0000000   0.0000000
 NQMom=    0.0000000   0.0000000   0.0000000   0.0000000   0.0000000   0.0000000
 NMagM=    2.7928460   2.7928460   2.7928460   2.7928460   2.7928460   2.7928460
 AtZNuc=   1.0000000   1.0000000   1.0000000   1.0000000   1.0000000   1.0000000
 Leave Link  101 at Thu Aug  6 21:56:18 2020, MaxMem=    33554432 cpu:         0.1
 (Enter /prod/apps/gaussian/g09d1/l202.exe)
                          Input orientation:                          
 ---------------------------------------------------------------------
 Center     Atomic      Atomic             Coordinates (Angstroms)
 Number     Number       Type             X           Y           Z
 ---------------------------------------------------------------------
      1          8           0        3.580000   -0.624000   -2.104000
      2         16           0        3.110000   -1.838000   -1.428000
      3          7           0        2.851000   -1.367000    0.181000
      4          6           0        2.392000   -2.310000    1.122000
      5          7           0        3.222000   -3.245000    1.661000
      6          7           0        2.549000   -3.953000    2.529000
      7          6           0        1.143000   -2.442000    1.691000
      8          7           0        1.284000   -3.466000    2.566000
      9          6           0        0.313000   -4.028000    3.444000
     10          6           0        0.466000   -5.346000    3.878000
     11          6           0       -0.484000   -5.890000    4.740000
     12          6           0       -1.581000   -5.131000    5.154000
     13          6           0       -1.724000   -3.817000    4.707000
     14          6           0       -0.775000   -3.255000    3.854000
     15          6           0        1.514000   -2.299000   -2.107000
     16          8           0        3.960000   -3.033000   -1.398000
     17          1           0        2.357000   -0.474000    0.211000
     18          1           0        0.217000   -1.915000    1.537000
     19          1           0        1.314000   -5.926000    3.538000
     20          1           0       -0.369000   -6.913000    5.080000
     21          1           0       -2.320000   -5.562000    5.821000
     22          1           0       -2.569000   -3.220000    5.027000
     23          1           0       -0.873000   -2.228000    3.523000
     24          1           0        0.862000   -1.427000   -2.087000
     25          1           0        1.100000   -3.113000   -1.512000
     26          1           0        1.687000   -2.628000   -3.133000
 ---------------------------------------------------------------------
                    Distance matrix (angstroms):
                    1          2          3          4          5
     1  O    0.000000
     2  S    1.466858   0.000000
     3  N    2.510919   1.696409   0.000000
     4  C    3.828971   2.690875   1.409046   0.000000
     5  N    4.601416   3.396191   2.419695   1.361487   0.000000
     6  N    5.797404   4.521703   3.505953   2.168812   1.306758
     7  C    4.862727   3.736585   2.520514   1.378835   2.228890
     8  N    5.929374   4.683663   3.542529   2.156186   2.150281
     9  C    7.282912   6.029568   4.916252   3.558855   3.500637
    10  C    8.232776   6.888428   5.931987   4.530155   4.113979
    11  C    9.543961   8.208518   7.236314   5.846170   5.496426
    12  C    9.981359   8.727660   7.651212   6.324539   6.231120
    13  C    9.204205   8.057433   6.886058   5.662573   5.836798
    14  C    7.834919   6.708251   5.495757   4.287976   4.559096
    15  C    2.659697   1.794653   2.809117   3.346259   4.243820
    16  O    2.538920   1.466774   2.549250   3.054792   3.153897
    17  H    2.622490   2.261377   1.020973   2.049888   3.244868
    18  H    5.121848   4.143260   3.012805   2.249194   3.288510
    19  H    8.067101   6.678212   5.866541   4.480468   3.788318
    20  H   10.332278   8.956178   8.070113   6.669070   6.167582
    21  H   11.045337   9.792910   8.726217   7.406689   7.306699
    22  H    9.767322   8.707927   7.502914   6.378765   6.698228
    23  H    7.352901   6.366223   5.077249   4.053610   4.611980
    24  H    2.834188   2.378383   3.017208   3.663096   4.787716
    25  H    3.563143   2.381760   2.996793   3.041715   3.819455
    26  H    2.942500   2.357128   3.731972   4.324717   5.071425
                    6          7          8          9         10
     6  N    0.000000
     7  C    2.227600   0.000000
     8  N    1.356010   1.354283   0.000000
     9  C    2.417136   2.505455   1.424629   0.000000
    10  C    2.845899   3.697907   2.434105   1.396026   0.000000
    11  C    4.223693   4.881827   3.705115   2.404552   1.393370
    12  C    5.033409   5.161712   4.204544   2.779918   2.421696
    13  C    4.797990   4.382530   3.708793   2.406046   2.796638
    14  C    3.645793   3.003042   2.437816   1.396199   2.431653
    15  C    5.029855   3.818756   4.822004   5.936787   6.797260
    16  O    4.273014   4.222167   4.802266   6.142931   6.737520
    17  H    4.184905   2.745400   3.955935   5.221220   6.384290
    18  H    3.252035   1.076532   2.145444   2.847917   4.161015
    19  H    2.536934   3.947012   2.645238   2.147846   1.082176
    20  H    4.876877   5.810448   4.575414   3.385978   2.144182
    21  H    6.093710   6.227654   5.289334   3.864709   3.403484
    22  H    5.742057   5.051052   4.578498   3.385953   3.879601
    23  H    3.959008   2.732449   2.664797   2.157044   3.411872
    24  H    5.525767   3.922049   5.097648   6.136657   7.148189
    25  H    4.374344   3.272812   4.097383   5.100836   5.868590
    26  H    5.878513   4.858138   5.774362   6.863294   7.617906
                   11         12         13         14         15
    11  C    0.000000
    12  C    1.396741   0.000000
    13  C    2.415785   1.395297   0.000000
    14  C    2.795157   2.420540   1.394293   0.000000
    15  C    7.985530   8.385784   7.695425   6.456545   0.000000
    16  O    8.098557   8.833628   8.378158   7.074815   2.650350
    17  H    7.610268   7.850398   6.931394   5.551111   3.068289
    18  H    5.152789   5.163153   4.175402   2.854497   3.886953
    19  H    2.163077   3.409473   3.878645   3.405586   6.712761
    20  H    1.084137   2.156373   3.400054   3.879288   8.745722
    21  H    2.155700   1.084791   2.154353   3.402699   9.391481
    22  H    3.399779   2.155039   1.082975   2.143733   8.271220
    23  H    3.878486   3.404238   2.156613   1.083464   6.115530
    24  H    8.266681   8.492346   7.652315   6.427817   1.088985
    25  H    7.021986   7.462951   6.866335   5.685925   1.089962
    26  H    8.794203   9.253064   8.632163   7.434564   1.091259
                   16         17         18         19         20
    16  O    0.000000
    17  H    3.421545   0.000000
    18  H    4.886123   2.900751   0.000000
    19  H    6.303559   6.471559   4.614708   0.000000
    20  H    8.703972   8.520502   6.154368   2.486850   0.000000
    21  H    9.896878   8.901358   6.171680   4.307034   2.486098
    22  H    9.162065   7.416188   4.652410   4.961577   4.298960
    23  H    6.944217   4.947601   2.286977   4.296324   4.962609
    24  H    3.556903   2.902419   3.713158   7.217058   9.109196
    25  H    2.863389   3.393096   3.392830   5.784571   7.749350
    26  H    2.888041   4.033727   4.947542   7.451052   9.489032
                   21         22         23         24         25
    21  H    0.000000
    22  H    2.485438   0.000000
    23  H    4.300020   2.474368   0.000000
    24  H    9.474166   8.099111   5.926544   0.000000
    25  H    8.453809   7.498769   5.479706   1.797183   0.000000
    26  H   10.239068   9.222234   7.142544   1.793639   1.790931
                   26
    26  H    0.000000
 Stoichiometry    C9H10N4O2S
 Framework group  C1[X(C9H10N4O2S)]
 Deg. of freedom    72
 Full point group                 C1      NOp   1
 Largest Abelian subgroup         C1      NOp   1
 Largest concise Abelian subgroup C1      NOp   1
                         Standard orientation:                         
 ---------------------------------------------------------------------
 Center     Atomic      Atomic             Coordinates (Angstroms)
 Number     Number       Type             X           Y           Z
 ---------------------------------------------------------------------
      1          8           0        4.703344   -0.600308   -0.434779
      2         16           0        3.478267   -0.095434    0.194474
      3          7           0        2.279744   -0.258212   -0.995000
      4          6           0        0.958210    0.144538   -0.717960
      5          7           0        0.596875    1.457185   -0.711652
      6          7           0       -0.685046    1.538337   -0.471419
      7          6           0       -0.159139   -0.626288   -0.476003
      8          7           0       -1.160222    0.275323   -0.338122
      9          6           0       -2.543098    0.040324   -0.089128
     10          6           0       -3.308367    1.040537    0.513222
     11          6           0       -4.661417    0.807689    0.750957
     12          6           0       -5.241071   -0.414484    0.402847
     13          6           0       -4.462235   -1.407160   -0.192857
     14          6           0       -3.109779   -1.184150   -0.448167
     15          6           0        3.030295   -1.184863    1.548448
     16          8           0        3.422570    1.287887    0.678978
     17          1           0        2.351312   -1.172482   -1.443747
     18          1           0       -0.301058   -1.689908   -0.389442
     19          1           0       -2.842205    1.977253    0.789553
     20          1           0       -5.259718    1.581760    1.218082
     21          1           0       -6.293846   -0.591600    0.595370
     22          1           0       -4.904856   -2.355815   -0.470300
     23          1           0       -2.508428   -1.945713   -0.930134
     24          1           0        3.022523   -2.210423    1.182314
     25          1           0        2.049347   -0.894342    1.924421
     26          1           0        3.787496   -1.057713    2.323899
 ---------------------------------------------------------------------
 Rotational constants (GHZ):      1.6000227      0.1979755      0.1902452
 Leave Link  202 at Thu Aug  6 21:56:18 2020, MaxMem=    33554432 cpu:         0.0
 (Enter /prod/apps/gaussian/g09d1/l301.exe)
 Standard basis: 6-31G(d) (6D, 7F)
 Ernie: Thresh=  0.10000D-02 Tol=  0.10000D-05 Strict=F.
 There are   264 symmetry adapted cartesian basis functions of A   symmetry.
 There are   264 symmetry adapted basis functions of A   symmetry.
   264 basis functions,   512 primitive gaussians,   264 cartesian basis functions
    62 alpha electrons       62 beta electrons
       nuclear repulsion energy      1185.2234936339 Hartrees.
 IExCor=  402 DFT=T Ex+Corr=B3LYP ExCW=0 ScaHFX=  0.200000
 ScaDFX=  0.800000  0.720000  1.000000  0.810000 ScalE2=  1.000000  1.000000
 IRadAn=      0 IRanWt=     -1 IRanGd=            0 ICorTp=0 IEmpDi=  4
 NAtoms=   26 NActive=   26 NUniq=   26 SFac= 1.00D+00 NAtFMM=   60 NAOKFM=F Big=F
 Integral buffers will be    131072 words long.
 Raffenetti 2 integral format.
 Two-electron integral symmetry is turned on.
 Leave Link  301 at Thu Aug  6 21:56:18 2020, MaxMem=    33554432 cpu:         0.0
 (Enter /prod/apps/gaussian/g09d1/l302.exe)
 NPDir=0 NMtPBC=     1 NCelOv=     1 NCel=       1 NClECP=     1 NCelD=      1
         NCelK=      1 NCelE2=     1 NClLst=     1 CellRange=     0.0.
 One-electron integrals computed using PRISM.
 NBasis=   264 RedAO= T EigKep=  4.67D-04  NBF=   264
 NBsUse=   264 1.00D-06 EigRej= -1.00D+00 NBFU=   264
 Precomputing XC quadrature grid using
 IXCGrd= 4 IRadAn=           0 IRanWt=          -1 IRanGd=           0 AccXCQ= 0.00D+00.
 Generated NRdTot=       0 NPtTot=           0 NUsed=           0 NTot=          32
 NSgBfM=   262   262   262   262   262 MxSgAt=    26 MxSgA2=    26.
 Leave Link  302 at Thu Aug  6 21:56:19 2020, MaxMem=    33554432 cpu:         0.8
 (Enter /prod/apps/gaussian/g09d1/l303.exe)
 DipDrv:  MaxL=1.
 Leave Link  303 at Thu Aug  6 21:56:19 2020, MaxMem=    33554432 cpu:         0.1
 (Enter /prod/apps/gaussian/g09d1/l401.exe)
 ExpMin= 1.17D-01 ExpMax= 2.19D+04 ExpMxC= 3.30D+03 IAcc=1 IRadAn=         1 AccDes= 0.00D+00
 Harris functional with IExCor=  402 and IRadAn=       1 diagonalized for initial guess.
 HarFok:  IExCor=  402 AccDes= 0.00D+00 IRadAn=         1 IDoV= 1 UseB2=F ITyADJ=14
 ICtDFT=  3500011 ScaDFX=  1.000000  1.000000  1.000000  1.000000
 FoFCou: FMM=F IPFlag=           0 FMFlag=      100000 FMFlg1=           0
         NFxFlg=           0 DoJE=T BraDBF=F KetDBF=T FulRan=T
         wScrn=  0.000000 ICntrl=     500 IOpCl=  0 I1Cent=   200000004 NGrid=           0
         NMat0=    1 NMatS0=      1 NMatT0=    0 NMatD0=    1 NMtDS0=    0 NMtDT0=    0
 Petite list used in FoFCou.
 Harris En= -1116.52837549162    
 JPrj=0 DoOrth=F DoCkMO=F.
 Leave Link  401 at Thu Aug  6 21:56:21 2020, MaxMem=    33554432 cpu:         2.3
 (Enter /prod/apps/gaussian/g09d1/l502.exe)
 Closed shell SCF:
 Using DIIS extrapolation, IDIIS=  1040.
 Integral symmetry usage will be decided dynamically.
 IVT=      231207 IEndB=      231207 NGot=    33554432 MDV=    33409826
 LenX=    33409826 LenY=    33339689
 Requested convergence on RMS density matrix=1.00D-08 within 128 cycles.
 Requested convergence on MAX density matrix=1.00D-06.
 Requested convergence on             energy=1.00D-06.
 No special actions if energy rises.
 Fock matrices will be formed incrementally for  20 cycles.
 Integral accuracy reduced to 1.0D-05 until final iterations.

 Cycle   1  Pass 0  IDiag  1:
 FoFJK:  IHMeth= 1 ICntrl=       0 DoSepK=F KAlg= 0 I1Cent=   0 FoldK=F
 IRaf= 770000000 NMat=   1 IRICut=       1 DoRegI=T DoRafI=F ISym2E= 0.
 FoFCou: FMM=F IPFlag=           0 FMFlag=      100000 FMFlg1=           0
         NFxFlg=           0 DoJE=F BraDBF=F KetDBF=F FulRan=T
         wScrn=  0.000000 ICntrl=       0 IOpCl=  0 I1Cent=           0 NGrid=           0
         NMat0=    1 NMatS0=      1 NMatT0=    0 NMatD0=    1 NMtDS0=    0 NMtDT0=    0
 Symmetry not used in FoFCou.
 E= -1115.99083628712    
 DIIS: error= 3.01D-02 at cycle   1 NSaved=   1.
 NSaved= 1 IEnMin= 1 EnMin= -1115.99083628712     IErMin= 1 ErrMin= 3.01D-02
 ErrMax= 3.01D-02  0.00D+00 EMaxC= 1.00D-01 BMatC= 5.96D-01 BMatP= 5.96D-01
 IDIUse=3 WtCom= 6.99D-01 WtEn= 3.01D-01
 Coeff-Com:  0.100D+01
 Coeff-En:   0.100D+01
 Coeff:      0.100D+01
 Gap=     0.316 Goal=   None    Shift=    0.000
 GapD=    0.316 DampG=1.000 DampE=0.500 DampFc=0.5000 IDamp=-1.
 Damping current iteration by 5.00D-01
 RMSDP=7.82D-03 MaxDP=5.82D-01              OVMax= 2.59D-01

 Cycle   2  Pass 0  IDiag  1:
 RMSU=  3.91D-03    CP:  9.96D-01
 E= -1116.08466055962     Delta-E=       -0.093824272496 Rises=F Damp=T
 DIIS: error= 1.78D-02 at cycle   2 NSaved=   2.
 NSaved= 2 IEnMin= 2 EnMin= -1116.08466055962     IErMin= 2 ErrMin= 1.78D-02
 ErrMax= 1.78D-02  0.00D+00 EMaxC= 1.00D-01 BMatC= 1.16D-01 BMatP= 5.96D-01
 IDIUse=3 WtCom= 8.22D-01 WtEn= 1.78D-01
 Coeff-Com:  0.260D+00 0.740D+00
 Coeff-En:   0.412D+00 0.588D+00
 Coeff:      0.287D+00 0.713D+00
 Gap=     0.231 Goal=   None    Shift=    0.000
 RMSDP=2.28D-03 MaxDP=1.26D-01 DE=-9.38D-02 OVMax= 2.16D-01

 Cycle   3  Pass 0  IDiag  1:
 RMSU=  1.78D-03    CP:  9.86D-01  6.42D-01
 E= -1116.45522234712     Delta-E=       -0.370561787508 Rises=F Damp=F
 DIIS: error= 1.00D-02 at cycle   3 NSaved=   3.
 NSaved= 3 IEnMin= 3 EnMin= -1116.45522234712     IErMin= 3 ErrMin= 1.00D-02
 ErrMax= 1.00D-02  0.00D+00 EMaxC= 1.00D-01 BMatC= 5.22D-02 BMatP= 1.16D-01
 IDIUse=3 WtCom= 9.00D-01 WtEn= 1.00D-01
 Coeff-Com:  0.943D-01 0.404D+00 0.502D+00
 Coeff-En:   0.000D+00 0.000D+00 0.100D+01
 Coeff:      0.848D-01 0.363D+00 0.552D+00
 Gap=     0.199 Goal=   None    Shift=    0.000
 RMSDP=1.18D-03 MaxDP=3.41D-02 DE=-3.71D-01 OVMax= 4.81D-02

 Cycle   4  Pass 0  IDiag  1:
 RMSU=  7.71D-04    CP:  9.91D-01  7.24D-01  5.40D-01
 E= -1116.49626835845     Delta-E=       -0.041046011327 Rises=F Damp=F
 DIIS: error= 3.75D-03 at cycle   4 NSaved=   4.
 NSaved= 4 IEnMin= 4 EnMin= -1116.49626835845     IErMin= 4 ErrMin= 3.75D-03
 ErrMax= 3.75D-03  0.00D+00 EMaxC= 1.00D-01 BMatC= 8.20D-03 BMatP= 5.22D-02
 IDIUse=3 WtCom= 9.62D-01 WtEn= 3.75D-02
 Coeff-Com:  0.115D-01 0.815D-01 0.299D+00 0.608D+00
 Coeff-En:   0.000D+00 0.000D+00 0.128D+00 0.872D+00
 Coeff:      0.110D-01 0.784D-01 0.293D+00 0.617D+00
 Gap=     0.198 Goal=   None    Shift=    0.000
 RMSDP=4.36D-04 MaxDP=1.56D-02 DE=-4.10D-02 OVMax= 2.52D-02

 Cycle   5  Pass 0  IDiag  1:
 RMSU=  2.60D-04    CP:  9.90D-01  7.05D-01  6.39D-01  6.19D-01
 E= -1116.50247801137     Delta-E=       -0.006209652924 Rises=F Damp=F
 DIIS: error= 1.48D-03 at cycle   5 NSaved=   5.
 NSaved= 5 IEnMin= 5 EnMin= -1116.50247801137     IErMin= 5 ErrMin= 1.48D-03
 ErrMax= 1.48D-03  0.00D+00 EMaxC= 1.00D-01 BMatC= 1.28D-03 BMatP= 8.20D-03
 IDIUse=3 WtCom= 9.85D-01 WtEn= 1.48D-02
 Coeff-Com:  0.441D-03 0.237D-01 0.146D+00 0.390D+00 0.440D+00
 Coeff-En:   0.000D+00 0.000D+00 0.000D+00 0.945D-01 0.906D+00
 Coeff:      0.434D-03 0.234D-01 0.144D+00 0.385D+00 0.447D+00
 Gap=     0.197 Goal=   None    Shift=    0.000
 RMSDP=1.71D-04 MaxDP=7.06D-03 DE=-6.21D-03 OVMax= 1.19D-02

 Cycle   6  Pass 0  IDiag  1:
 RMSU=  7.66D-05    CP:  9.90D-01  7.09D-01  6.44D-01  6.89D-01  4.57D-01
 E= -1116.50353212846     Delta-E=       -0.001054117090 Rises=F Damp=F
 DIIS: error= 4.19D-04 at cycle   6 NSaved=   6.
 NSaved= 6 IEnMin= 6 EnMin= -1116.50353212846     IErMin= 6 ErrMin= 4.19D-04
 ErrMax= 4.19D-04  0.00D+00 EMaxC= 1.00D-01 BMatC= 1.33D-04 BMatP= 1.28D-03
 IDIUse=3 WtCom= 9.96D-01 WtEn= 4.19D-03
 Coeff-Com: -0.134D-02 0.374D-02 0.501D-01 0.158D+00 0.281D+00 0.508D+00
 Coeff-En:   0.000D+00 0.000D+00 0.000D+00 0.000D+00 0.677D-01 0.932D+00
 Coeff:     -0.134D-02 0.373D-02 0.499D-01 0.158D+00 0.280D+00 0.510D+00
 Gap=     0.197 Goal=   None    Shift=    0.000
 RMSDP=4.93D-05 MaxDP=1.89D-03 DE=-1.05D-03 OVMax= 2.79D-03

 Cycle   7  Pass 0  IDiag  1:
 RMSU=  2.99D-05    CP:  9.90D-01  7.09D-01  6.44D-01  6.85D-01  5.39D-01
                    CP:  5.75D-01
 E= -1116.50363666868     Delta-E=       -0.000104540220 Rises=F Damp=F
 DIIS: error= 1.20D-04 at cycle   7 NSaved=   7.
 NSaved= 7 IEnMin= 7 EnMin= -1116.50363666868     IErMin= 7 ErrMin= 1.20D-04
 ErrMax= 1.20D-04  0.00D+00 EMaxC= 1.00D-01 BMatC= 1.02D-05 BMatP= 1.33D-04
 IDIUse=3 WtCom= 9.99D-01 WtEn= 1.20D-03
 Coeff-Com: -0.778D-03 0.335D-03 0.164D-01 0.568D-01 0.123D+00 0.299D+00
 Coeff-Com:  0.505D+00
 Coeff-En:   0.000D+00 0.000D+00 0.000D+00 0.000D+00 0.000D+00 0.121D-01
 Coeff-En:   0.988D+00
 Coeff:     -0.777D-03 0.334D-03 0.163D-01 0.567D-01 0.123D+00 0.299D+00
 Coeff:      0.506D+00
 Gap=     0.197 Goal=   None    Shift=    0.000
 RMSDP=1.49D-05 MaxDP=5.63D-04 DE=-1.05D-04 OVMax= 9.55D-04

 Cycle   8  Pass 0  IDiag  1:
 RMSU=  8.74D-06    CP:  9.90D-01  7.09D-01  6.44D-01  6.88D-01  5.39D-01
                    CP:  6.16D-01  6.18D-01
 E= -1116.50364526051     Delta-E=       -0.000008591826 Rises=F Damp=F
 DIIS: error= 4.78D-05 at cycle   8 NSaved=   8.
 NSaved= 8 IEnMin= 8 EnMin= -1116.50364526051     IErMin= 8 ErrMin= 4.78D-05
 ErrMax= 4.78D-05  0.00D+00 EMaxC= 1.00D-01 BMatC= 8.41D-07 BMatP= 1.02D-05
 IDIUse=1 WtCom= 1.00D+00 WtEn= 0.00D+00
 Coeff-Com: -0.319D-03-0.330D-03 0.415D-02 0.163D-01 0.421D-01 0.119D+00
 Coeff-Com:  0.285D+00 0.534D+00
 Coeff:     -0.319D-03-0.330D-03 0.415D-02 0.163D-01 0.421D-01 0.119D+00
 Coeff:      0.285D+00 0.534D+00
 Gap=     0.197 Goal=   None    Shift=    0.000
 RMSDP=4.79D-06 MaxDP=1.94D-04 DE=-8.59D-06 OVMax= 2.86D-04

 Initial convergence to 1.0D-05 achieved.  Increase integral accuracy.
 Cycle   9  Pass 1  IDiag  1:
 E= -1116.50353768345     Delta-E=        0.000107577061 Rises=F Damp=F
 DIIS: error= 5.85D-05 at cycle   1 NSaved=   1.
 NSaved= 1 IEnMin= 1 EnMin= -1116.50353768345     IErMin= 1 ErrMin= 5.85D-05
 ErrMax= 5.85D-05  0.00D+00 EMaxC= 1.00D-01 BMatC= 3.90D-07 BMatP= 3.90D-07
 IDIUse=1 WtCom= 1.00D+00 WtEn= 0.00D+00
 Coeff-Com:  0.100D+01
 Coeff:      0.100D+01
 Gap=     0.197 Goal=   None    Shift=    0.000
 RMSDP=4.79D-06 MaxDP=1.94D-04 DE= 1.08D-04 OVMax= 2.68D-04

 Cycle  10  Pass 1  IDiag  1:
 RMSU=  3.41D-05    CP:  1.00D+00
 E= -1116.50353764258     Delta-E=        0.000000040872 Rises=F Damp=F
 DIIS: error= 4.44D-05 at cycle   2 NSaved=   2.
 NSaved= 2 IEnMin= 1 EnMin= -1116.50353768345     IErMin= 2 ErrMin= 4.44D-05
 ErrMax= 4.44D-05  0.00D+00 EMaxC= 1.00D-01 BMatC= 4.99D-07 BMatP= 3.90D-07
 IDIUse=1 WtCom= 1.00D+00 WtEn= 0.00D+00
 Coeff-Com:  0.541D+00 0.459D+00
 Coeff:      0.541D+00 0.459D+00
 Gap=     0.197 Goal=   None    Shift=    0.000
 RMSDP=3.93D-06 MaxDP=1.96D-04 DE= 4.09D-08 OVMax= 2.80D-04

 Cycle  11  Pass 1  IDiag  1:
 RMSU=  3.92D-06    CP:  1.00D+00  9.93D-01
 E= -1116.50353797816     Delta-E=       -0.000000335585 Rises=F Damp=F
 DIIS: error= 2.49D-05 at cycle   3 NSaved=   3.
 NSaved= 3 IEnMin= 3 EnMin= -1116.50353797816     IErMin= 3 ErrMin= 2.49D-05
 ErrMax= 2.49D-05  0.00D+00 EMaxC= 1.00D-01 BMatC= 1.38D-07 BMatP= 3.90D-07
 IDIUse=1 WtCom= 1.00D+00 WtEn= 0.00D+00
 Coeff-Com:  0.170D-01 0.341D+00 0.642D+00
 Coeff:      0.170D-01 0.341D+00 0.642D+00
 Gap=     0.197 Goal=   None    Shift=    0.000
 RMSDP=1.46D-06 MaxDP=7.36D-05 DE=-3.36D-07 OVMax= 1.10D-04

 Cycle  12  Pass 1  IDiag  1:
 RMSU=  5.72D-07    CP:  1.00D+00  1.00D+00  6.73D-01
 E= -1116.50353809869     Delta-E=       -0.000000120531 Rises=F Damp=F
 DIIS: error= 4.10D-06 at cycle   4 NSaved=   4.
 NSaved= 4 IEnMin= 4 EnMin= -1116.50353809869     IErMin= 4 ErrMin= 4.10D-06
 ErrMax= 4.10D-06  0.00D+00 EMaxC= 1.00D-01 BMatC= 6.03D-09 BMatP= 1.38D-07
 IDIUse=1 WtCom= 1.00D+00 WtEn= 0.00D+00
 Coeff-Com: -0.569D-02 0.190D+00 0.381D+00 0.435D+00
 Coeff:     -0.569D-02 0.190D+00 0.381D+00 0.435D+00
 Gap=     0.197 Goal=   None    Shift=    0.000
 RMSDP=3.30D-07 MaxDP=1.27D-05 DE=-1.21D-07 OVMax= 1.94D-05

 Cycle  13  Pass 1  IDiag  1:
 RMSU=  1.61D-07    CP:  1.00D+00  1.00D+00  6.76D-01  5.00D-01
 E= -1116.50353810379     Delta-E=       -0.000000005100 Rises=F Damp=F
 DIIS: error= 8.95D-07 at cycle   5 NSaved=   5.
 NSaved= 5 IEnMin= 5 EnMin= -1116.50353810379     IErMin= 5 ErrMin= 8.95D-07
 ErrMax= 8.95D-07  0.00D+00 EMaxC= 1.00D-01 BMatC= 3.88D-10 BMatP= 6.03D-09
 IDIUse=1 WtCom= 1.00D+00 WtEn= 0.00D+00
 Coeff-Com: -0.438D-02 0.986D-01 0.199D+00 0.270D+00 0.437D+00
 Coeff:     -0.438D-02 0.986D-01 0.199D+00 0.270D+00 0.437D+00
 Gap=     0.197 Goal=   None    Shift=    0.000
 RMSDP=9.25D-08 MaxDP=3.49D-06 DE=-5.10D-09 OVMax= 7.40D-06

 Cycle  14  Pass 1  IDiag  1:
 RMSU=  6.67D-08    CP:  1.00D+00  1.00D+00  6.75D-01  5.18D-01  6.09D-01
 E= -1116.50353810410     Delta-E=       -0.000000000309 Rises=F Damp=F
 DIIS: error= 2.44D-07 at cycle   6 NSaved=   6.
 NSaved= 6 IEnMin= 6 EnMin= -1116.50353810410     IErMin= 6 ErrMin= 2.44D-07
 ErrMax= 2.44D-07  0.00D+00 EMaxC= 1.00D-01 BMatC= 3.16D-11 BMatP= 3.88D-10
 IDIUse=1 WtCom= 1.00D+00 WtEn= 0.00D+00
 Coeff-Com: -0.180D-02 0.323D-01 0.655D-01 0.981D-01 0.259D+00 0.547D+00
 Coeff:     -0.180D-02 0.323D-01 0.655D-01 0.981D-01 0.259D+00 0.547D+00
 Gap=     0.197 Goal=   None    Shift=    0.000
 RMSDP=2.72D-08 MaxDP=9.65D-07 DE=-3.09D-10 OVMax= 1.90D-06

 Cycle  15  Pass 1  IDiag  1:
 RMSU=  1.84D-08    CP:  1.00D+00  1.00D+00  6.76D-01  5.18D-01  6.85D-01
                    CP:  7.66D-01
 E= -1116.50353810414     Delta-E=       -0.000000000034 Rises=F Damp=F
 DIIS: error= 1.00D-07 at cycle   7 NSaved=   7.
 NSaved= 7 IEnMin= 7 EnMin= -1116.50353810414     IErMin= 7 ErrMin= 1.00D-07
 ErrMax= 1.00D-07  0.00D+00 EMaxC= 1.00D-01 BMatC= 2.97D-12 BMatP= 3.16D-11
 IDIUse=1 WtCom= 1.00D+00 WtEn= 0.00D+00
 Coeff-Com: -0.382D-03 0.431D-02 0.874D-02 0.165D-01 0.819D-01 0.294D+00
 Coeff-Com:  0.595D+00
 Coeff:     -0.382D-03 0.431D-02 0.874D-02 0.165D-01 0.819D-01 0.294D+00
 Coeff:      0.595D+00
 Gap=     0.197 Goal=   None    Shift=    0.000
 RMSDP=8.93D-09 MaxDP=2.91D-07 DE=-3.41D-11 OVMax= 5.87D-07

 SCF Done:  E(RB3LYP) =  -1116.50353810     A.U. after   15 cycles
            NFock= 15  Conv=0.89D-08     -V/T= 2.0073
 KE= 1.108395793479D+03 PE=-4.986977488116D+03 EE= 1.576854662899D+03
 Leave Link  502 at Thu Aug  6 21:59:02 2020, MaxMem=    33554432 cpu:       161.1
 (Enter /prod/apps/gaussian/g09d1/l601.exe)
 Copying SCF densities to generalized density rwf, IOpCl= 0 IROHF=0.

 **********************************************************************

            Population analysis using the SCF density.

 **********************************************************************

 Orbital symmetries:
       Occupied  (A) (A) (A) (A) (A) (A) (A) (A) (A) (A) (A) (A)
                 (A) (A) (A) (A) (A) (A) (A) (A) (A) (A) (A) (A)
                 (A) (A) (A) (A) (A) (A) (A) (A) (A) (A) (A) (A)
                 (A) (A) (A) (A) (A) (A) (A) (A) (A) (A) (A) (A)
                 (A) (A) (A) (A) (A) (A) (A) (A) (A) (A) (A) (A)
                 (A) (A)
       Virtual   (A) (A) (A) (A) (A) (A) (A) (A) (A) (A) (A) (A)
                 (A) (A) (A) (A) (A) (A) (A) (A) (A) (A) (A) (A)
                 (A) (A) (A) (A) (A) (A) (A) (A) (A) (A) (A) (A)
                 (A) (A) (A) (A) (A) (A) (A) (A) (A) (A) (A) (A)
                 (A) (A) (A) (A) (A) (A) (A) (A) (A) (A) (A) (A)
                 (A) (A) (A) (A) (A) (A) (A) (A) (A) (A) (A) (A)
                 (A) (A) (A) (A) (A) (A) (A) (A) (A) (A) (A) (A)
                 (A) (A) (A) (A) (A) (A) (A) (A) (A) (A) (A) (A)
                 (A) (A) (A) (A) (A) (A) (A) (A) (A) (A) (A) (A)
                 (A) (A) (A) (A) (A) (A) (A) (A) (A) (A) (A) (A)
                 (A) (A) (A) (A) (A) (A) (A) (A) (A) (A) (A) (A)
                 (A) (A) (A) (A) (A) (A) (A) (A) (A) (A) (A) (A)
                 (A) (A) (A) (A) (A) (A) (A) (A) (A) (A) (A) (A)
                 (A) (A) (A) (A) (A) (A) (A) (A) (A) (A) (A) (A)
                 (A) (A) (A) (A) (A) (A) (A) (A) (A) (A) (A) (A)
                 (A) (A) (A) (A) (A) (A) (A) (A) (A) (A) (A) (A)
                 (A) (A) (A) (A) (A) (A) (A) (A) (A) (A)
 The electronic state is 1-A.
 Alpha  occ. eigenvalues --  -89.11534 -19.14136 -19.13864 -14.44995 -14.40361
 Alpha  occ. eigenvalues --  -14.38994 -14.36597 -10.26848 -10.26243 -10.25439
 Alpha  occ. eigenvalues --  -10.23743 -10.22177 -10.21717 -10.21481 -10.21420
 Alpha  occ. eigenvalues --  -10.21286  -8.14105  -6.10627  -6.10481  -6.10410
 Alpha  occ. eigenvalues --   -1.11636  -1.10858  -0.99598  -0.96127  -0.93432
 Alpha  occ. eigenvalues --   -0.87211  -0.81709  -0.78385  -0.77510  -0.76932
 Alpha  occ. eigenvalues --   -0.67616  -0.66805  -0.63717  -0.61945  -0.59652
 Alpha  occ. eigenvalues --   -0.57592  -0.54292  -0.53188  -0.51007  -0.49904
 Alpha  occ. eigenvalues --   -0.49379  -0.48252  -0.47292  -0.46521  -0.45886
 Alpha  occ. eigenvalues --   -0.44907  -0.44791  -0.42688  -0.39709  -0.38696
 Alpha  occ. eigenvalues --   -0.37467  -0.35514  -0.34313  -0.33433  -0.31877
 Alpha  occ. eigenvalues --   -0.31206  -0.30768  -0.29597  -0.28056  -0.27549
 Alpha  occ. eigenvalues --   -0.27375  -0.24866
 Alpha virt. eigenvalues --   -0.05138  -0.02713   0.00936   0.01409   0.04730
 Alpha virt. eigenvalues --    0.06749   0.07654   0.08966   0.09539   0.09688
 Alpha virt. eigenvalues --    0.10697   0.12687   0.13223   0.13934   0.14172
 Alpha virt. eigenvalues --    0.14486   0.14789   0.16995   0.17246   0.18600
 Alpha virt. eigenvalues --    0.20693   0.22139   0.24065   0.27925   0.29524
 Alpha virt. eigenvalues --    0.30113   0.32222   0.34110   0.36004   0.36997
 Alpha virt. eigenvalues --    0.38895   0.41733   0.42139   0.43399   0.47342
 Alpha virt. eigenvalues --    0.47744   0.49393   0.50946   0.51289   0.51906
 Alpha virt. eigenvalues --    0.53318   0.53598   0.54689   0.56074   0.56855
 Alpha virt. eigenvalues --    0.56962   0.57649   0.58977   0.59564   0.59872
 Alpha virt. eigenvalues --    0.60520   0.61896   0.62501   0.63983   0.65799
 Alpha virt. eigenvalues --    0.68586   0.69058   0.70447   0.71180   0.72571
 Alpha virt. eigenvalues --    0.73537   0.76103   0.78151   0.79301   0.79508
 Alpha virt. eigenvalues --    0.81318   0.82050   0.82328   0.83286   0.84122
 Alpha virt. eigenvalues --    0.84340   0.84913   0.85593   0.86391   0.87123
 Alpha virt. eigenvalues --    0.88674   0.88897   0.90183   0.92058   0.93092
 Alpha virt. eigenvalues --    0.94441   0.96118   0.97426   0.98663   1.00166
 Alpha virt. eigenvalues --    1.02951   1.03580   1.04714   1.05118   1.07371
 Alpha virt. eigenvalues --    1.07652   1.10348   1.12681   1.14853   1.14988
 Alpha virt. eigenvalues --    1.16651   1.17771   1.19217   1.20734   1.23825
 Alpha virt. eigenvalues --    1.23983   1.25647   1.30402   1.32151   1.35522
 Alpha virt. eigenvalues --    1.36570   1.39540   1.40551   1.42150   1.43042
 Alpha virt. eigenvalues --    1.44728   1.46604   1.46659   1.48536   1.51507
 Alpha virt. eigenvalues --    1.52523   1.56480   1.57012   1.60597   1.64619
 Alpha virt. eigenvalues --    1.68308   1.72268   1.74856   1.77381   1.78408
 Alpha virt. eigenvalues --    1.79106   1.80139   1.80844   1.82343   1.84390
 Alpha virt. eigenvalues --    1.85530   1.86656   1.87657   1.89987   1.91327
 Alpha virt. eigenvalues --    1.93020   1.95168   1.95803   2.01168   2.03157
 Alpha virt. eigenvalues --    2.05359   2.05861   2.07452   2.08637   2.09799
 Alpha virt. eigenvalues --    2.10787   2.12037   2.13162   2.13650   2.16178
 Alpha virt. eigenvalues --    2.19087   2.19114   2.21259   2.22077   2.23647
 Alpha virt. eigenvalues --    2.25547   2.27707   2.28011   2.30200   2.31300
 Alpha virt. eigenvalues --    2.34128   2.36801   2.37881   2.47986   2.50159
 Alpha virt. eigenvalues --    2.53159   2.56450   2.57116   2.58935   2.62426
 Alpha virt. eigenvalues --    2.63144   2.66102   2.68741   2.70689   2.72687
 Alpha virt. eigenvalues --    2.74502   2.75806   2.77088   2.82719   2.86381
 Alpha virt. eigenvalues --    2.88004   3.00055   3.06165   3.12461   3.24827
 Alpha virt. eigenvalues --    3.40993   3.60925   3.76987   3.89823   3.94483
 Alpha virt. eigenvalues --    3.97570   4.05668   4.07230   4.09105   4.10152
 Alpha virt. eigenvalues --    4.14408   4.18482   4.22783   4.30388   4.38006
 Alpha virt. eigenvalues --    4.48051   4.69789
          Condensed to atoms (all electrons):
               1          2          3          4          5          6
     1  O    8.224366   0.446970  -0.051465   0.001670  -0.000019   0.000000
     2  S    0.446970  13.697351   0.099834  -0.016654   0.001507   0.000023
     3  N   -0.051465   0.099834   7.385263   0.253041  -0.058062   0.005934
     4  C    0.001670  -0.016654   0.253041   4.745584   0.344227  -0.057327
     5  N   -0.000019   0.001507  -0.058062   0.344227   6.824872   0.287177
     6  N    0.000000   0.000023   0.005934  -0.057327   0.287177   6.773578
     7  C   -0.000037  -0.005511  -0.084587   0.469091  -0.071068  -0.104697
     8  N    0.000000   0.000389   0.003714  -0.056196  -0.074770   0.179928
     9  C    0.000000  -0.000010  -0.000100   0.006572   0.005965  -0.042945
    10  C    0.000000   0.000000   0.000001  -0.000376   0.000277   0.000968
    11  C    0.000000   0.000000   0.000000   0.000006  -0.000004   0.000363
    12  C    0.000000   0.000000   0.000000   0.000000   0.000000   0.000016
    13  C    0.000000   0.000000   0.000000  -0.000008   0.000002  -0.000069
    14  C    0.000000   0.000000   0.000003   0.000844  -0.000307   0.002962
    15  C   -0.057114   0.192000  -0.059340  -0.000475   0.000020   0.000006
    16  O   -0.045806   0.448583  -0.050788  -0.001231   0.000769   0.000026
    17  H    0.001620  -0.002000   0.297444  -0.035615   0.002372  -0.000102
    18  H    0.000000  -0.000003  -0.000087  -0.027617   0.004017   0.003584
    19  H    0.000000   0.000000   0.000000   0.000067  -0.000360   0.015596
    20  H    0.000000   0.000000   0.000000   0.000000   0.000000  -0.000008
    21  H    0.000000   0.000000   0.000000   0.000000   0.000000   0.000000
    22  H    0.000000   0.000000   0.000000   0.000000   0.000000   0.000001
    23  H    0.000000   0.000000   0.000001   0.000056  -0.000004  -0.000090
    24  H    0.000256  -0.006689   0.000458   0.000310  -0.000005  -0.000001
    25  H    0.001873  -0.008527  -0.002299   0.002619  -0.000032  -0.000051
    26  H   -0.000645  -0.013716   0.002240   0.000004  -0.000001   0.000000
               7          8          9         10         11         12
     1  O   -0.000037   0.000000   0.000000   0.000000   0.000000   0.000000
     2  S   -0.005511   0.000389  -0.000010   0.000000   0.000000   0.000000
     3  N   -0.084587   0.003714  -0.000100   0.000001   0.000000   0.000000
     4  C    0.469091  -0.056196   0.006572  -0.000376   0.000006   0.000000
     5  N   -0.071068  -0.074770   0.005965   0.000277  -0.000004   0.000000
     6  N   -0.104697   0.179928  -0.042945   0.000968   0.000363   0.000016
     7  C    5.140621   0.318369  -0.036242   0.007779  -0.000088   0.000020
     8  N    0.318369   6.951817   0.195685  -0.056867   0.004549   0.000397
     9  C   -0.036242   0.195685   4.617135   0.519712  -0.009821  -0.038045
    10  C    0.007779  -0.056867   0.519712   4.978871   0.517699  -0.037417
    11  C   -0.000088   0.004549  -0.009821   0.517699   4.865613   0.543265
    12  C    0.000020   0.000397  -0.038045  -0.037417   0.543265   4.848586
    13  C   -0.000059   0.004668  -0.007498  -0.041528  -0.022717   0.550570
    14  C   -0.008016  -0.051701   0.529565  -0.073514  -0.042228  -0.039548
    15  C   -0.000156  -0.000019  -0.000001   0.000000   0.000000   0.000000
    16  O   -0.000119   0.000003   0.000000   0.000000   0.000000   0.000000
    17  H   -0.001829   0.000000   0.000001   0.000000   0.000000   0.000000
    18  H    0.357386  -0.034383  -0.001358  -0.000124  -0.000005  -0.000001
    19  H    0.000255  -0.013513  -0.033793   0.354982  -0.039516   0.004338
    20  H    0.000002  -0.000108   0.003442  -0.037871   0.360873  -0.041150
    21  H    0.000000   0.000004   0.000529   0.004679  -0.042158   0.362561
    22  H   -0.000004  -0.000115   0.003594   0.000779   0.004566  -0.040165
    23  H    0.006145  -0.009807  -0.041322   0.005758   0.000252   0.004524
    24  H    0.000223   0.000000   0.000000   0.000000   0.000000   0.000000
    25  H    0.003568  -0.000134   0.000003   0.000000   0.000000   0.000000
    26  H   -0.000019   0.000001   0.000000   0.000000   0.000000   0.000000
              13         14         15         16         17         18
     1  O    0.000000   0.000000  -0.057114  -0.045806   0.001620   0.000000
     2  S    0.000000   0.000000   0.192000   0.448583  -0.002000  -0.000003
     3  N    0.000000   0.000003  -0.059340  -0.050788   0.297444  -0.000087
     4  C   -0.000008   0.000844  -0.000475  -0.001231  -0.035615  -0.027617
     5  N    0.000002  -0.000307   0.000020   0.000769   0.002372   0.004017
     6  N   -0.000069   0.002962   0.000006   0.000026  -0.000102   0.003584
     7  C   -0.000059  -0.008016  -0.000156  -0.000119  -0.001829   0.357386
     8  N    0.004668  -0.051701  -0.000019   0.000003   0.000000  -0.034383
     9  C   -0.007498   0.529565  -0.000001   0.000000   0.000001  -0.001358
    10  C   -0.041528  -0.073514   0.000000   0.000000   0.000000  -0.000124
    11  C   -0.022717  -0.042228   0.000000   0.000000   0.000000  -0.000005
    12  C    0.550570  -0.039548   0.000000   0.000000   0.000000  -0.000001
    13  C    4.843346   0.529953   0.000000   0.000000   0.000000   0.000165
    14  C    0.529953   4.994751   0.000000   0.000000   0.000000   0.002363
    15  C    0.000000   0.000000   5.580594  -0.057143   0.000522   0.000092
    16  O    0.000000   0.000000  -0.057143   8.207330   0.001719   0.000000
    17  H    0.000000   0.000000   0.000522   0.001719   0.380058   0.001003
    18  H    0.000165   0.002363   0.000092   0.000000   0.001003   0.513091
    19  H    0.000162   0.005558   0.000000   0.000000   0.000000  -0.000011
    20  H    0.004541   0.000818   0.000000   0.000000   0.000000   0.000000
    21  H   -0.042332   0.004997   0.000000   0.000000   0.000000   0.000000
    22  H    0.359829  -0.039647   0.000000   0.000000   0.000000  -0.000002
    23  H   -0.038058   0.347619   0.000000   0.000000   0.000000   0.002074
    24  H    0.000000   0.000000   0.333752   0.002026   0.000038   0.000044
    25  H    0.000000   0.000000   0.337477  -0.000172   0.000166   0.000101
    26  H    0.000000   0.000000   0.360691  -0.000259  -0.000012   0.000001
              19         20         21         22         23         24
     1  O    0.000000   0.000000   0.000000   0.000000   0.000000   0.000256
     2  S    0.000000   0.000000   0.000000   0.000000   0.000000  -0.006689
     3  N    0.000000   0.000000   0.000000   0.000000   0.000001   0.000458
     4  C    0.000067   0.000000   0.000000   0.000000   0.000056   0.000310
     5  N   -0.000360   0.000000   0.000000   0.000000  -0.000004  -0.000005
     6  N    0.015596  -0.000008   0.000000   0.000001  -0.000090  -0.000001
     7  C    0.000255   0.000002   0.000000  -0.000004   0.006145   0.000223
     8  N   -0.013513  -0.000108   0.000004  -0.000115  -0.009807   0.000000
     9  C   -0.033793   0.003442   0.000529   0.003594  -0.041322   0.000000
    10  C    0.354982  -0.037871   0.004679   0.000779   0.005758   0.000000
    11  C   -0.039516   0.360873  -0.042158   0.004566   0.000252   0.000000
    12  C    0.004338  -0.041150   0.362561  -0.040165   0.004524   0.000000
    13  C    0.000162   0.004541  -0.042332   0.359829  -0.038058   0.000000
    14  C    0.005558   0.000818   0.004997  -0.039647   0.347619   0.000000
    15  C    0.000000   0.000000   0.000000   0.000000   0.000000   0.333752
    16  O    0.000000   0.000000   0.000000   0.000000   0.000000   0.002026
    17  H    0.000000   0.000000   0.000000   0.000000   0.000000   0.000038
    18  H   -0.000011   0.000000   0.000000  -0.000002   0.002074   0.000044
    19  H    0.529119  -0.004991  -0.000138   0.000013  -0.000140   0.000000
    20  H   -0.004991   0.571259  -0.005303  -0.000178   0.000015   0.000000
    21  H   -0.000138  -0.005303   0.580249  -0.005375  -0.000161   0.000000
    22  H    0.000013  -0.000178  -0.005375   0.578622  -0.005599   0.000000
    23  H   -0.000140   0.000015  -0.000161  -0.005599   0.587489   0.000000
    24  H    0.000000   0.000000   0.000000   0.000000   0.000000   0.522464
    25  H    0.000000   0.000000   0.000000   0.000000   0.000000  -0.025870
    26  H    0.000000   0.000000   0.000000   0.000000   0.000000  -0.019692
              25         26
     1  O    0.001873  -0.000645
     2  S   -0.008527  -0.013716
     3  N   -0.002299   0.002240
     4  C    0.002619   0.000004
     5  N   -0.000032  -0.000001
     6  N   -0.000051   0.000000
     7  C    0.003568  -0.000019
     8  N   -0.000134   0.000001
     9  C    0.000003   0.000000
    10  C    0.000000   0.000000
    11  C    0.000000   0.000000
    12  C    0.000000   0.000000
    13  C    0.000000   0.000000
    14  C    0.000000   0.000000
    15  C    0.337477   0.360691
    16  O   -0.000172  -0.000259
    17  H    0.000166  -0.000012
    18  H    0.000101   0.000001
    19  H    0.000000   0.000000
    20  H    0.000000   0.000000
    21  H    0.000000   0.000000
    22  H    0.000000   0.000000
    23  H    0.000000   0.000000
    24  H   -0.025870  -0.019692
    25  H    0.503623  -0.020660
    26  H   -0.020660   0.461612
 Mulliken charges:
               1
     1  O   -0.521666
     2  S    1.166456
     3  N   -0.741206
     4  C    0.371408
     5  N   -0.266573
     6  N   -0.064872
     7  C    0.008974
     8  N   -0.361909
     9  C    0.328932
    10  C   -0.143809
    11  C   -0.140648
    12  C   -0.117953
    13  C   -0.140967
    14  C   -0.164472
    15  C   -0.630906
    16  O   -0.504938
    17  H    0.354614
    18  H    0.179671
    19  H    0.182371
    20  H    0.148658
    21  H    0.142449
    22  H    0.143681
    23  H    0.141246
    24  H    0.192686
    25  H    0.208316
    26  H    0.230456
 Sum of Mulliken charges =   0.00000
 Mulliken charges with hydrogens summed into heavy atoms:
               1
     1  O   -0.521666
     2  S    1.166456
     3  N   -0.386592
     4  C    0.371408
     5  N   -0.266573
     6  N   -0.064872
     7  C    0.188645
     8  N   -0.361909
     9  C    0.328932
    10  C    0.038562
    11  C    0.008010
    12  C    0.024497
    13  C    0.002713
    14  C   -0.023226
    15  C    0.000553
    16  O   -0.504938
 Electronic spatial extent (au):  <R**2>=           5482.1336
 Charge=              0.0000 electrons
 Dipole moment (field-independent basis, Debye):
    X=             -6.4424    Y=             -6.8174    Z=              1.9196  Tot=              9.5742
 Quadrupole moment (field-independent basis, Debye-Ang):
   XX=           -106.8757   YY=            -97.8556   ZZ=            -96.5213
   XY=             -9.0873   XZ=              3.9797   YZ=              3.0806
 Traceless Quadrupole moment (field-independent basis, Debye-Ang):
   XX=             -6.4582   YY=              2.5619   ZZ=              3.8963
   XY=             -9.0873   XZ=              3.9797   YZ=              3.0806
 Octapole moment (field-independent basis, Debye-Ang**2):
  XXX=           -172.6071  YYY=            -23.1215  ZZZ=              5.4662  XYY=             -4.7433
  XXY=            -25.7927  XXZ=             43.8961  XZZ=             30.1211  YZZ=             -5.7677
  YYZ=              0.3385  XYZ=            -19.0825
 Hexadecapole moment (field-independent basis, Debye-Ang**3):
 XXXX=          -6260.8916 YYYY=           -634.9206 ZZZZ=           -370.1606 XXXY=              4.9646
 XXXZ=             34.6808 YYYX=            -20.6318 YYYZ=             25.7121 ZZZX=             29.5207
 ZZZY=              3.9747 XXYY=          -1090.8918 XXZZ=          -1078.6042 YYZZ=           -166.7473
 XXYZ=              7.4985 YYXZ=             -5.0938 ZZXY=            -31.6082
 N-N= 1.185223493634D+03 E-N=-4.986977511416D+03  KE= 1.108395793479D+03
 No NMR shielding tensors so no spin-rotation constants.
 Leave Link  601 at Thu Aug  6 21:59:03 2020, MaxMem=    33554432 cpu:         0.2
 (Enter /prod/apps/gaussian/g09d1/l9999.exe)
 1\1\GINC-PIRINEUS17\SP\RB3LYP\6-31G(d)\C9H10N4O2S1\UBAFAR01\06-Aug-202
 0\0\\#p b3lyp/6-31G(d)\\SM44.n.10.pdb.xyz\\0,1\O,0,3.58,-0.624,-2.104\
 S,0,3.11,-1.838,-1.428\N,0,2.851,-1.367,0.181\C,0,2.392,-2.31,1.122\N,
 0,3.222,-3.245,1.661\N,0,2.549,-3.953,2.529\C,0,1.143,-2.442,1.691\N,0
 ,1.284,-3.466,2.566\C,0,0.313,-4.028,3.444\C,0,0.466,-5.346,3.878\C,0,
 -0.484,-5.89,4.74\C,0,-1.581,-5.131,5.154\C,0,-1.724,-3.817,4.707\C,0,
 -0.775,-3.255,3.854\C,0,1.514,-2.299,-2.107\O,0,3.96,-3.033,-1.398\H,0
 ,2.357,-0.474,0.211\H,0,0.217,-1.915,1.537\H,0,1.314,-5.926,3.538\H,0,
 -0.369,-6.913,5.08\H,0,-2.32,-5.562,5.821\H,0,-2.569,-3.22,5.027\H,0,-
 0.873,-2.228,3.523\H,0,0.862,-1.427,-2.087\H,0,1.1,-3.113,-1.512\H,0,1
 .687,-2.628,-3.133\\Version=AM64L-G09RevD.01\State=1-A\HF=-1116.503538
 1\RMSD=8.935e-09\Dipole=-3.6348657,0.1196812,0.9808962\Quadrupole=-7.3
 886426,4.877706,2.5109366,-3.1449795,4.9921511,0.1617858\PG=C01 [X(C9H
 10N4O2S1)]\\@


 NOT WHAT WE DID SHALL BE THE TEST
 WHEN ACT AND WILL ARE DONE,
 BUT WHAT OUR LORD INFERS WE WOULD-
 HAD WE DIVINER BEEN.
           EMILY DICKINSON  POEMS NO. CLXXV
 Job cpu time:       0 days  0 hours  2 minutes 44.7 seconds.
 File lengths (MBytes):  RWF=     40 Int=      0 D2E=      0 Chk=      4 Scr=      1
 Normal termination of Gaussian 09 at Thu Aug  6 21:59:03 2020.
 Initial command:
 /prod/apps/gaussian/g09d1/l1.exe "/tmp/ubafar01/1448610/Gau-59401.inp" -scrdir="/tmp/ubafar01/1448610/"
 Entering Link 1 = /prod/apps/gaussian/g09d1/l1.exe PID=     59444.
  
 Copyright (c) 1988,1990,1992,1993,1995,1998,2003,2009,2013,
            Gaussian, Inc.  All Rights Reserved.
  
 This is part of the Gaussian(R) 09 program.  It is based on
 the Gaussian(R) 03 system (copyright 2003, Gaussian, Inc.),
 the Gaussian(R) 98 system (copyright 1998, Gaussian, Inc.),
 the Gaussian(R) 94 system (copyright 1995, Gaussian, Inc.),
 the Gaussian 92(TM) system (copyright 1992, Gaussian, Inc.),
 the Gaussian 90(TM) system (copyright 1990, Gaussian, Inc.),
 the Gaussian 88(TM) system (copyright 1988, Gaussian, Inc.),
 the Gaussian 86(TM) system (copyright 1986, Carnegie Mellon
 University), and the Gaussian 82(TM) system (copyright 1983,
 Carnegie Mellon University). Gaussian is a federally registered
 trademark of Gaussian, Inc.
  
 This software contains proprietary and confidential information,
 including trade secrets, belonging to Gaussian, Inc.
  
 This software is provided under written license and may be
 used, copied, transmitted, or stored only in accord with that
 written license.
  
 The following legend is applicable only to US Government
 contracts under FAR:
  
                    RESTRICTED RIGHTS LEGEND
  
 Use, reproduction and disclosure by the US Government is
 subject to restrictions as set forth in subparagraphs (a)
 and (c) of the Commercial Computer Software - Restricted
 Rights clause in FAR 52.227-19.
  
 Gaussian, Inc.
 340 Quinnipiac St., Bldg. 40, Wallingford CT 06492
  
  
 ---------------------------------------------------------------
 Warning -- This program may not be used in any manner that
 competes with the business of Gaussian, Inc. or will provide
 assistance to any competitor of Gaussian, Inc.  The licensee
 of this program is prohibited from giving any competitor of
 Gaussian, Inc. access to this program.  By using this program,
 the user acknowledges that Gaussian, Inc. is engaged in the
 business of creating and licensing software in the field of
 computational chemistry and represents and warrants to the
 licensee that it is not a competitor of Gaussian, Inc. and that
 it will not use this program in any manner prohibited above.
 ---------------------------------------------------------------
  

 Cite this work as:
 Gaussian 09, Revision D.01,
 M. J. Frisch, G. W. Trucks, H. B. Schlegel, G. E. Scuseria, 
 M. A. Robb, J. R. Cheeseman, G. Scalmani, V. Barone, B. Mennucci, 
 G. A. Petersson, H. Nakatsuji, M. Caricato, X. Li, H. P. Hratchian, 
 A. F. Izmaylov, J. Bloino, G. Zheng, J. L. Sonnenberg, M. Hada, 
 M. Ehara, K. Toyota, R. Fukuda, J. Hasegawa, M. Ishida, T. Nakajima, 
 Y. Honda, O. Kitao, H. Nakai, T. Vreven, J. A. Montgomery, Jr., 
 J. E. Peralta, F. Ogliaro, M. Bearpark, J. J. Heyd, E. Brothers, 
 K. N. Kudin, V. N. Staroverov, T. Keith, R. Kobayashi, J. Normand, 
 K. Raghavachari, A. Rendell, J. C. Burant, S. S. Iyengar, J. Tomasi, 
 M. Cossi, N. Rega, J. M. Millam, M. Klene, J. E. Knox, J. B. Cross, 
 V. Bakken, C. Adamo, J. Jaramillo, R. Gomperts, R. E. Stratmann, 
 O. Yazyev, A. J. Austin, R. Cammi, C. Pomelli, J. W. Ochterski, 
 R. L. Martin, K. Morokuma, V. G. Zakrzewski, G. A. Voth, 
 P. Salvador, J. J. Dannenberg, S. Dapprich, A. D. Daniels, 
 O. Farkas, J. B. Foresman, J. V. Ortiz, J. Cioslowski, 
 and D. J. Fox, Gaussian, Inc., Wallingford CT, 2013.
 
 ******************************************
 Gaussian 09:  AM64L-G09RevD.01 24-Apr-2013
                 6-Aug-2020 
 ******************************************
 %nproc=1
 Will use up to    1 processors via shared memory.
 %Chk=SM44.n.10.pdb.xyz.mst.n.w.chk
 %subst l502 /dades/curu/work_g09D01_MST_AddSphPartition_ReadGammas/exe-dir/
 ----------------------------------------------------------------------
 #p b3lyp/6-31G(d) scrf=(iefpcm,read,solvent=Water) geom=allcheck guess
 =read
 ----------------------------------------------------------------------
 1/29=7,38=1,40=2/1;
 2/12=2,40=1/2;
 3/5=1,6=6,7=1,11=2,14=-4,16=1,25=1,30=1,70=2203,72=1,74=-5,116=-2/1,2,3;
 4/5=1/1;
 5/5=2,38=6,53=1/2;
 6/7=2,8=2,9=2,10=2,28=1/1;
 99/5=1,9=1/99;
 Leave Link    1 at Thu Aug  6 21:59:03 2020, MaxMem=           0 cpu:         0.0
 (Enter /prod/apps/gaussian/g09d1/l101.exe)
 Structure from the checkpoint file:  "SM44.n.10.pdb.xyz.mst.n.w.chk"
 -----------------
 SM44.n.10.pdb.xyz
 -----------------
 Charge =  0 Multiplicity = 1
 Z-Matrix found in file.
 O,0,3.58,-0.624,-2.104
 S,0,3.11,-1.838,-1.428
 N,0,2.851,-1.367,0.181
 C,0,2.392,-2.31,1.122
 N,0,3.222,-3.245,1.661
 N,0,2.549,-3.953,2.529
 C,0,1.143,-2.442,1.691
 N,0,1.284,-3.466,2.566
 C,0,0.313,-4.028,3.444
 C,0,0.466,-5.346,3.878
 C,0,-0.484,-5.89,4.74
 C,0,-1.581,-5.131,5.154
 C,0,-1.724,-3.817,4.707
 C,0,-0.775,-3.255,3.854
 C,0,1.514,-2.299,-2.107
 O,0,3.96,-3.033,-1.398
 H,0,2.357,-0.474,0.211
 H,0,0.217,-1.915,1.537
 H,0,1.314,-5.926,3.538
 H,0,-0.369,-6.913,5.08
 H,0,-2.32,-5.562,5.821
 H,0,-2.569,-3.22,5.027
 H,0,-0.873,-2.228,3.523
 H,0,0.862,-1.427,-2.087
 H,0,1.1,-3.113,-1.512
 H,0,1.687,-2.628,-3.133
 Recover connectivity data from disk.
 NAtoms=     26 NQM=       26 NQMF=       0 NMMI=      0 NMMIF=      0
                NMic=       0 NMicF=      0.
                    Isotopes and Nuclear Properties:
 (Nuclear quadrupole moments (NQMom) in fm**2, nuclear magnetic moments (NMagM)
  in nuclear magnetons)

  Atom         1           2           3           4           5           6           7           8           9          10
 IAtWgt=          16          32          14          12          14          14          12          14          12          12
 AtmWgt=  15.9949146  31.9720718  14.0030740  12.0000000  14.0030740  14.0030740  12.0000000  14.0030740  12.0000000  12.0000000
 NucSpn=           0           0           2           0           2           2           0           2           0           0
 AtZEff=  -5.6000000 -13.6000000  -4.5500000  -3.6000000  -4.5500000  -4.5500000  -3.6000000  -4.5500000  -3.6000000  -3.6000000
 NQMom=    0.0000000   0.0000000   2.0440000   0.0000000   2.0440000   2.0440000   0.0000000   2.0440000   0.0000000   0.0000000
 NMagM=    0.0000000   0.0000000   0.4037610   0.0000000   0.4037610   0.4037610   0.0000000   0.4037610   0.0000000   0.0000000
 AtZNuc=   8.0000000  16.0000000   7.0000000   6.0000000   7.0000000   7.0000000   6.0000000   7.0000000   6.0000000   6.0000000

  Atom        11          12          13          14          15          16          17          18          19          20
 IAtWgt=          12          12          12          12          12          16           1           1           1           1
 AtmWgt=  12.0000000  12.0000000  12.0000000  12.0000000  12.0000000  15.9949146   1.0078250   1.0078250   1.0078250   1.0078250
 NucSpn=           0           0           0           0           0           0           1           1           1           1
 AtZEff=  -3.6000000  -3.6000000  -3.6000000  -3.6000000  -3.6000000  -5.6000000  -1.0000000  -1.0000000  -1.0000000  -1.0000000
 NQMom=    0.0000000   0.0000000   0.0000000   0.0000000   0.0000000   0.0000000   0.0000000   0.0000000   0.0000000   0.0000000
 NMagM=    0.0000000   0.0000000   0.0000000   0.0000000   0.0000000   0.0000000   2.7928460   2.7928460   2.7928460   2.7928460
 AtZNuc=   6.0000000   6.0000000   6.0000000   6.0000000   6.0000000   8.0000000   1.0000000   1.0000000   1.0000000   1.0000000

  Atom        21          22          23          24          25          26
 IAtWgt=           1           1           1           1           1           1
 AtmWgt=   1.0078250   1.0078250   1.0078250   1.0078250   1.0078250   1.0078250
 NucSpn=           1           1           1           1           1           1
 AtZEff=  -1.0000000  -1.0000000  -1.0000000  -1.0000000  -1.0000000  -1.0000000
 NQMom=    0.0000000   0.0000000   0.0000000   0.0000000   0.0000000   0.0000000
 NMagM=    2.7928460   2.7928460   2.7928460   2.7928460   2.7928460   2.7928460
 AtZNuc=   1.0000000   1.0000000   1.0000000   1.0000000   1.0000000   1.0000000
 Leave Link  101 at Thu Aug  6 21:59:03 2020, MaxMem=    33554432 cpu:         0.1
 (Enter /prod/apps/gaussian/g09d1/l202.exe)
                          Input orientation:                          
 ---------------------------------------------------------------------
 Center     Atomic      Atomic             Coordinates (Angstroms)
 Number     Number       Type             X           Y           Z
 ---------------------------------------------------------------------
      1          8           0        3.580000   -0.624000   -2.104000
      2         16           0        3.110000   -1.838000   -1.428000
      3          7           0        2.851000   -1.367000    0.181000
      4          6           0        2.392000   -2.310000    1.122000
      5          7           0        3.222000   -3.245000    1.661000
      6          7           0        2.549000   -3.953000    2.529000
      7          6           0        1.143000   -2.442000    1.691000
      8          7           0        1.284000   -3.466000    2.566000
      9          6           0        0.313000   -4.028000    3.444000
     10          6           0        0.466000   -5.346000    3.878000
     11          6           0       -0.484000   -5.890000    4.740000
     12          6           0       -1.581000   -5.131000    5.154000
     13          6           0       -1.724000   -3.817000    4.707000
     14          6           0       -0.775000   -3.255000    3.854000
     15          6           0        1.514000   -2.299000   -2.107000
     16          8           0        3.960000   -3.033000   -1.398000
     17          1           0        2.357000   -0.474000    0.211000
     18          1           0        0.217000   -1.915000    1.537000
     19          1           0        1.314000   -5.926000    3.538000
     20          1           0       -0.369000   -6.913000    5.080000
     21          1           0       -2.320000   -5.562000    5.821000
     22          1           0       -2.569000   -3.220000    5.027000
     23          1           0       -0.873000   -2.228000    3.523000
     24          1           0        0.862000   -1.427000   -2.087000
     25          1           0        1.100000   -3.113000   -1.512000
     26          1           0        1.687000   -2.628000   -3.133000
 ---------------------------------------------------------------------
                    Distance matrix (angstroms):
                    1          2          3          4          5
     1  O    0.000000
     2  S    1.466858   0.000000
     3  N    2.510919   1.696409   0.000000
     4  C    3.828971   2.690875   1.409046   0.000000
     5  N    4.601416   3.396191   2.419695   1.361487   0.000000
     6  N    5.797404   4.521703   3.505953   2.168812   1.306758
     7  C    4.862727   3.736585   2.520514   1.378835   2.228890
     8  N    5.929374   4.683663   3.542529   2.156186   2.150281
     9  C    7.282912   6.029568   4.916252   3.558855   3.500637
    10  C    8.232776   6.888428   5.931987   4.530155   4.113979
    11  C    9.543961   8.208518   7.236314   5.846170   5.496426
    12  C    9.981359   8.727660   7.651212   6.324539   6.231120
    13  C    9.204205   8.057433   6.886058   5.662573   5.836798
    14  C    7.834919   6.708251   5.495757   4.287976   4.559096
    15  C    2.659697   1.794653   2.809117   3.346259   4.243820
    16  O    2.538920   1.466774   2.549250   3.054792   3.153897
    17  H    2.622490   2.261377   1.020973   2.049888   3.244868
    18  H    5.121848   4.143260   3.012805   2.249194   3.288510
    19  H    8.067101   6.678212   5.866541   4.480468   3.788318
    20  H   10.332278   8.956178   8.070113   6.669070   6.167582
    21  H   11.045337   9.792910   8.726217   7.406689   7.306699
    22  H    9.767322   8.707927   7.502914   6.378765   6.698228
    23  H    7.352901   6.366223   5.077249   4.053610   4.611980
    24  H    2.834188   2.378383   3.017208   3.663096   4.787716
    25  H    3.563143   2.381760   2.996793   3.041715   3.819455
    26  H    2.942500   2.357128   3.731972   4.324717   5.071425
                    6          7          8          9         10
     6  N    0.000000
     7  C    2.227600   0.000000
     8  N    1.356010   1.354283   0.000000
     9  C    2.417136   2.505455   1.424629   0.000000
    10  C    2.845899   3.697907   2.434105   1.396026   0.000000
    11  C    4.223693   4.881827   3.705115   2.404552   1.393370
    12  C    5.033409   5.161712   4.204544   2.779918   2.421696
    13  C    4.797990   4.382530   3.708793   2.406046   2.796638
    14  C    3.645793   3.003042   2.437816   1.396199   2.431653
    15  C    5.029855   3.818756   4.822004   5.936787   6.797260
    16  O    4.273014   4.222167   4.802266   6.142931   6.737520
    17  H    4.184905   2.745400   3.955935   5.221220   6.384290
    18  H    3.252035   1.076532   2.145444   2.847917   4.161015
    19  H    2.536934   3.947012   2.645238   2.147846   1.082176
    20  H    4.876877   5.810448   4.575414   3.385978   2.144182
    21  H    6.093710   6.227654   5.289334   3.864709   3.403484
    22  H    5.742057   5.051052   4.578498   3.385953   3.879601
    23  H    3.959008   2.732449   2.664797   2.157044   3.411872
    24  H    5.525767   3.922049   5.097648   6.136657   7.148189
    25  H    4.374344   3.272812   4.097383   5.100836   5.868590
    26  H    5.878513   4.858138   5.774362   6.863294   7.617906
                   11         12         13         14         15
    11  C    0.000000
    12  C    1.396741   0.000000
    13  C    2.415785   1.395297   0.000000
    14  C    2.795157   2.420540   1.394293   0.000000
    15  C    7.985530   8.385784   7.695425   6.456545   0.000000
    16  O    8.098557   8.833628   8.378158   7.074815   2.650350
    17  H    7.610268   7.850398   6.931394   5.551111   3.068289
    18  H    5.152789   5.163153   4.175402   2.854497   3.886953
    19  H    2.163077   3.409473   3.878645   3.405586   6.712761
    20  H    1.084137   2.156373   3.400054   3.879288   8.745722
    21  H    2.155700   1.084791   2.154353   3.402699   9.391481
    22  H    3.399779   2.155039   1.082975   2.143733   8.271220
    23  H    3.878486   3.404238   2.156613   1.083464   6.115530
    24  H    8.266681   8.492346   7.652315   6.427817   1.088985
    25  H    7.021986   7.462951   6.866335   5.685925   1.089962
    26  H    8.794203   9.253064   8.632163   7.434564   1.091259
                   16         17         18         19         20
    16  O    0.000000
    17  H    3.421545   0.000000
    18  H    4.886123   2.900751   0.000000
    19  H    6.303559   6.471559   4.614708   0.000000
    20  H    8.703972   8.520502   6.154368   2.486850   0.000000
    21  H    9.896878   8.901358   6.171680   4.307034   2.486098
    22  H    9.162065   7.416188   4.652410   4.961577   4.298960
    23  H    6.944217   4.947601   2.286977   4.296324   4.962609
    24  H    3.556903   2.902419   3.713158   7.217058   9.109196
    25  H    2.863389   3.393096   3.392830   5.784571   7.749350
    26  H    2.888041   4.033727   4.947542   7.451052   9.489032
                   21         22         23         24         25
    21  H    0.000000
    22  H    2.485438   0.000000
    23  H    4.300020   2.474368   0.000000
    24  H    9.474166   8.099111   5.926544   0.000000
    25  H    8.453809   7.498769   5.479706   1.797183   0.000000
    26  H   10.239068   9.222234   7.142544   1.793639   1.790931
                   26
    26  H    0.000000
 Stoichiometry    C9H10N4O2S
 Framework group  C1[X(C9H10N4O2S)]
 Deg. of freedom    72
 Full point group                 C1      NOp   1
 RotChk:  IX=0 Diff= 1.35D-15
 Largest Abelian subgroup         C1      NOp   1
 Largest concise Abelian subgroup C1      NOp   1
                         Standard orientation:                         
 ---------------------------------------------------------------------
 Center     Atomic      Atomic             Coordinates (Angstroms)
 Number     Number       Type             X           Y           Z
 ---------------------------------------------------------------------
      1          8           0        4.703344   -0.600308   -0.434779
      2         16           0        3.478267   -0.095434    0.194474
      3          7           0        2.279744   -0.258212   -0.995000
      4          6           0        0.958210    0.144538   -0.717960
      5          7           0        0.596875    1.457185   -0.711652
      6          7           0       -0.685046    1.538337   -0.471419
      7          6           0       -0.159139   -0.626288   -0.476003
      8          7           0       -1.160222    0.275323   -0.338122
      9          6           0       -2.543098    0.040324   -0.089128
     10          6           0       -3.308367    1.040537    0.513222
     11          6           0       -4.661417    0.807689    0.750957
     12          6           0       -5.241071   -0.414484    0.402847
     13          6           0       -4.462235   -1.407160   -0.192857
     14          6           0       -3.109779   -1.184150   -0.448167
     15          6           0        3.030295   -1.184863    1.548448
     16          8           0        3.422570    1.287887    0.678978
     17          1           0        2.351312   -1.172482   -1.443747
     18          1           0       -0.301058   -1.689908   -0.389442
     19          1           0       -2.842205    1.977253    0.789553
     20          1           0       -5.259718    1.581760    1.218082
     21          1           0       -6.293846   -0.591600    0.595370
     22          1           0       -4.904856   -2.355815   -0.470300
     23          1           0       -2.508428   -1.945713   -0.930134
     24          1           0        3.022523   -2.210423    1.182314
     25          1           0        2.049347   -0.894342    1.924421
     26          1           0        3.787496   -1.057713    2.323899
 ---------------------------------------------------------------------
 Rotational constants (GHZ):      1.6000227      0.1979755      0.1902452
 Leave Link  202 at Thu Aug  6 21:59:03 2020, MaxMem=    33554432 cpu:         0.0
 (Enter /prod/apps/gaussian/g09d1/l301.exe)
 Standard basis: 6-31G(d) (6D, 7F)
 Ernie: Thresh=  0.10000D-02 Tol=  0.10000D-05 Strict=F.
 There are   264 symmetry adapted cartesian basis functions of A   symmetry.
 There are   264 symmetry adapted basis functions of A   symmetry.
   264 basis functions,   512 primitive gaussians,   264 cartesian basis functions
    62 alpha electrons       62 beta electrons
       nuclear repulsion energy      1185.2234936339 Hartrees.
 IExCor=  402 DFT=T Ex+Corr=B3LYP ExCW=0 ScaHFX=  0.200000
 ScaDFX=  0.800000  0.720000  1.000000  0.810000 ScalE2=  1.000000  1.000000
 IRadAn=      0 IRanWt=     -1 IRanGd=            0 ICorTp=0 IEmpDi=  4
 NAtoms=   26 NActive=   26 NUniq=   26 SFac= 1.00D+00 NAtFMM=   60 NAOKFM=F Big=F
 Integral buffers will be    131072 words long.
 Raffenetti 2 integral format.
 Two-electron integral symmetry is turned on.
 Using the following non-standard input for PCM:
 MSTModel=DFT cav g03defaults OFac=0.8 Rmin=0.3
 Warning! Using old PCM defaults because the g03defaults keyword was found.
 These settings can be overridden by following keywords.
 --- end of non-standard input.
 MST model for solvation energy: B3LYP parametrization.
 MST cavity parameters:
 ISph   IAn     Re0     Alpha   Atom Type   QCorr
 ------------------------------------------------
   1      8     1.40     1.25      O          F
   2     16     1.75     1.25      S          F
   3      7     1.50     1.25      NH         F
   4      6     1.50     1.25      C          F
   5      7     1.40     1.25      N          F
   6      7     1.40     1.25      N          F
   7      6     1.50     1.25      CH         F
   8      7     1.40     1.25      N          F
   9      6     1.50     1.25      C          F
  10      6     1.50     1.25      CH         F
  11      6     1.50     1.25      CH         F
  12      6     1.50     1.25      CH         F
  13      6     1.50     1.25      CH         F
  14      6     1.50     1.25      CH         F
  15      6     1.50     1.25      CH3        F
  16      8     1.40     1.25      O          F
  17      1     0.90     1.25      NH         F
  18      1     1.20     1.25      CH         F
  19      1     1.20     1.25      CH         F
  20      1     1.20     1.25      CH         F
  21      1     1.20     1.25      CH         F
  22      1     1.20     1.25      CH         F
  23      1     1.20     1.25      CH         F
  24      1     1.20     1.25      CH3        F
  25      1     1.20     1.25      CH3        F
  26      1     1.20     1.25      CH3        F
 ------------------------------------------------------------------------------
 Polarizable Continuum Model (PCM)
 =================================
 Model                : PCM (using non-symmetric T matrix).
 Atomic radii         : MST.
 Polarization charges : Total charges.
 Charge compensation  : None.
 Solution method      : On-the-fly selection.
 Cavity type          : Scaled SES (Solvent Excluding Surface) (Alpha=1.250).
 Cavity algorithm     : GePol (RMin=0.300 OFac=0.800).
                        Default sphere list used, NSphG=   26.
                        Tesserae with average area of 0.200 Ang**2.
                        Smoothing algorithm: None.
                        Polarization charges: point-like.
                        Self-potential: constant (ISelfS= 1).
                        Self-field    : global E.n sum rule (ISelfD= 3).
 Solvent              : Water, Eps=  78.355300 Eps(inf)=   1.777849
                        RSolv=   1.385000 Ang.
 ------------------------------------------------------------------------------
 GePol: Number of generator spheres                  =      26
 GePol: Total number of spheres                      =      63
 GePol: Number of exposed spheres                    =      62 ( 98.41%)
 GePol: Number of tesserae                           =    2161
 GePol: Average area of tesserae                     =       0.12 Ang**2
 GePol: Minimum area of tessera                      =   0.11D-02 Ang**2
 GePol: Maximum area of tessera                      =    0.30575 Ang**2
 GePol: Number of small tesserae                     =      10
 GePol: Fraction of small tesserae (<1% of avg)      =       0.46%
 GePol: Total count of vertices                      =    7569
 GePol: Maximum number of vertices in a tessera      =       7
 GePol: Cavity surface area                          =    266.101 Ang**2
 GePol: Cavity volume                                =    259.944 Ang**3
 PCM non-electrostatic energy =         0.0029776198 Hartrees.
 Nuclear repulsion after PCM non-electrostatic terms =     1185.2264712536 Hartrees.
 Leave Link  301 at Thu Aug  6 21:59:03 2020, MaxMem=    33554432 cpu:         0.1
 (Enter /prod/apps/gaussian/g09d1/l302.exe)
 NPDir=0 NMtPBC=     1 NCelOv=     1 NCel=       1 NClECP=     1 NCelD=      1
         NCelK=      1 NCelE2=     1 NClLst=     1 CellRange=     0.0.
 One-electron integrals computed using PRISM.
 NBasis=   264 RedAO= T EigKep=  4.67D-04  NBF=   264
 NBsUse=   264 1.00D-06 EigRej= -1.00D+00 NBFU=   264
 Precomputing XC quadrature grid using
 IXCGrd= 4 IRadAn=           0 IRanWt=          -1 IRanGd=           0 AccXCQ= 0.00D+00.
 Generated NRdTot=       0 NPtTot=           0 NUsed=           0 NTot=          32
 NSgBfM=   262   262   262   262   262 MxSgAt=    26 MxSgA2=    26.
 Leave Link  302 at Thu Aug  6 21:59:04 2020, MaxMem=    33554432 cpu:         0.8
 (Enter /prod/apps/gaussian/g09d1/l303.exe)
 DipDrv:  MaxL=1.
 Leave Link  303 at Thu Aug  6 21:59:04 2020, MaxMem=    33554432 cpu:         0.0
 (Enter /prod/apps/gaussian/g09d1/l401.exe)
 Initial guess from the checkpoint file:  "SM44.n.10.pdb.xyz.mst.n.w.chk"
 B after Tr=     0.000000    0.000000    0.000000
         Rot=    1.000000    0.000000    0.000000    0.000000 Ang=   0.00 deg.
 Guess basis will be translated and rotated to current coordinates.
 JPrj=2 DoOrth=T DoCkMO=T.
 Leave Link  401 at Thu Aug  6 21:59:04 2020, MaxMem=    33554432 cpu:         0.2
 (Enter /dades/curu/work_g09D01_MST_AddSphPartition_ReadGammas/exe-dir/l502.exe)
 Closed shell SCF:
 Using DIIS extrapolation, IDIIS=  1040.
 Integral symmetry usage will be decided dynamically.
 IVT=      231207 IEndB=      231207 NGot=    33554432 MDV=    33409826
 LenX=    33409826 LenY=    33339689
 Requested convergence on RMS density matrix=1.00D-08 within 128 cycles.
 Requested convergence on MAX density matrix=1.00D-06.
 Requested convergence on             energy=1.00D-06.
 No special actions if energy rises.
 Fock matrices will be formed incrementally for  20 cycles.

 Cycle   1  Pass 1  IDiag  1:
 FoFJK:  IHMeth= 1 ICntrl=       0 DoSepK=F KAlg= 0 I1Cent=   0 FoldK=F
 IRaf= 770000000 NMat=   1 IRICut=       1 DoRegI=T DoRafI=F ISym2E= 0.
 FoFCou: FMM=F IPFlag=           0 FMFlag=      100000 FMFlg1=           0
         NFxFlg=           0 DoJE=F BraDBF=F KetDBF=F FulRan=T
         wScrn=  0.000000 ICntrl=       0 IOpCl=  0 I1Cent=           0 NGrid=           0
         NMat0=    1 NMatS0=      1 NMatT0=    0 NMatD0=    1 NMtDS0=    0 NMtDT0=    0
 Symmetry not used in FoFCou.
 Inv3:  Mode=1 IEnd=    14009763.
 Iteration    1 A*A^-1 deviation from unit magnitude is 5.00D-15 for   2131.
 Iteration    1 A*A^-1 deviation from orthogonality  is 3.25D-15 for   2127   1327.
 Iteration    1 A^-1*A deviation from unit magnitude is 5.11D-15 for   2131.
 Iteration    1 A^-1*A deviation from orthogonality  is 1.87D-15 for   2127   1327.
 E= -1116.52878990968    
 DIIS: error= 2.71D-03 at cycle   1 NSaved=   1.
 NSaved= 1 IEnMin= 1 EnMin= -1116.52878990968     IErMin= 1 ErrMin= 2.71D-03
 ErrMax= 2.71D-03  0.00D+00 EMaxC= 1.00D-01 BMatC= 3.06D-03 BMatP= 3.06D-03
 IDIUse=3 WtCom= 9.73D-01 WtEn= 2.71D-02
 Coeff-Com:  0.100D+01
 Coeff-En:   0.100D+01
 Coeff:      0.100D+01
 Gap=     0.200 Goal=   None    Shift=    0.000
 GapD=    0.200 DampG=1.000 DampE=1.000 DampFc=1.0000 IDamp=-1.
 RMSDP=1.11D-03 MaxDP=2.79D-02              OVMax= 4.64D-02

 Cycle   2  Pass 1  IDiag  1:
 RMSU=  1.10D-03    CP:  9.93D-01
 E= -1116.53263684888     Delta-E=       -0.003846939198 Rises=F Damp=F
 DIIS: error= 2.50D-03 at cycle   2 NSaved=   2.
 NSaved= 2 IEnMin= 2 EnMin= -1116.53263684888     IErMin= 2 ErrMin= 2.50D-03
 ErrMax= 2.50D-03  0.00D+00 EMaxC= 1.00D-01 BMatC= 4.31D-03 BMatP= 3.06D-03
 IDIUse=3 WtCom= 1.67D-01 WtEn= 8.33D-01
 Coeff-Com:  0.560D+00 0.440D+00
 Coeff-En:   0.191D+00 0.809D+00
 Coeff:      0.253D+00 0.747D+00
 Gap=     0.200 Goal=   None    Shift=    0.000
 RMSDP=5.37D-04 MaxDP=1.95D-02 DE=-3.85D-03 OVMax= 3.60D-02

 Cycle   3  Pass 1  IDiag  1:
 RMSU=  4.67D-04    CP:  9.94D-01  7.60D-01
 E= -1116.53152665564     Delta-E=        0.001110193245 Rises=F Damp=F
 DIIS: error= 3.01D-03 at cycle   3 NSaved=   3.
 NSaved= 3 IEnMin= 2 EnMin= -1116.53263684888     IErMin= 2 ErrMin= 2.50D-03
 ErrMax= 3.01D-03  0.00D+00 EMaxC= 1.00D-01 BMatC= 5.81D-03 BMatP= 3.06D-03
 IDIUse=3 WtCom= 1.54D-01 WtEn= 8.46D-01
 Coeff-Com:  0.778D-01 0.508D+00 0.414D+00
 Coeff-En:   0.000D+00 0.548D+00 0.452D+00
 Coeff:      0.120D-01 0.542D+00 0.446D+00
 Gap=     0.199 Goal=   None    Shift=    0.000
 RMSDP=2.63D-04 MaxDP=1.03D-02 DE= 1.11D-03 OVMax= 2.05D-02

 Cycle   4  Pass 1  IDiag  1:
 RMSU=  8.86D-05    CP:  9.93D-01  8.90D-01  5.68D-01
 E= -1116.53656920826     Delta-E=       -0.005042552618 Rises=F Damp=F
 DIIS: error= 2.49D-04 at cycle   4 NSaved=   4.
[...]
   23      H23      8.36  -0.041   -0.75
   24      H24     10.94  -0.064   -0.92
   25      H25      8.99  -0.052   -0.57
   26      H26     12.78  -0.075   -0.54
 Added spheres:    27.93  -0.097    0.00
 --------------------------------------------------------------------
 After PCM corrections, the energy is  -1116.53661918     a.u.
 --------------------------------------------------------------------
 Leave Link  502 at Thu Aug  6 22:01:31 2020, MaxMem=    33554432 cpu:       146.8
 (Enter /prod/apps/gaussian/g09d1/l601.exe)
 Copying SCF densities to generalized density rwf, IOpCl= 0 IROHF=0.

 **********************************************************************

            Population analysis using the SCF density.

 **********************************************************************

 Orbital symmetries:
       Occupied  (A) (A) (A) (A) (A) (A) (A) (A) (A) (A) (A) (A)
                 (A) (A) (A) (A) (A) (A) (A) (A) (A) (A) (A) (A)
                 (A) (A) (A) (A) (A) (A) (A) (A) (A) (A) (A) (A)
                 (A) (A) (A) (A) (A) (A) (A) (A) (A) (A) (A) (A)
                 (A) (A) (A) (A) (A) (A) (A) (A) (A) (A) (A) (A)
                 (A) (A)
       Virtual   (A) (A) (A) (A) (A) (A) (A) (A) (A) (A) (A) (A)
                 (A) (A) (A) (A) (A) (A) (A) (A) (A) (A) (A) (A)
                 (A) (A) (A) (A) (A) (A) (A) (A) (A) (A) (A) (A)
                 (A) (A) (A) (A) (A) (A) (A) (A) (A) (A) (A) (A)
                 (A) (A) (A) (A) (A) (A) (A) (A) (A) (A) (A) (A)
                 (A) (A) (A) (A) (A) (A) (A) (A) (A) (A) (A) (A)
                 (A) (A) (A) (A) (A) (A) (A) (A) (A) (A) (A) (A)
                 (A) (A) (A) (A) (A) (A) (A) (A) (A) (A) (A) (A)
                 (A) (A) (A) (A) (A) (A) (A) (A) (A) (A) (A) (A)
                 (A) (A) (A) (A) (A) (A) (A) (A) (A) (A) (A) (A)
                 (A) (A) (A) (A) (A) (A) (A) (A) (A) (A) (A) (A)
                 (A) (A) (A) (A) (A) (A) (A) (A) (A) (A) (A) (A)
                 (A) (A) (A) (A) (A) (A) (A) (A) (A) (A) (A) (A)
                 (A) (A) (A) (A) (A) (A) (A) (A) (A) (A) (A) (A)
                 (A) (A) (A) (A) (A) (A) (A) (A) (A) (A) (A) (A)
                 (A) (A) (A) (A) (A) (A) (A) (A) (A) (A) (A) (A)
                 (A) (A) (A) (A) (A) (A) (A) (A) (A) (A)
 The electronic state is 1-A.
 Alpha  occ. eigenvalues --  -89.12646 -19.15706 -19.15696 -14.44883 -14.40654
 Alpha  occ. eigenvalues --  -14.38689 -14.37327 -10.26696 -10.25261 -10.24767
 Alpha  occ. eigenvalues --  -10.22632 -10.20823 -10.20526 -10.20303 -10.20250
 Alpha  occ. eigenvalues --  -10.20009  -8.15231  -6.11732  -6.11654  -6.11503
 Alpha  occ. eigenvalues --   -1.12532  -1.11539  -1.01434  -0.96025  -0.93274
 Alpha  occ. eigenvalues --   -0.86274  -0.81475  -0.77736  -0.76521  -0.75966
 Alpha  occ. eigenvalues --   -0.67031  -0.66624  -0.63259  -0.61071  -0.58920
 Alpha  occ. eigenvalues --   -0.56678  -0.54085  -0.52767  -0.50012  -0.49932
 Alpha  occ. eigenvalues --   -0.48886  -0.48481  -0.47167  -0.45574  -0.44694
 Alpha  occ. eigenvalues --   -0.43989  -0.43535  -0.43476  -0.39042  -0.37418
 Alpha  occ. eigenvalues --   -0.36601  -0.36128  -0.35047  -0.34270  -0.33173
 Alpha  occ. eigenvalues --   -0.32192  -0.32052  -0.31520  -0.29153  -0.26888
 Alpha  occ. eigenvalues --   -0.26540  -0.24508
 Alpha virt. eigenvalues --   -0.04651  -0.01606   0.00964   0.01899   0.06672
 Alpha virt. eigenvalues --    0.07209   0.08884   0.09679   0.10142   0.10756
 Alpha virt. eigenvalues --    0.12196   0.13530   0.14922   0.15085   0.15388
 Alpha virt. eigenvalues --    0.15959   0.16332   0.18310   0.18997   0.19673
 Alpha virt. eigenvalues --    0.21278   0.23177   0.24383   0.29273   0.30128
 Alpha virt. eigenvalues --    0.30965   0.32600   0.33410   0.35403   0.36261
 Alpha virt. eigenvalues --    0.38887   0.42232   0.42728   0.43170   0.48274
 Alpha virt. eigenvalues --    0.48520   0.50017   0.51657   0.51816   0.52665
 Alpha virt. eigenvalues --    0.54066   0.54637   0.55574   0.57138   0.57621
 Alpha virt. eigenvalues --    0.58074   0.58578   0.59857   0.60584   0.60687
 Alpha virt. eigenvalues --    0.61080   0.62507   0.63175   0.64076   0.66273
 Alpha virt. eigenvalues --    0.67612   0.68642   0.70137   0.70274   0.72628
 Alpha virt. eigenvalues --    0.74075   0.77342   0.77424   0.78541   0.79146
 Alpha virt. eigenvalues --    0.80727   0.83007   0.83539   0.83853   0.84368
 Alpha virt. eigenvalues --    0.84581   0.85274   0.86589   0.86840   0.87771
 Alpha virt. eigenvalues --    0.89161   0.90124   0.91423   0.93215   0.93695
 Alpha virt. eigenvalues --    0.95384   0.96471   0.97340   0.99083   1.00578
 Alpha virt. eigenvalues --    1.01066   1.02447   1.03808   1.05820   1.06538
 Alpha virt. eigenvalues --    1.07683   1.10398   1.12595   1.15295   1.15381
 Alpha virt. eigenvalues --    1.16412   1.17709   1.19059   1.19362   1.24104
 Alpha virt. eigenvalues --    1.24275   1.25536   1.30554   1.31824   1.35314
 Alpha virt. eigenvalues --    1.36853   1.39797   1.41659   1.42417   1.44032
 Alpha virt. eigenvalues --    1.45626   1.46703   1.47784   1.49676   1.51345
 Alpha virt. eigenvalues --    1.52043   1.56022   1.57743   1.60888   1.64251
 Alpha virt. eigenvalues --    1.68533   1.71771   1.74382   1.77411   1.78462
 Alpha virt. eigenvalues --    1.78958   1.79547   1.80565   1.81140   1.83762
 Alpha virt. eigenvalues --    1.85074   1.86272   1.87849   1.89904   1.90793
 Alpha virt. eigenvalues --    1.94206   1.95913   1.96645   2.00250   2.03115
 Alpha virt. eigenvalues --    2.05169   2.05709   2.07447   2.08754   2.10620
 Alpha virt. eigenvalues --    2.10781   2.12920   2.13591   2.14545   2.16721
 Alpha virt. eigenvalues --    2.19466   2.19719   2.21428   2.22592   2.24341
 Alpha virt. eigenvalues --    2.25901   2.27765   2.29000   2.30355   2.31686
 Alpha virt. eigenvalues --    2.33841   2.36907   2.38080   2.48321   2.50844
 Alpha virt. eigenvalues --    2.52933   2.56551   2.57942   2.58998   2.62972
 Alpha virt. eigenvalues --    2.64047   2.66856   2.69532   2.71524   2.72862
 Alpha virt. eigenvalues --    2.73785   2.75596   2.76601   2.81673   2.86236
 Alpha virt. eigenvalues --    2.88583   3.00084   3.05804   3.12933   3.25277
 Alpha virt. eigenvalues --    3.42116   3.60325   3.75658   3.87885   3.93800
 Alpha virt. eigenvalues --    3.96709   4.06206   4.07774   4.09931   4.10594
 Alpha virt. eigenvalues --    4.15186   4.19017   4.23364   4.31584   4.38964
 Alpha virt. eigenvalues --    4.48433   4.70871
          Condensed to atoms (all electrons):
               1          2          3          4          5          6
     1  O    8.265707   0.448482  -0.051277   0.001590  -0.000018   0.000000
     2  S    0.448482  13.634876   0.133820  -0.018237   0.002457   0.000111
     3  N   -0.051277   0.133820   7.376252   0.255247  -0.058085   0.005646
     4  C    0.001590  -0.018237   0.255247   4.662208   0.368749  -0.082127
     5  N   -0.000018   0.002457  -0.058085   0.368749   6.886760   0.301015
     6  N    0.000000   0.000111   0.005646  -0.082127   0.301015   6.771898
     7  C   -0.000036  -0.004777  -0.071831   0.519568  -0.071157  -0.099818
     8  N    0.000000   0.000299   0.003339  -0.036576  -0.094505   0.229149
     9  C    0.000000  -0.000012  -0.000122   0.004209   0.006507  -0.043449
    10  C    0.000000   0.000000   0.000001  -0.000400   0.000356  -0.000263
    11  C    0.000000   0.000000   0.000000   0.000006  -0.000004   0.000288
    12  C    0.000000   0.000000   0.000000   0.000000   0.000000   0.000017
    13  C    0.000000   0.000000   0.000000  -0.000009   0.000002  -0.000067
    14  C    0.000000   0.000000   0.000004   0.000970  -0.000330   0.002964
    15  C   -0.058216   0.233940  -0.060946  -0.001435  -0.000045   0.000005
    16  O   -0.044002   0.442952  -0.051809  -0.001078   0.001018   0.000044
    17  H    0.000999  -0.004327   0.299060  -0.026683   0.001855  -0.000072
    18  H    0.000000  -0.000021  -0.000519  -0.025638   0.004032   0.003451
    19  H    0.000000   0.000000   0.000000   0.000043  -0.000324   0.015927
    20  H    0.000000   0.000000   0.000000   0.000000   0.000000  -0.000008
    21  H    0.000000   0.000000   0.000000   0.000000   0.000000   0.000000
    22  H    0.000000   0.000000   0.000000   0.000000   0.000000   0.000001
    23  H    0.000000   0.000000   0.000000   0.000064  -0.000007  -0.000086
    24  H    0.000026  -0.008753   0.000149   0.000226  -0.000004  -0.000001
    25  H    0.001796  -0.008572  -0.002428   0.002708  -0.000009  -0.000047
    26  H   -0.000453  -0.012954   0.002217   0.000018  -0.000002   0.000000
               7          8          9         10         11         12
     1  O   -0.000036   0.000000   0.000000   0.000000   0.000000   0.000000
     2  S   -0.004777   0.000299  -0.000012   0.000000   0.000000   0.000000
     3  N   -0.071831   0.003339  -0.000122   0.000001   0.000000   0.000000
     4  C    0.519568  -0.036576   0.004209  -0.000400   0.000006   0.000000
     5  N   -0.071157  -0.094505   0.006507   0.000356  -0.000004   0.000000
     6  N   -0.099818   0.229149  -0.043449  -0.000263   0.000288   0.000017
     7  C    5.008518   0.332828  -0.031464   0.007301  -0.000087   0.000020
     8  N    0.332828   6.876590   0.198238  -0.058737   0.004566   0.000331
     9  C   -0.031464   0.198238   4.625346   0.513757  -0.010709  -0.038244
    10  C    0.007301  -0.058737   0.513757   4.996725   0.519575  -0.039354
    11  C   -0.000087   0.004566  -0.010709   0.519575   4.879779   0.539358
    12  C    0.000020   0.000331  -0.038244  -0.039354   0.539358   4.870982
    13  C    0.000003   0.004665  -0.009760  -0.041404  -0.024803   0.544257
    14  C   -0.006882  -0.050562   0.528739  -0.071569  -0.042303  -0.040973
    15  C    0.000091  -0.000022  -0.000001   0.000000   0.000000   0.000000
    16  O   -0.000124   0.000003   0.000000   0.000000   0.000000   0.000000
    17  H   -0.001490   0.000004   0.000002   0.000000   0.000000   0.000000
    18  H    0.361601  -0.033306  -0.001756  -0.000102  -0.000004  -0.000001
    19  H    0.000225  -0.013531  -0.039338   0.356795  -0.037923   0.004501
    20  H    0.000001  -0.000103   0.003539  -0.037674   0.363940  -0.039883
    21  H    0.000000   0.000003   0.000480   0.004658  -0.041306   0.365790
    22  H   -0.000004  -0.000109   0.003439   0.000731   0.004437  -0.039429
    23  H    0.005863  -0.009237  -0.039688   0.005241   0.000214   0.004296
    24  H    0.000211   0.000000   0.000000   0.000000   0.000000   0.000000
    25  H    0.002926  -0.000105   0.000003   0.000000   0.000000   0.000000
    26  H   -0.000020   0.000001   0.000000   0.000000   0.000000   0.000000
              13         14         15         16         17         18
     1  O    0.000000   0.000000  -0.058216  -0.044002   0.000999   0.000000
     2  S    0.000000   0.000000   0.233940   0.442952  -0.004327  -0.000021
     3  N    0.000000   0.000004  -0.060946  -0.051809   0.299060  -0.000519
     4  C   -0.000009   0.000970  -0.001435  -0.001078  -0.026683  -0.025638
     5  N    0.000002  -0.000330  -0.000045   0.001018   0.001855   0.004032
     6  N   -0.000067   0.002964   0.000005   0.000044  -0.000072   0.003451
     7  C    0.000003  -0.006882   0.000091  -0.000124  -0.001490   0.361601
     8  N    0.004665  -0.050562  -0.000022   0.000003   0.000004  -0.033306
     9  C   -0.009760   0.528739  -0.000001   0.000000   0.000002  -0.001756
    10  C   -0.041404  -0.071569   0.000000   0.000000   0.000000  -0.000102
    11  C   -0.024803  -0.042303   0.000000   0.000000   0.000000  -0.000004
    12  C    0.544257  -0.040973   0.000000   0.000000   0.000000  -0.000001
    13  C    4.862912   0.527639   0.000000   0.000000   0.000000   0.000166
    14  C    0.527639   4.993825   0.000000   0.000000   0.000000   0.002198
    15  C    0.000000   0.000000   5.536736  -0.058789   0.000068   0.000076
    16  O    0.000000   0.000000  -0.058789   8.272587   0.001289   0.000000
    17  H    0.000000   0.000000   0.000068   0.001289   0.303140   0.000741
    18  H    0.000166   0.002198   0.000076   0.000000   0.000741   0.456336
    19  H    0.000092   0.005476   0.000000   0.000000   0.000000  -0.000010
    20  H    0.004459   0.000711   0.000000   0.000000   0.000000   0.000000
    21  H   -0.041138   0.004882   0.000000   0.000000   0.000000   0.000000
    22  H    0.363659  -0.037569   0.000000   0.000000   0.000000  -0.000001
    23  H   -0.034562   0.353827   0.000000   0.000000   0.000000   0.001619
    24  H    0.000000   0.000000   0.343216   0.001868   0.000021   0.000027
    25  H    0.000000   0.000000   0.341202  -0.000242   0.000145   0.000089
    26  H    0.000000   0.000000   0.356215  -0.000103  -0.000007   0.000000
              19         20         21         22         23         24
     1  O    0.000000   0.000000   0.000000   0.000000   0.000000   0.000026
     2  S    0.000000   0.000000   0.000000   0.000000   0.000000  -0.008753
     3  N    0.000000   0.000000   0.000000   0.000000   0.000000   0.000149
     4  C    0.000043   0.000000   0.000000   0.000000   0.000064   0.000226
     5  N   -0.000324   0.000000   0.000000   0.000000  -0.000007  -0.000004
     6  N    0.015927  -0.000008   0.000000   0.000001  -0.000086  -0.000001
     7  C    0.000225   0.000001   0.000000  -0.000004   0.005863   0.000211
     8  N   -0.013531  -0.000103   0.000003  -0.000109  -0.009237   0.000000
     9  C   -0.039338   0.003539   0.000480   0.003439  -0.039688   0.000000
    10  C    0.356795  -0.037674   0.004658   0.000731   0.005241   0.000000
    11  C   -0.037923   0.363940  -0.041306   0.004437   0.000214   0.000000
    12  C    0.004501  -0.039883   0.365790  -0.039429   0.004296   0.000000
    13  C    0.000092   0.004459  -0.041138   0.363659  -0.034562   0.000000
    14  C    0.005476   0.000711   0.004882  -0.037569   0.353827   0.000000
    15  C    0.000000   0.000000   0.000000   0.000000   0.000000   0.343216
    16  O    0.000000   0.000000   0.000000   0.000000   0.000000   0.001868
    17  H    0.000000   0.000000   0.000000   0.000000   0.000000   0.000021
    18  H   -0.000010   0.000000   0.000000  -0.000001   0.001619   0.000027
    19  H    0.537428  -0.005090  -0.000133   0.000013  -0.000130   0.000000
    20  H   -0.005090   0.550401  -0.005051  -0.000164   0.000013   0.000000
    21  H   -0.000133  -0.005051   0.555963  -0.005059  -0.000144   0.000000
    22  H    0.000013  -0.000164  -0.005059   0.549615  -0.005083   0.000000
    23  H   -0.000130   0.000013  -0.000144  -0.005083   0.542704   0.000000
    24  H    0.000000   0.000000   0.000000   0.000000   0.000000   0.471067
    25  H    0.000000   0.000000   0.000000   0.000000   0.000000  -0.021134
    26  H    0.000000   0.000000   0.000000   0.000000   0.000000  -0.017286
              25         26
     1  O    0.001796  -0.000453
     2  S   -0.008572  -0.012954
     3  N   -0.002428   0.002217
     4  C    0.002708   0.000018
     5  N   -0.000009  -0.000002
     6  N   -0.000047   0.000000
     7  C    0.002926  -0.000020
     8  N   -0.000105   0.000001
     9  C    0.000003   0.000000
    10  C    0.000000   0.000000
    11  C    0.000000   0.000000
    12  C    0.000000   0.000000
    13  C    0.000000   0.000000
    14  C    0.000000   0.000000
    15  C    0.341202   0.356215
    16  O   -0.000242  -0.000103
    17  H    0.000145  -0.000007
    18  H    0.000089   0.000000
    19  H    0.000000   0.000000
    20  H    0.000000   0.000000
    21  H    0.000000   0.000000
    22  H    0.000000   0.000000
    23  H    0.000000   0.000000
    24  H   -0.021134  -0.017286
    25  H    0.474827  -0.018927
    26  H   -0.018927   0.449810
 Mulliken charges:
               1
     1  O   -0.564597
     2  S    1.160714
     3  N   -0.778717
     4  C    0.376578
     5  N   -0.348260
     6  N   -0.104580
     7  C    0.048533
     8  N   -0.353222
     9  C    0.330283
    10  C   -0.155638
    11  C   -0.155026
    12  C   -0.131666
    13  C   -0.156111
    14  C   -0.171047
    15  C   -0.632097
    16  O   -0.563615
    17  H    0.425255
    18  H    0.231021
    19  H    0.175981
    20  H    0.164909
    21  H    0.161054
    22  H    0.165524
    23  H    0.175096
    24  H    0.230366
    25  H    0.227769
    26  H    0.241492
 Sum of Mulliken charges =   0.00000
 Mulliken charges with hydrogens summed into heavy atoms:
               1
     1  O   -0.564597
     2  S    1.160714
     3  N   -0.353461
     4  C    0.376578
     5  N   -0.348260
     6  N   -0.104580
     7  C    0.279554
     8  N   -0.353222
     9  C    0.330283
    10  C    0.020343
    11  C    0.009883
    12  C    0.029388
    13  C    0.009412
    14  C    0.004049
    15  C    0.067529
    16  O   -0.563615
 Electronic spatial extent (au):  <R**2>=           5482.9078
 Charge=              0.0000 electrons
 Dipole moment (field-independent basis, Debye):
    X=             -7.9721    Y=             -9.8611    Z=              2.2269  Tot=             12.8746
 Quadrupole moment (field-independent basis, Debye-Ang):
   XX=           -109.1709   YY=            -97.6466   ZZ=            -95.4764
   XY=            -11.3707   XZ=              4.8795   YZ=              3.7111
 Traceless Quadrupole moment (field-independent basis, Debye-Ang):
   XX=             -8.4063   YY=              3.1180   ZZ=              5.2882
   XY=            -11.3707   XZ=              4.8795   YZ=              3.7111
 Octapole moment (field-independent basis, Debye-Ang**2):
  XXX=           -219.7509  YYY=            -36.4002  ZZZ=              7.0208  XYY=             -7.6585
  XXY=            -42.4823  XXZ=             48.9871  XZZ=             31.0367  YZZ=             -9.8894
  YYZ=              1.2869  XYZ=            -21.9078
 Hexadecapole moment (field-independent basis, Debye-Ang**3):
 XXXX=          -6288.5489 YYYY=           -631.5596 ZZZZ=           -363.2110 XXXY=             -3.4591
 XXXZ=             42.0723 YYYX=            -27.5163 YYYZ=             27.9158 ZZZX=             34.4192
 ZZZY=              3.9456 XXYY=          -1077.4302 XXZZ=          -1071.0218 YYZZ=           -163.6619
 XXYZ=              5.2563 YYXZ=             -2.3131 ZZXY=            -38.1728
 N-N= 1.185226471254D+03 E-N=-4.987336184653D+03  KE= 1.108376928845D+03
 No NMR shielding tensors so no spin-rotation constants.
 Leave Link  601 at Thu Aug  6 22:01:31 2020, MaxMem=    33554432 cpu:         0.2
 (Enter /prod/apps/gaussian/g09d1/l9999.exe)
 1\1\GINC-PIRINEUS17\SP\RB3LYP\6-31G(d)\C9H10N4O2S1\UBAFAR01\06-Aug-202
 0\0\\#p b3lyp/6-31G(d) scrf=(iefpcm,read,solvent=Water) geom=allcheck 
 guess=read\\SM44.n.10.pdb.xyz\\0,1\O,0,3.58,-0.624,-2.104\S,0,3.11,-1.
 838,-1.428\N,0,2.851,-1.367,0.181\C,0,2.392,-2.31,1.122\N,0,3.222,-3.2
 45,1.661\N,0,2.549,-3.953,2.529\C,0,1.143,-2.442,1.691\N,0,1.284,-3.46
 6,2.566\C,0,0.313,-4.028,3.444\C,0,0.466,-5.346,3.878\C,0,-0.484,-5.89
 ,4.74\C,0,-1.581,-5.131,5.154\C,0,-1.724,-3.817,4.707\C,0,-0.775,-3.25
 5,3.854\C,0,1.514,-2.299,-2.107\O,0,3.96,-3.033,-1.398\H,0,2.357,-0.47
 4,0.211\H,0,0.217,-1.915,1.537\H,0,1.314,-5.926,3.538\H,0,-0.369,-6.91
 3,5.08\H,0,-2.32,-5.562,5.821\H,0,-2.569,-3.22,5.027\H,0,-0.873,-2.228
 ,3.523\H,0,0.862,-1.427,-2.087\H,0,1.1,-3.113,-1.512\H,0,1.687,-2.628,
 -3.133\\Version=AM64L-G09RevD.01\State=1-A\HF=-1116.5366192\RMSD=4.418
 e-09\Dipole=-4.9077948,0.5272877,1.1367408\Quadrupole=-9.2035823,6.144
 0374,3.0595449,-3.7974316,6.4596558,0.3635239\PG=C01 [X(C9H10N4O2S1)]\
 \@


 Where a calculator on the ENIAC is equipped with 18,000
 vacuum tubes and weighs 30 tons, computers inthe future
 may  have only 1,000 vacuum tubes and weigh only 1 1/2 tons.
              ---Popular Mechanics, March 1949
 Job cpu time:       0 days  0 hours  2 minutes 28.4 seconds.
 File lengths (MBytes):  RWF=    118 Int=      0 D2E=      0 Chk=      5 Scr=      1
 Normal termination of Gaussian 09 at Thu Aug  6 22:01:31 2020.
