 Entering Gaussian System, Link 0=g09
 Initial command:
 /prod/apps/gaussian/g09d1/l1.exe "/tmp/ubafar01/1448613/Gau-29417.inp" -scrdir="/tmp/ubafar01/1448613/"
 Entering Link 1 = /prod/apps/gaussian/g09d1/l1.exe PID=     29418.
  
 Copyright (c) 1988,1990,1992,1993,1995,1998,2003,2009,2013,
            Gaussian, Inc.  All Rights Reserved.
  
 This is part of the Gaussian(R) 09 program.  It is based on
 the Gaussian(R) 03 system (copyright 2003, Gaussian, Inc.),
 the Gaussian(R) 98 system (copyright 1998, Gaussian, Inc.),
 the Gaussian(R) 94 system (copyright 1995, Gaussian, Inc.),
 the Gaussian 92(TM) system (copyright 1992, Gaussian, Inc.),
 the Gaussian 90(TM) system (copyright 1990, Gaussian, Inc.),
 the Gaussian 88(TM) system (copyright 1988, Gaussian, Inc.),
 the Gaussian 86(TM) system (copyright 1986, Carnegie Mellon
 University), and the Gaussian 82(TM) system (copyright 1983,
 Carnegie Mellon University). Gaussian is a federally registered
 trademark of Gaussian, Inc.
  
 This software contains proprietary and confidential information,
 including trade secrets, belonging to Gaussian, Inc.
  
 This software is provided under written license and may be
 used, copied, transmitted, or stored only in accord with that
 written license.
  
 The following legend is applicable only to US Government
 contracts under FAR:
  
                    RESTRICTED RIGHTS LEGEND
  
 Use, reproduction and disclosure by the US Government is
 subject to restrictions as set forth in subparagraphs (a)
 and (c) of the Commercial Computer Software - Restricted
 Rights clause in FAR 52.227-19.
  
 Gaussian, Inc.
 340 Quinnipiac St., Bldg. 40, Wallingford CT 06492
  
  
 ---------------------------------------------------------------
 Warning -- This program may not be used in any manner that
 competes with the business of Gaussian, Inc. or will provide
 assistance to any competitor of Gaussian, Inc.  The licensee
 of this program is prohibited from giving any competitor of
 Gaussian, Inc. access to this program.  By using this program,
 the user acknowledges that Gaussian, Inc. is engaged in the
 business of creating and licensing software in the field of
 computational chemistry and represents and warrants to the
 licensee that it is not a competitor of Gaussian, Inc. and that
 it will not use this program in any manner prohibited above.
 ---------------------------------------------------------------
  

 Cite this work as:
 Gaussian 09, Revision D.01,
 M. J. Frisch, G. W. Trucks, H. B. Schlegel, G. E. Scuseria, 
 M. A. Robb, J. R. Cheeseman, G. Scalmani, V. Barone, B. Mennucci, 
 G. A. Petersson, H. Nakatsuji, M. Caricato, X. Li, H. P. Hratchian, 
 A. F. Izmaylov, J. Bloino, G. Zheng, J. L. Sonnenberg, M. Hada, 
 M. Ehara, K. Toyota, R. Fukuda, J. Hasegawa, M. Ishida, T. Nakajima, 
 Y. Honda, O. Kitao, H. Nakai, T. Vreven, J. A. Montgomery, Jr., 
 J. E. Peralta, F. Ogliaro, M. Bearpark, J. J. Heyd, E. Brothers, 
 K. N. Kudin, V. N. Staroverov, T. Keith, R. Kobayashi, J. Normand, 
 K. Raghavachari, A. Rendell, J. C. Burant, S. S. Iyengar, J. Tomasi, 
 M. Cossi, N. Rega, J. M. Millam, M. Klene, J. E. Knox, J. B. Cross, 
 V. Bakken, C. Adamo, J. Jaramillo, R. Gomperts, R. E. Stratmann, 
 O. Yazyev, A. J. Austin, R. Cammi, C. Pomelli, J. W. Ochterski, 
 R. L. Martin, K. Morokuma, V. G. Zakrzewski, G. A. Voth, 
 P. Salvador, J. J. Dannenberg, S. Dapprich, A. D. Daniels, 
 O. Farkas, J. B. Foresman, J. V. Ortiz, J. Cioslowski, 
 and D. J. Fox, Gaussian, Inc., Wallingford CT, 2013.
 
 ******************************************
 Gaussian 09:  AM64L-G09RevD.01 24-Apr-2013
                 6-Aug-2020 
 ******************************************
 %nproc=1
 Will use up to    1 processors via shared memory.
 %Chk=SM44.n.3.pdb.xyz.mst.n.w.chk
 -----------------
 #p b3lyp/6-31G(d)
 -----------------
 1/38=1/1;
 2/12=2,17=6,18=5,40=1/2;
 3/5=1,6=6,7=1,11=2,16=1,25=1,30=1,74=-5/1,2,3;
 4//1;
 5/5=2,38=5/2;
 6/7=2,8=2,9=2,10=2,28=1/1;
 99/5=1,9=1/99;
 Leave Link    1 at Thu Aug  6 21:56:18 2020, MaxMem=           0 cpu:         0.0
 (Enter /prod/apps/gaussian/g09d1/l101.exe)
 ----------------
 SM44.n.3.pdb.xyz
 ----------------
 Symbolic Z-matrix:
 Charge =  0 Multiplicity = 1
 O                     3.533    -0.865    -2.147 
 S                     2.961    -2.042    -1.481 
 N                     2.865    -1.612     0.157 
 C                     2.394    -2.546     1.1 
 N                     3.192    -3.541     1.579 
 N                     2.52     -4.229     2.463 
 C                     1.167    -2.621     1.725 
 N                     1.288    -3.673     2.571 
 C                     0.327    -4.201     3.48 
 C                    -0.726    -3.395     3.916 
 C                    -1.667    -3.924     4.799 
 C                    -1.55     -5.24      5.249 
 C                    -0.488    -6.031     4.809 
 C                     0.453    -5.521     3.918 
 C                     1.281    -2.277    -2.068 
 O                     3.66     -3.33     -1.546 
 H                     2.465    -0.677     0.256 
 H                     0.268    -2.037     1.628 
 H                    -0.806    -2.368     3.581 
 H                    -2.486    -3.3       5.138 
 H                    -2.282    -5.646     5.939 
 H                    -0.392    -7.056     5.152 
 H                     1.274    -6.128     3.559 
 H                     0.742    -1.337    -1.964 
 H                     0.812    -3.067    -1.482 
 H                     1.349    -2.57     -3.116 
 
 NAtoms=     26 NQM=       26 NQMF=       0 NMMI=      0 NMMIF=      0
                NMic=       0 NMicF=      0.
                    Isotopes and Nuclear Properties:
 (Nuclear quadrupole moments (NQMom) in fm**2, nuclear magnetic moments (NMagM)
  in nuclear magnetons)

  Atom         1           2           3           4           5           6           7           8           9          10
 IAtWgt=          16          32          14          12          14          14          12          14          12          12
 AtmWgt=  15.9949146  31.9720718  14.0030740  12.0000000  14.0030740  14.0030740  12.0000000  14.0030740  12.0000000  12.0000000
 NucSpn=           0           0           2           0           2           2           0           2           0           0
 AtZEff=   0.0000000   0.0000000   0.0000000   0.0000000   0.0000000   0.0000000   0.0000000   0.0000000   0.0000000   0.0000000
 NQMom=    0.0000000   0.0000000   2.0440000   0.0000000   2.0440000   2.0440000   0.0000000   2.0440000   0.0000000   0.0000000
 NMagM=    0.0000000   0.0000000   0.4037610   0.0000000   0.4037610   0.4037610   0.0000000   0.4037610   0.0000000   0.0000000
 AtZNuc=   8.0000000  16.0000000   7.0000000   6.0000000   7.0000000   7.0000000   6.0000000   7.0000000   6.0000000   6.0000000

  Atom        11          12          13          14          15          16          17          18          19          20
 IAtWgt=          12          12          12          12          12          16           1           1           1           1
 AtmWgt=  12.0000000  12.0000000  12.0000000  12.0000000  12.0000000  15.9949146   1.0078250   1.0078250   1.0078250   1.0078250
 NucSpn=           0           0           0           0           0           0           1           1           1           1
 AtZEff=   0.0000000   0.0000000   0.0000000   0.0000000   0.0000000   0.0000000   0.0000000   0.0000000   0.0000000   0.0000000
 NQMom=    0.0000000   0.0000000   0.0000000   0.0000000   0.0000000   0.0000000   0.0000000   0.0000000   0.0000000   0.0000000
 NMagM=    0.0000000   0.0000000   0.0000000   0.0000000   0.0000000   0.0000000   2.7928460   2.7928460   2.7928460   2.7928460
 AtZNuc=   6.0000000   6.0000000   6.0000000   6.0000000   6.0000000   8.0000000   1.0000000   1.0000000   1.0000000   1.0000000

  Atom        21          22          23          24          25          26
 IAtWgt=           1           1           1           1           1           1
 AtmWgt=   1.0078250   1.0078250   1.0078250   1.0078250   1.0078250   1.0078250
 NucSpn=           1           1           1           1           1           1
 AtZEff=   0.0000000   0.0000000   0.0000000   0.0000000   0.0000000   0.0000000
 NQMom=    0.0000000   0.0000000   0.0000000   0.0000000   0.0000000   0.0000000
 NMagM=    2.7928460   2.7928460   2.7928460   2.7928460   2.7928460   2.7928460
 AtZNuc=   1.0000000   1.0000000   1.0000000   1.0000000   1.0000000   1.0000000
 Leave Link  101 at Thu Aug  6 21:56:18 2020, MaxMem=    33554432 cpu:         0.1
 (Enter /prod/apps/gaussian/g09d1/l202.exe)
                          Input orientation:                          
 ---------------------------------------------------------------------
 Center     Atomic      Atomic             Coordinates (Angstroms)
 Number     Number       Type             X           Y           Z
 ---------------------------------------------------------------------
      1          8           0        3.533000   -0.865000   -2.147000
      2         16           0        2.961000   -2.042000   -1.481000
      3          7           0        2.865000   -1.612000    0.157000
      4          6           0        2.394000   -2.546000    1.100000
      5          7           0        3.192000   -3.541000    1.579000
      6          7           0        2.520000   -4.229000    2.463000
      7          6           0        1.167000   -2.621000    1.725000
      8          7           0        1.288000   -3.673000    2.571000
      9          6           0        0.327000   -4.201000    3.480000
     10          6           0       -0.726000   -3.395000    3.916000
     11          6           0       -1.667000   -3.924000    4.799000
     12          6           0       -1.550000   -5.240000    5.249000
     13          6           0       -0.488000   -6.031000    4.809000
     14          6           0        0.453000   -5.521000    3.918000
     15          6           0        1.281000   -2.277000   -2.068000
     16          8           0        3.660000   -3.330000   -1.546000
     17          1           0        2.465000   -0.677000    0.256000
     18          1           0        0.268000   -2.037000    1.628000
     19          1           0       -0.806000   -2.368000    3.581000
     20          1           0       -2.486000   -3.300000    5.138000
     21          1           0       -2.282000   -5.646000    5.939000
     22          1           0       -0.392000   -7.056000    5.152000
     23          1           0        1.274000   -6.128000    3.559000
     24          1           0        0.742000   -1.337000   -1.964000
     25          1           0        0.812000   -3.067000   -1.482000
     26          1           0        1.349000   -2.570000   -3.116000
 ---------------------------------------------------------------------
                    Distance matrix (angstroms):
                    1          2          3          4          5
     1  O    0.000000
     2  S    1.468356   0.000000
     3  N    2.512499   1.696219   0.000000
     4  C    3.829633   2.690180   1.408349   0.000000
     5  N    4.600036   3.415254   2.418688   1.362450   0.000000
     6  N    5.796099   4.531290   3.505046   2.169363   1.306286
     7  C    4.865581   3.719155   2.521886   1.379050   2.228978
     8  N    5.931645   4.677370   3.544298   2.158056   2.150977
     9  C    7.284948   6.017538   4.917997   3.560325   3.501089
    10  C    7.829428   6.674742   5.495858   4.287780   4.564385
    11  C    9.200239   8.024881   6.887128   5.663321   5.841658
    12  C    9.983904   8.710294   7.653958   6.326687   6.232340
    13  C    9.552064   8.208034   7.239563   5.848746   5.493214
    14  C    8.243116   6.895122   5.936594   4.534229   4.110163
    15  C    2.659227   1.795047   2.811033   3.368583   4.306997
    16  O    2.540385   1.466891   2.546322   3.036236   3.166886
    17  H    2.636357   2.264158   1.021776   2.051960   3.237492
    18  H    5.126835   4.113168   3.014776   2.248942   3.288494
    19  H    7.341384   6.318260   5.076569   4.053029   4.622547
    20  H    9.758525   8.663921   7.502860   6.378743   6.705538
    21  H   11.047877   9.774163   8.729049   7.408839   7.307893
    22  H   10.344540   8.965461   8.074355   6.672376   6.161705
    23  H    8.084596   6.703951   5.873597   4.486848   3.780436
    24  H    2.836539   2.377872   3.013535   3.684953   4.838695
    25  H    3.562986   2.380930   3.003024   3.072603   3.906251
    26  H    2.935275   2.355961   3.732097   4.343646   5.136391
                    6          7          8          9         10
     6  N    0.000000
     7  C    2.227312   0.000000
     8  N    1.355959   1.355382   0.000000
     9  C    2.417503   2.506397   1.424284   0.000000
    10  C    3.652846   2.997166   2.437725   1.395902   0.000000
    11  C    4.804257   4.379365   3.709314   2.406767   1.394637
    12  C    5.034761   5.163315   4.204928   2.780649   2.420721
    13  C    4.218884   4.886531   3.704455   2.404031   2.793311
    14  C    2.838799   3.705273   2.434489   1.396467   2.431033
    15  C    5.086785   3.810273   4.844501   5.949134   6.409854
    16  O    4.263787   4.173388   4.763793   6.093292   7.005331
    17  H    4.182174   2.760779   3.964917   5.232953   5.564675
    18  H    3.251706   1.076413   2.146193   2.848909   2.840272
    19  H    3.971841   2.720565   2.666076   2.157262   1.083215
    20  H    5.751409   5.045198   4.579486   3.387290   2.144740
    21  H    6.095053   6.229287   5.289712   3.865435   3.403038
    22  H    4.868510   5.817563   4.574784   3.385789   3.878424
    23  H    2.521891   3.959047   2.646387   2.148576   3.405398
    24  H    5.578824   3.929122   5.130423   6.165376   6.400374
    25  H    4.453149   3.257267   4.125606   5.112986   5.622404
    26  H    5.937067   4.844688   5.793298   6.871089   7.378026
                   11         12         13         14         15
    11  C    0.000000
    12  C    1.395724   0.000000
    13  C    2.414454   1.395394   0.000000
    14  C    2.796600   2.421266   1.392646   0.000000
    15  C    7.652385   8.386443   8.032123   6.858667   0.000000
    16  O    8.305949   8.772926   8.055267   6.703777   2.653476
    17  H    6.946602   7.865828   7.623341   6.397087   3.059875
    18  H    4.166562   5.164879   5.161621   4.173318   3.839816
    19  H    2.155454   3.403549   3.876426   3.411753   6.022877
    20  H    1.084001   2.156853   3.399795   3.880588   8.195319
    21  H    2.154787   1.084786   2.154892   3.402983   9.389205
    22  H    3.399950   2.155975   1.085122   2.143130   8.818513
    23  H    3.878749   3.408756   2.162534   1.082299   6.818605
    24  H    7.631122   8.515518   8.331870   7.224078   1.088548
    25  H    6.806677   7.457033   7.074742   5.942306   1.089705
    26  H    8.577692   9.246963   8.840742   7.680389   1.090311
                   16         17         18         19         20
    16  O    0.000000
    17  H    3.422519   0.000000
    18  H    4.822011   2.925541   0.000000
    19  H    6.867076   4.961305   2.253275   0.000000
    20  H    9.080202   7.431450   4.636786   2.472908   0.000000
    21  H    9.833435   8.917481   6.173500   4.299305   2.487355
    22  H    8.669774   8.533751   6.168025   4.961530   4.300299
    23  H    6.291488   6.483956   4.634337   4.297032   4.962703
    24  H    3.558300   2.886647   3.690141   5.848614   8.044362
    25  H    2.860834   3.386023   3.320984   5.361016   7.399695
    26  H    2.895379   4.024834   4.894710   7.038085   9.130643
                   21         22         23         24         25
    21  H    0.000000
    22  H    2.485874   0.000000
    23  H    4.306026   2.484832   0.000000
    24  H    9.495760   9.199477   7.330773   0.000000
    25  H    8.443655   7.834009   5.915644   1.797255   0.000000
    26  H   10.229319   9.566353   7.564431   1.793277   1.790345
                   26
    26  H    0.000000
 Stoichiometry    C9H10N4O2S
 Framework group  C1[X(C9H10N4O2S)]
 Deg. of freedom    72
 Full point group                 C1      NOp   1
 Largest Abelian subgroup         C1      NOp   1
 Largest concise Abelian subgroup C1      NOp   1
                         Standard orientation:                         
 ---------------------------------------------------------------------
 Center     Atomic      Atomic             Coordinates (Angstroms)
 Number     Number       Type             X           Y           Z
 ---------------------------------------------------------------------
      1          8           0       -4.715589    0.504868   -0.465167
      2         16           0       -3.469729    0.106289    0.201943
      3          7           0       -2.287236    0.164431   -1.012755
      4          6           0       -0.961746   -0.209670   -0.718525
      5          7           0       -0.588286   -1.518048   -0.648220
      6          7           0        0.693764   -1.575993   -0.404553
      7          6           0        0.149166    0.581016   -0.512444
      8          7           0        1.159035   -0.304508   -0.330584
      9          6           0        2.538803   -0.045927   -0.089832
     10          6           0        3.084184    1.185616   -0.456444
     11          6           0        4.434144    1.432648   -0.208266
     12          6           0        5.231542    0.455474    0.389508
     13          6           0        4.673024   -0.773073    0.744269
     14          6           0        3.323889   -1.030432    0.513915
     15          6           0       -3.042742    1.354428    1.419328
     16          8           0       -3.369699   -1.213179    0.835007
     17          1           0       -2.370162    1.030768   -1.548114
     18          1           0        0.282004    1.648678   -0.479005
     19          1           0        2.469317    1.936731   -0.937192
     20          1           0        4.859331    2.388754   -0.491345
     21          1           0        6.282065    0.650495    0.576931
     22          1           0        5.285825   -1.536634    1.212179
     23          1           0        2.875473   -1.974188    0.796081
     24          1           0       -3.057087    2.329910    0.936456
     25          1           0       -2.055618    1.128552    1.821849
     26          1           0       -3.795705    1.301158    2.206084
 ---------------------------------------------------------------------
 Rotational constants (GHZ):      1.5845425      0.1988059      0.1904258
 Leave Link  202 at Thu Aug  6 21:56:18 2020, MaxMem=    33554432 cpu:         0.0
 (Enter /prod/apps/gaussian/g09d1/l301.exe)
 Standard basis: 6-31G(d) (6D, 7F)
 Ernie: Thresh=  0.10000D-02 Tol=  0.10000D-05 Strict=F.
 There are   264 symmetry adapted cartesian basis functions of A   symmetry.
 There are   264 symmetry adapted basis functions of A   symmetry.
   264 basis functions,   512 primitive gaussians,   264 cartesian basis functions
    62 alpha electrons       62 beta electrons
       nuclear repulsion energy      1185.2381974589 Hartrees.
 IExCor=  402 DFT=T Ex+Corr=B3LYP ExCW=0 ScaHFX=  0.200000
 ScaDFX=  0.800000  0.720000  1.000000  0.810000 ScalE2=  1.000000  1.000000
 IRadAn=      0 IRanWt=     -1 IRanGd=            0 ICorTp=0 IEmpDi=  4
 NAtoms=   26 NActive=   26 NUniq=   26 SFac= 1.00D+00 NAtFMM=   60 NAOKFM=F Big=F
 Integral buffers will be    131072 words long.
 Raffenetti 2 integral format.
 Two-electron integral symmetry is turned on.
 Leave Link  301 at Thu Aug  6 21:56:18 2020, MaxMem=    33554432 cpu:         0.1
 (Enter /prod/apps/gaussian/g09d1/l302.exe)
 NPDir=0 NMtPBC=     1 NCelOv=     1 NCel=       1 NClECP=     1 NCelD=      1
         NCelK=      1 NCelE2=     1 NClLst=     1 CellRange=     0.0.
 One-electron integrals computed using PRISM.
 NBasis=   264 RedAO= T EigKep=  4.66D-04  NBF=   264
 NBsUse=   264 1.00D-06 EigRej= -1.00D+00 NBFU=   264
 Precomputing XC quadrature grid using
 IXCGrd= 4 IRadAn=           0 IRanWt=          -1 IRanGd=           0 AccXCQ= 0.00D+00.
 Generated NRdTot=       0 NPtTot=           0 NUsed=           0 NTot=          32
 NSgBfM=   261   261   262   262   262 MxSgAt=    26 MxSgA2=    26.
 Leave Link  302 at Thu Aug  6 21:56:19 2020, MaxMem=    33554432 cpu:         0.9
 (Enter /prod/apps/gaussian/g09d1/l303.exe)
 DipDrv:  MaxL=1.
 Leave Link  303 at Thu Aug  6 21:56:19 2020, MaxMem=    33554432 cpu:         0.0
 (Enter /prod/apps/gaussian/g09d1/l401.exe)
 ExpMin= 1.17D-01 ExpMax= 2.19D+04 ExpMxC= 3.30D+03 IAcc=1 IRadAn=         1 AccDes= 0.00D+00
 Harris functional with IExCor=  402 and IRadAn=       1 diagonalized for initial guess.
 HarFok:  IExCor=  402 AccDes= 0.00D+00 IRadAn=         1 IDoV= 1 UseB2=F ITyADJ=14
 ICtDFT=  3500011 ScaDFX=  1.000000  1.000000  1.000000  1.000000
 FoFCou: FMM=F IPFlag=           0 FMFlag=      100000 FMFlg1=           0
         NFxFlg=           0 DoJE=T BraDBF=F KetDBF=T FulRan=T
         wScrn=  0.000000 ICntrl=     500 IOpCl=  0 I1Cent=   200000004 NGrid=           0
         NMat0=    1 NMatS0=      1 NMatT0=    0 NMatD0=    1 NMtDS0=    0 NMtDT0=    0
 Petite list used in FoFCou.
 Harris En= -1116.52836380352    
 JPrj=0 DoOrth=F DoCkMO=F.
 Leave Link  401 at Thu Aug  6 21:56:21 2020, MaxMem=    33554432 cpu:         2.5
 (Enter /prod/apps/gaussian/g09d1/l502.exe)
 Closed shell SCF:
 Using DIIS extrapolation, IDIIS=  1040.
 Integral symmetry usage will be decided dynamically.
 IVT=      231207 IEndB=      231207 NGot=    33554432 MDV=    33409826
 LenX=    33409826 LenY=    33339689
 Requested convergence on RMS density matrix=1.00D-08 within 128 cycles.
 Requested convergence on MAX density matrix=1.00D-06.
 Requested convergence on             energy=1.00D-06.
 No special actions if energy rises.
 Fock matrices will be formed incrementally for  20 cycles.
 Integral accuracy reduced to 1.0D-05 until final iterations.

 Cycle   1  Pass 0  IDiag  1:
 FoFJK:  IHMeth= 1 ICntrl=       0 DoSepK=F KAlg= 0 I1Cent=   0 FoldK=F
 IRaf= 770000000 NMat=   1 IRICut=       1 DoRegI=T DoRafI=F ISym2E= 0.
 FoFCou: FMM=F IPFlag=           0 FMFlag=      100000 FMFlg1=           0
         NFxFlg=           0 DoJE=F BraDBF=F KetDBF=F FulRan=T
         wScrn=  0.000000 ICntrl=       0 IOpCl=  0 I1Cent=           0 NGrid=           0
         NMat0=    1 NMatS0=      1 NMatT0=    0 NMatD0=    1 NMtDS0=    0 NMtDT0=    0
 Symmetry not used in FoFCou.
 E= -1115.98966174123    
 DIIS: error= 3.44D-02 at cycle   1 NSaved=   1.
 NSaved= 1 IEnMin= 1 EnMin= -1115.98966174123     IErMin= 1 ErrMin= 3.44D-02
 ErrMax= 3.44D-02  0.00D+00 EMaxC= 1.00D-01 BMatC= 5.97D-01 BMatP= 5.97D-01
 IDIUse=3 WtCom= 6.56D-01 WtEn= 3.44D-01
 Coeff-Com:  0.100D+01
 Coeff-En:   0.100D+01
 Coeff:      0.100D+01
 Gap=     0.302 Goal=   None    Shift=    0.000
 GapD=    0.302 DampG=1.000 DampE=0.500 DampFc=0.5000 IDamp=-1.
 Damping current iteration by 5.00D-01
 RMSDP=7.83D-03 MaxDP=5.83D-01              OVMax= 2.58D-01

 Cycle   2  Pass 0  IDiag  1:
 RMSU=  3.92D-03    CP:  9.96D-01
 E= -1116.08316067620     Delta-E=       -0.093498934967 Rises=F Damp=T
 DIIS: error= 2.22D-02 at cycle   2 NSaved=   2.
 NSaved= 2 IEnMin= 2 EnMin= -1116.08316067620     IErMin= 2 ErrMin= 2.22D-02
 ErrMax= 2.22D-02  0.00D+00 EMaxC= 1.00D-01 BMatC= 1.16D-01 BMatP= 5.97D-01
 IDIUse=3 WtCom= 7.78D-01 WtEn= 2.22D-01
 Coeff-Com:  0.261D+00 0.739D+00
 Coeff-En:   0.412D+00 0.588D+00
 Coeff:      0.294D+00 0.706D+00
 Gap=     0.229 Goal=   None    Shift=    0.000
 RMSDP=2.26D-03 MaxDP=1.23D-01 DE=-9.35D-02 OVMax= 2.15D-01

 Cycle   3  Pass 0  IDiag  1:
 RMSU=  1.78D-03    CP:  9.86D-01  6.52D-01
 E= -1116.45705944296     Delta-E=       -0.373898766761 Rises=F Damp=F
 DIIS: error= 1.10D-02 at cycle   3 NSaved=   3.
 NSaved= 3 IEnMin= 3 EnMin= -1116.45705944296     IErMin= 3 ErrMin= 1.10D-02
 ErrMax= 1.10D-02  0.00D+00 EMaxC= 1.00D-01 BMatC= 4.95D-02 BMatP= 1.16D-01
 IDIUse=3 WtCom= 8.90D-01 WtEn= 1.10D-01
 Coeff-Com:  0.990D-01 0.395D+00 0.506D+00
 Coeff-En:   0.000D+00 0.000D+00 0.100D+01
 Coeff:      0.882D-01 0.351D+00 0.561D+00
 Gap=     0.199 Goal=   None    Shift=    0.000
 RMSDP=1.17D-03 MaxDP=3.51D-02 DE=-3.74D-01 OVMax= 4.54D-02

 Cycle   4  Pass 0  IDiag  1:
 RMSU=  7.75D-04    CP:  9.91D-01  7.24D-01  5.42D-01
 E= -1116.49571736004     Delta-E=       -0.038657917082 Rises=F Damp=F
 DIIS: error= 4.26D-03 at cycle   4 NSaved=   4.
 NSaved= 4 IEnMin= 4 EnMin= -1116.49571736004     IErMin= 4 ErrMin= 4.26D-03
 ErrMax= 4.26D-03  0.00D+00 EMaxC= 1.00D-01 BMatC= 8.52D-03 BMatP= 4.95D-02
 IDIUse=3 WtCom= 9.57D-01 WtEn= 4.26D-02
 Coeff-Com:  0.140D-01 0.757D-01 0.306D+00 0.605D+00
 Coeff-En:   0.000D+00 0.000D+00 0.141D+00 0.859D+00
 Coeff:      0.134D-01 0.724D-01 0.299D+00 0.615D+00
 Gap=     0.198 Goal=   None    Shift=    0.000
 RMSDP=4.40D-04 MaxDP=1.57D-02 DE=-3.87D-02 OVMax= 2.53D-02

 Cycle   5  Pass 0  IDiag  1:
 RMSU=  2.56D-04    CP:  9.90D-01  7.05D-01  6.44D-01  6.14D-01
 E= -1116.50228436576     Delta-E=       -0.006567005712 Rises=F Damp=F
 DIIS: error= 1.46D-03 at cycle   5 NSaved=   5.
 NSaved= 5 IEnMin= 5 EnMin= -1116.50228436576     IErMin= 5 ErrMin= 1.46D-03
 ErrMax= 1.46D-03  0.00D+00 EMaxC= 1.00D-01 BMatC= 1.22D-03 BMatP= 8.52D-03
 IDIUse=3 WtCom= 9.85D-01 WtEn= 1.46D-02
 Coeff-Com:  0.179D-02 0.212D-01 0.150D+00 0.385D+00 0.442D+00
 Coeff-En:   0.000D+00 0.000D+00 0.000D+00 0.781D-01 0.922D+00
 Coeff:      0.176D-02 0.209D-01 0.147D+00 0.381D+00 0.449D+00
 Gap=     0.197 Goal=   None    Shift=    0.000
 RMSDP=1.68D-04 MaxDP=7.11D-03 DE=-6.57D-03 OVMax= 1.19D-02

 Cycle   6  Pass 0  IDiag  1:
 RMSU=  7.56D-05    CP:  9.90D-01  7.09D-01  6.48D-01  6.84D-01  4.57D-01
 E= -1116.50329308166     Delta-E=       -0.001008715904 Rises=F Damp=F
 DIIS: error= 4.47D-04 at cycle   6 NSaved=   6.
 NSaved= 6 IEnMin= 6 EnMin= -1116.50329308166     IErMin= 6 ErrMin= 4.47D-04
 ErrMax= 4.47D-04  0.00D+00 EMaxC= 1.00D-01 BMatC= 1.32D-04 BMatP= 1.22D-03
 IDIUse=3 WtCom= 9.96D-01 WtEn= 4.47D-03
 Coeff-Com: -0.818D-03 0.290D-02 0.519D-01 0.157D+00 0.284D+00 0.505D+00
 Coeff-En:   0.000D+00 0.000D+00 0.000D+00 0.000D+00 0.726D-01 0.927D+00
 Coeff:     -0.815D-03 0.289D-02 0.517D-01 0.157D+00 0.283D+00 0.507D+00
 Gap=     0.197 Goal=   None    Shift=    0.000
 RMSDP=4.91D-05 MaxDP=1.90D-03 DE=-1.01D-03 OVMax= 2.81D-03

 Cycle   7  Pass 0  IDiag  1:
 RMSU=  2.98D-05    CP:  9.90D-01  7.09D-01  6.49D-01  6.79D-01  5.40D-01
                    CP:  5.73D-01
 E= -1116.50339747900     Delta-E=       -0.000104397339 Rises=F Damp=F
 DIIS: error= 1.32D-04 at cycle   7 NSaved=   7.
 NSaved= 7 IEnMin= 7 EnMin= -1116.50339747900     IErMin= 7 ErrMin= 1.32D-04
 ErrMax= 1.32D-04  0.00D+00 EMaxC= 1.00D-01 BMatC= 1.02D-05 BMatP= 1.32D-04
 IDIUse=3 WtCom= 9.99D-01 WtEn= 1.32D-03
 Coeff-Com: -0.579D-03 0.386D-04 0.171D-01 0.566D-01 0.125D+00 0.298D+00
 Coeff-Com:  0.504D+00
 Coeff-En:   0.000D+00 0.000D+00 0.000D+00 0.000D+00 0.000D+00 0.137D-01
 Coeff-En:   0.986D+00
 Coeff:     -0.578D-03 0.385D-04 0.171D-01 0.566D-01 0.125D+00 0.298D+00
 Coeff:      0.504D+00
 Gap=     0.197 Goal=   None    Shift=    0.000
 RMSDP=1.48D-05 MaxDP=5.61D-04 DE=-1.04D-04 OVMax= 9.42D-04

 Cycle   8  Pass 0  IDiag  1:
 RMSU=  8.63D-06    CP:  9.90D-01  7.09D-01  6.49D-01  6.82D-01  5.41D-01
                    CP:  6.14D-01  6.18D-01
 E= -1116.50340603248     Delta-E=       -0.000008553482 Rises=F Damp=F
 DIIS: error= 4.96D-05 at cycle   8 NSaved=   8.
 NSaved= 8 IEnMin= 8 EnMin= -1116.50340603248     IErMin= 8 ErrMin= 4.96D-05
 ErrMax= 4.96D-05  0.00D+00 EMaxC= 1.00D-01 BMatC= 8.24D-07 BMatP= 1.02D-05
 IDIUse=1 WtCom= 1.00D+00 WtEn= 0.00D+00
 Coeff-Com: -0.256D-03-0.413D-03 0.448D-02 0.165D-01 0.430D-01 0.120D+00
 Coeff-Com:  0.284D+00 0.533D+00
 Coeff:     -0.256D-03-0.413D-03 0.448D-02 0.165D-01 0.430D-01 0.120D+00
 Coeff:      0.284D+00 0.533D+00
 Gap=     0.197 Goal=   None    Shift=    0.000
 RMSDP=4.72D-06 MaxDP=1.93D-04 DE=-8.55D-06 OVMax= 2.82D-04

 Initial convergence to 1.0D-05 achieved.  Increase integral accuracy.
 Cycle   9  Pass 1  IDiag  1:
 E= -1116.50338169733     Delta-E=        0.000024335154 Rises=F Damp=F
 DIIS: error= 6.32D-05 at cycle   1 NSaved=   1.
 NSaved= 1 IEnMin= 1 EnMin= -1116.50338169733     IErMin= 1 ErrMin= 6.32D-05
 ErrMax= 6.32D-05  0.00D+00 EMaxC= 1.00D-01 BMatC= 4.13D-07 BMatP= 4.13D-07
 IDIUse=1 WtCom= 1.00D+00 WtEn= 0.00D+00
 Coeff-Com:  0.100D+01
 Coeff:      0.100D+01
 Gap=     0.197 Goal=   None    Shift=    0.000
 RMSDP=4.72D-06 MaxDP=1.93D-04 DE= 2.43D-05 OVMax= 2.72D-04

 Cycle  10  Pass 1  IDiag  1:
 RMSU=  3.62D-05    CP:  1.00D+00
 E= -1116.50338169427     Delta-E=        0.000000003054 Rises=F Damp=F
 DIIS: error= 4.71D-05 at cycle   2 NSaved=   2.
 NSaved= 2 IEnMin= 1 EnMin= -1116.50338169733     IErMin= 2 ErrMin= 4.71D-05
 ErrMax= 4.71D-05  0.00D+00 EMaxC= 1.00D-01 BMatC= 4.86D-07 BMatP= 4.13D-07
 IDIUse=1 WtCom= 1.00D+00 WtEn= 0.00D+00
 Coeff-Com:  0.528D+00 0.472D+00
 Coeff:      0.528D+00 0.472D+00
 Gap=     0.197 Goal=   None    Shift=    0.000
 RMSDP=4.02D-06 MaxDP=2.05D-04 DE= 3.05D-09 OVMax= 2.82D-04

 Cycle  11  Pass 1  IDiag  1:
 RMSU=  4.01D-06    CP:  1.00D+00  9.94D-01
 E= -1116.50338200158     Delta-E=       -0.000000307307 Rises=F Damp=F
 DIIS: error= 2.88D-05 at cycle   3 NSaved=   3.
 NSaved= 3 IEnMin= 3 EnMin= -1116.50338200158     IErMin= 3 ErrMin= 2.88D-05
 ErrMax= 2.88D-05  0.00D+00 EMaxC= 1.00D-01 BMatC= 1.57D-07 BMatP= 4.13D-07
 IDIUse=1 WtCom= 1.00D+00 WtEn= 0.00D+00
 Coeff-Com:  0.150D-01 0.360D+00 0.625D+00
 Coeff:      0.150D-01 0.360D+00 0.625D+00
 Gap=     0.197 Goal=   None    Shift=    0.000
 RMSDP=1.56D-06 MaxDP=8.15D-05 DE=-3.07D-07 OVMax= 1.17D-04

 Cycle  12  Pass 1  IDiag  1:
 RMSU=  6.15D-07    CP:  1.00D+00  1.00D+00  6.55D-01
 E= -1116.50338214108     Delta-E=       -0.000000139497 Rises=F Damp=F
 DIIS: error= 3.60D-06 at cycle   4 NSaved=   4.
 NSaved= 4 IEnMin= 4 EnMin= -1116.50338214108     IErMin= 4 ErrMin= 3.60D-06
 ErrMax= 3.60D-06  0.00D+00 EMaxC= 1.00D-01 BMatC= 6.22D-09 BMatP= 1.57D-07
 IDIUse=1 WtCom= 1.00D+00 WtEn= 0.00D+00
 Coeff-Com: -0.625D-02 0.200D+00 0.370D+00 0.436D+00
 Coeff:     -0.625D-02 0.200D+00 0.370D+00 0.436D+00
 Gap=     0.197 Goal=   None    Shift=    0.000
 RMSDP=3.48D-07 MaxDP=1.34D-05 DE=-1.39D-07 OVMax= 2.10D-05

 Cycle  13  Pass 1  IDiag  1:
 RMSU=  1.81D-07    CP:  1.00D+00  1.01D+00  6.56D-01  5.20D-01
 E= -1116.50338214638     Delta-E=       -0.000000005302 Rises=F Damp=F
 DIIS: error= 9.33D-07 at cycle   5 NSaved=   5.
 NSaved= 5 IEnMin= 5 EnMin= -1116.50338214638     IErMin= 5 ErrMin= 9.33D-07
 ErrMax= 9.33D-07  0.00D+00 EMaxC= 1.00D-01 BMatC= 4.27D-10 BMatP= 6.22D-09
 IDIUse=1 WtCom= 1.00D+00 WtEn= 0.00D+00
 Coeff-Com: -0.469D-02 0.101D+00 0.190D+00 0.268D+00 0.445D+00
 Coeff:     -0.469D-02 0.101D+00 0.190D+00 0.268D+00 0.445D+00
 Gap=     0.197 Goal=   None    Shift=    0.000
 RMSDP=9.80D-08 MaxDP=3.82D-06 DE=-5.30D-09 OVMax= 8.06D-06

 Cycle  14  Pass 1  IDiag  1:
 RMSU=  7.67D-08    CP:  1.00D+00  1.01D+00  6.57D-01  5.37D-01  6.69D-01
 E= -1116.50338214674     Delta-E=       -0.000000000358 Rises=F Damp=F
 DIIS: error= 2.70D-07 at cycle   6 NSaved=   6.
 NSaved= 6 IEnMin= 6 EnMin= -1116.50338214674     IErMin= 6 ErrMin= 2.70D-07
 ErrMax= 2.70D-07  0.00D+00 EMaxC= 1.00D-01 BMatC= 3.48D-11 BMatP= 4.27D-10
 IDIUse=1 WtCom= 1.00D+00 WtEn= 0.00D+00
 Coeff-Com: -0.183D-02 0.309D-01 0.590D-01 0.930D-01 0.259D+00 0.560D+00
 Coeff:     -0.183D-02 0.309D-01 0.590D-01 0.930D-01 0.259D+00 0.560D+00
 Gap=     0.197 Goal=   None    Shift=    0.000
 RMSDP=3.00D-08 MaxDP=1.03D-06 DE=-3.58D-10 OVMax= 2.19D-06

 Cycle  15  Pass 1  IDiag  1:
 RMSU=  2.07D-08    CP:  1.00D+00  1.01D+00  6.57D-01  5.38D-01  7.38D-01
                    CP:  7.70D-01
 E= -1116.50338214678     Delta-E=       -0.000000000045 Rises=F Damp=F
 DIIS: error= 1.19D-07 at cycle   7 NSaved=   7.
 NSaved= 7 IEnMin= 7 EnMin= -1116.50338214678     IErMin= 7 ErrMin= 1.19D-07
 ErrMax= 1.19D-07  0.00D+00 EMaxC= 1.00D-01 BMatC= 4.39D-12 BMatP= 3.48D-11
 IDIUse=1 WtCom= 1.00D+00 WtEn= 0.00D+00
 Coeff-Com: -0.326D-03 0.224D-02 0.472D-02 0.114D-01 0.800D-01 0.318D+00
 Coeff-Com:  0.584D+00
 Coeff:     -0.326D-03 0.224D-02 0.472D-02 0.114D-01 0.800D-01 0.318D+00
 Coeff:      0.584D+00
 Gap=     0.197 Goal=   None    Shift=    0.000
 RMSDP=1.05D-08 MaxDP=3.29D-07 DE=-4.55D-11 OVMax= 6.55D-07

 Cycle  16  Pass 1  IDiag  1:
 RMSU=  6.69D-09    CP:  1.00D+00  1.01D+00  6.57D-01  5.43D-01  7.48D-01
                    CP:  8.11D-01  6.80D-01
 E= -1116.50338214677     Delta-E=        0.000000000017 Rises=F Damp=F
 DIIS: error= 4.81D-08 at cycle   8 NSaved=   8.
 NSaved= 8 IEnMin= 7 EnMin= -1116.50338214678     IErMin= 8 ErrMin= 4.81D-08
 ErrMax= 4.81D-08  0.00D+00 EMaxC= 1.00D-01 BMatC= 5.44D-13 BMatP= 4.39D-12
 IDIUse=1 WtCom= 1.00D+00 WtEn= 0.00D+00
 Coeff-Com:  0.447D-04-0.268D-02-0.482D-02-0.567D-02 0.140D-01 0.114D+00
 Coeff-Com:  0.328D+00 0.557D+00
 Coeff:      0.447D-04-0.268D-02-0.482D-02-0.567D-02 0.140D-01 0.114D+00
 Coeff:      0.328D+00 0.557D+00
 Gap=     0.197 Goal=   None    Shift=    0.000
 RMSDP=3.62D-09 MaxDP=8.73D-08 DE= 1.68D-11 OVMax= 2.73D-07

 SCF Done:  E(RB3LYP) =  -1116.50338215     A.U. after   16 cycles
            NFock= 16  Conv=0.36D-08     -V/T= 2.0073
 KE= 1.108388386543D+03 PE=-4.987004549548D+03 EE= 1.576874583400D+03
 Leave Link  502 at Thu Aug  6 21:59:30 2020, MaxMem=    33554432 cpu:       188.1
 (Enter /prod/apps/gaussian/g09d1/l601.exe)
 Copying SCF densities to generalized density rwf, IOpCl= 0 IROHF=0.

 **********************************************************************

            Population analysis using the SCF density.

 **********************************************************************

 Orbital symmetries:
       Occupied  (A) (A) (A) (A) (A) (A) (A) (A) (A) (A) (A) (A)
                 (A) (A) (A) (A) (A) (A) (A) (A) (A) (A) (A) (A)
                 (A) (A) (A) (A) (A) (A) (A) (A) (A) (A) (A) (A)
                 (A) (A) (A) (A) (A) (A) (A) (A) (A) (A) (A) (A)
                 (A) (A) (A) (A) (A) (A) (A) (A) (A) (A) (A) (A)
                 (A) (A)
       Virtual   (A) (A) (A) (A) (A) (A) (A) (A) (A) (A) (A) (A)
                 (A) (A) (A) (A) (A) (A) (A) (A) (A) (A) (A) (A)
                 (A) (A) (A) (A) (A) (A) (A) (A) (A) (A) (A) (A)
                 (A) (A) (A) (A) (A) (A) (A) (A) (A) (A) (A) (A)
                 (A) (A) (A) (A) (A) (A) (A) (A) (A) (A) (A) (A)
                 (A) (A) (A) (A) (A) (A) (A) (A) (A) (A) (A) (A)
                 (A) (A) (A) (A) (A) (A) (A) (A) (A) (A) (A) (A)
                 (A) (A) (A) (A) (A) (A) (A) (A) (A) (A) (A) (A)
                 (A) (A) (A) (A) (A) (A) (A) (A) (A) (A) (A) (A)
                 (A) (A) (A) (A) (A) (A) (A) (A) (A) (A) (A) (A)
                 (A) (A) (A) (A) (A) (A) (A) (A) (A) (A) (A) (A)
                 (A) (A) (A) (A) (A) (A) (A) (A) (A) (A) (A) (A)
                 (A) (A) (A) (A) (A) (A) (A) (A) (A) (A) (A) (A)
                 (A) (A) (A) (A) (A) (A) (A) (A) (A) (A) (A) (A)
                 (A) (A) (A) (A) (A) (A) (A) (A) (A) (A) (A) (A)
                 (A) (A) (A) (A) (A) (A) (A) (A) (A) (A) (A) (A)
                 (A) (A) (A) (A) (A) (A) (A) (A) (A) (A)
 The electronic state is 1-A.
 Alpha  occ. eigenvalues --  -89.11543 -19.14112 -19.13904 -14.45016 -14.40364
 Alpha  occ. eigenvalues --  -14.38967 -14.36611 -10.26826 -10.26252 -10.25466
 Alpha  occ. eigenvalues --  -10.23792 -10.22167 -10.21723 -10.21443 -10.21380
 Alpha  occ. eigenvalues --  -10.21253  -8.14112  -6.10633  -6.10487  -6.10418
 Alpha  occ. eigenvalues --   -1.11621  -1.10822  -0.99569  -0.96100  -0.93421
 Alpha  occ. eigenvalues --   -0.87202  -0.81699  -0.78436  -0.77512  -0.76903
 Alpha  occ. eigenvalues --   -0.67617  -0.66809  -0.63689  -0.61885  -0.59671
 Alpha  occ. eigenvalues --   -0.57617  -0.54332  -0.53188  -0.50984  -0.49913
 Alpha  occ. eigenvalues --   -0.49377  -0.48247  -0.47354  -0.46551  -0.45859
 Alpha  occ. eigenvalues --   -0.44985  -0.44768  -0.42700  -0.39694  -0.38681
 Alpha  occ. eigenvalues --   -0.37443  -0.35442  -0.34248  -0.33417  -0.31847
 Alpha  occ. eigenvalues --   -0.31157  -0.30787  -0.29590  -0.28047  -0.27534
 Alpha  occ. eigenvalues --   -0.27398  -0.24904
 Alpha virt. eigenvalues --   -0.05195  -0.02694   0.01045   0.01354   0.04693
 Alpha virt. eigenvalues --    0.06640   0.07604   0.08979   0.09421   0.09662
 Alpha virt. eigenvalues --    0.10685   0.12849   0.13223   0.13952   0.14217
 Alpha virt. eigenvalues --    0.14490   0.14767   0.17072   0.17290   0.18529
 Alpha virt. eigenvalues --    0.20587   0.22142   0.24179   0.27936   0.29648
 Alpha virt. eigenvalues --    0.30254   0.32233   0.34183   0.35979   0.36992
 Alpha virt. eigenvalues --    0.38802   0.41747   0.42224   0.43403   0.47498
 Alpha virt. eigenvalues --    0.47718   0.49390   0.50960   0.51335   0.51986
 Alpha virt. eigenvalues --    0.53266   0.53564   0.54692   0.56135   0.56881
 Alpha virt. eigenvalues --    0.56981   0.57631   0.59024   0.59600   0.59948
 Alpha virt. eigenvalues --    0.60433   0.61881   0.62485   0.64009   0.65915
 Alpha virt. eigenvalues --    0.68599   0.69057   0.70492   0.71031   0.72799
 Alpha virt. eigenvalues --    0.73560   0.75924   0.78172   0.79395   0.79588
 Alpha virt. eigenvalues --    0.81300   0.82058   0.82331   0.83268   0.84133
 Alpha virt. eigenvalues --    0.84384   0.84896   0.85590   0.86377   0.87191
 Alpha virt. eigenvalues --    0.88669   0.88896   0.90134   0.92013   0.92948
 Alpha virt. eigenvalues --    0.94324   0.96352   0.97292   0.98560   1.00461
 Alpha virt. eigenvalues --    1.03089   1.03470   1.04982   1.05040   1.07337
 Alpha virt. eigenvalues --    1.07611   1.11135   1.12959   1.15029   1.15330
 Alpha virt. eigenvalues --    1.16752   1.17572   1.19082   1.20655   1.23832
 Alpha virt. eigenvalues --    1.23953   1.25599   1.30305   1.32477   1.35634
 Alpha virt. eigenvalues --    1.36687   1.39395   1.40574   1.42166   1.43420
 Alpha virt. eigenvalues --    1.44863   1.46649   1.47015   1.48568   1.51574
 Alpha virt. eigenvalues --    1.52477   1.56347   1.56931   1.60644   1.64776
 Alpha virt. eigenvalues --    1.68246   1.72150   1.75098   1.77009   1.78402
 Alpha virt. eigenvalues --    1.79160   1.79982   1.80916   1.82247   1.84209
 Alpha virt. eigenvalues --    1.85755   1.86733   1.87802   1.89942   1.91351
 Alpha virt. eigenvalues --    1.93050   1.95224   1.95750   2.01139   2.03111
 Alpha virt. eigenvalues --    2.05193   2.06035   2.07597   2.08672   2.09885
 Alpha virt. eigenvalues --    2.10734   2.12004   2.13169   2.13645   2.16165
 Alpha virt. eigenvalues --    2.19025   2.19178   2.20936   2.21865   2.23608
 Alpha virt. eigenvalues --    2.25401   2.27731   2.28095   2.30166   2.31450
 Alpha virt. eigenvalues --    2.34176   2.36620   2.37966   2.48547   2.50237
 Alpha virt. eigenvalues --    2.53307   2.56490   2.57078   2.59080   2.61716
 Alpha virt. eigenvalues --    2.63450   2.66111   2.68586   2.70707   2.72873
 Alpha virt. eigenvalues --    2.74352   2.75782   2.77399   2.82704   2.86441
 Alpha virt. eigenvalues --    2.88151   3.00002   3.06308   3.12509   3.25139
 Alpha virt. eigenvalues --    3.41095   3.60801   3.76956   3.89394   3.94547
 Alpha virt. eigenvalues --    3.97583   4.05707   4.07343   4.09111   4.10192
 Alpha virt. eigenvalues --    4.14383   4.18485   4.23256   4.30395   4.38046
 Alpha virt. eigenvalues --    4.48239   4.69877
          Condensed to atoms (all electrons):
               1          2          3          4          5          6
     1  O    8.224747   0.447011  -0.051676   0.001627  -0.000016   0.000000
     2  S    0.447011  13.697539   0.099965  -0.015139   0.001256  -0.000026
     3  N   -0.051676   0.099965   7.386376   0.253999  -0.058244   0.005924
     4  C    0.001627  -0.015139   0.253999   4.744469   0.344304  -0.056969
     5  N   -0.000016   0.001256  -0.058244   0.344304   6.824252   0.287089
     6  N    0.000000  -0.000026   0.005924  -0.056969   0.287089   6.772313
     7  C   -0.000041  -0.005788  -0.084582   0.468127  -0.071806  -0.104320
     8  N    0.000000   0.000396   0.003702  -0.056343  -0.074541   0.180141
     9  C    0.000000  -0.000010  -0.000098   0.006555   0.005998  -0.043451
    10  C    0.000000   0.000000   0.000003   0.000859  -0.000312   0.003082
    11  C    0.000000   0.000000   0.000000  -0.000009   0.000002  -0.000067
    12  C    0.000000   0.000000   0.000000   0.000000   0.000000   0.000016
    13  C    0.000000   0.000000   0.000000   0.000006  -0.000005   0.000390
    14  C    0.000000   0.000000   0.000000  -0.000364   0.000289   0.000616
    15  C   -0.057187   0.192532  -0.058924  -0.001240   0.000076   0.000008
    16  O   -0.045667   0.447524  -0.051304  -0.000331   0.000583   0.000022
    17  H    0.001519  -0.002401   0.297438  -0.035641   0.002245  -0.000099
    18  H    0.000000  -0.000003   0.000027  -0.027902   0.004039   0.003588
    19  H    0.000000   0.000000   0.000001   0.000090  -0.000003  -0.000091
    20  H    0.000000   0.000000   0.000000   0.000000   0.000000   0.000001
    21  H    0.000000   0.000000   0.000000   0.000000   0.000000   0.000000
    22  H    0.000000   0.000000   0.000000   0.000000   0.000000  -0.000008
    23  H    0.000000   0.000000   0.000000   0.000071  -0.000361   0.016305
    24  H    0.000229  -0.006701   0.000442   0.000324  -0.000005   0.000000
    25  H    0.001888  -0.008481  -0.002176   0.002357  -0.000060  -0.000042
    26  H   -0.000624  -0.013706   0.002244  -0.000002   0.000000   0.000000
               7          8          9         10         11         12
     1  O   -0.000041   0.000000   0.000000   0.000000   0.000000   0.000000
     2  S   -0.005788   0.000396  -0.000010   0.000000   0.000000   0.000000
     3  N   -0.084582   0.003702  -0.000098   0.000003   0.000000   0.000000
     4  C    0.468127  -0.056343   0.006555   0.000859  -0.000009   0.000000
     5  N   -0.071806  -0.074541   0.005998  -0.000312   0.000002   0.000000
     6  N   -0.104320   0.180141  -0.043451   0.003082  -0.000067   0.000016
     7  C    5.139159   0.319449  -0.036896  -0.008009  -0.000056   0.000020
     8  N    0.319449   6.953310   0.195746  -0.051679   0.004644   0.000394
     9  C   -0.036896   0.195746   4.615152   0.529159  -0.007009  -0.038145
    10  C   -0.008009  -0.051679   0.529159   4.996625   0.530301  -0.039544
    11  C   -0.000056   0.004644  -0.007009   0.530301   4.843468   0.550353
    12  C    0.000020   0.000394  -0.038145  -0.039544   0.550353   4.848172
    13  C   -0.000084   0.004542  -0.009817  -0.042328  -0.022669   0.543739
    14  C    0.007902  -0.056627   0.519348  -0.074191  -0.041630  -0.037366
    15  C   -0.000104  -0.000020  -0.000001   0.000000   0.000000   0.000000
    16  O   -0.000200   0.000003   0.000000   0.000000   0.000000   0.000000
    17  H   -0.001761  -0.000002   0.000001   0.000000   0.000000   0.000000
    18  H    0.357194  -0.034257  -0.001662   0.002385   0.000184  -0.000001
    19  H    0.006097  -0.009993  -0.041360   0.347279  -0.038227   0.004536
    20  H   -0.000004  -0.000114   0.003578  -0.039652   0.359733  -0.040023
    21  H    0.000000   0.000004   0.000527   0.004999  -0.042364   0.362564
    22  H    0.000002  -0.000108   0.003443   0.000822   0.004553  -0.041194
    23  H    0.000258  -0.013890  -0.033228   0.005552   0.000162   0.004325
    24  H    0.000192   0.000000   0.000000   0.000000   0.000000   0.000000
    25  H    0.003630  -0.000120   0.000003   0.000000   0.000000   0.000000
    26  H   -0.000020   0.000001   0.000000   0.000000   0.000000   0.000000
              13         14         15         16         17         18
     1  O    0.000000   0.000000  -0.057187  -0.045667   0.001519   0.000000
     2  S    0.000000   0.000000   0.192532   0.447524  -0.002401  -0.000003
     3  N    0.000000   0.000000  -0.058924  -0.051304   0.297438   0.000027
     4  C    0.000006  -0.000364  -0.001240  -0.000331  -0.035641  -0.027902
     5  N   -0.000005   0.000289   0.000076   0.000583   0.002245   0.004039
     6  N    0.000390   0.000616   0.000008   0.000022  -0.000099   0.003588
     7  C   -0.000084   0.007902  -0.000104  -0.000200  -0.001761   0.357194
     8  N    0.004542  -0.056627  -0.000020   0.000003  -0.000002  -0.034257
     9  C   -0.009817   0.519348  -0.000001   0.000000   0.000001  -0.001662
    10  C   -0.042328  -0.074191   0.000000   0.000000   0.000000   0.002385
    11  C   -0.022669  -0.041630   0.000000   0.000000   0.000000   0.000184
    12  C    0.543739  -0.037366   0.000000   0.000000   0.000000  -0.000001
    13  C    4.865073   0.517661   0.000000   0.000000   0.000000  -0.000005
    14  C    0.517661   4.981347   0.000000   0.000000   0.000000  -0.000135
    15  C    0.000000   0.000000   5.579241  -0.056783   0.000595   0.000109
    16  O    0.000000   0.000000  -0.056783   8.208845   0.001732   0.000000
    17  H    0.000000   0.000000   0.000595   0.001732   0.380702   0.000926
    18  H   -0.000005  -0.000135   0.000109   0.000000   0.000926   0.513689
    19  H    0.000256   0.005762   0.000000   0.000000   0.000000   0.002159
    20  H    0.004558   0.000778   0.000000   0.000000   0.000000  -0.000002
    21  H   -0.042164   0.004687   0.000000   0.000000   0.000000   0.000000
    22  H    0.360820  -0.037949   0.000000   0.000000   0.000000   0.000000
    23  H   -0.039603   0.354736   0.000000   0.000000   0.000000  -0.000011
    24  H    0.000000   0.000000   0.334091   0.002006   0.000049   0.000049
    25  H    0.000000   0.000000   0.337050  -0.000110   0.000172   0.000140
    26  H    0.000000   0.000000   0.360568  -0.000289  -0.000010   0.000001
              19         20         21         22         23         24
     1  O    0.000000   0.000000   0.000000   0.000000   0.000000   0.000229
     2  S    0.000000   0.000000   0.000000   0.000000   0.000000  -0.006701
     3  N    0.000001   0.000000   0.000000   0.000000   0.000000   0.000442
     4  C    0.000090   0.000000   0.000000   0.000000   0.000071   0.000324
     5  N   -0.000003   0.000000   0.000000   0.000000  -0.000361  -0.000005
     6  N   -0.000091   0.000001   0.000000  -0.000008   0.016305   0.000000
     7  C    0.006097  -0.000004   0.000000   0.000002   0.000258   0.000192
     8  N   -0.009993  -0.000114   0.000004  -0.000108  -0.013890   0.000000
     9  C   -0.041360   0.003578   0.000527   0.003443  -0.033228   0.000000
    10  C    0.347279  -0.039652   0.004999   0.000822   0.005552   0.000000
    11  C   -0.038227   0.359733  -0.042364   0.004553   0.000162   0.000000
    12  C    0.004536  -0.040023   0.362564  -0.041194   0.004325   0.000000
    13  C    0.000256   0.004558  -0.042164   0.360820  -0.039603   0.000000
    14  C    0.005762   0.000778   0.004687  -0.037949   0.354736   0.000000
    15  C    0.000000   0.000000   0.000000   0.000000   0.000000   0.334091
    16  O    0.000000   0.000000   0.000000   0.000000   0.000000   0.002006
    17  H    0.000000   0.000000   0.000000   0.000000   0.000000   0.000049
    18  H    0.002159  -0.000002   0.000000   0.000000  -0.000011   0.000049
    19  H    0.589157  -0.005614  -0.000162   0.000015  -0.000139   0.000000
    20  H   -0.005614   0.578740  -0.005342  -0.000178   0.000013   0.000000
    21  H   -0.000162  -0.005342   0.580393  -0.005336  -0.000138   0.000000
    22  H    0.000015  -0.000178  -0.005336   0.571620  -0.004998   0.000000
    23  H   -0.000139   0.000013  -0.000138  -0.004998   0.527154   0.000000
    24  H    0.000000   0.000000   0.000000   0.000000   0.000000   0.521918
    25  H   -0.000001   0.000000   0.000000   0.000000   0.000000  -0.025919
    26  H    0.000000   0.000000   0.000000   0.000000   0.000000  -0.019614
              25         26
     1  O    0.001888  -0.000624
     2  S   -0.008481  -0.013706
     3  N   -0.002176   0.002244
     4  C    0.002357  -0.000002
     5  N   -0.000060   0.000000
     6  N   -0.000042   0.000000
     7  C    0.003630  -0.000020
     8  N   -0.000120   0.000001
     9  C    0.000003   0.000000
    10  C    0.000000   0.000000
    11  C    0.000000   0.000000
    12  C    0.000000   0.000000
    13  C    0.000000   0.000000
    14  C    0.000000   0.000000
    15  C    0.337050   0.360568
    16  O   -0.000110  -0.000289
    17  H    0.000172  -0.000010
    18  H    0.000140   0.000001
    19  H   -0.000001   0.000000
    20  H    0.000000   0.000000
    21  H    0.000000   0.000000
    22  H    0.000000   0.000000
    23  H    0.000000   0.000000
    24  H   -0.025919  -0.019614
    25  H    0.504857  -0.020700
    26  H   -0.020700   0.461395
 Mulliken charges:
               1
     1  O   -0.521809
     2  S    1.166033
     3  N   -0.743116
     4  C    0.371151
     5  N   -0.264778
     6  N   -0.064422
     7  C    0.011641
     8  N   -0.364639
     9  C    0.332166
    10  C   -0.165353
    11  C   -0.141369
    12  C   -0.117847
    13  C   -0.140371
    14  C   -0.144863
    15  C   -0.630009
    16  O   -0.506031
    17  H    0.354535
    18  H    0.179487
    19  H    0.140237
    20  H    0.143527
    21  H    0.142332
    22  H    0.148495
    23  H    0.183793
    24  H    0.192940
    25  H    0.207513
    26  H    0.230759
 Sum of Mulliken charges =   0.00000
 Mulliken charges with hydrogens summed into heavy atoms:
               1
     1  O   -0.521809
     2  S    1.166033
     3  N   -0.388581
     4  C    0.371151
     5  N   -0.264778
     6  N   -0.064422
     7  C    0.191127
     8  N   -0.364639
     9  C    0.332166
    10  C   -0.025115
    11  C    0.002159
    12  C    0.024485
    13  C    0.008124
    14  C    0.038930
    15  C    0.001202
    16  O   -0.506031
 Electronic spatial extent (au):  <R**2>=           5473.3051
 Charge=              0.0000 electrons
 Dipole moment (field-independent basis, Debye):
    X=              6.3419    Y=              7.0466    Z=              1.3317  Tot=              9.5732
 Quadrupole moment (field-independent basis, Debye-Ang):
   XX=           -106.6413   YY=            -97.6320   ZZ=            -96.7659
   XY=             -9.9698   XZ=             -2.7791   YZ=             -2.6153
 Traceless Quadrupole moment (field-independent basis, Debye-Ang):
   XX=             -6.2949   YY=              2.7144   ZZ=              3.5805
   XY=             -9.9698   XZ=             -2.7791   YZ=             -2.6153
 Octapole moment (field-independent basis, Debye-Ang**2):
  XXX=            170.8408  YYY=             23.2814  ZZZ=              3.3355  XYY=              1.9171
  XXY=             29.9453  XXZ=             41.2085  XZZ=            -28.2792  YZZ=              6.6616
  YYZ=              0.3409  XYZ=            -19.9195
 Hexadecapole moment (field-independent basis, Debye-Ang**3):
 XXXX=          -6246.3781 YYYY=           -655.5215 ZZZZ=           -360.0855 XXXY=            -12.1596
 XXXZ=            -29.6040 YYYX=            -19.3797 YYYZ=            -25.1952 ZZZX=            -22.4586
 ZZZY=             -3.4844 XXYY=          -1078.5170 XXZZ=          -1081.1365 YYZZ=           -167.3960
 XXYZ=             -3.5526 YYXZ=              2.7640 ZZXY=            -35.2841
 N-N= 1.185238197459D+03 E-N=-4.987004548428D+03  KE= 1.108388386543D+03
 No NMR shielding tensors so no spin-rotation constants.
 Leave Link  601 at Thu Aug  6 21:59:30 2020, MaxMem=    33554432 cpu:         0.2
 (Enter /prod/apps/gaussian/g09d1/l9999.exe)
 1\1\GINC-PIRINEUS20\SP\RB3LYP\6-31G(d)\C9H10N4O2S1\UBAFAR01\06-Aug-202
 0\0\\#p b3lyp/6-31G(d)\\SM44.n.3.pdb.xyz\\0,1\O,0,3.533,-0.865,-2.147\
 S,0,2.961,-2.042,-1.481\N,0,2.865,-1.612,0.157\C,0,2.394,-2.546,1.1\N,
 0,3.192,-3.541,1.579\N,0,2.52,-4.229,2.463\C,0,1.167,-2.621,1.725\N,0,
 1.288,-3.673,2.571\C,0,0.327,-4.201,3.48\C,0,-0.726,-3.395,3.916\C,0,-
 1.667,-3.924,4.799\C,0,-1.55,-5.24,5.249\C,0,-0.488,-6.031,4.809\C,0,0
 .453,-5.521,3.918\C,0,1.281,-2.277,-2.068\O,0,3.66,-3.33,-1.546\H,0,2.
 465,-0.677,0.256\H,0,0.268,-2.037,1.628\H,0,-0.806,-2.368,3.581\H,0,-2
 .486,-3.3,5.138\H,0,-2.282,-5.646,5.939\H,0,-0.392,-7.056,5.152\H,0,1.
 274,-6.128,3.559\H,0,0.742,-1.337,-1.964\H,0,0.812,-3.067,-1.482\H,0,1
 .349,-2.57,-3.116\\Version=AM64L-G09RevD.01\State=1-A\HF=-1116.5033821
 \RMSD=3.618e-09\Dipole=-3.5481995,0.4027348,1.1974404\Quadrupole=-6.95
 97936,5.3937124,1.5660812,-2.5307469,5.714715,-0.6851674\PG=C01 [X(C9H
 10N4O2S1)]\\@


 THE 2ND LAW OF THERMODYNAMICS HAS THE SAME
 DEGREE OF TRUTH AS THE STATEMENT THAT IF YOU THROW
 A TUMBLERFULL OF WATER INTO THE SEA, YOU CANNOT GET
 THE SAME TUMBLERFULL OF WATER OUT AGAIN.
          - J.C. MAXWELL, LETTER TO LORD RAYLEIGH, DECEMBER 6,1870
 Job cpu time:       0 days  0 hours  3 minutes 12.0 seconds.
 File lengths (MBytes):  RWF=     40 Int=      0 D2E=      0 Chk=      4 Scr=      1
 Normal termination of Gaussian 09 at Thu Aug  6 21:59:30 2020.
 Initial command:
 /prod/apps/gaussian/g09d1/l1.exe "/tmp/ubafar01/1448613/Gau-29417.inp" -scrdir="/tmp/ubafar01/1448613/"
 Entering Link 1 = /prod/apps/gaussian/g09d1/l1.exe PID=     31184.
  
 Copyright (c) 1988,1990,1992,1993,1995,1998,2003,2009,2013,
            Gaussian, Inc.  All Rights Reserved.
  
 This is part of the Gaussian(R) 09 program.  It is based on
 the Gaussian(R) 03 system (copyright 2003, Gaussian, Inc.),
 the Gaussian(R) 98 system (copyright 1998, Gaussian, Inc.),
 the Gaussian(R) 94 system (copyright 1995, Gaussian, Inc.),
 the Gaussian 92(TM) system (copyright 1992, Gaussian, Inc.),
 the Gaussian 90(TM) system (copyright 1990, Gaussian, Inc.),
 the Gaussian 88(TM) system (copyright 1988, Gaussian, Inc.),
 the Gaussian 86(TM) system (copyright 1986, Carnegie Mellon
 University), and the Gaussian 82(TM) system (copyright 1983,
 Carnegie Mellon University). Gaussian is a federally registered
 trademark of Gaussian, Inc.
  
 This software contains proprietary and confidential information,
 including trade secrets, belonging to Gaussian, Inc.
  
 This software is provided under written license and may be
 used, copied, transmitted, or stored only in accord with that
 written license.
  
 The following legend is applicable only to US Government
 contracts under FAR:
  
                    RESTRICTED RIGHTS LEGEND
  
 Use, reproduction and disclosure by the US Government is
 subject to restrictions as set forth in subparagraphs (a)
 and (c) of the Commercial Computer Software - Restricted
 Rights clause in FAR 52.227-19.
  
 Gaussian, Inc.
 340 Quinnipiac St., Bldg. 40, Wallingford CT 06492
  
  
 ---------------------------------------------------------------
 Warning -- This program may not be used in any manner that
 competes with the business of Gaussian, Inc. or will provide
 assistance to any competitor of Gaussian, Inc.  The licensee
 of this program is prohibited from giving any competitor of
 Gaussian, Inc. access to this program.  By using this program,
 the user acknowledges that Gaussian, Inc. is engaged in the
 business of creating and licensing software in the field of
 computational chemistry and represents and warrants to the
 licensee that it is not a competitor of Gaussian, Inc. and that
 it will not use this program in any manner prohibited above.
 ---------------------------------------------------------------
  

 Cite this work as:
 Gaussian 09, Revision D.01,
 M. J. Frisch, G. W. Trucks, H. B. Schlegel, G. E. Scuseria, 
 M. A. Robb, J. R. Cheeseman, G. Scalmani, V. Barone, B. Mennucci, 
 G. A. Petersson, H. Nakatsuji, M. Caricato, X. Li, H. P. Hratchian, 
 A. F. Izmaylov, J. Bloino, G. Zheng, J. L. Sonnenberg, M. Hada, 
 M. Ehara, K. Toyota, R. Fukuda, J. Hasegawa, M. Ishida, T. Nakajima, 
 Y. Honda, O. Kitao, H. Nakai, T. Vreven, J. A. Montgomery, Jr., 
 J. E. Peralta, F. Ogliaro, M. Bearpark, J. J. Heyd, E. Brothers, 
 K. N. Kudin, V. N. Staroverov, T. Keith, R. Kobayashi, J. Normand, 
 K. Raghavachari, A. Rendell, J. C. Burant, S. S. Iyengar, J. Tomasi, 
 M. Cossi, N. Rega, J. M. Millam, M. Klene, J. E. Knox, J. B. Cross, 
 V. Bakken, C. Adamo, J. Jaramillo, R. Gomperts, R. E. Stratmann, 
 O. Yazyev, A. J. Austin, R. Cammi, C. Pomelli, J. W. Ochterski, 
 R. L. Martin, K. Morokuma, V. G. Zakrzewski, G. A. Voth, 
 P. Salvador, J. J. Dannenberg, S. Dapprich, A. D. Daniels, 
 O. Farkas, J. B. Foresman, J. V. Ortiz, J. Cioslowski, 
 and D. J. Fox, Gaussian, Inc., Wallingford CT, 2013.
 
 ******************************************
 Gaussian 09:  AM64L-G09RevD.01 24-Apr-2013
                 6-Aug-2020 
 ******************************************
 %nproc=1
 Will use up to    1 processors via shared memory.
 %Chk=SM44.n.3.pdb.xyz.mst.n.w.chk
 %subst l502 /dades/curu/work_g09D01_MST_AddSphPartition_ReadGammas/exe-dir/
 ----------------------------------------------------------------------
 #p b3lyp/6-31G(d) scrf=(iefpcm,read,solvent=Water) geom=allcheck guess
 =read
 ----------------------------------------------------------------------
 1/29=7,38=1,40=2/1;
 2/12=2,40=1/2;
 3/5=1,6=6,7=1,11=2,14=-4,16=1,25=1,30=1,70=2203,72=1,74=-5,116=-2/1,2,3;
 4/5=1/1;
 5/5=2,38=6,53=1/2;
 6/7=2,8=2,9=2,10=2,28=1/1;
 99/5=1,9=1/99;
 Leave Link    1 at Thu Aug  6 21:59:30 2020, MaxMem=           0 cpu:         0.0
 (Enter /prod/apps/gaussian/g09d1/l101.exe)
 Structure from the checkpoint file:  "SM44.n.3.pdb.xyz.mst.n.w.chk"
 ----------------
 SM44.n.3.pdb.xyz
 ----------------
 Charge =  0 Multiplicity = 1
 Z-Matrix found in file.
 O,0,3.533,-0.865,-2.147
 S,0,2.961,-2.042,-1.481
 N,0,2.865,-1.612,0.157
 C,0,2.394,-2.546,1.1
 N,0,3.192,-3.541,1.579
 N,0,2.52,-4.229,2.463
 C,0,1.167,-2.621,1.725
 N,0,1.288,-3.673,2.571
 C,0,0.327,-4.201,3.48
 C,0,-0.726,-3.395,3.916
 C,0,-1.667,-3.924,4.799
 C,0,-1.55,-5.24,5.249
 C,0,-0.488,-6.031,4.809
 C,0,0.453,-5.521,3.918
 C,0,1.281,-2.277,-2.068
 O,0,3.66,-3.33,-1.546
 H,0,2.465,-0.677,0.256
 H,0,0.268,-2.037,1.628
 H,0,-0.806,-2.368,3.581
 H,0,-2.486,-3.3,5.138
 H,0,-2.282,-5.646,5.939
 H,0,-0.392,-7.056,5.152
 H,0,1.274,-6.128,3.559
 H,0,0.742,-1.337,-1.964
 H,0,0.812,-3.067,-1.482
 H,0,1.349,-2.57,-3.116
 Recover connectivity data from disk.
 NAtoms=     26 NQM=       26 NQMF=       0 NMMI=      0 NMMIF=      0
                NMic=       0 NMicF=      0.
                    Isotopes and Nuclear Properties:
 (Nuclear quadrupole moments (NQMom) in fm**2, nuclear magnetic moments (NMagM)
  in nuclear magnetons)

  Atom         1           2           3           4           5           6           7           8           9          10
 IAtWgt=          16          32          14          12          14          14          12          14          12          12
 AtmWgt=  15.9949146  31.9720718  14.0030740  12.0000000  14.0030740  14.0030740  12.0000000  14.0030740  12.0000000  12.0000000
 NucSpn=           0           0           2           0           2           2           0           2           0           0
 AtZEff=  -5.6000000 -13.6000000  -4.5500000  -3.6000000  -4.5500000  -4.5500000  -3.6000000  -4.5500000  -3.6000000  -3.6000000
 NQMom=    0.0000000   0.0000000   2.0440000   0.0000000   2.0440000   2.0440000   0.0000000   2.0440000   0.0000000   0.0000000
 NMagM=    0.0000000   0.0000000   0.4037610   0.0000000   0.4037610   0.4037610   0.0000000   0.4037610   0.0000000   0.0000000
 AtZNuc=   8.0000000  16.0000000   7.0000000   6.0000000   7.0000000   7.0000000   6.0000000   7.0000000   6.0000000   6.0000000

  Atom        11          12          13          14          15          16          17          18          19          20
 IAtWgt=          12          12          12          12          12          16           1           1           1           1
 AtmWgt=  12.0000000  12.0000000  12.0000000  12.0000000  12.0000000  15.9949146   1.0078250   1.0078250   1.0078250   1.0078250
 NucSpn=           0           0           0           0           0           0           1           1           1           1
 AtZEff=  -3.6000000  -3.6000000  -3.6000000  -3.6000000  -3.6000000  -5.6000000  -1.0000000  -1.0000000  -1.0000000  -1.0000000
 NQMom=    0.0000000   0.0000000   0.0000000   0.0000000   0.0000000   0.0000000   0.0000000   0.0000000   0.0000000   0.0000000
 NMagM=    0.0000000   0.0000000   0.0000000   0.0000000   0.0000000   0.0000000   2.7928460   2.7928460   2.7928460   2.7928460
 AtZNuc=   6.0000000   6.0000000   6.0000000   6.0000000   6.0000000   8.0000000   1.0000000   1.0000000   1.0000000   1.0000000

  Atom        21          22          23          24          25          26
 IAtWgt=           1           1           1           1           1           1
 AtmWgt=   1.0078250   1.0078250   1.0078250   1.0078250   1.0078250   1.0078250
 NucSpn=           1           1           1           1           1           1
 AtZEff=  -1.0000000  -1.0000000  -1.0000000  -1.0000000  -1.0000000  -1.0000000
 NQMom=    0.0000000   0.0000000   0.0000000   0.0000000   0.0000000   0.0000000
 NMagM=    2.7928460   2.7928460   2.7928460   2.7928460   2.7928460   2.7928460
 AtZNuc=   1.0000000   1.0000000   1.0000000   1.0000000   1.0000000   1.0000000
 Leave Link  101 at Thu Aug  6 21:59:30 2020, MaxMem=    33554432 cpu:         0.1
 (Enter /prod/apps/gaussian/g09d1/l202.exe)
                          Input orientation:                          
 ---------------------------------------------------------------------
 Center     Atomic      Atomic             Coordinates (Angstroms)
 Number     Number       Type             X           Y           Z
 ---------------------------------------------------------------------
      1          8           0        3.533000   -0.865000   -2.147000
      2         16           0        2.961000   -2.042000   -1.481000
      3          7           0        2.865000   -1.612000    0.157000
      4          6           0        2.394000   -2.546000    1.100000
      5          7           0        3.192000   -3.541000    1.579000
      6          7           0        2.520000   -4.229000    2.463000
      7          6           0        1.167000   -2.621000    1.725000
      8          7           0        1.288000   -3.673000    2.571000
      9          6           0        0.327000   -4.201000    3.480000
     10          6           0       -0.726000   -3.395000    3.916000
     11          6           0       -1.667000   -3.924000    4.799000
     12          6           0       -1.550000   -5.240000    5.249000
     13          6           0       -0.488000   -6.031000    4.809000
     14          6           0        0.453000   -5.521000    3.918000
     15          6           0        1.281000   -2.277000   -2.068000
     16          8           0        3.660000   -3.330000   -1.546000
     17          1           0        2.465000   -0.677000    0.256000
     18          1           0        0.268000   -2.037000    1.628000
     19          1           0       -0.806000   -2.368000    3.581000
     20          1           0       -2.486000   -3.300000    5.138000
     21          1           0       -2.282000   -5.646000    5.939000
     22          1           0       -0.392000   -7.056000    5.152000
     23          1           0        1.274000   -6.128000    3.559000
     24          1           0        0.742000   -1.337000   -1.964000
     25          1           0        0.812000   -3.067000   -1.482000
     26          1           0        1.349000   -2.570000   -3.116000
 ---------------------------------------------------------------------
                    Distance matrix (angstroms):
                    1          2          3          4          5
     1  O    0.000000
     2  S    1.468356   0.000000
     3  N    2.512499   1.696219   0.000000
     4  C    3.829633   2.690180   1.408349   0.000000
     5  N    4.600036   3.415254   2.418688   1.362450   0.000000
     6  N    5.796099   4.531290   3.505046   2.169363   1.306286
     7  C    4.865581   3.719155   2.521886   1.379050   2.228978
     8  N    5.931645   4.677370   3.544298   2.158056   2.150977
     9  C    7.284948   6.017538   4.917997   3.560325   3.501089
    10  C    7.829428   6.674742   5.495858   4.287780   4.564385
    11  C    9.200239   8.024881   6.887128   5.663321   5.841658
    12  C    9.983904   8.710294   7.653958   6.326687   6.232340
    13  C    9.552064   8.208034   7.239563   5.848746   5.493214
    14  C    8.243116   6.895122   5.936594   4.534229   4.110163
    15  C    2.659227   1.795047   2.811033   3.368583   4.306997
    16  O    2.540385   1.466891   2.546322   3.036236   3.166886
    17  H    2.636357   2.264158   1.021776   2.051960   3.237492
    18  H    5.126835   4.113168   3.014776   2.248942   3.288494
    19  H    7.341384   6.318260   5.076569   4.053029   4.622547
    20  H    9.758525   8.663921   7.502860   6.378743   6.705538
    21  H   11.047877   9.774163   8.729049   7.408839   7.307893
    22  H   10.344540   8.965461   8.074355   6.672376   6.161705
    23  H    8.084596   6.703951   5.873597   4.486848   3.780436
    24  H    2.836539   2.377872   3.013535   3.684953   4.838695
    25  H    3.562986   2.380930   3.003024   3.072603   3.906251
    26  H    2.935275   2.355961   3.732097   4.343646   5.136391
                    6          7          8          9         10
     6  N    0.000000
     7  C    2.227312   0.000000
     8  N    1.355959   1.355382   0.000000
     9  C    2.417503   2.506397   1.424284   0.000000
    10  C    3.652846   2.997166   2.437725   1.395902   0.000000
    11  C    4.804257   4.379365   3.709314   2.406767   1.394637
    12  C    5.034761   5.163315   4.204928   2.780649   2.420721
    13  C    4.218884   4.886531   3.704455   2.404031   2.793311
    14  C    2.838799   3.705273   2.434489   1.396467   2.431033
    15  C    5.086785   3.810273   4.844501   5.949134   6.409854
    16  O    4.263787   4.173388   4.763793   6.093292   7.005331
    17  H    4.182174   2.760779   3.964917   5.232953   5.564675
    18  H    3.251706   1.076413   2.146193   2.848909   2.840272
    19  H    3.971841   2.720565   2.666076   2.157262   1.083215
    20  H    5.751409   5.045198   4.579486   3.387290   2.144740
    21  H    6.095053   6.229287   5.289712   3.865435   3.403038
    22  H    4.868510   5.817563   4.574784   3.385789   3.878424
    23  H    2.521891   3.959047   2.646387   2.148576   3.405398
    24  H    5.578824   3.929122   5.130423   6.165376   6.400374
    25  H    4.453149   3.257267   4.125606   5.112986   5.622404
    26  H    5.937067   4.844688   5.793298   6.871089   7.378026
                   11         12         13         14         15
    11  C    0.000000
    12  C    1.395724   0.000000
    13  C    2.414454   1.395394   0.000000
    14  C    2.796600   2.421266   1.392646   0.000000
    15  C    7.652385   8.386443   8.032123   6.858667   0.000000
    16  O    8.305949   8.772926   8.055267   6.703777   2.653476
    17  H    6.946602   7.865828   7.623341   6.397087   3.059875
    18  H    4.166562   5.164879   5.161621   4.173318   3.839816
    19  H    2.155454   3.403549   3.876426   3.411753   6.022877
    20  H    1.084001   2.156853   3.399795   3.880588   8.195319
    21  H    2.154787   1.084786   2.154892   3.402983   9.389205
    22  H    3.399950   2.155975   1.085122   2.143130   8.818513
    23  H    3.878749   3.408756   2.162534   1.082299   6.818605
    24  H    7.631122   8.515518   8.331870   7.224078   1.088548
    25  H    6.806677   7.457033   7.074742   5.942306   1.089705
    26  H    8.577692   9.246963   8.840742   7.680389   1.090311
                   16         17         18         19         20
    16  O    0.000000
    17  H    3.422519   0.000000
    18  H    4.822011   2.925541   0.000000
    19  H    6.867076   4.961305   2.253275   0.000000
    20  H    9.080202   7.431450   4.636786   2.472908   0.000000
    21  H    9.833435   8.917481   6.173500   4.299305   2.487355
    22  H    8.669774   8.533751   6.168025   4.961530   4.300299
    23  H    6.291488   6.483956   4.634337   4.297032   4.962703
    24  H    3.558300   2.886647   3.690141   5.848614   8.044362
    25  H    2.860834   3.386023   3.320984   5.361016   7.399695
    26  H    2.895379   4.024834   4.894710   7.038085   9.130643
                   21         22         23         24         25
    21  H    0.000000
    22  H    2.485874   0.000000
    23  H    4.306026   2.484832   0.000000
    24  H    9.495760   9.199477   7.330773   0.000000
    25  H    8.443655   7.834009   5.915644   1.797255   0.000000
    26  H   10.229319   9.566353   7.564431   1.793277   1.790345
                   26
    26  H    0.000000
 Stoichiometry    C9H10N4O2S
 Framework group  C1[X(C9H10N4O2S)]
 Deg. of freedom    72
 Full point group                 C1      NOp   1
 RotChk:  IX=0 Diff= 4.01D-15
 Largest Abelian subgroup         C1      NOp   1
 Largest concise Abelian subgroup C1      NOp   1
                         Standard orientation:                         
 ---------------------------------------------------------------------
 Center     Atomic      Atomic             Coordinates (Angstroms)
 Number     Number       Type             X           Y           Z
 ---------------------------------------------------------------------
      1          8           0       -4.715589    0.504868   -0.465167
      2         16           0       -3.469729    0.106289    0.201943
      3          7           0       -2.287236    0.164431   -1.012755
      4          6           0       -0.961746   -0.209670   -0.718525
      5          7           0       -0.588286   -1.518048   -0.648220
      6          7           0        0.693764   -1.575993   -0.404553
      7          6           0        0.149166    0.581016   -0.512444
      8          7           0        1.159035   -0.304508   -0.330584
      9          6           0        2.538803   -0.045927   -0.089832
     10          6           0        3.084184    1.185616   -0.456444
     11          6           0        4.434144    1.432648   -0.208266
     12          6           0        5.231542    0.455474    0.389508
     13          6           0        4.673024   -0.773073    0.744269
     14          6           0        3.323889   -1.030432    0.513915
     15          6           0       -3.042742    1.354428    1.419328
     16          8           0       -3.369699   -1.213179    0.835007
     17          1           0       -2.370162    1.030768   -1.548114
     18          1           0        0.282004    1.648678   -0.479005
     19          1           0        2.469317    1.936731   -0.937192
     20          1           0        4.859331    2.388754   -0.491345
     21          1           0        6.282065    0.650495    0.576931
     22          1           0        5.285825   -1.536634    1.212179
     23          1           0        2.875473   -1.974188    0.796081
     24          1           0       -3.057087    2.329910    0.936456
     25          1           0       -2.055618    1.128552    1.821849
     26          1           0       -3.795705    1.301158    2.206084
 ---------------------------------------------------------------------
 Rotational constants (GHZ):      1.5845425      0.1988059      0.1904258
 Leave Link  202 at Thu Aug  6 21:59:30 2020, MaxMem=    33554432 cpu:         0.0
 (Enter /prod/apps/gaussian/g09d1/l301.exe)
 Standard basis: 6-31G(d) (6D, 7F)
 Ernie: Thresh=  0.10000D-02 Tol=  0.10000D-05 Strict=F.
 There are   264 symmetry adapted cartesian basis functions of A   symmetry.
 There are   264 symmetry adapted basis functions of A   symmetry.
   264 basis functions,   512 primitive gaussians,   264 cartesian basis functions
    62 alpha electrons       62 beta electrons
       nuclear repulsion energy      1185.2381974589 Hartrees.
 IExCor=  402 DFT=T Ex+Corr=B3LYP ExCW=0 ScaHFX=  0.200000
 ScaDFX=  0.800000  0.720000  1.000000  0.810000 ScalE2=  1.000000  1.000000
 IRadAn=      0 IRanWt=     -1 IRanGd=            0 ICorTp=0 IEmpDi=  4
 NAtoms=   26 NActive=   26 NUniq=   26 SFac= 1.00D+00 NAtFMM=   60 NAOKFM=F Big=F
 Integral buffers will be    131072 words long.
 Raffenetti 2 integral format.
 Two-electron integral symmetry is turned on.
 Using the following non-standard input for PCM:
 MSTModel=DFT cav g03defaults OFac=0.8 Rmin=0.3
 Warning! Using old PCM defaults because the g03defaults keyword was found.
 These settings can be overridden by following keywords.
 --- end of non-standard input.
 MST model for solvation energy: B3LYP parametrization.
 MST cavity parameters:
 ISph   IAn     Re0     Alpha   Atom Type   QCorr
 ------------------------------------------------
   1      8     1.40     1.25      O          F
   2     16     1.75     1.25      S          F
   3      7     1.50     1.25      NH         F
   4      6     1.50     1.25      C          F
   5      7     1.40     1.25      N          F
   6      7     1.40     1.25      N          F
   7      6     1.50     1.25      CH         F
   8      7     1.40     1.25      N          F
   9      6     1.50     1.25      C          F
  10      6     1.50     1.25      CH         F
  11      6     1.50     1.25      CH         F
  12      6     1.50     1.25      CH         F
  13      6     1.50     1.25      CH         F
  14      6     1.50     1.25      CH         F
  15      6     1.50     1.25      CH3        F
  16      8     1.40     1.25      O          F
  17      1     0.90     1.25      NH         F
  18      1     1.20     1.25      CH         F
  19      1     1.20     1.25      CH         F
  20      1     1.20     1.25      CH         F
  21      1     1.20     1.25      CH         F
  22      1     1.20     1.25      CH         F
  23      1     1.20     1.25      CH         F
  24      1     1.20     1.25      CH3        F
  25      1     1.20     1.25      CH3        F
  26      1     1.20     1.25      CH3        F
 ------------------------------------------------------------------------------
 Polarizable Continuum Model (PCM)
 =================================
 Model                : PCM (using non-symmetric T matrix).
 Atomic radii         : MST.
 Polarization charges : Total charges.
 Charge compensation  : None.
 Solution method      : On-the-fly selection.
 Cavity type          : Scaled SES (Solvent Excluding Surface) (Alpha=1.250).
 Cavity algorithm     : GePol (RMin=0.300 OFac=0.800).
                        Default sphere list used, NSphG=   26.
                        Tesserae with average area of 0.200 Ang**2.
                        Smoothing algorithm: None.
                        Polarization charges: point-like.
                        Self-potential: constant (ISelfS= 1).
                        Self-field    : global E.n sum rule (ISelfD= 3).
 Solvent              : Water, Eps=  78.355300 Eps(inf)=   1.777849
                        RSolv=   1.385000 Ang.
 ------------------------------------------------------------------------------
 GePol: Number of generator spheres                  =      26
 GePol: Total number of spheres                      =      67
 GePol: Number of exposed spheres                    =      65 ( 97.01%)
 GePol: Number of tesserae                           =    2178
 GePol: Average area of tesserae                     =       0.12 Ang**2
 GePol: Minimum area of tessera                      =   0.10D-02 Ang**2
 GePol: Maximum area of tessera                      =    0.30575 Ang**2
 GePol: Number of small tesserae                     =       7
 GePol: Fraction of small tesserae (<1% of avg)      =       0.32%
 GePol: Total count of vertices                      =    7646
 GePol: Maximum number of vertices in a tessera      =       7
 GePol: Cavity surface area                          =    265.965 Ang**2
 GePol: Cavity volume                                =    259.675 Ang**3
 PCM non-electrostatic energy =         0.0029741400 Hartrees.
 Nuclear repulsion after PCM non-electrostatic terms =     1185.2411715989 Hartrees.
 Leave Link  301 at Thu Aug  6 21:59:30 2020, MaxMem=    33554432 cpu:         0.1
 (Enter /prod/apps/gaussian/g09d1/l302.exe)
 NPDir=0 NMtPBC=     1 NCelOv=     1 NCel=       1 NClECP=     1 NCelD=      1
         NCelK=      1 NCelE2=     1 NClLst=     1 CellRange=     0.0.
 One-electron integrals computed using PRISM.
 NBasis=   264 RedAO= T EigKep=  4.66D-04  NBF=   264
 NBsUse=   264 1.00D-06 EigRej= -1.00D+00 NBFU=   264
 Precomputing XC quadrature grid using
 IXCGrd= 4 IRadAn=           0 IRanWt=          -1 IRanGd=           0 AccXCQ= 0.00D+00.
 Generated NRdTot=       0 NPtTot=           0 NUsed=           0 NTot=          32
 NSgBfM=   262   262   262   262   262 MxSgAt=    26 MxSgA2=    26.
 Leave Link  302 at Thu Aug  6 21:59:31 2020, MaxMem=    33554432 cpu:         0.9
 (Enter /prod/apps/gaussian/g09d1/l303.exe)
 DipDrv:  MaxL=1.
 Leave Link  303 at Thu Aug  6 21:59:31 2020, MaxMem=    33554432 cpu:         0.0
 (Enter /prod/apps/gaussian/g09d1/l401.exe)
 Initial guess from the checkpoint file:  "SM44.n.3.pdb.xyz.mst.n.w.chk"
 B after Tr=     0.000000    0.000000    0.000000
         Rot=    1.000000    0.000000    0.000000    0.000000 Ang=   0.00 deg.
 Guess basis will be translated and rotated to current coordinates.
 JPrj=2 DoOrth=T DoCkMO=T.
 Leave Link  401 at Thu Aug  6 21:59:31 2020, MaxMem=    33554432 cpu:         0.2
 (Enter /dades/curu/work_g09D01_MST_AddSphPartition_ReadGammas/exe-dir/l502.exe)
 Closed shell SCF:
 Using DIIS extrapolation, IDIIS=  1040.
 Integral symmetry usage will be decided dynamically.
 IVT=      231207 IEndB=      231207 NGot=    33554432 MDV=    33409826
 LenX=    33409826 LenY=    33339689
 Requested convergence on RMS density matrix=1.00D-08 within 128 cycles.
 Requested convergence on MAX density matrix=1.00D-06.
 Requested convergence on             energy=1.00D-06.
 No special actions if energy rises.
 Fock matrices will be formed incrementally for  20 cycles.

 Cycle   1  Pass 1  IDiag  1:
 FoFJK:  IHMeth= 1 ICntrl=       0 DoSepK=F KAlg= 0 I1Cent=   0 FoldK=F
 IRaf= 770000000 NMat=   1 IRICut=       1 DoRegI=T DoRafI=F ISym2E= 0.
 FoFCou: FMM=F IPFlag=           0 FMFlag=      100000 FMFlg1=           0
         NFxFlg=           0 DoJE=F BraDBF=F KetDBF=F FulRan=T
         wScrn=  0.000000 ICntrl=       0 IOpCl=  0 I1Cent=           0 NGrid=           0
         NMat0=    1 NMatS0=      1 NMatT0=    0 NMatD0=    1 NMtDS0=    0 NMtDT0=    0
 Symmetry not used in FoFCou.
 Inv3:  Mode=1 IEnd=    14231052.
 Iteration    1 A*A^-1 deviation from unit magnitude is 5.22D-15 for   2167.
 Iteration    1 A*A^-1 deviation from orthogonality  is 2.85D-15 for   2171   2162.
 Iteration    1 A^-1*A deviation from unit magnitude is 5.44D-15 for   2167.
 Iteration    1 A^-1*A deviation from orthogonality  is 2.08D-15 for   2165   2155.
 E= -1116.52865892007    
 DIIS: error= 3.17D-03 at cycle   1 NSaved=   1.
 NSaved= 1 IEnMin= 1 EnMin= -1116.52865892007     IErMin= 1 ErrMin= 3.17D-03
 ErrMax= 3.17D-03  0.00D+00 EMaxC= 1.00D-01 BMatC= 3.07D-03 BMatP= 3.07D-03
 IDIUse=3 WtCom= 9.68D-01 WtEn= 3.17D-02
 Coeff-Com:  0.100D+01
 Coeff-En:   0.100D+01
 Coeff:      0.100D+01
 Gap=     0.200 Goal=   None    Shift=    0.000
 GapD=    0.200 DampG=1.000 DampE=1.000 DampFc=1.0000 IDamp=-1.
 RMSDP=1.11D-03 MaxDP=2.75D-02              OVMax= 4.54D-02

 Cycle   2  Pass 1  IDiag  1:
 RMSU=  1.09D-03    CP:  9.93D-01
 E= -1116.53254660832     Delta-E=       -0.003887688256 Rises=F Damp=F
 DIIS: error= 2.65D-03 at cycle   2 NSaved=   2.
 NSaved= 2 IEnMin= 2 EnMin= -1116.53254660832     IErMin= 2 ErrMin= 2.65D-03
 ErrMax= 2.65D-03  0.00D+00 EMaxC= 1.00D-01 BMatC= 4.30D-03 BMatP= 3.07D-03
 IDIUse=3 WtCom= 1.63D-01 WtEn= 8.37D-01
 Coeff-Com:  0.559D+00 0.441D+00
 Coeff-En:   0.188D+00 0.812D+00
 Coeff:      0.248D+00 0.752D+00
 Gap=     0.199 Goal=   None    Shift=    0.000
 RMSDP=5.39D-04 MaxDP=1.96D-02 DE=-3.89D-03 OVMax= 3.54D-02

[...]
   22      H22     12.13  -0.043   -0.36
   23      H23      9.82  -0.035   -0.17
   24      H24     10.94  -0.065   -1.01
   25      H25      8.99  -0.052   -0.59
   26      H26     12.76  -0.075   -0.55
 Added spheres:    27.68  -0.098    0.00
 --------------------------------------------------------------------
 After PCM corrections, the energy is  -1116.53652081     a.u.
 --------------------------------------------------------------------
 Leave Link  502 at Thu Aug  6 22:02:01 2020, MaxMem=    33554432 cpu:       149.2
 (Enter /prod/apps/gaussian/g09d1/l601.exe)
 Copying SCF densities to generalized density rwf, IOpCl= 0 IROHF=0.

 **********************************************************************

            Population analysis using the SCF density.

 **********************************************************************

 Orbital symmetries:
       Occupied  (A) (A) (A) (A) (A) (A) (A) (A) (A) (A) (A) (A)
                 (A) (A) (A) (A) (A) (A) (A) (A) (A) (A) (A) (A)
                 (A) (A) (A) (A) (A) (A) (A) (A) (A) (A) (A) (A)
                 (A) (A) (A) (A) (A) (A) (A) (A) (A) (A) (A) (A)
                 (A) (A) (A) (A) (A) (A) (A) (A) (A) (A) (A) (A)
                 (A) (A)
       Virtual   (A) (A) (A) (A) (A) (A) (A) (A) (A) (A) (A) (A)
                 (A) (A) (A) (A) (A) (A) (A) (A) (A) (A) (A) (A)
                 (A) (A) (A) (A) (A) (A) (A) (A) (A) (A) (A) (A)
                 (A) (A) (A) (A) (A) (A) (A) (A) (A) (A) (A) (A)
                 (A) (A) (A) (A) (A) (A) (A) (A) (A) (A) (A) (A)
                 (A) (A) (A) (A) (A) (A) (A) (A) (A) (A) (A) (A)
                 (A) (A) (A) (A) (A) (A) (A) (A) (A) (A) (A) (A)
                 (A) (A) (A) (A) (A) (A) (A) (A) (A) (A) (A) (A)
                 (A) (A) (A) (A) (A) (A) (A) (A) (A) (A) (A) (A)
                 (A) (A) (A) (A) (A) (A) (A) (A) (A) (A) (A) (A)
                 (A) (A) (A) (A) (A) (A) (A) (A) (A) (A) (A) (A)
                 (A) (A) (A) (A) (A) (A) (A) (A) (A) (A) (A) (A)
                 (A) (A) (A) (A) (A) (A) (A) (A) (A) (A) (A) (A)
                 (A) (A) (A) (A) (A) (A) (A) (A) (A) (A) (A) (A)
                 (A) (A) (A) (A) (A) (A) (A) (A) (A) (A) (A) (A)
                 (A) (A) (A) (A) (A) (A) (A) (A) (A) (A) (A) (A)
                 (A) (A) (A) (A) (A) (A) (A) (A) (A) (A)
 The electronic state is 1-A.
 Alpha  occ. eigenvalues --  -89.12637 -19.15716 -19.15668 -14.44911 -14.40666
 Alpha  occ. eigenvalues --  -14.38655 -14.37347 -10.26678 -10.25282 -10.24800
 Alpha  occ. eigenvalues --  -10.22645 -10.20819 -10.20506 -10.20318 -10.20231
 Alpha  occ. eigenvalues --  -10.19990  -8.15220  -6.11721  -6.11643  -6.11491
 Alpha  occ. eigenvalues --   -1.12481  -1.11535  -1.01388  -0.95999  -0.93267
 Alpha  occ. eigenvalues --   -0.86278  -0.81467  -0.77760  -0.76532  -0.75947
 Alpha  occ. eigenvalues --   -0.67050  -0.66609  -0.63243  -0.61019  -0.58937
 Alpha  occ. eigenvalues --   -0.56699  -0.54131  -0.52759  -0.49991  -0.49920
 Alpha  occ. eigenvalues --   -0.48870  -0.48521  -0.47177  -0.45592  -0.44682
 Alpha  occ. eigenvalues --   -0.44038  -0.43541  -0.43466  -0.39045  -0.37415
 Alpha  occ. eigenvalues --   -0.36595  -0.36075  -0.35044  -0.34198  -0.33115
 Alpha  occ. eigenvalues --   -0.32176  -0.32008  -0.31519  -0.29119  -0.26955
 Alpha  occ. eigenvalues --   -0.26537  -0.24528
 Alpha virt. eigenvalues --   -0.04719  -0.01605   0.00974   0.01941   0.06669
 Alpha virt. eigenvalues --    0.07185   0.08822   0.09637   0.10083   0.10739
 Alpha virt. eigenvalues --    0.12181   0.13654   0.14908   0.15178   0.15382
 Alpha virt. eigenvalues --    0.16007   0.16335   0.18278   0.19033   0.19600
 Alpha virt. eigenvalues --    0.21174   0.23203   0.24513   0.29257   0.30200
 Alpha virt. eigenvalues --    0.31168   0.32532   0.33443   0.35436   0.36289
 Alpha virt. eigenvalues --    0.38791   0.42242   0.42808   0.43210   0.48404
 Alpha virt. eigenvalues --    0.48501   0.50024   0.51645   0.51913   0.52752
 Alpha virt. eigenvalues --    0.54019   0.54628   0.55578   0.57170   0.57648
 Alpha virt. eigenvalues --    0.58062   0.58566   0.59959   0.60587   0.60647
 Alpha virt. eigenvalues --    0.61037   0.62463   0.63112   0.64136   0.66375
 Alpha virt. eigenvalues --    0.67642   0.68650   0.70160   0.70201   0.72812
 Alpha virt. eigenvalues --    0.74163   0.77238   0.77435   0.78504   0.79127
 Alpha virt. eigenvalues --    0.80705   0.82974   0.83564   0.83852   0.84364
 Alpha virt. eigenvalues --    0.84723   0.85094   0.86615   0.86868   0.87956
 Alpha virt. eigenvalues --    0.89232   0.89990   0.91422   0.93191   0.93531
 Alpha virt. eigenvalues --    0.95337   0.96522   0.97429   0.98954   1.00851
 Alpha virt. eigenvalues --    1.01056   1.02329   1.04237   1.05707   1.06252
 Alpha virt. eigenvalues --    1.07892   1.11189   1.12847   1.15427   1.15569
 Alpha virt. eigenvalues --    1.16591   1.17524   1.18950   1.19420   1.24178
 Alpha virt. eigenvalues --    1.24247   1.25400   1.30515   1.32039   1.35414
 Alpha virt. eigenvalues --    1.37006   1.39699   1.41679   1.42423   1.44355
 Alpha virt. eigenvalues --    1.45815   1.47012   1.47777   1.49689   1.51516
 Alpha virt. eigenvalues --    1.51970   1.55979   1.57545   1.60930   1.64426
 Alpha virt. eigenvalues --    1.68474   1.71705   1.74602   1.76937   1.78496
 Alpha virt. eigenvalues --    1.78918   1.79545   1.80683   1.81028   1.83663
 Alpha virt. eigenvalues --    1.85286   1.86363   1.87923   1.89863   1.90786
 Alpha virt. eigenvalues --    1.94209   1.95886   1.96637   2.00212   2.03019
 Alpha virt. eigenvalues --    2.05131   2.05817   2.07612   2.08851   2.10592
 Alpha virt. eigenvalues --    2.10755   2.12903   2.13642   2.14521   2.16735
 Alpha virt. eigenvalues --    2.19412   2.19771   2.21092   2.22351   2.24316
 Alpha virt. eigenvalues --    2.25831   2.27659   2.29036   2.30382   2.31861
 Alpha virt. eigenvalues --    2.33929   2.36681   2.38161   2.48873   2.50930
 Alpha virt. eigenvalues --    2.53077   2.56598   2.57897   2.59136   2.62248
 Alpha virt. eigenvalues --    2.64337   2.66869   2.69324   2.71493   2.72815
 Alpha virt. eigenvalues --    2.73940   2.75579   2.76891   2.81568   2.86381
 Alpha virt. eigenvalues --    2.88733   3.00014   3.05944   3.12965   3.25587
 Alpha virt. eigenvalues --    3.42204   3.60192   3.75632   3.87510   3.93816
 Alpha virt. eigenvalues --    3.96731   4.06278   4.07868   4.09909   4.10616
 Alpha virt. eigenvalues --    4.15167   4.19052   4.23835   4.31579   4.38991
 Alpha virt. eigenvalues --    4.48616   4.70945
          Condensed to atoms (all electrons):
               1          2          3          4          5          6
     1  O    8.267423   0.447980  -0.051458   0.001558  -0.000016   0.000000
     2  S    0.447980  13.635580   0.133903  -0.017219   0.002134   0.000062
     3  N   -0.051458   0.133903   7.377513   0.256330  -0.058123   0.005644
     4  C    0.001558  -0.017219   0.256330   4.661597   0.368617  -0.081568
     5  N   -0.000016   0.002134  -0.058123   0.368617   6.887164   0.300468
     6  N    0.000000   0.000062   0.005644  -0.081568   0.300468   6.770520
     7  C   -0.000040  -0.004967  -0.072034   0.518127  -0.072055  -0.099365
     8  N    0.000000   0.000312   0.003339  -0.036809  -0.094118   0.229221
     9  C    0.000000  -0.000012  -0.000121   0.004232   0.006523  -0.043969
    10  C    0.000000   0.000000   0.000004   0.000991  -0.000335   0.003082
    11  C    0.000000   0.000000   0.000000  -0.000009   0.000003  -0.000065
    12  C    0.000000   0.000000   0.000000   0.000000   0.000000   0.000017
    13  C    0.000000   0.000000   0.000000   0.000006  -0.000005   0.000312
    14  C    0.000000   0.000000   0.000001  -0.000390   0.000366  -0.000674
    15  C   -0.058336   0.234874  -0.060577  -0.002139   0.000024   0.000008
    16  O   -0.043848   0.442183  -0.052346  -0.000126   0.000814   0.000039
    17  H    0.000918  -0.004624   0.298982  -0.026690   0.001744  -0.000069
    18  H    0.000000  -0.000023  -0.000432  -0.025872   0.004042   0.003452
    19  H    0.000000   0.000000   0.000000   0.000098  -0.000007  -0.000088
    20  H    0.000000   0.000000   0.000000   0.000000   0.000000   0.000001
    21  H    0.000000   0.000000   0.000000   0.000000   0.000000   0.000000
    22  H    0.000000   0.000000   0.000000   0.000000   0.000000  -0.000008
    23  H    0.000000   0.000000   0.000000   0.000046  -0.000327   0.016683
    24  H    0.000007  -0.008756   0.000129   0.000237  -0.000004   0.000000
    25  H    0.001806  -0.008549  -0.002288   0.002432  -0.000035  -0.000039
    26  H   -0.000430  -0.012975   0.002220   0.000014  -0.000001   0.000000
               7          8          9         10         11         12
     1  O   -0.000040   0.000000   0.000000   0.000000   0.000000   0.000000
     2  S   -0.004967   0.000312  -0.000012   0.000000   0.000000   0.000000
     3  N   -0.072034   0.003339  -0.000121   0.000004   0.000000   0.000000
     4  C    0.518127  -0.036809   0.004232   0.000991  -0.000009   0.000000
     5  N   -0.072055  -0.094118   0.006523  -0.000335   0.000003   0.000000
     6  N   -0.099365   0.229221  -0.043969   0.003082  -0.000065   0.000017
     7  C    5.008765   0.333600  -0.032163  -0.006859   0.000008   0.000020
     8  N    0.333600   6.878768   0.198241  -0.050538   0.004647   0.000329
     9  C   -0.032163   0.198241   4.623344   0.528481  -0.009292  -0.038366
    10  C   -0.006859  -0.050538   0.528481   4.995880   0.527738  -0.040950
    11  C    0.000008   0.004647  -0.009292   0.527738   4.863273   0.543997
    12  C    0.000020   0.000329  -0.038366  -0.040950   0.543997   4.870614
    13  C   -0.000084   0.004559  -0.010614  -0.042428  -0.024764   0.539864
    14  C    0.007413  -0.058450   0.513031  -0.072259  -0.041482  -0.039322
    15  C    0.000143  -0.000024  -0.000001   0.000000   0.000000   0.000000
    16  O   -0.000198   0.000003   0.000000   0.000000   0.000000   0.000000
    17  H   -0.001436   0.000003   0.000002   0.000000   0.000000   0.000000
    18  H    0.361337  -0.033076  -0.002036   0.002252   0.000184  -0.000001
    19  H    0.005894  -0.009392  -0.039655   0.353600  -0.034645   0.004299
    20  H   -0.000004  -0.000107   0.003419  -0.037526   0.363568  -0.039298
    21  H    0.000000   0.000004   0.000478   0.004883  -0.041157   0.365796
    22  H    0.000001  -0.000103   0.003547   0.000713   0.004472  -0.039927
    23  H    0.000228  -0.013895  -0.038962   0.005481   0.000089   0.004501
    24  H    0.000185   0.000000   0.000000   0.000000   0.000000   0.000000
    25  H    0.002980  -0.000095   0.000003   0.000000   0.000000   0.000000
    26  H   -0.000021   0.000001   0.000000   0.000000   0.000000   0.000000
              13         14         15         16         17         18
     1  O    0.000000   0.000000  -0.058336  -0.043848   0.000918   0.000000
     2  S    0.000000   0.000000   0.234874   0.442183  -0.004624  -0.000023
     3  N    0.000000   0.000001  -0.060577  -0.052346   0.298982  -0.000432
     4  C    0.000006  -0.000390  -0.002139  -0.000126  -0.026690  -0.025872
     5  N   -0.000005   0.000366   0.000024   0.000814   0.001744   0.004042
     6  N    0.000312  -0.000674   0.000008   0.000039  -0.000069   0.003452
     7  C   -0.000084   0.007413   0.000143  -0.000198  -0.001436   0.361337
     8  N    0.004559  -0.058450  -0.000024   0.000003   0.000003  -0.033076
     9  C   -0.010614   0.513031  -0.000001   0.000000   0.000002  -0.002036
    10  C   -0.042428  -0.072259   0.000000   0.000000   0.000000   0.002252
    11  C   -0.024764  -0.041482   0.000000   0.000000   0.000000   0.000184
    12  C    0.539864  -0.039322   0.000000   0.000000   0.000000  -0.000001
    13  C    4.879144   0.519712   0.000000   0.000000   0.000000  -0.000004
    14  C    0.519712   4.999293   0.000000   0.000000   0.000000  -0.000113
    15  C    0.000000   0.000000   5.534537  -0.058370   0.000109   0.000092
    16  O    0.000000   0.000000  -0.058370   8.273174   0.001302   0.000000
    17  H    0.000000   0.000000   0.000109   0.001302   0.303522   0.000682
    18  H   -0.000004  -0.000113   0.000092   0.000000   0.000682   0.456554
    19  H    0.000220   0.005232   0.000000   0.000000   0.000000   0.001695
    20  H    0.004428   0.000731   0.000000   0.000000   0.000000  -0.000001
    21  H   -0.041323   0.004668   0.000000   0.000000   0.000000   0.000000
    22  H    0.363869  -0.037780   0.000000   0.000000   0.000000   0.000000
    23  H   -0.038046   0.356518   0.000000   0.000000   0.000000  -0.000010
    24  H    0.000000   0.000000   0.343445   0.001850   0.000031   0.000029
    25  H    0.000000   0.000000   0.341054  -0.000195   0.000148   0.000121
    26  H    0.000000   0.000000   0.356121  -0.000127  -0.000006   0.000001
              19         20         21         22         23         24
     1  O    0.000000   0.000000   0.000000   0.000000   0.000000   0.000007
     2  S    0.000000   0.000000   0.000000   0.000000   0.000000  -0.008756
     3  N    0.000000   0.000000   0.000000   0.000000   0.000000   0.000129
     4  C    0.000098   0.000000   0.000000   0.000000   0.000046   0.000237
     5  N   -0.000007   0.000000   0.000000   0.000000  -0.000327  -0.000004
     6  N   -0.000088   0.000001   0.000000  -0.000008   0.016683   0.000000
     7  C    0.005894  -0.000004   0.000000   0.000001   0.000228   0.000185
     8  N   -0.009392  -0.000107   0.000004  -0.000103  -0.013895   0.000000
     9  C   -0.039655   0.003419   0.000478   0.003547  -0.038962   0.000000
    10  C    0.353600  -0.037526   0.004883   0.000713   0.005481   0.000000
    11  C   -0.034645   0.363568  -0.041157   0.004472   0.000089   0.000000
    12  C    0.004299  -0.039298   0.365796  -0.039927   0.004501   0.000000
    13  C    0.000220   0.004428  -0.041323   0.363869  -0.038046   0.000000
    14  C    0.005232   0.000731   0.004668  -0.037780   0.356518   0.000000
    15  C    0.000000   0.000000   0.000000   0.000000   0.000000   0.343445
    16  O    0.000000   0.000000   0.000000   0.000000   0.000000   0.001850
    17  H    0.000000   0.000000   0.000000   0.000000   0.000000   0.000031
    18  H    0.001695  -0.000001   0.000000   0.000000  -0.000010   0.000029
    19  H    0.543204  -0.005086  -0.000145   0.000013  -0.000129   0.000000
    20  H   -0.005086   0.549477  -0.005025  -0.000164   0.000013   0.000000
    21  H   -0.000145  -0.005025   0.556087  -0.005083  -0.000133   0.000000
    22  H    0.000013  -0.000164  -0.005083   0.550937  -0.005113   0.000000
    23  H   -0.000129   0.000013  -0.000133  -0.005113   0.536594   0.000000
    24  H    0.000000   0.000000   0.000000   0.000000   0.000000   0.470522
    25  H    0.000000   0.000000   0.000000   0.000000   0.000000  -0.021130
    26  H    0.000000   0.000000   0.000000   0.000000   0.000000  -0.017252
              25         26
     1  O    0.001806  -0.000430
     2  S   -0.008549  -0.012975
     3  N   -0.002288   0.002220
     4  C    0.002432   0.000014
     5  N   -0.000035  -0.000001
     6  N   -0.000039   0.000000
     7  C    0.002980  -0.000021
     8  N   -0.000095   0.000001
     9  C    0.000003   0.000000
    10  C    0.000000   0.000000
    11  C    0.000000   0.000000
    12  C    0.000000   0.000000
    13  C    0.000000   0.000000
    14  C    0.000000   0.000000
    15  C    0.341054   0.356121
    16  O   -0.000195  -0.000127
    17  H    0.000148  -0.000006
    18  H    0.000121   0.000001
    19  H    0.000000   0.000000
    20  H    0.000000   0.000000
    21  H    0.000000   0.000000
    22  H    0.000000   0.000000
    23  H    0.000000   0.000000
    24  H   -0.021130  -0.017252
    25  H    0.475080  -0.018902
    26  H   -0.018902   0.449718
 Mulliken charges:
               1
     1  O   -0.565564
     2  S    1.160097
     3  N   -0.780685
     4  C    0.376536
     5  N   -0.346873
     6  N   -0.103665
     7  C    0.050520
     8  N   -0.356420
     9  C    0.333890
    10  C   -0.172211
    11  C   -0.156565
    12  C   -0.131571
    13  C   -0.154847
    14  C   -0.156493
    15  C   -0.630961
    16  O   -0.564154
    17  H    0.425381
    18  H    0.231127
    19  H    0.174891
    20  H    0.165575
    21  H    0.160949
    22  H    0.164625
    23  H    0.176462
    24  H    0.230707
    25  H    0.227608
    26  H    0.241640
 Sum of Mulliken charges =   0.00000
 Mulliken charges with hydrogens summed into heavy atoms:
               1
     1  O   -0.565564
     2  S    1.160097
     3  N   -0.355304
     4  C    0.376536
     5  N   -0.346873
     6  N   -0.103665
     7  C    0.281647
     8  N   -0.356420
     9  C    0.333890
    10  C    0.002680
    11  C    0.009009
    12  C    0.029378
    13  C    0.009778
    14  C    0.019969
    15  C    0.068995
    16  O   -0.564154
 Electronic spatial extent (au):  <R**2>=           5474.0538
 Charge=              0.0000 electrons
 Dipole moment (field-independent basis, Debye):
    X=              7.8395    Y=             10.1437    Z=              1.4184  Tot=             12.8982
 Quadrupole moment (field-independent basis, Debye-Ang):
   XX=           -108.8859   YY=            -97.4111   ZZ=            -95.7492
   XY=            -12.3627   XZ=             -3.3393   YZ=             -3.1580
 Traceless Quadrupole moment (field-independent basis, Debye-Ang):
   XX=             -8.2038   YY=              3.2710   ZZ=              4.9328
   XY=            -12.3627   XZ=             -3.3393   YZ=             -3.1580
 Octapole moment (field-independent basis, Debye-Ang**2):
  XXX=            217.3834  YYY=             37.1082  ZZZ=              3.8660  XYY=              4.2574
  XXY=             47.3563  XXZ=             44.9400  XZZ=            -28.8524  YZZ=             10.8065
  YYZ=              1.1162  XYZ=            -22.8184
 Hexadecapole moment (field-independent basis, Debye-Ang**3):
 XXXX=          -6274.3858 YYYY=           -651.6373 ZZZZ=           -353.7368 XXXY=            -22.5220
 XXXZ=            -34.2509 YYYX=            -26.7837 YYYZ=            -26.7797 ZZZX=            -25.1918
 ZZZY=             -3.5772 XXYY=          -1062.7463 XXZZ=          -1074.9541 YYZZ=           -164.3771
 XXYZ=             -1.0389 YYXZ=             -0.1446 ZZXY=            -41.9944
 N-N= 1.185241171599D+03 E-N=-4.987366151213D+03  KE= 1.108370291294D+03
 No NMR shielding tensors so no spin-rotation constants.
 Leave Link  601 at Thu Aug  6 22:02:01 2020, MaxMem=    33554432 cpu:         0.2
 (Enter /prod/apps/gaussian/g09d1/l9999.exe)
 1\1\GINC-PIRINEUS20\SP\RB3LYP\6-31G(d)\C9H10N4O2S1\UBAFAR01\06-Aug-202
 0\0\\#p b3lyp/6-31G(d) scrf=(iefpcm,read,solvent=Water) geom=allcheck 
 guess=read\\SM44.n.3.pdb.xyz\\0,1\O,0,3.533,-0.865,-2.147\S,0,2.961,-2
 .042,-1.481\N,0,2.865,-1.612,0.157\C,0,2.394,-2.546,1.1\N,0,3.192,-3.5
 41,1.579\N,0,2.52,-4.229,2.463\C,0,1.167,-2.621,1.725\N,0,1.288,-3.673
 ,2.571\C,0,0.327,-4.201,3.48\C,0,-0.726,-3.395,3.916\C,0,-1.667,-3.924
 ,4.799\C,0,-1.55,-5.24,5.249\C,0,-0.488,-6.031,4.809\C,0,0.453,-5.521,
 3.918\C,0,1.281,-2.277,-2.068\O,0,3.66,-3.33,-1.546\H,0,2.465,-0.677,0
 .256\H,0,0.268,-2.037,1.628\H,0,-0.806,-2.368,3.581\H,0,-2.486,-3.3,5.
 138\H,0,-2.282,-5.646,5.939\H,0,-0.392,-7.056,5.152\H,0,1.274,-6.128,3
 .559\H,0,0.742,-1.337,-1.964\H,0,0.812,-3.067,-1.482\H,0,1.349,-2.57,-
 3.116\\Version=AM64L-G09RevD.01\State=1-A\HF=-1116.5365208\RMSD=4.384e
 -09\Dipole=-4.7818438,0.9069295,1.4360794\Quadrupole=-8.6005804,6.7824
 125,1.8181679,-2.9946878,7.3086334,-0.6466558\PG=C01 [X(C9H10N4O2S1)]\
 \@


 WE STILL HAVE JUDGEMENT HERE,
 THAT WE TEACH BUT BLOODY INSTRUCTIONS,
 WHICH, BEING TAUGHT,
 RETURN TO PLAGUE THE INVENTOR.
           MACBETH ACT I, SCENE VII
 Job cpu time:       0 days  0 hours  2 minutes 30.9 seconds.
 File lengths (MBytes):  RWF=    119 Int=      0 D2E=      0 Chk=      5 Scr=      1
 Normal termination of Gaussian 09 at Thu Aug  6 22:02:01 2020.
