 Entering Gaussian System, Link 0=g09
 Initial command:
 /prod/apps/gaussian/g09d1/l1.exe "/tmp/ubafar01/1448618/Gau-178789.inp" -scrdir="/tmp/ubafar01/1448618/"
 Entering Link 1 = /prod/apps/gaussian/g09d1/l1.exe PID=    178790.
  
 Copyright (c) 1988,1990,1992,1993,1995,1998,2003,2009,2013,
            Gaussian, Inc.  All Rights Reserved.
  
 This is part of the Gaussian(R) 09 program.  It is based on
 the Gaussian(R) 03 system (copyright 2003, Gaussian, Inc.),
 the Gaussian(R) 98 system (copyright 1998, Gaussian, Inc.),
 the Gaussian(R) 94 system (copyright 1995, Gaussian, Inc.),
 the Gaussian 92(TM) system (copyright 1992, Gaussian, Inc.),
 the Gaussian 90(TM) system (copyright 1990, Gaussian, Inc.),
 the Gaussian 88(TM) system (copyright 1988, Gaussian, Inc.),
 the Gaussian 86(TM) system (copyright 1986, Carnegie Mellon
 University), and the Gaussian 82(TM) system (copyright 1983,
 Carnegie Mellon University). Gaussian is a federally registered
 trademark of Gaussian, Inc.
  
 This software contains proprietary and confidential information,
 including trade secrets, belonging to Gaussian, Inc.
  
 This software is provided under written license and may be
 used, copied, transmitted, or stored only in accord with that
 written license.
  
 The following legend is applicable only to US Government
 contracts under FAR:
  
                    RESTRICTED RIGHTS LEGEND
  
 Use, reproduction and disclosure by the US Government is
 subject to restrictions as set forth in subparagraphs (a)
 and (c) of the Commercial Computer Software - Restricted
 Rights clause in FAR 52.227-19.
  
 Gaussian, Inc.
 340 Quinnipiac St., Bldg. 40, Wallingford CT 06492
  
  
 ---------------------------------------------------------------
 Warning -- This program may not be used in any manner that
 competes with the business of Gaussian, Inc. or will provide
 assistance to any competitor of Gaussian, Inc.  The licensee
 of this program is prohibited from giving any competitor of
 Gaussian, Inc. access to this program.  By using this program,
 the user acknowledges that Gaussian, Inc. is engaged in the
 business of creating and licensing software in the field of
 computational chemistry and represents and warrants to the
 licensee that it is not a competitor of Gaussian, Inc. and that
 it will not use this program in any manner prohibited above.
 ---------------------------------------------------------------
  

 Cite this work as:
 Gaussian 09, Revision D.01,
 M. J. Frisch, G. W. Trucks, H. B. Schlegel, G. E. Scuseria, 
 M. A. Robb, J. R. Cheeseman, G. Scalmani, V. Barone, B. Mennucci, 
 G. A. Petersson, H. Nakatsuji, M. Caricato, X. Li, H. P. Hratchian, 
 A. F. Izmaylov, J. Bloino, G. Zheng, J. L. Sonnenberg, M. Hada, 
 M. Ehara, K. Toyota, R. Fukuda, J. Hasegawa, M. Ishida, T. Nakajima, 
 Y. Honda, O. Kitao, H. Nakai, T. Vreven, J. A. Montgomery, Jr., 
 J. E. Peralta, F. Ogliaro, M. Bearpark, J. J. Heyd, E. Brothers, 
 K. N. Kudin, V. N. Staroverov, T. Keith, R. Kobayashi, J. Normand, 
 K. Raghavachari, A. Rendell, J. C. Burant, S. S. Iyengar, J. Tomasi, 
 M. Cossi, N. Rega, J. M. Millam, M. Klene, J. E. Knox, J. B. Cross, 
 V. Bakken, C. Adamo, J. Jaramillo, R. Gomperts, R. E. Stratmann, 
 O. Yazyev, A. J. Austin, R. Cammi, C. Pomelli, J. W. Ochterski, 
 R. L. Martin, K. Morokuma, V. G. Zakrzewski, G. A. Voth, 
 P. Salvador, J. J. Dannenberg, S. Dapprich, A. D. Daniels, 
 O. Farkas, J. B. Foresman, J. V. Ortiz, J. Cioslowski, 
 and D. J. Fox, Gaussian, Inc., Wallingford CT, 2013.
 
 ******************************************
 Gaussian 09:  AM64L-G09RevD.01 24-Apr-2013
                 6-Aug-2020 
 ******************************************
 %nproc=1
 Will use up to    1 processors via shared memory.
 %Chk=SM44.n.8.pdb.xyz.mst.n.w.chk
 -----------------
 #p b3lyp/6-31G(d)
 -----------------
 1/38=1/1;
 2/12=2,17=6,18=5,40=1/2;
 3/5=1,6=6,7=1,11=2,16=1,25=1,30=1,74=-5/1,2,3;
 4//1;
 5/5=2,38=5/2;
 6/7=2,8=2,9=2,10=2,28=1/1;
 99/5=1,9=1/99;
 Leave Link    1 at Thu Aug  6 21:56:18 2020, MaxMem=           0 cpu:         0.0
 (Enter /prod/apps/gaussian/g09d1/l101.exe)
 ----------------
 SM44.n.8.pdb.xyz
 ----------------
 Symbolic Z-matrix:
 Charge =  0 Multiplicity = 1
 O                     3.444    -0.878    -2.209 
 S                     3.014    -2.056    -1.447 
 N                     2.705    -1.475     0.117 
 C                     2.298    -2.37      1.126 
 N                     3.189    -3.177     1.766 
 N                     2.554    -3.865     2.676 
 C                     1.047    -2.566     1.674 
 N                     1.251    -3.494     2.64 
 C                     0.306    -4.065     3.54 
 C                     0.567    -5.32      4.095 
 C                    -0.356    -5.874     4.979 
 C                    -1.532    -5.19      5.296 
 C                    -1.781    -3.94      4.729 
 C                    -0.861    -3.366     3.853 
 C                     1.451    -2.635    -2.113 
 O                     3.914    -3.205    -1.309 
 H                     2.152    -0.617     0.072 
 H                     0.083    -2.142     1.452 
 H                     1.475    -5.844     3.828 
 H                    -0.158    -6.849     5.412 
 H                    -2.249    -5.629     5.981 
 H                    -2.688    -3.4       4.974 
 H                    -1.043    -2.386     3.429 
 H                     0.764    -1.791    -2.167 
 H                     1.062    -3.419    -1.465 
 H                     1.655    -3.03     -3.109 
 
 NAtoms=     26 NQM=       26 NQMF=       0 NMMI=      0 NMMIF=      0
                NMic=       0 NMicF=      0.
                    Isotopes and Nuclear Properties:
 (Nuclear quadrupole moments (NQMom) in fm**2, nuclear magnetic moments (NMagM)
  in nuclear magnetons)

  Atom         1           2           3           4           5           6           7           8           9          10
 IAtWgt=          16          32          14          12          14          14          12          14          12          12
 AtmWgt=  15.9949146  31.9720718  14.0030740  12.0000000  14.0030740  14.0030740  12.0000000  14.0030740  12.0000000  12.0000000
 NucSpn=           0           0           2           0           2           2           0           2           0           0
 AtZEff=   0.0000000   0.0000000   0.0000000   0.0000000   0.0000000   0.0000000   0.0000000   0.0000000   0.0000000   0.0000000
 NQMom=    0.0000000   0.0000000   2.0440000   0.0000000   2.0440000   2.0440000   0.0000000   2.0440000   0.0000000   0.0000000
 NMagM=    0.0000000   0.0000000   0.4037610   0.0000000   0.4037610   0.4037610   0.0000000   0.4037610   0.0000000   0.0000000
 AtZNuc=   8.0000000  16.0000000   7.0000000   6.0000000   7.0000000   7.0000000   6.0000000   7.0000000   6.0000000   6.0000000

  Atom        11          12          13          14          15          16          17          18          19          20
 IAtWgt=          12          12          12          12          12          16           1           1           1           1
 AtmWgt=  12.0000000  12.0000000  12.0000000  12.0000000  12.0000000  15.9949146   1.0078250   1.0078250   1.0078250   1.0078250
 NucSpn=           0           0           0           0           0           0           1           1           1           1
 AtZEff=   0.0000000   0.0000000   0.0000000   0.0000000   0.0000000   0.0000000   0.0000000   0.0000000   0.0000000   0.0000000
 NQMom=    0.0000000   0.0000000   0.0000000   0.0000000   0.0000000   0.0000000   0.0000000   0.0000000   0.0000000   0.0000000
 NMagM=    0.0000000   0.0000000   0.0000000   0.0000000   0.0000000   0.0000000   2.7928460   2.7928460   2.7928460   2.7928460
 AtZNuc=   6.0000000   6.0000000   6.0000000   6.0000000   6.0000000   8.0000000   1.0000000   1.0000000   1.0000000   1.0000000

  Atom        21          22          23          24          25          26
 IAtWgt=           1           1           1           1           1           1
 AtmWgt=   1.0078250   1.0078250   1.0078250   1.0078250   1.0078250   1.0078250
 NucSpn=           1           1           1           1           1           1
 AtZEff=   0.0000000   0.0000000   0.0000000   0.0000000   0.0000000   0.0000000
 NQMom=    0.0000000   0.0000000   0.0000000   0.0000000   0.0000000   0.0000000
 NMagM=    2.7928460   2.7928460   2.7928460   2.7928460   2.7928460   2.7928460
 AtZNuc=   1.0000000   1.0000000   1.0000000   1.0000000   1.0000000   1.0000000
 Leave Link  101 at Thu Aug  6 21:56:18 2020, MaxMem=    33554432 cpu:         0.1
 (Enter /prod/apps/gaussian/g09d1/l202.exe)
                          Input orientation:                          
 ---------------------------------------------------------------------
 Center     Atomic      Atomic             Coordinates (Angstroms)
 Number     Number       Type             X           Y           Z
 ---------------------------------------------------------------------
      1          8           0        3.444000   -0.878000   -2.209000
      2         16           0        3.014000   -2.056000   -1.447000
      3          7           0        2.705000   -1.475000    0.117000
      4          6           0        2.298000   -2.370000    1.126000
      5          7           0        3.189000   -3.177000    1.766000
      6          7           0        2.554000   -3.865000    2.676000
      7          6           0        1.047000   -2.566000    1.674000
      8          7           0        1.251000   -3.494000    2.640000
      9          6           0        0.306000   -4.065000    3.540000
     10          6           0        0.567000   -5.320000    4.095000
     11          6           0       -0.356000   -5.874000    4.979000
     12          6           0       -1.532000   -5.190000    5.296000
     13          6           0       -1.781000   -3.940000    4.729000
     14          6           0       -0.861000   -3.366000    3.853000
     15          6           0        1.451000   -2.635000   -2.113000
     16          8           0        3.914000   -3.205000   -1.309000
     17          1           0        2.152000   -0.617000    0.072000
     18          1           0        0.083000   -2.142000    1.452000
     19          1           0        1.475000   -5.844000    3.828000
     20          1           0       -0.158000   -6.849000    5.412000
     21          1           0       -2.249000   -5.629000    5.981000
     22          1           0       -2.688000   -3.400000    4.974000
     23          1           0       -1.043000   -2.386000    3.429000
     24          1           0        0.764000   -1.791000   -2.167000
     25          1           0        1.062000   -3.419000   -1.465000
     26          1           0        1.655000   -3.030000   -3.109000
 ---------------------------------------------------------------------
                    Distance matrix (angstroms):
                    1          2          3          4          5
     1  O    0.000000
     2  S    1.467388   0.000000
     3  N    2.512530   1.696802   0.000000
     4  C    3.829048   2.689160   1.408813   0.000000
     5  N    4.599027   3.407438   2.418731   1.361885   0.000000
     6  N    5.794609   4.525838   3.504766   2.168654   1.305630
     7  C    4.865454   3.724222   2.522597   1.379754   2.229338
     8  N    5.930051   4.677562   3.543445   2.156799   2.149467
     9  C    7.283887   6.019926   4.917340   3.559282   3.499616
    10  C    8.230973   6.881516   5.931235   4.529219   4.109936
    11  C    9.542922   8.199238   7.236019   5.845284   5.492195
    12  C    9.983934   8.715281   7.653459   6.325362   6.229038
    13  C    9.209360   8.042665   6.889918   5.664340   5.836303
    14  C    7.840345   6.694903   5.499994   4.290434   4.560021
    15  C    2.658630   1.794928   2.809095   3.358386   4.284979
    16  O    2.538864   1.466030   2.547166   3.039392   3.159436
    17  H    2.634454   2.262990   1.021762   2.050668   3.240155
    18  H    5.128054   4.123392   3.016952   2.250441   3.288929
    19  H    8.061234   6.674061   5.862813   4.477366   3.781868
    20  H   10.329903   8.948760   8.069304   6.668071   6.162736
    21  H   11.048002   9.779605   8.728363   7.407247   7.304134
    22  H    9.775346   8.691857   7.508696   6.381865   6.699263
    23  H    7.361676   6.351655   5.083972   4.057875   4.615309
    24  H    2.831560   2.377209   3.013966   3.678620   4.823910
    25  H    3.561480   2.380840   2.996883   3.056367   3.875829
    26  H    2.939664   2.357499   3.731970   4.334083   5.112767
                    6          7          8          9         10
     6  N    0.000000
     7  C    2.227657   0.000000
     8  N    1.355266   1.354975   0.000000
     9  C    2.416609   2.505601   1.424453   0.000000
    10  C    2.842315   3.698129   2.432932   1.396843   0.000000
    11  C    4.219951   4.882038   3.703751   2.404464   1.392947
    12  C    5.031443   5.162897   4.204265   2.779821   2.421797
    13  C    4.797151   4.383889   3.708889   2.405185   2.796330
    14  C    3.646444   3.004747   2.438913   1.395872   2.432255
    15  C    5.065968   3.809114   4.834138   5.942418   6.821286
    16  O    4.262092   4.186442   4.771760   6.104921   6.699168
    17  H    4.182335   2.754275   3.960247   5.227183   6.388659
    18  H    3.251576   1.076269   2.145570   2.847350   4.161657
    19  H    2.531361   3.945654   2.642730   2.148103   1.081817
    20  H    4.872873   5.811089   4.574417   3.386788   2.144284
    21  H    6.091267   6.228630   5.288715   3.864273   3.403283
    22  H    5.742438   5.053294   4.579532   3.385649   3.879957
    23  H    3.961421   2.735055   2.666950   2.156656   3.412332
    24  H    5.564191   3.928612   5.122951   6.160413   7.190639
    25  H    4.424123   3.252869   4.110033   5.102830   5.896815
    26  H    5.913683   4.843764   5.781826   6.862961   7.637111
                   11         12         13         14         15
    11  C    0.000000
    12  C    1.396897   0.000000
    13  C    2.415260   1.394987   0.000000
    14  C    2.795168   2.420633   1.394006   0.000000
    15  C    8.003301   8.385678   7.678660   6.439943   0.000000
    16  O    8.055768   8.787785   8.332508   7.033690   2.652864
    17  H    7.616086   7.859667   6.942512   5.561576   3.055806
    18  H    5.153666   5.164772   4.176844   2.855541   3.850156
    19  H    2.162929   3.409514   3.877957   3.405584   6.752314
    20  H    1.085043   2.157223   3.400426   3.880203   8.773386
    21  H    2.155801   1.084451   2.153892   3.402366   9.389722
    22  H    3.399842   2.155022   1.083639   2.143764   8.242701
    23  H    3.878223   3.404001   2.156284   1.083190   6.082417
    24  H    8.306058   8.515937   7.658332   6.431302   1.089597
    25  H    7.040091   7.454958   6.835183   5.655251   1.088982
    26  H    8.806146   9.244814   8.606302   7.410303   1.090714
                   16         17         18         19         20
    16  O    0.000000
    17  H    3.421922   0.000000
    18  H    4.840418   2.917325   0.000000
    19  H    6.269116   6.472047   4.613875   0.000000
    20  H    8.662088   8.525815   6.155935   2.487121   0.000000
    21  H    9.848982   8.910961   6.173268   4.306949   2.486854
    22  H    9.115949   7.429690   4.654620   4.961554   4.299808
    23  H    6.905885   4.960528   2.288218   4.296195   4.963253
    24  H    3.557817   2.884084   3.699206   7.271338   9.158313
    25  H    2.864269   3.376636   3.331375   5.836698   7.781159
    26  H    2.893736   4.023473   4.905349   7.488188   9.512054
                   21         22         23         24         25
    21  H    0.000000
    22  H    2.484997   0.000000
    23  H    4.299324   2.474115   0.000000
    24  H    9.497279   8.093149   5.910541   0.000000
    25  H    8.443325   7.451415   5.426726   1.797774   0.000000
    26  H   10.228593   9.183324   7.102069   1.793423   1.790449
                   26
    26  H    0.000000
 Stoichiometry    C9H10N4O2S
 Framework group  C1[X(C9H10N4O2S)]
 Deg. of freedom    72
 Full point group                 C1      NOp   1
 Largest Abelian subgroup         C1      NOp   1
 Largest concise Abelian subgroup C1      NOp   1
                         Standard orientation:                         
 ---------------------------------------------------------------------
 Center     Atomic      Atomic             Coordinates (Angstroms)
 Number     Number       Type             X           Y           Z
 ---------------------------------------------------------------------
      1          8           0        4.712724   -0.539318   -0.446674
      2         16           0        3.472034   -0.098603    0.201158
      3          7           0        2.285281   -0.211954   -1.006280
      4          6           0        0.960928    0.174937   -0.721395
      5          7           0        0.590636    1.485210   -0.693112
      6          7           0       -0.690421    1.554362   -0.450670
      7          6           0       -0.152070   -0.606912   -0.489729
      8          7           0       -1.158378    0.287526   -0.337147
      9          6           0       -2.539255    0.040610   -0.089603
     10          6           0       -3.308317    1.031529    0.525046
     11          6           0       -4.659657    0.789881    0.761239
     12          6           0       -5.234631   -0.430951    0.400275
     13          6           0       -4.451999   -1.412805   -0.207541
     14          6           0       -3.101271   -1.181366   -0.462928
     15          6           0        3.037695   -1.280518    1.480296
     16          8           0        3.382896    1.251090    0.766514
     17          1           0        2.363180   -1.105861   -1.495015
     18          1           0       -0.288565   -1.672128   -0.418738
     19          1           0       -2.845155    1.965986    0.812450
     20          1           0       -5.260899    1.556294    1.239190
     21          1           0       -6.286133   -0.614840    0.591492
     22          1           0       -4.891363   -2.360432   -0.496045
     23          1           0       -2.497658   -1.934620   -0.954415
     24          1           0        3.052873   -2.280247    1.047245
     25          1           0        2.049915   -1.033146    1.866272
     26          1           0        3.787925   -1.189966    2.266816
 ---------------------------------------------------------------------
 Rotational constants (GHZ):      1.5912283      0.1984892      0.1905645
 Leave Link  202 at Thu Aug  6 21:56:18 2020, MaxMem=    33554432 cpu:         0.0
 (Enter /prod/apps/gaussian/g09d1/l301.exe)
 Standard basis: 6-31G(d) (6D, 7F)
 Ernie: Thresh=  0.10000D-02 Tol=  0.10000D-05 Strict=F.
 There are   264 symmetry adapted cartesian basis functions of A   symmetry.
 There are   264 symmetry adapted basis functions of A   symmetry.
   264 basis functions,   512 primitive gaussians,   264 cartesian basis functions
    62 alpha electrons       62 beta electrons
       nuclear repulsion energy      1185.4336143653 Hartrees.
 IExCor=  402 DFT=T Ex+Corr=B3LYP ExCW=0 ScaHFX=  0.200000
 ScaDFX=  0.800000  0.720000  1.000000  0.810000 ScalE2=  1.000000  1.000000
 IRadAn=      0 IRanWt=     -1 IRanGd=            0 ICorTp=0 IEmpDi=  4
 NAtoms=   26 NActive=   26 NUniq=   26 SFac= 1.00D+00 NAtFMM=   60 NAOKFM=F Big=F
 Integral buffers will be    131072 words long.
 Raffenetti 2 integral format.
 Two-electron integral symmetry is turned on.
 Leave Link  301 at Thu Aug  6 21:56:18 2020, MaxMem=    33554432 cpu:         0.0
 (Enter /prod/apps/gaussian/g09d1/l302.exe)
 NPDir=0 NMtPBC=     1 NCelOv=     1 NCel=       1 NClECP=     1 NCelD=      1
         NCelK=      1 NCelE2=     1 NClLst=     1 CellRange=     0.0.
 One-electron integrals computed using PRISM.
 NBasis=   264 RedAO= T EigKep=  4.67D-04  NBF=   264
 NBsUse=   264 1.00D-06 EigRej= -1.00D+00 NBFU=   264
 Precomputing XC quadrature grid using
 IXCGrd= 4 IRadAn=           0 IRanWt=          -1 IRanGd=           0 AccXCQ= 0.00D+00.
 Generated NRdTot=       0 NPtTot=           0 NUsed=           0 NTot=          32
 NSgBfM=   262   262   262   262   262 MxSgAt=    26 MxSgA2=    26.
 Leave Link  302 at Thu Aug  6 21:56:19 2020, MaxMem=    33554432 cpu:         0.7
 (Enter /prod/apps/gaussian/g09d1/l303.exe)
 DipDrv:  MaxL=1.
 Leave Link  303 at Thu Aug  6 21:56:19 2020, MaxMem=    33554432 cpu:         0.0
 (Enter /prod/apps/gaussian/g09d1/l401.exe)
 ExpMin= 1.17D-01 ExpMax= 2.19D+04 ExpMxC= 3.30D+03 IAcc=1 IRadAn=         1 AccDes= 0.00D+00
 Harris functional with IExCor=  402 and IRadAn=       1 diagonalized for initial guess.
 HarFok:  IExCor=  402 AccDes= 0.00D+00 IRadAn=         1 IDoV= 1 UseB2=F ITyADJ=14
 ICtDFT=  3500011 ScaDFX=  1.000000  1.000000  1.000000  1.000000
 FoFCou: FMM=F IPFlag=           0 FMFlag=      100000 FMFlg1=           0
         NFxFlg=           0 DoJE=T BraDBF=F KetDBF=T FulRan=T
         wScrn=  0.000000 ICntrl=     500 IOpCl=  0 I1Cent=   200000004 NGrid=           0
         NMat0=    1 NMatS0=      1 NMatT0=    0 NMatD0=    1 NMtDS0=    0 NMtDT0=    0
 Petite list used in FoFCou.
 Harris En= -1116.52819122520    
 JPrj=0 DoOrth=F DoCkMO=F.
 Leave Link  401 at Thu Aug  6 21:56:21 2020, MaxMem=    33554432 cpu:         2.2
 (Enter /prod/apps/gaussian/g09d1/l502.exe)
 Closed shell SCF:
 Using DIIS extrapolation, IDIIS=  1040.
 Integral symmetry usage will be decided dynamically.
 IVT=      231207 IEndB=      231207 NGot=    33554432 MDV=    33409826
 LenX=    33409826 LenY=    33339689
 Requested convergence on RMS density matrix=1.00D-08 within 128 cycles.
 Requested convergence on MAX density matrix=1.00D-06.
 Requested convergence on             energy=1.00D-06.
 No special actions if energy rises.
 Fock matrices will be formed incrementally for  20 cycles.
 Integral accuracy reduced to 1.0D-05 until final iterations.

 Cycle   1  Pass 0  IDiag  1:
 FoFJK:  IHMeth= 1 ICntrl=       0 DoSepK=F KAlg= 0 I1Cent=   0 FoldK=F
 IRaf= 770000000 NMat=   1 IRICut=       1 DoRegI=T DoRafI=F ISym2E= 0.
 FoFCou: FMM=F IPFlag=           0 FMFlag=      100000 FMFlg1=           0
         NFxFlg=           0 DoJE=F BraDBF=F KetDBF=F FulRan=T
         wScrn=  0.000000 ICntrl=       0 IOpCl=  0 I1Cent=           0 NGrid=           0
         NMat0=    1 NMatS0=      1 NMatT0=    0 NMatD0=    1 NMtDS0=    0 NMtDT0=    0
 Symmetry not used in FoFCou.
 E= -1115.99061099036    
 DIIS: error= 3.17D-02 at cycle   1 NSaved=   1.
 NSaved= 1 IEnMin= 1 EnMin= -1115.99061099036     IErMin= 1 ErrMin= 3.17D-02
 ErrMax= 3.17D-02  0.00D+00 EMaxC= 1.00D-01 BMatC= 5.96D-01 BMatP= 5.96D-01
 IDIUse=3 WtCom= 6.83D-01 WtEn= 3.17D-01
 Coeff-Com:  0.100D+01
 Coeff-En:   0.100D+01
 Coeff:      0.100D+01
 Gap=     0.310 Goal=   None    Shift=    0.000
 GapD=    0.310 DampG=1.000 DampE=0.500 DampFc=0.5000 IDamp=-1.
 Damping current iteration by 5.00D-01
 RMSDP=7.82D-03 MaxDP=5.82D-01              OVMax= 2.58D-01

 Cycle   2  Pass 0  IDiag  1:
 RMSU=  3.91D-03    CP:  9.96D-01
 E= -1116.08465850987     Delta-E=       -0.094047519506 Rises=F Damp=T
 DIIS: error= 2.03D-02 at cycle   2 NSaved=   2.
 NSaved= 2 IEnMin= 2 EnMin= -1116.08465850987     IErMin= 2 ErrMin= 2.03D-02
 ErrMax= 2.03D-02  0.00D+00 EMaxC= 1.00D-01 BMatC= 1.16D-01 BMatP= 5.96D-01
 IDIUse=3 WtCom= 7.97D-01 WtEn= 2.03D-01
 Coeff-Com:  0.260D+00 0.740D+00
 Coeff-En:   0.411D+00 0.589D+00
 Coeff:      0.291D+00 0.709D+00
 Gap=     0.230 Goal=   None    Shift=    0.000
 RMSDP=2.26D-03 MaxDP=1.24D-01 DE=-9.40D-02 OVMax= 2.15D-01

 Cycle   3  Pass 0  IDiag  1:
 RMSU=  1.78D-03    CP:  9.86D-01  6.48D-01
 E= -1116.45649103392     Delta-E=       -0.371832524049 Rises=F Damp=F
 DIIS: error= 1.03D-02 at cycle   3 NSaved=   3.
 NSaved= 3 IEnMin= 3 EnMin= -1116.45649103392     IErMin= 3 ErrMin= 1.03D-02
 ErrMax= 1.03D-02  0.00D+00 EMaxC= 1.00D-01 BMatC= 5.04D-02 BMatP= 1.16D-01
 IDIUse=3 WtCom= 8.97D-01 WtEn= 1.03D-01
 Coeff-Com:  0.967D-01 0.398D+00 0.505D+00
 Coeff-En:   0.000D+00 0.000D+00 0.100D+01
 Coeff:      0.868D-01 0.357D+00 0.556D+00
 Gap=     0.199 Goal=   None    Shift=    0.000
 RMSDP=1.17D-03 MaxDP=3.46D-02 DE=-3.72D-01 OVMax= 4.63D-02

 Cycle   4  Pass 0  IDiag  1:
 RMSU=  7.70D-04    CP:  9.91D-01  7.24D-01  5.42D-01
 E= -1116.49612774961     Delta-E=       -0.039636715698 Rises=F Damp=F
 DIIS: error= 3.16D-03 at cycle   4 NSaved=   4.
 NSaved= 4 IEnMin= 4 EnMin= -1116.49612774961     IErMin= 4 ErrMin= 3.16D-03
 ErrMax= 3.16D-03  0.00D+00 EMaxC= 1.00D-01 BMatC= 8.20D-03 BMatP= 5.04D-02
 IDIUse=3 WtCom= 9.68D-01 WtEn= 3.16D-02
 Coeff-Com:  0.127D-01 0.782D-01 0.301D+00 0.608D+00
 Coeff-En:   0.000D+00 0.000D+00 0.132D+00 0.868D+00
 Coeff:      0.123D-01 0.758D-01 0.296D+00 0.616D+00
 Gap=     0.198 Goal=   None    Shift=    0.000
 RMSDP=4.33D-04 MaxDP=1.55D-02 DE=-3.96D-02 OVMax= 2.50D-02

 Cycle   5  Pass 0  IDiag  1:
 RMSU=  2.56D-04    CP:  9.90D-01  7.06D-01  6.40D-01  6.20D-01
 E= -1116.50242194723     Delta-E=       -0.006294197618 Rises=F Damp=F
 DIIS: error= 1.50D-03 at cycle   5 NSaved=   5.
 NSaved= 5 IEnMin= 5 EnMin= -1116.50242194723     IErMin= 5 ErrMin= 1.50D-03
 ErrMax= 1.50D-03  0.00D+00 EMaxC= 1.00D-01 BMatC= 1.21D-03 BMatP= 8.20D-03
 IDIUse=3 WtCom= 9.85D-01 WtEn= 1.50D-02
 Coeff-Com:  0.112D-02 0.224D-01 0.148D+00 0.386D+00 0.443D+00
 Coeff-En:   0.000D+00 0.000D+00 0.000D+00 0.807D-01 0.919D+00
 Coeff:      0.110D-02 0.221D-01 0.145D+00 0.381D+00 0.450D+00
 Gap=     0.197 Goal=   None    Shift=    0.000
 RMSDP=1.68D-04 MaxDP=7.00D-03 DE=-6.29D-03 OVMax= 1.18D-02

 Cycle   6  Pass 0  IDiag  1:
 RMSU=  7.58D-05    CP:  9.90D-01  7.10D-01  6.46D-01  6.88D-01  4.58D-01
 E= -1116.50341562864     Delta-E=       -0.000993681410 Rises=F Damp=F
 DIIS: error= 4.39D-04 at cycle   6 NSaved=   6.
 NSaved= 6 IEnMin= 6 EnMin= -1116.50341562864     IErMin= 6 ErrMin= 4.39D-04
 ErrMax= 4.39D-04  0.00D+00 EMaxC= 1.00D-01 BMatC= 1.32D-04 BMatP= 1.21D-03
 IDIUse=3 WtCom= 9.96D-01 WtEn= 4.39D-03
 Coeff-Com: -0.107D-02 0.333D-02 0.511D-01 0.157D+00 0.284D+00 0.506D+00
 Coeff-En:   0.000D+00 0.000D+00 0.000D+00 0.000D+00 0.751D-01 0.925D+00
 Coeff:     -0.107D-02 0.332D-02 0.508D-01 0.156D+00 0.283D+00 0.507D+00
 Gap=     0.198 Goal=   None    Shift=    0.000
 RMSDP=4.92D-05 MaxDP=1.90D-03 DE=-9.94D-04 OVMax= 2.82D-03

 Cycle   7  Pass 0  IDiag  1:
 RMSU=  2.98D-05    CP:  9.90D-01  7.09D-01  6.46D-01  6.83D-01  5.42D-01
                    CP:  5.72D-01
 E= -1116.50352024998     Delta-E=       -0.000104621332 Rises=F Damp=F
 DIIS: error= 1.32D-04 at cycle   7 NSaved=   7.
 NSaved= 7 IEnMin= 7 EnMin= -1116.50352024998     IErMin= 7 ErrMin= 1.32D-04
 ErrMax= 1.32D-04  0.00D+00 EMaxC= 1.00D-01 BMatC= 1.01D-05 BMatP= 1.32D-04
 IDIUse=3 WtCom= 9.99D-01 WtEn= 1.32D-03
 Coeff-Com: -0.675D-03 0.195D-03 0.168D-01 0.563D-01 0.125D+00 0.298D+00
 Coeff-Com:  0.504D+00
 Coeff-En:   0.000D+00 0.000D+00 0.000D+00 0.000D+00 0.000D+00 0.123D-01
 Coeff-En:   0.988D+00
 Coeff:     -0.674D-03 0.195D-03 0.168D-01 0.563D-01 0.125D+00 0.298D+00
 Coeff:      0.505D+00
 Gap=     0.198 Goal=   None    Shift=    0.000
 RMSDP=1.48D-05 MaxDP=5.60D-04 DE=-1.05D-04 OVMax= 9.42D-04

 Cycle   8  Pass 0  IDiag  1:
 RMSU=  8.65D-06    CP:  9.90D-01  7.09D-01  6.46D-01  6.86D-01  5.42D-01
                    CP:  6.14D-01  6.18D-01
 E= -1116.50352876454     Delta-E=       -0.000008514568 Rises=F Damp=F
 DIIS: error= 4.86D-05 at cycle   8 NSaved=   8.
 NSaved= 8 IEnMin= 8 EnMin= -1116.50352876454     IErMin= 8 ErrMin= 4.86D-05
 ErrMax= 4.86D-05  0.00D+00 EMaxC= 1.00D-01 BMatC= 8.26D-07 BMatP= 1.01D-05
 IDIUse=1 WtCom= 1.00D+00 WtEn= 0.00D+00
 Coeff-Com: -0.287D-03-0.366D-03 0.435D-02 0.163D-01 0.430D-01 0.120D+00
 Coeff-Com:  0.285D+00 0.533D+00
 Coeff:     -0.287D-03-0.366D-03 0.435D-02 0.163D-01 0.430D-01 0.120D+00
 Coeff:      0.285D+00 0.533D+00
 Gap=     0.198 Goal=   None    Shift=    0.000
 RMSDP=4.74D-06 MaxDP=1.93D-04 DE=-8.51D-06 OVMax= 2.83D-04

 Initial convergence to 1.0D-05 achieved.  Increase integral accuracy.
 Cycle   9  Pass 1  IDiag  1:
 E= -1116.50346216998     Delta-E=        0.000066594560 Rises=F Damp=F
 DIIS: error= 6.30D-05 at cycle   1 NSaved=   1.
 NSaved= 1 IEnMin= 1 EnMin= -1116.50346216998     IErMin= 1 ErrMin= 6.30D-05
 ErrMax= 6.30D-05  0.00D+00 EMaxC= 1.00D-01 BMatC= 4.04D-07 BMatP= 4.04D-07
 IDIUse=1 WtCom= 1.00D+00 WtEn= 0.00D+00
 Coeff-Com:  0.100D+01
 Coeff:      0.100D+01
 Gap=     0.198 Goal=   None    Shift=    0.000
 RMSDP=4.74D-06 MaxDP=1.93D-04 DE= 6.66D-05 OVMax= 2.66D-04

 Cycle  10  Pass 1  IDiag  1:
 RMSU=  3.60D-05    CP:  1.00D+00
 E= -1116.50346216179     Delta-E=        0.000000008194 Rises=F Damp=F
 DIIS: error= 4.59D-05 at cycle   2 NSaved=   2.
 NSaved= 2 IEnMin= 1 EnMin= -1116.50346216998     IErMin= 2 ErrMin= 4.59D-05
 ErrMax= 4.59D-05  0.00D+00 EMaxC= 1.00D-01 BMatC= 4.83D-07 BMatP= 4.04D-07
 IDIUse=1 WtCom= 1.00D+00 WtEn= 0.00D+00
 Coeff-Com:  0.530D+00 0.470D+00
 Coeff:      0.530D+00 0.470D+00
 Gap=     0.198 Goal=   None    Shift=    0.000
 RMSDP=3.98D-06 MaxDP=2.02D-04 DE= 8.19D-09 OVMax= 2.81D-04

 Cycle  11  Pass 1  IDiag  1:
 RMSU=  3.97D-06    CP:  1.00D+00  9.94D-01
 E= -1116.50346247180     Delta-E=       -0.000000310008 Rises=F Damp=F
 DIIS: error= 2.76D-05 at cycle   3 NSaved=   3.
 NSaved= 3 IEnMin= 3 EnMin= -1116.50346247180     IErMin= 3 ErrMin= 2.76D-05
 ErrMax= 2.76D-05  0.00D+00 EMaxC= 1.00D-01 BMatC= 1.51D-07 BMatP= 4.04D-07
 IDIUse=1 WtCom= 1.00D+00 WtEn= 0.00D+00
 Coeff-Com:  0.152D-01 0.356D+00 0.629D+00
 Coeff:      0.152D-01 0.356D+00 0.629D+00
 Gap=     0.198 Goal=   None    Shift=    0.000
 RMSDP=1.52D-06 MaxDP=7.91D-05 DE=-3.10D-07 OVMax= 1.15D-04

 Cycle  12  Pass 1  IDiag  1:
 RMSU=  5.91D-07    CP:  1.00D+00  1.00D+00  6.60D-01
 E= -1116.50346260530     Delta-E=       -0.000000133500 Rises=F Damp=F
 DIIS: error= 3.87D-06 at cycle   4 NSaved=   4.
 NSaved= 4 IEnMin= 4 EnMin= -1116.50346260530     IErMin= 4 ErrMin= 3.87D-06
 ErrMax= 3.87D-06  0.00D+00 EMaxC= 1.00D-01 BMatC= 6.05D-09 BMatP= 1.51D-07
 IDIUse=1 WtCom= 1.00D+00 WtEn= 0.00D+00
 Coeff-Com: -0.600D-02 0.199D+00 0.373D+00 0.435D+00
 Coeff:     -0.600D-02 0.199D+00 0.373D+00 0.435D+00
 Gap=     0.198 Goal=   None    Shift=    0.000
 RMSDP=3.38D-07 MaxDP=1.31D-05 DE=-1.34D-07 OVMax= 2.02D-05

 Cycle  13  Pass 1  IDiag  1:
 RMSU=  1.67D-07    CP:  1.00D+00  1.01D+00  6.62D-01  5.06D-01
 E= -1116.50346261043     Delta-E=       -0.000000005128 Rises=F Damp=F
 DIIS: error= 8.88D-07 at cycle   5 NSaved=   5.
 NSaved= 5 IEnMin= 5 EnMin= -1116.50346261043     IErMin= 5 ErrMin= 8.88D-07
 ErrMax= 8.88D-07  0.00D+00 EMaxC= 1.00D-01 BMatC= 4.02D-10 BMatP= 6.05D-09
 IDIUse=1 WtCom= 1.00D+00 WtEn= 0.00D+00
 Coeff-Com: -0.451D-02 0.102D+00 0.194D+00 0.269D+00 0.439D+00
 Coeff:     -0.451D-02 0.102D+00 0.194D+00 0.269D+00 0.439D+00
 Gap=     0.198 Goal=   None    Shift=    0.000
 RMSDP=9.44D-08 MaxDP=3.68D-06 DE=-5.13D-09 OVMax= 7.70D-06

 Cycle  14  Pass 1  IDiag  1:
 RMSU=  7.00D-08    CP:  1.00D+00  1.01D+00  6.62D-01  5.24D-01  6.26D-01
 E= -1116.50346261076     Delta-E=       -0.000000000338 Rises=F Damp=F
 DIIS: error= 2.66D-07 at cycle   6 NSaved=   6.
 NSaved= 6 IEnMin= 6 EnMin= -1116.50346261076     IErMin= 6 ErrMin= 2.66D-07
 ErrMax= 2.66D-07  0.00D+00 EMaxC= 1.00D-01 BMatC= 3.19D-11 BMatP= 4.02D-10
 IDIUse=1 WtCom= 1.00D+00 WtEn= 0.00D+00
 Coeff-Com: -0.178D-02 0.323D-01 0.616D-01 0.947D-01 0.256D+00 0.557D+00
 Coeff:     -0.178D-02 0.323D-01 0.616D-01 0.947D-01 0.256D+00 0.557D+00
 Gap=     0.198 Goal=   None    Shift=    0.000
 RMSDP=2.80D-08 MaxDP=9.97D-07 DE=-3.38D-10 OVMax= 2.02D-06

 Cycle  15  Pass 1  IDiag  1:
 RMSU=  1.90D-08    CP:  1.00D+00  1.01D+00  6.62D-01  5.24D-01  6.99D-01
                    CP:  7.65D-01
 E= -1116.50346261077     Delta-E=       -0.000000000009 Rises=F Damp=F
 DIIS: error= 1.07D-07 at cycle   7 NSaved=   7.
 NSaved= 7 IEnMin= 7 EnMin= -1116.50346261077     IErMin= 7 ErrMin= 1.07D-07
 ErrMax= 1.07D-07  0.00D+00 EMaxC= 1.00D-01 BMatC= 3.53D-12 BMatP= 3.19D-11
 IDIUse=1 WtCom= 1.00D+00 WtEn= 0.00D+00
 Coeff-Com: -0.352D-03 0.356D-02 0.688D-02 0.141D-01 0.812D-01 0.309D+00
 Coeff-Com:  0.586D+00
 Coeff:     -0.352D-03 0.356D-02 0.688D-02 0.141D-01 0.812D-01 0.309D+00
 Coeff:      0.586D+00
 Gap=     0.198 Goal=   None    Shift=    0.000
 RMSDP=9.50D-09 MaxDP=3.00D-07 DE=-9.09D-12 OVMax= 6.13D-07

 SCF Done:  E(RB3LYP) =  -1116.50346261     A.U. after   15 cycles
            NFock= 15  Conv=0.95D-08     -V/T= 2.0073
 KE= 1.108396835221D+03 PE=-4.987403027072D+03 EE= 1.577069114874D+03
 Leave Link  502 at Thu Aug  6 21:58:53 2020, MaxMem=    33554432 cpu:       151.5
 (Enter /prod/apps/gaussian/g09d1/l601.exe)
 Copying SCF densities to generalized density rwf, IOpCl= 0 IROHF=0.

 **********************************************************************

            Population analysis using the SCF density.

 **********************************************************************

 Orbital symmetries:
       Occupied  (A) (A) (A) (A) (A) (A) (A) (A) (A) (A) (A) (A)
                 (A) (A) (A) (A) (A) (A) (A) (A) (A) (A) (A) (A)
                 (A) (A) (A) (A) (A) (A) (A) (A) (A) (A) (A) (A)
                 (A) (A) (A) (A) (A) (A) (A) (A) (A) (A) (A) (A)
                 (A) (A) (A) (A) (A) (A) (A) (A) (A) (A) (A) (A)
                 (A) (A)
       Virtual   (A) (A) (A) (A) (A) (A) (A) (A) (A) (A) (A) (A)
                 (A) (A) (A) (A) (A) (A) (A) (A) (A) (A) (A) (A)
                 (A) (A) (A) (A) (A) (A) (A) (A) (A) (A) (A) (A)
                 (A) (A) (A) (A) (A) (A) (A) (A) (A) (A) (A) (A)
                 (A) (A) (A) (A) (A) (A) (A) (A) (A) (A) (A) (A)
                 (A) (A) (A) (A) (A) (A) (A) (A) (A) (A) (A) (A)
                 (A) (A) (A) (A) (A) (A) (A) (A) (A) (A) (A) (A)
                 (A) (A) (A) (A) (A) (A) (A) (A) (A) (A) (A) (A)
                 (A) (A) (A) (A) (A) (A) (A) (A) (A) (A) (A) (A)
                 (A) (A) (A) (A) (A) (A) (A) (A) (A) (A) (A) (A)
                 (A) (A) (A) (A) (A) (A) (A) (A) (A) (A) (A) (A)
                 (A) (A) (A) (A) (A) (A) (A) (A) (A) (A) (A) (A)
                 (A) (A) (A) (A) (A) (A) (A) (A) (A) (A) (A) (A)
                 (A) (A) (A) (A) (A) (A) (A) (A) (A) (A) (A) (A)
                 (A) (A) (A) (A) (A) (A) (A) (A) (A) (A) (A) (A)
                 (A) (A) (A) (A) (A) (A) (A) (A) (A) (A) (A) (A)
                 (A) (A) (A) (A) (A) (A) (A) (A) (A) (A)
 The electronic state is 1-A.
 Alpha  occ. eigenvalues --  -89.11530 -19.14116 -19.13900 -14.44989 -14.40346
 Alpha  occ. eigenvalues --  -14.38972 -14.36584 -10.26825 -10.26235 -10.25453
 Alpha  occ. eigenvalues --  -10.23774 -10.22167 -10.21709 -10.21470 -10.21403
 Alpha  occ. eigenvalues --  -10.21272  -8.14103  -6.10623  -6.10478  -6.10409
 Alpha  occ. eigenvalues --   -1.11653  -1.10865  -0.99610  -0.96106  -0.93427
 Alpha  occ. eigenvalues --   -0.87205  -0.81695  -0.78415  -0.77505  -0.76916
 Alpha  occ. eigenvalues --   -0.67606  -0.66783  -0.63687  -0.61932  -0.59655
 Alpha  occ. eigenvalues --   -0.57586  -0.54315  -0.53178  -0.51001  -0.49901
 Alpha  occ. eigenvalues --   -0.49388  -0.48257  -0.47330  -0.46511  -0.45870
 Alpha  occ. eigenvalues --   -0.44956  -0.44786  -0.42704  -0.39688  -0.38695
 Alpha  occ. eigenvalues --   -0.37447  -0.35466  -0.34266  -0.33431  -0.31843
 Alpha  occ. eigenvalues --   -0.31182  -0.30798  -0.29604  -0.28043  -0.27533
 Alpha  occ. eigenvalues --   -0.27393  -0.24899
 Alpha virt. eigenvalues --   -0.05138  -0.02695   0.00960   0.01370   0.04700
 Alpha virt. eigenvalues --    0.06740   0.07632   0.08986   0.09458   0.09685
 Alpha virt. eigenvalues --    0.10705   0.12787   0.13221   0.13939   0.14164
 Alpha virt. eigenvalues --    0.14478   0.14777   0.17002   0.17262   0.18565
 Alpha virt. eigenvalues --    0.20691   0.22142   0.24121   0.27927   0.29554
 Alpha virt. eigenvalues --    0.30135   0.32231   0.34158   0.35993   0.36981
 Alpha virt. eigenvalues --    0.38853   0.41789   0.42152   0.43405   0.47353
 Alpha virt. eigenvalues --    0.47739   0.49433   0.50946   0.51300   0.51917
 Alpha virt. eigenvalues --    0.53313   0.53590   0.54716   0.56086   0.56869
 Alpha virt. eigenvalues --    0.56975   0.57655   0.59003   0.59573   0.59940
 Alpha virt. eigenvalues --    0.60464   0.61927   0.62507   0.63994   0.65823
 Alpha virt. eigenvalues --    0.68599   0.69046   0.70461   0.71032   0.72707
 Alpha virt. eigenvalues --    0.73542   0.76100   0.78168   0.79301   0.79492
 Alpha virt. eigenvalues --    0.81286   0.82054   0.82314   0.83210   0.84085
 Alpha virt. eigenvalues --    0.84303   0.84858   0.85599   0.86371   0.87145
 Alpha virt. eigenvalues --    0.88695   0.88911   0.90198   0.92014   0.93104
 Alpha virt. eigenvalues --    0.94376   0.96226   0.97417   0.98667   1.00168
 Alpha virt. eigenvalues --    1.03066   1.03503   1.04840   1.05105   1.07378
 Alpha virt. eigenvalues --    1.07482   1.10581   1.12668   1.14923   1.14969
 Alpha virt. eigenvalues --    1.16704   1.17544   1.19032   1.20716   1.23820
 Alpha virt. eigenvalues --    1.23985   1.25690   1.30311   1.32346   1.35543
 Alpha virt. eigenvalues --    1.36628   1.39556   1.40501   1.42200   1.43185
 Alpha virt. eigenvalues --    1.44769   1.46631   1.46850   1.48568   1.51514
 Alpha virt. eigenvalues --    1.52478   1.56415   1.57032   1.60612   1.64679
 Alpha virt. eigenvalues --    1.68302   1.72226   1.75011   1.77164   1.78438
 Alpha virt. eigenvalues --    1.79093   1.80052   1.80868   1.82276   1.84253
 Alpha virt. eigenvalues --    1.85706   1.86710   1.87771   1.89996   1.91326
 Alpha virt. eigenvalues --    1.93019   1.95170   1.95859   2.01239   2.03085
 Alpha virt. eigenvalues --    2.05319   2.05918   2.07502   2.08613   2.09831
 Alpha virt. eigenvalues --    2.10754   2.12048   2.13143   2.13701   2.16183
 Alpha virt. eigenvalues --    2.19078   2.19192   2.21096   2.22102   2.23635
 Alpha virt. eigenvalues --    2.25513   2.27712   2.28036   2.30235   2.31310
 Alpha virt. eigenvalues --    2.34214   2.36758   2.37901   2.48066   2.50193
 Alpha virt. eigenvalues --    2.53172   2.56437   2.57094   2.59064   2.62364
 Alpha virt. eigenvalues --    2.63196   2.66054   2.68701   2.70661   2.72778
 Alpha virt. eigenvalues --    2.74416   2.75718   2.77248   2.82728   2.86362
 Alpha virt. eigenvalues --    2.88025   3.00003   3.06303   3.12440   3.24844
 Alpha virt. eigenvalues --    3.41008   3.60904   3.77001   3.89648   3.94356
 Alpha virt. eigenvalues --    3.97600   4.05656   4.07260   4.09125   4.10171
 Alpha virt. eigenvalues --    4.14376   4.18455   4.23118   4.30390   4.38046
 Alpha virt. eigenvalues --    4.48138   4.69800
          Condensed to atoms (all electrons):
               1          2          3          4          5          6
     1  O    8.223820   0.447677  -0.051592   0.001642  -0.000017   0.000000
     2  S    0.447677  13.696250   0.099958  -0.015525   0.001312  -0.000012
     3  N   -0.051592   0.099958   7.384999   0.253864  -0.058160   0.005928
     4  C    0.001642  -0.015525   0.253864   4.745395   0.345180  -0.057553
     5  N   -0.000017   0.001312  -0.058160   0.345180   6.822687   0.288281
     6  N    0.000000  -0.000012   0.005928  -0.057553   0.288281   6.771643
     7  C   -0.000039  -0.005718  -0.084575   0.468127  -0.071729  -0.104207
     8  N    0.000000   0.000396   0.003704  -0.056326  -0.074921   0.180355
     9  C    0.000000  -0.000010  -0.000099   0.006571   0.005990  -0.043195
    10  C    0.000000   0.000000   0.000001  -0.000375   0.000288   0.000847
    11  C    0.000000   0.000000   0.000000   0.000006  -0.000005   0.000369
    12  C    0.000000   0.000000   0.000000   0.000000   0.000000   0.000016
    13  C    0.000000   0.000000   0.000000  -0.000008   0.000002  -0.000069
    14  C    0.000000   0.000000   0.000003   0.000832  -0.000307   0.002975
    15  C   -0.057273   0.192416  -0.059085  -0.001062   0.000065   0.000008
    16  O   -0.045778   0.448349  -0.051088  -0.000590   0.000628   0.000023
    17  H    0.001507  -0.002228   0.297355  -0.035767   0.002306  -0.000102
    18  H    0.000000  -0.000004  -0.000024  -0.027676   0.004007   0.003584
    19  H    0.000000   0.000000   0.000000   0.000068  -0.000362   0.015777
    20  H    0.000000   0.000000   0.000000   0.000000   0.000000  -0.000008
    21  H    0.000000   0.000000   0.000000   0.000000   0.000000   0.000000
    22  H    0.000000   0.000000   0.000000   0.000000   0.000000   0.000001
    23  H    0.000000   0.000000   0.000001   0.000054  -0.000003  -0.000090
    24  H    0.000238  -0.006748   0.000441   0.000315  -0.000005  -0.000001
    25  H    0.001890  -0.008594  -0.002267   0.002492  -0.000055  -0.000046
    26  H   -0.000629  -0.013621   0.002249   0.000000  -0.000001   0.000000
               7          8          9         10         11         12
     1  O   -0.000039   0.000000   0.000000   0.000000   0.000000   0.000000
     2  S   -0.005718   0.000396  -0.000010   0.000000   0.000000   0.000000
     3  N   -0.084575   0.003704  -0.000099   0.000001   0.000000   0.000000
     4  C    0.468127  -0.056326   0.006571  -0.000375   0.000006   0.000000
     5  N   -0.071729  -0.074921   0.005990   0.000288  -0.000005   0.000000
     6  N   -0.104207   0.180355  -0.043195   0.000847   0.000369   0.000016
     7  C    5.141080   0.318451  -0.036287   0.007790  -0.000088   0.000020
     8  N    0.318451   6.951270   0.195805  -0.056800   0.004554   0.000399
     9  C   -0.036287   0.195805   4.617503   0.519495  -0.009854  -0.038050
    10  C    0.007790  -0.056800   0.519495   4.978741   0.517911  -0.037463
    11  C   -0.000088   0.004554  -0.009854   0.517911   4.865966   0.543028
    12  C    0.000020   0.000399  -0.038050  -0.037463   0.543028   4.848379
    13  C   -0.000061   0.004666  -0.007301  -0.041557  -0.022644   0.550867
    14  C   -0.008014  -0.051731   0.529765  -0.073566  -0.042239  -0.039646
    15  C   -0.000156  -0.000020  -0.000001   0.000000   0.000000   0.000000
    16  O   -0.000173   0.000003   0.000000   0.000000   0.000000   0.000000
    17  H   -0.001796  -0.000001   0.000001   0.000000   0.000000   0.000000
    18  H    0.357524  -0.034391  -0.001367  -0.000122  -0.000005  -0.000001
    19  H    0.000260  -0.013616  -0.033720   0.355043  -0.039505   0.004331
    20  H    0.000002  -0.000109   0.003439  -0.037859   0.360731  -0.041118
    21  H    0.000000   0.000004   0.000526   0.004677  -0.042159   0.362622
    22  H   -0.000004  -0.000115   0.003593   0.000781   0.004569  -0.040152
    23  H    0.006115  -0.009789  -0.041381   0.005758   0.000248   0.004530
    24  H    0.000202   0.000000   0.000000   0.000000   0.000000   0.000000
    25  H    0.003718  -0.000127   0.000003   0.000000   0.000000   0.000000
    26  H   -0.000020   0.000001   0.000000   0.000000   0.000000   0.000000
              13         14         15         16         17         18
     1  O    0.000000   0.000000  -0.057273  -0.045778   0.001507   0.000000
     2  S    0.000000   0.000000   0.192416   0.448349  -0.002228  -0.000004
     3  N    0.000000   0.000003  -0.059085  -0.051088   0.297355  -0.000024
     4  C   -0.000008   0.000832  -0.001062  -0.000590  -0.035767  -0.027676
     5  N    0.000002  -0.000307   0.000065   0.000628   0.002306   0.004007
     6  N   -0.000069   0.002975   0.000008   0.000023  -0.000102   0.003584
     7  C   -0.000061  -0.008014  -0.000156  -0.000173  -0.001796   0.357524
     8  N    0.004666  -0.051731  -0.000020   0.000003  -0.000001  -0.034391
     9  C   -0.007301   0.529765  -0.000001   0.000000   0.000001  -0.001367
    10  C   -0.041557  -0.073566   0.000000   0.000000   0.000000  -0.000122
    11  C   -0.022644  -0.042239   0.000000   0.000000   0.000000  -0.000005
    12  C    0.550867  -0.039646   0.000000   0.000000   0.000000  -0.000001
    13  C    4.843333   0.529807   0.000000   0.000000   0.000000   0.000165
    14  C    0.529807   4.994445   0.000000   0.000000   0.000000   0.002367
    15  C    0.000000   0.000000   5.580237  -0.056897   0.000570   0.000104
    16  O    0.000000   0.000000  -0.056897   8.207402   0.001729   0.000000
    17  H    0.000000   0.000000   0.000570   0.001729   0.381043   0.000950
    18  H    0.000165   0.002367   0.000104   0.000000   0.000950   0.513112
    19  H    0.000161   0.005552   0.000000   0.000000   0.000000  -0.000011
    20  H    0.004536   0.000821   0.000000   0.000000   0.000000   0.000000
    21  H   -0.042341   0.005004   0.000000   0.000000   0.000000   0.000000
    22  H    0.359727  -0.039670   0.000000   0.000000   0.000000  -0.000002
    23  H   -0.038109   0.347640   0.000000   0.000000   0.000000   0.002087
    24  H    0.000000   0.000000   0.334005   0.002008   0.000051   0.000046
    25  H    0.000000   0.000000   0.337130  -0.000125   0.000171   0.000133
    26  H    0.000000   0.000000   0.360526  -0.000271  -0.000010   0.000001
              19         20         21         22         23         24
     1  O    0.000000   0.000000   0.000000   0.000000   0.000000   0.000238
     2  S    0.000000   0.000000   0.000000   0.000000   0.000000  -0.006748
     3  N    0.000000   0.000000   0.000000   0.000000   0.000001   0.000441
     4  C    0.000068   0.000000   0.000000   0.000000   0.000054   0.000315
     5  N   -0.000362   0.000000   0.000000   0.000000  -0.000003  -0.000005
     6  N    0.015777  -0.000008   0.000000   0.000001  -0.000090  -0.000001
     7  C    0.000260   0.000002   0.000000  -0.000004   0.006115   0.000202
     8  N   -0.013616  -0.000109   0.000004  -0.000115  -0.009789   0.000000
     9  C   -0.033720   0.003439   0.000526   0.003593  -0.041381   0.000000
    10  C    0.355043  -0.037859   0.004677   0.000781   0.005758   0.000000
    11  C   -0.039505   0.360731  -0.042159   0.004569   0.000248   0.000000
    12  C    0.004331  -0.041118   0.362622  -0.040152   0.004530   0.000000
    13  C    0.000161   0.004536  -0.042341   0.359727  -0.038109   0.000000
    14  C    0.005552   0.000821   0.005004  -0.039670   0.347640   0.000000
    15  C    0.000000   0.000000   0.000000   0.000000   0.000000   0.334005
    16  O    0.000000   0.000000   0.000000   0.000000   0.000000   0.002008
    17  H    0.000000   0.000000   0.000000   0.000000   0.000000   0.000051
    18  H   -0.000011   0.000000   0.000000  -0.000002   0.002087   0.000046
    19  H    0.528539  -0.004983  -0.000138   0.000013  -0.000139   0.000000
    20  H   -0.004983   0.571413  -0.005295  -0.000178   0.000015   0.000000
    21  H   -0.000138  -0.005295   0.580191  -0.005386  -0.000161   0.000000
    22  H    0.000013  -0.000178  -0.005386   0.578906  -0.005612   0.000000
    23  H   -0.000139   0.000015  -0.000161  -0.005612   0.587830   0.000000
    24  H    0.000000   0.000000   0.000000   0.000000   0.000000   0.522188
    25  H    0.000000   0.000000   0.000000   0.000000   0.000000  -0.025848
    26  H    0.000000   0.000000   0.000000   0.000000   0.000000  -0.019667
              25         26
     1  O    0.001890  -0.000629
     2  S   -0.008594  -0.013621
     3  N   -0.002267   0.002249
     4  C    0.002492   0.000000
     5  N   -0.000055  -0.000001
     6  N   -0.000046   0.000000
     7  C    0.003718  -0.000020
     8  N   -0.000127   0.000001
     9  C    0.000003   0.000000
    10  C    0.000000   0.000000
    11  C    0.000000   0.000000
    12  C    0.000000   0.000000
    13  C    0.000000   0.000000
    14  C    0.000000   0.000000
    15  C    0.337130   0.360526
    16  O   -0.000125  -0.000271
    17  H    0.000171  -0.000010
    18  H    0.000133   0.000001
    19  H    0.000000   0.000000
    20  H    0.000000   0.000000
    21  H    0.000000   0.000000
    22  H    0.000000   0.000000
    23  H    0.000000   0.000000
    24  H   -0.025848  -0.019667
    25  H    0.504534  -0.020701
    26  H   -0.020701   0.461598
 Mulliken charges:
               1
     1  O   -0.521445
     2  S    1.166102
     3  N   -0.741612
     4  C    0.370335
     5  N   -0.265182
     6  N   -0.064526
     7  C    0.009580
     8  N   -0.361664
     9  C    0.328573
    10  C   -0.143588
    11  C   -0.140884
    12  C   -0.117763
    13  C   -0.141174
    14  C   -0.164037
    15  C   -0.630565
    16  O   -0.505221
    17  H    0.354218
    18  H    0.179524
    19  H    0.182732
    20  H    0.148592
    21  H    0.142456
    22  H    0.143529
    23  H    0.141007
    24  H    0.192773
    25  H    0.207693
    26  H    0.230546
 Sum of Mulliken charges =   0.00000
 Mulliken charges with hydrogens summed into heavy atoms:
               1
     1  O   -0.521445
     2  S    1.166102
     3  N   -0.387394
     4  C    0.370335
     5  N   -0.265182
     6  N   -0.064526
     7  C    0.189104
     8  N   -0.361664
     9  C    0.328573
    10  C    0.039143
    11  C    0.007708
    12  C    0.024692
    13  C    0.002355
    14  C   -0.023030
    15  C    0.000447
    16  O   -0.505221
 Electronic spatial extent (au):  <R**2>=           5473.8064
 Charge=              0.0000 electrons
 Dipole moment (field-independent basis, Debye):
    X=             -6.3751    Y=             -6.9630    Z=              1.6459  Tot=              9.5830
 Quadrupole moment (field-independent basis, Debye-Ang):
   XX=           -106.6768   YY=            -97.7204   ZZ=            -96.6512
   XY=             -9.5985   XZ=              3.3285   YZ=              2.9255
 Traceless Quadrupole moment (field-independent basis, Debye-Ang):
   XX=             -6.3274   YY=              2.6291   ZZ=              3.6983
   XY=             -9.5985   XZ=              3.3285   YZ=              2.9255
 Octapole moment (field-independent basis, Debye-Ang**2):
  XXX=           -171.3832  YYY=            -23.1109  ZZZ=              4.5140  XYY=             -2.7428
  XXY=            -28.4367  XXZ=             42.5285  XZZ=             28.7881  YZZ=             -6.3027
  YYZ=              0.4074  XYZ=            -19.7559
 Hexadecapole moment (field-independent basis, Debye-Ang**3):
 XXXX=          -6248.5439 YYYY=           -643.5600 ZZZZ=           -367.9005 XXXY=             -3.7362
 XXXZ=             31.7493 YYYX=            -20.1003 YYYZ=             25.8161 ZZZX=             26.1348
 ZZZY=              3.8747 XXYY=          -1083.1448 XXZZ=          -1078.3794 YYZZ=           -167.0266
 XXYZ=              6.5397 YYXZ=             -3.9968 ZZXY=            -33.7675
 N-N= 1.185433614365D+03 E-N=-4.987403049856D+03  KE= 1.108396835221D+03
 No NMR shielding tensors so no spin-rotation constants.
 Leave Link  601 at Thu Aug  6 21:58:53 2020, MaxMem=    33554432 cpu:         0.2
 (Enter /prod/apps/gaussian/g09d1/l9999.exe)
 1\1\GINC-PIRINEUS21\SP\RB3LYP\6-31G(d)\C9H10N4O2S1\UBAFAR01\06-Aug-202
 0\0\\#p b3lyp/6-31G(d)\\SM44.n.8.pdb.xyz\\0,1\O,0,3.444,-0.878,-2.209\
 S,0,3.014,-2.056,-1.447\N,0,2.705,-1.475,0.117\C,0,2.298,-2.37,1.126\N
 ,0,3.189,-3.177,1.766\N,0,2.554,-3.865,2.676\C,0,1.047,-2.566,1.674\N,
 0,1.251,-3.494,2.64\C,0,0.306,-4.065,3.54\C,0,0.567,-5.32,4.095\C,0,-0
 .356,-5.874,4.979\C,0,-1.532,-5.19,5.296\C,0,-1.781,-3.94,4.729\C,0,-0
 .861,-3.366,3.853\C,0,1.451,-2.635,-2.113\O,0,3.914,-3.205,-1.309\H,0,
 2.152,-0.617,0.072\H,0,0.083,-2.142,1.452\H,0,1.475,-5.844,3.828\H,0,-
 0.158,-6.849,5.412\H,0,-2.249,-5.629,5.981\H,0,-2.688,-3.4,4.974\H,0,-
 1.043,-2.386,3.429\H,0,0.764,-1.791,-2.167\H,0,1.062,-3.419,-1.465\H,0
 ,1.655,-3.03,-3.109\\Version=AM64L-G09RevD.01\State=1-A\HF=-1116.50346
 26\RMSD=9.501e-09\Dipole=-3.6611164,-0.0550067,0.8988838\Quadrupole=-6
 .9947791,4.4381282,2.5566509,-3.6830058,5.2328152,-0.095092\PG=C01 [X(
 C9H10N4O2S1)]\\@


 IN NATURE THERE ARE NEITHER REWARDS OR
 PUNISHMENTS -- THERE ARE CONSEQUENCES.

                            -- ROBERT GREEN INGERSOLL
 Job cpu time:       0 days  0 hours  2 minutes 34.9 seconds.
 File lengths (MBytes):  RWF=     40 Int=      0 D2E=      0 Chk=      4 Scr=      1
 Normal termination of Gaussian 09 at Thu Aug  6 21:58:53 2020.
 Initial command:
 /prod/apps/gaussian/g09d1/l1.exe "/tmp/ubafar01/1448618/Gau-178789.inp" -scrdir="/tmp/ubafar01/1448618/"
 Entering Link 1 = /prod/apps/gaussian/g09d1/l1.exe PID=    178823.
  
 Copyright (c) 1988,1990,1992,1993,1995,1998,2003,2009,2013,
            Gaussian, Inc.  All Rights Reserved.
  
 This is part of the Gaussian(R) 09 program.  It is based on
 the Gaussian(R) 03 system (copyright 2003, Gaussian, Inc.),
 the Gaussian(R) 98 system (copyright 1998, Gaussian, Inc.),
 the Gaussian(R) 94 system (copyright 1995, Gaussian, Inc.),
 the Gaussian 92(TM) system (copyright 1992, Gaussian, Inc.),
 the Gaussian 90(TM) system (copyright 1990, Gaussian, Inc.),
 the Gaussian 88(TM) system (copyright 1988, Gaussian, Inc.),
 the Gaussian 86(TM) system (copyright 1986, Carnegie Mellon
 University), and the Gaussian 82(TM) system (copyright 1983,
 Carnegie Mellon University). Gaussian is a federally registered
 trademark of Gaussian, Inc.
  
 This software contains proprietary and confidential information,
 including trade secrets, belonging to Gaussian, Inc.
  
 This software is provided under written license and may be
 used, copied, transmitted, or stored only in accord with that
 written license.
  
 The following legend is applicable only to US Government
 contracts under FAR:
  
                    RESTRICTED RIGHTS LEGEND
  
 Use, reproduction and disclosure by the US Government is
 subject to restrictions as set forth in subparagraphs (a)
 and (c) of the Commercial Computer Software - Restricted
 Rights clause in FAR 52.227-19.
  
 Gaussian, Inc.
 340 Quinnipiac St., Bldg. 40, Wallingford CT 06492
  
  
 ---------------------------------------------------------------
 Warning -- This program may not be used in any manner that
 competes with the business of Gaussian, Inc. or will provide
 assistance to any competitor of Gaussian, Inc.  The licensee
 of this program is prohibited from giving any competitor of
 Gaussian, Inc. access to this program.  By using this program,
 the user acknowledges that Gaussian, Inc. is engaged in the
 business of creating and licensing software in the field of
 computational chemistry and represents and warrants to the
 licensee that it is not a competitor of Gaussian, Inc. and that
 it will not use this program in any manner prohibited above.
 ---------------------------------------------------------------
  

 Cite this work as:
 Gaussian 09, Revision D.01,
 M. J. Frisch, G. W. Trucks, H. B. Schlegel, G. E. Scuseria, 
 M. A. Robb, J. R. Cheeseman, G. Scalmani, V. Barone, B. Mennucci, 
 G. A. Petersson, H. Nakatsuji, M. Caricato, X. Li, H. P. Hratchian, 
 A. F. Izmaylov, J. Bloino, G. Zheng, J. L. Sonnenberg, M. Hada, 
 M. Ehara, K. Toyota, R. Fukuda, J. Hasegawa, M. Ishida, T. Nakajima, 
 Y. Honda, O. Kitao, H. Nakai, T. Vreven, J. A. Montgomery, Jr., 
 J. E. Peralta, F. Ogliaro, M. Bearpark, J. J. Heyd, E. Brothers, 
 K. N. Kudin, V. N. Staroverov, T. Keith, R. Kobayashi, J. Normand, 
 K. Raghavachari, A. Rendell, J. C. Burant, S. S. Iyengar, J. Tomasi, 
 M. Cossi, N. Rega, J. M. Millam, M. Klene, J. E. Knox, J. B. Cross, 
 V. Bakken, C. Adamo, J. Jaramillo, R. Gomperts, R. E. Stratmann, 
 O. Yazyev, A. J. Austin, R. Cammi, C. Pomelli, J. W. Ochterski, 
 R. L. Martin, K. Morokuma, V. G. Zakrzewski, G. A. Voth, 
 P. Salvador, J. J. Dannenberg, S. Dapprich, A. D. Daniels, 
 O. Farkas, J. B. Foresman, J. V. Ortiz, J. Cioslowski, 
 and D. J. Fox, Gaussian, Inc., Wallingford CT, 2013.
 
 ******************************************
 Gaussian 09:  AM64L-G09RevD.01 24-Apr-2013
                 6-Aug-2020 
 ******************************************
 %nproc=1
 Will use up to    1 processors via shared memory.
 %Chk=SM44.n.8.pdb.xyz.mst.n.w.chk
 %subst l502 /dades/curu/work_g09D01_MST_AddSphPartition_ReadGammas/exe-dir/
 ----------------------------------------------------------------------
 #p b3lyp/6-31G(d) scrf=(iefpcm,read,solvent=Water) geom=allcheck guess
 =read
 ----------------------------------------------------------------------
 1/29=7,38=1,40=2/1;
 2/12=2,40=1/2;
 3/5=1,6=6,7=1,11=2,14=-4,16=1,25=1,30=1,70=2203,72=1,74=-5,116=-2/1,2,3;
 4/5=1/1;
 5/5=2,38=6,53=1/2;
 6/7=2,8=2,9=2,10=2,28=1/1;
 99/5=1,9=1/99;
 Leave Link    1 at Thu Aug  6 21:58:53 2020, MaxMem=           0 cpu:         0.0
 (Enter /prod/apps/gaussian/g09d1/l101.exe)
 Structure from the checkpoint file:  "SM44.n.8.pdb.xyz.mst.n.w.chk"
 ----------------
 SM44.n.8.pdb.xyz
 ----------------
 Charge =  0 Multiplicity = 1
 Z-Matrix found in file.
 O,0,3.444,-0.878,-2.209
 S,0,3.014,-2.056,-1.447
 N,0,2.705,-1.475,0.117
 C,0,2.298,-2.37,1.126
 N,0,3.189,-3.177,1.766
 N,0,2.554,-3.865,2.676
 C,0,1.047,-2.566,1.674
 N,0,1.251,-3.494,2.64
 C,0,0.306,-4.065,3.54
 C,0,0.567,-5.32,4.095
 C,0,-0.356,-5.874,4.979
 C,0,-1.532,-5.19,5.296
 C,0,-1.781,-3.94,4.729
 C,0,-0.861,-3.366,3.853
 C,0,1.451,-2.635,-2.113
 O,0,3.914,-3.205,-1.309
 H,0,2.152,-0.617,0.072
 H,0,0.083,-2.142,1.452
 H,0,1.475,-5.844,3.828
 H,0,-0.158,-6.849,5.412
 H,0,-2.249,-5.629,5.981
 H,0,-2.688,-3.4,4.974
 H,0,-1.043,-2.386,3.429
 H,0,0.764,-1.791,-2.167
 H,0,1.062,-3.419,-1.465
 H,0,1.655,-3.03,-3.109
 Recover connectivity data from disk.
 NAtoms=     26 NQM=       26 NQMF=       0 NMMI=      0 NMMIF=      0
                NMic=       0 NMicF=      0.
                    Isotopes and Nuclear Properties:
 (Nuclear quadrupole moments (NQMom) in fm**2, nuclear magnetic moments (NMagM)
  in nuclear magnetons)

  Atom         1           2           3           4           5           6           7           8           9          10
 IAtWgt=          16          32          14          12          14          14          12          14          12          12
 AtmWgt=  15.9949146  31.9720718  14.0030740  12.0000000  14.0030740  14.0030740  12.0000000  14.0030740  12.0000000  12.0000000
 NucSpn=           0           0           2           0           2           2           0           2           0           0
 AtZEff=  -5.6000000 -13.6000000  -4.5500000  -3.6000000  -4.5500000  -4.5500000  -3.6000000  -4.5500000  -3.6000000  -3.6000000
 NQMom=    0.0000000   0.0000000   2.0440000   0.0000000   2.0440000   2.0440000   0.0000000   2.0440000   0.0000000   0.0000000
 NMagM=    0.0000000   0.0000000   0.4037610   0.0000000   0.4037610   0.4037610   0.0000000   0.4037610   0.0000000   0.0000000
 AtZNuc=   8.0000000  16.0000000   7.0000000   6.0000000   7.0000000   7.0000000   6.0000000   7.0000000   6.0000000   6.0000000

  Atom        11          12          13          14          15          16          17          18          19          20
 IAtWgt=          12          12          12          12          12          16           1           1           1           1
 AtmWgt=  12.0000000  12.0000000  12.0000000  12.0000000  12.0000000  15.9949146   1.0078250   1.0078250   1.0078250   1.0078250
 NucSpn=           0           0           0           0           0           0           1           1           1           1
 AtZEff=  -3.6000000  -3.6000000  -3.6000000  -3.6000000  -3.6000000  -5.6000000  -1.0000000  -1.0000000  -1.0000000  -1.0000000
 NQMom=    0.0000000   0.0000000   0.0000000   0.0000000   0.0000000   0.0000000   0.0000000   0.0000000   0.0000000   0.0000000
 NMagM=    0.0000000   0.0000000   0.0000000   0.0000000   0.0000000   0.0000000   2.7928460   2.7928460   2.7928460   2.7928460
 AtZNuc=   6.0000000   6.0000000   6.0000000   6.0000000   6.0000000   8.0000000   1.0000000   1.0000000   1.0000000   1.0000000

  Atom        21          22          23          24          25          26
 IAtWgt=           1           1           1           1           1           1
 AtmWgt=   1.0078250   1.0078250   1.0078250   1.0078250   1.0078250   1.0078250
 NucSpn=           1           1           1           1           1           1
 AtZEff=  -1.0000000  -1.0000000  -1.0000000  -1.0000000  -1.0000000  -1.0000000
 NQMom=    0.0000000   0.0000000   0.0000000   0.0000000   0.0000000   0.0000000
 NMagM=    2.7928460   2.7928460   2.7928460   2.7928460   2.7928460   2.7928460
 AtZNuc=   1.0000000   1.0000000   1.0000000   1.0000000   1.0000000   1.0000000
 Leave Link  101 at Thu Aug  6 21:58:53 2020, MaxMem=    33554432 cpu:         0.0
 (Enter /prod/apps/gaussian/g09d1/l202.exe)
                          Input orientation:                          
 ---------------------------------------------------------------------
 Center     Atomic      Atomic             Coordinates (Angstroms)
 Number     Number       Type             X           Y           Z
 ---------------------------------------------------------------------
      1          8           0        3.444000   -0.878000   -2.209000
      2         16           0        3.014000   -2.056000   -1.447000
      3          7           0        2.705000   -1.475000    0.117000
      4          6           0        2.298000   -2.370000    1.126000
      5          7           0        3.189000   -3.177000    1.766000
      6          7           0        2.554000   -3.865000    2.676000
      7          6           0        1.047000   -2.566000    1.674000
      8          7           0        1.251000   -3.494000    2.640000
      9          6           0        0.306000   -4.065000    3.540000
     10          6           0        0.567000   -5.320000    4.095000
     11          6           0       -0.356000   -5.874000    4.979000
     12          6           0       -1.532000   -5.190000    5.296000
     13          6           0       -1.781000   -3.940000    4.729000
     14          6           0       -0.861000   -3.366000    3.853000
     15          6           0        1.451000   -2.635000   -2.113000
     16          8           0        3.914000   -3.205000   -1.309000
     17          1           0        2.152000   -0.617000    0.072000
     18          1           0        0.083000   -2.142000    1.452000
     19          1           0        1.475000   -5.844000    3.828000
     20          1           0       -0.158000   -6.849000    5.412000
     21          1           0       -2.249000   -5.629000    5.981000
     22          1           0       -2.688000   -3.400000    4.974000
     23          1           0       -1.043000   -2.386000    3.429000
     24          1           0        0.764000   -1.791000   -2.167000
     25          1           0        1.062000   -3.419000   -1.465000
     26          1           0        1.655000   -3.030000   -3.109000
 ---------------------------------------------------------------------
                    Distance matrix (angstroms):
                    1          2          3          4          5
     1  O    0.000000
     2  S    1.467388   0.000000
     3  N    2.512530   1.696802   0.000000
     4  C    3.829048   2.689160   1.408813   0.000000
     5  N    4.599027   3.407438   2.418731   1.361885   0.000000
     6  N    5.794609   4.525838   3.504766   2.168654   1.305630
     7  C    4.865454   3.724222   2.522597   1.379754   2.229338
     8  N    5.930051   4.677562   3.543445   2.156799   2.149467
     9  C    7.283887   6.019926   4.917340   3.559282   3.499616
    10  C    8.230973   6.881516   5.931235   4.529219   4.109936
    11  C    9.542922   8.199238   7.236019   5.845284   5.492195
    12  C    9.983934   8.715281   7.653459   6.325362   6.229038
    13  C    9.209360   8.042665   6.889918   5.664340   5.836303
    14  C    7.840345   6.694903   5.499994   4.290434   4.560021
    15  C    2.658630   1.794928   2.809095   3.358386   4.284979
    16  O    2.538864   1.466030   2.547166   3.039392   3.159436
    17  H    2.634454   2.262990   1.021762   2.050668   3.240155
    18  H    5.128054   4.123392   3.016952   2.250441   3.288929
    19  H    8.061234   6.674061   5.862813   4.477366   3.781868
    20  H   10.329903   8.948760   8.069304   6.668071   6.162736
    21  H   11.048002   9.779605   8.728363   7.407247   7.304134
    22  H    9.775346   8.691857   7.508696   6.381865   6.699263
    23  H    7.361676   6.351655   5.083972   4.057875   4.615309
    24  H    2.831560   2.377209   3.013966   3.678620   4.823910
    25  H    3.561480   2.380840   2.996883   3.056367   3.875829
    26  H    2.939664   2.357499   3.731970   4.334083   5.112767
                    6          7          8          9         10
     6  N    0.000000
     7  C    2.227657   0.000000
     8  N    1.355266   1.354975   0.000000
     9  C    2.416609   2.505601   1.424453   0.000000
    10  C    2.842315   3.698129   2.432932   1.396843   0.000000
    11  C    4.219951   4.882038   3.703751   2.404464   1.392947
    12  C    5.031443   5.162897   4.204265   2.779821   2.421797
    13  C    4.797151   4.383889   3.708889   2.405185   2.796330
    14  C    3.646444   3.004747   2.438913   1.395872   2.432255
    15  C    5.065968   3.809114   4.834138   5.942418   6.821286
    16  O    4.262092   4.186442   4.771760   6.104921   6.699168
    17  H    4.182335   2.754275   3.960247   5.227183   6.388659
    18  H    3.251576   1.076269   2.145570   2.847350   4.161657
    19  H    2.531361   3.945654   2.642730   2.148103   1.081817
    20  H    4.872873   5.811089   4.574417   3.386788   2.144284
    21  H    6.091267   6.228630   5.288715   3.864273   3.403283
    22  H    5.742438   5.053294   4.579532   3.385649   3.879957
    23  H    3.961421   2.735055   2.666950   2.156656   3.412332
    24  H    5.564191   3.928612   5.122951   6.160413   7.190639
    25  H    4.424123   3.252869   4.110033   5.102830   5.896815
    26  H    5.913683   4.843764   5.781826   6.862961   7.637111
                   11         12         13         14         15
    11  C    0.000000
    12  C    1.396897   0.000000
    13  C    2.415260   1.394987   0.000000
    14  C    2.795168   2.420633   1.394006   0.000000
    15  C    8.003301   8.385678   7.678660   6.439943   0.000000
    16  O    8.055768   8.787785   8.332508   7.033690   2.652864
    17  H    7.616086   7.859667   6.942512   5.561576   3.055806
    18  H    5.153666   5.164772   4.176844   2.855541   3.850156
    19  H    2.162929   3.409514   3.877957   3.405584   6.752314
    20  H    1.085043   2.157223   3.400426   3.880203   8.773386
    21  H    2.155801   1.084451   2.153892   3.402366   9.389722
    22  H    3.399842   2.155022   1.083639   2.143764   8.242701
    23  H    3.878223   3.404001   2.156284   1.083190   6.082417
    24  H    8.306058   8.515937   7.658332   6.431302   1.089597
    25  H    7.040091   7.454958   6.835183   5.655251   1.088982
    26  H    8.806146   9.244814   8.606302   7.410303   1.090714
                   16         17         18         19         20
    16  O    0.000000
    17  H    3.421922   0.000000
    18  H    4.840418   2.917325   0.000000
    19  H    6.269116   6.472047   4.613875   0.000000
    20  H    8.662088   8.525815   6.155935   2.487121   0.000000
    21  H    9.848982   8.910961   6.173268   4.306949   2.486854
    22  H    9.115949   7.429690   4.654620   4.961554   4.299808
    23  H    6.905885   4.960528   2.288218   4.296195   4.963253
    24  H    3.557817   2.884084   3.699206   7.271338   9.158313
    25  H    2.864269   3.376636   3.331375   5.836698   7.781159
    26  H    2.893736   4.023473   4.905349   7.488188   9.512054
                   21         22         23         24         25
    21  H    0.000000
    22  H    2.484997   0.000000
    23  H    4.299324   2.474115   0.000000
    24  H    9.497279   8.093149   5.910541   0.000000
    25  H    8.443325   7.451415   5.426726   1.797774   0.000000
    26  H   10.228593   9.183324   7.102069   1.793423   1.790449
                   26
    26  H    0.000000
 Stoichiometry    C9H10N4O2S
 Framework group  C1[X(C9H10N4O2S)]
 Deg. of freedom    72
 Full point group                 C1      NOp   1
 RotChk:  IX=0 Diff= 3.32D-16
 Largest Abelian subgroup         C1      NOp   1
 Largest concise Abelian subgroup C1      NOp   1
                         Standard orientation:                         
 ---------------------------------------------------------------------
 Center     Atomic      Atomic             Coordinates (Angstroms)
 Number     Number       Type             X           Y           Z
 ---------------------------------------------------------------------
      1          8           0        4.712724   -0.539318   -0.446674
      2         16           0        3.472034   -0.098603    0.201158
      3          7           0        2.285281   -0.211954   -1.006280
      4          6           0        0.960928    0.174937   -0.721395
      5          7           0        0.590636    1.485210   -0.693112
      6          7           0       -0.690421    1.554362   -0.450670
      7          6           0       -0.152070   -0.606912   -0.489729
      8          7           0       -1.158378    0.287526   -0.337147
      9          6           0       -2.539255    0.040610   -0.089603
     10          6           0       -3.308317    1.031529    0.525046
     11          6           0       -4.659657    0.789881    0.761239
     12          6           0       -5.234631   -0.430951    0.400275
     13          6           0       -4.451999   -1.412805   -0.207541
     14          6           0       -3.101271   -1.181366   -0.462928
     15          6           0        3.037695   -1.280518    1.480296
     16          8           0        3.382896    1.251090    0.766514
     17          1           0        2.363180   -1.105861   -1.495015
     18          1           0       -0.288565   -1.672128   -0.418738
     19          1           0       -2.845155    1.965986    0.812450
     20          1           0       -5.260899    1.556294    1.239190
     21          1           0       -6.286133   -0.614840    0.591492
     22          1           0       -4.891363   -2.360432   -0.496045
     23          1           0       -2.497658   -1.934620   -0.954415
     24          1           0        3.052873   -2.280247    1.047245
     25          1           0        2.049915   -1.033146    1.866272
     26          1           0        3.787925   -1.189966    2.266816
 ---------------------------------------------------------------------
 Rotational constants (GHZ):      1.5912283      0.1984892      0.1905645
 Leave Link  202 at Thu Aug  6 21:58:53 2020, MaxMem=    33554432 cpu:         0.0
 (Enter /prod/apps/gaussian/g09d1/l301.exe)
 Standard basis: 6-31G(d) (6D, 7F)
 Ernie: Thresh=  0.10000D-02 Tol=  0.10000D-05 Strict=F.
 There are   264 symmetry adapted cartesian basis functions of A   symmetry.
 There are   264 symmetry adapted basis functions of A   symmetry.
   264 basis functions,   512 primitive gaussians,   264 cartesian basis functions
    62 alpha electrons       62 beta electrons
       nuclear repulsion energy      1185.4336143653 Hartrees.
 IExCor=  402 DFT=T Ex+Corr=B3LYP ExCW=0 ScaHFX=  0.200000
 ScaDFX=  0.800000  0.720000  1.000000  0.810000 ScalE2=  1.000000  1.000000
 IRadAn=      0 IRanWt=     -1 IRanGd=            0 ICorTp=0 IEmpDi=  4
 NAtoms=   26 NActive=   26 NUniq=   26 SFac= 1.00D+00 NAtFMM=   60 NAOKFM=F Big=F
 Integral buffers will be    131072 words long.
 Raffenetti 2 integral format.
 Two-electron integral symmetry is turned on.
 Using the following non-standard input for PCM:
 MSTModel=DFT cav g03defaults OFac=0.8 Rmin=0.3
 Warning! Using old PCM defaults because the g03defaults keyword was found.
 These settings can be overridden by following keywords.
 --- end of non-standard input.
 MST model for solvation energy: B3LYP parametrization.
 MST cavity parameters:
 ISph   IAn     Re0     Alpha   Atom Type   QCorr
 ------------------------------------------------
   1      8     1.40     1.25      O          F
   2     16     1.75     1.25      S          F
   3      7     1.50     1.25      NH         F
   4      6     1.50     1.25      C          F
   5      7     1.40     1.25      N          F
   6      7     1.40     1.25      N          F
   7      6     1.50     1.25      CH         F
   8      7     1.40     1.25      N          F
   9      6     1.50     1.25      C          F
  10      6     1.50     1.25      CH         F
  11      6     1.50     1.25      CH         F
  12      6     1.50     1.25      CH         F
  13      6     1.50     1.25      CH         F
  14      6     1.50     1.25      CH         F
  15      6     1.50     1.25      CH3        F
  16      8     1.40     1.25      O          F
  17      1     0.90     1.25      NH         F
  18      1     1.20     1.25      CH         F
  19      1     1.20     1.25      CH         F
  20      1     1.20     1.25      CH         F
  21      1     1.20     1.25      CH         F
  22      1     1.20     1.25      CH         F
  23      1     1.20     1.25      CH         F
  24      1     1.20     1.25      CH3        F
  25      1     1.20     1.25      CH3        F
  26      1     1.20     1.25      CH3        F
 ------------------------------------------------------------------------------
 Polarizable Continuum Model (PCM)
 =================================
 Model                : PCM (using non-symmetric T matrix).
 Atomic radii         : MST.
 Polarization charges : Total charges.
 Charge compensation  : None.
 Solution method      : On-the-fly selection.
 Cavity type          : Scaled SES (Solvent Excluding Surface) (Alpha=1.250).
 Cavity algorithm     : GePol (RMin=0.300 OFac=0.800).
                        Default sphere list used, NSphG=   26.
                        Tesserae with average area of 0.200 Ang**2.
                        Smoothing algorithm: None.
                        Polarization charges: point-like.
                        Self-potential: constant (ISelfS= 1).
                        Self-field    : global E.n sum rule (ISelfD= 3).
 Solvent              : Water, Eps=  78.355300 Eps(inf)=   1.777849
                        RSolv=   1.385000 Ang.
 ------------------------------------------------------------------------------
 GePol: Number of generator spheres                  =      26
 GePol: Total number of spheres                      =      67
 GePol: Number of exposed spheres                    =      65 ( 97.01%)
 GePol: Number of tesserae                           =    2166
 GePol: Average area of tesserae                     =       0.12 Ang**2
 GePol: Minimum area of tessera                      =   0.10D-02 Ang**2
 GePol: Maximum area of tessera                      =    0.30575 Ang**2
 GePol: Number of small tesserae                     =      14
 GePol: Fraction of small tesserae (<1% of avg)      =       0.65%
 GePol: Total count of vertices                      =    7609
 GePol: Maximum number of vertices in a tessera      =       8
 GePol: Cavity surface area                          =    266.099 Ang**2
 GePol: Cavity volume                                =    259.834 Ang**3
 PCM non-electrostatic energy =         0.0029768830 Hartrees.
 Nuclear repulsion after PCM non-electrostatic terms =     1185.4365912483 Hartrees.
 Leave Link  301 at Thu Aug  6 21:58:53 2020, MaxMem=    33554432 cpu:         0.1
 (Enter /prod/apps/gaussian/g09d1/l302.exe)
 NPDir=0 NMtPBC=     1 NCelOv=     1 NCel=       1 NClECP=     1 NCelD=      1
         NCelK=      1 NCelE2=     1 NClLst=     1 CellRange=     0.0.
 One-electron integrals computed using PRISM.
 NBasis=   264 RedAO= T EigKep=  4.67D-04  NBF=   264
 NBsUse=   264 1.00D-06 EigRej= -1.00D+00 NBFU=   264
 Precomputing XC quadrature grid using
 IXCGrd= 4 IRadAn=           0 IRanWt=          -1 IRanGd=           0 AccXCQ= 0.00D+00.
 Generated NRdTot=       0 NPtTot=           0 NUsed=           0 NTot=          32
 NSgBfM=   262   262   262   262   262 MxSgAt=    26 MxSgA2=    26.
 Leave Link  302 at Thu Aug  6 21:58:54 2020, MaxMem=    33554432 cpu:         0.7
 (Enter /prod/apps/gaussian/g09d1/l303.exe)
 DipDrv:  MaxL=1.
 Leave Link  303 at Thu Aug  6 21:58:54 2020, MaxMem=    33554432 cpu:         0.0
 (Enter /prod/apps/gaussian/g09d1/l401.exe)
 Initial guess from the checkpoint file:  "SM44.n.8.pdb.xyz.mst.n.w.chk"
 B after Tr=     0.000000    0.000000    0.000000
         Rot=    1.000000    0.000000    0.000000    0.000000 Ang=   0.00 deg.
 Guess basis will be translated and rotated to current coordinates.
 JPrj=2 DoOrth=T DoCkMO=T.
 Leave Link  401 at Thu Aug  6 21:58:54 2020, MaxMem=    33554432 cpu:         0.2
 (Enter /dades/curu/work_g09D01_MST_AddSphPartition_ReadGammas/exe-dir/l502.exe)
 Closed shell SCF:
 Using DIIS extrapolation, IDIIS=  1040.
 Integral symmetry usage will be decided dynamically.
 IVT=      231207 IEndB=      231207 NGot=    33554432 MDV=    33409826
 LenX=    33409826 LenY=    33339689
 Requested convergence on RMS density matrix=1.00D-08 within 128 cycles.
 Requested convergence on MAX density matrix=1.00D-06.
 Requested convergence on             energy=1.00D-06.
 No special actions if energy rises.
 Fock matrices will be formed incrementally for  20 cycles.

 Cycle   1  Pass 1  IDiag  1:
 FoFJK:  IHMeth= 1 ICntrl=       0 DoSepK=F KAlg= 0 I1Cent=   0 FoldK=F
 IRaf= 770000000 NMat=   1 IRICut=       1 DoRegI=T DoRafI=F ISym2E= 0.
 FoFCou: FMM=F IPFlag=           0 FMFlag=      100000 FMFlg1=           0
         NFxFlg=           0 DoJE=F BraDBF=F KetDBF=F FulRan=T
         wScrn=  0.000000 ICntrl=       0 IOpCl=  0 I1Cent=           0 NGrid=           0
         NMat0=    1 NMatS0=      1 NMatT0=    0 NMatD0=    1 NMtDS0=    0 NMtDT0=    0
 Symmetry not used in FoFCou.
 Inv3:  Mode=1 IEnd=    14074668.
 Iteration    1 A*A^-1 deviation from unit magnitude is 4.88D-15 for   2147.
 Iteration    1 A*A^-1 deviation from orthogonality  is 2.26D-15 for   2156   1798.
 Iteration    1 A^-1*A deviation from unit magnitude is 5.33D-15 for   2147.
 Iteration    1 A^-1*A deviation from orthogonality  is 2.00D-15 for   2147   1403.
 E= -1116.52874053442    
 DIIS: error= 2.93D-03 at cycle   1 NSaved=   1.
 NSaved= 1 IEnMin= 1 EnMin= -1116.52874053442     IErMin= 1 ErrMin= 2.93D-03
 ErrMax= 2.93D-03  0.00D+00 EMaxC= 1.00D-01 BMatC= 3.07D-03 BMatP= 3.07D-03
 IDIUse=3 WtCom= 9.71D-01 WtEn= 2.93D-02
 Coeff-Com:  0.100D+01
 Coeff-En:   0.100D+01
 Coeff:      0.100D+01
 Gap=     0.200 Goal=   None    Shift=    0.000
 GapD=    0.200 DampG=1.000 DampE=1.000 DampFc=1.0000 IDamp=-1.
 RMSDP=1.11D-03 MaxDP=2.78D-02              OVMax= 4.57D-02

 Cycle   2  Pass 1  IDiag  1:
 RMSU=  1.10D-03    CP:  9.93D-01
 E= -1116.53261919141     Delta-E=       -0.003878656993 Rises=F Damp=F
 DIIS: error= 2.57D-03 at cycle   2 NSaved=   2.
 NSaved= 2 IEnMin= 2 EnMin= -1116.53261919141     IErMin= 2 ErrMin= 2.57D-03
 ErrMax= 2.57D-03  0.00D+00 EMaxC= 1.00D-01 BMatC= 4.30D-03 BMatP= 3.07D-03
 IDIUse=3 WtCom= 1.65D-01 WtEn= 8.35D-01
 Coeff-Com:  0.559D+00 0.441D+00
 Coeff-En:   0.188D+00 0.812D+00
 Coeff:      0.250D+00 0.750D+00
 Gap=     0.200 Goal=   None    Shift=    0.000
 RMSDP=5.38D-04 MaxDP=1.95D-02 DE=-3.88D-03 OVMax= 3.56D-02

 Cycle   3  Pass 1  IDiag  1:
 RMSU=  4.67D-04    CP:  9.94D-01  7.59D-01
 E= -1116.53145679711     Delta-E=        0.001162394303 Rises=F Damp=F
 DIIS: error= 3.05D-03 at cycle   3 NSaved=   3.
 NSaved= 3 IEnMin= 2 EnMin= -1116.53261919141     IErMin= 2 ErrMin= 2.57D-03
 ErrMax= 3.05D-03  0.00D+00 EMaxC= 1.00D-01 BMatC= 5.86D-03 BMatP= 3.07D-03
 IDIUse=3 WtCom= 1.53D-01 WtEn= 8.47D-01
 Coeff-Com:  0.777D-01 0.509D+00 0.413D+00
 Coeff-En:   0.000D+00 0.550D+00 0.450D+00
 Coeff:      0.119D-01 0.544D+00 0.444D+00
 Gap=     0.199 Goal=   None    Shift=    0.000
 RMSDP=2.64D-04 MaxDP=1.03D-02 DE= 1.16D-03 OVMax= 2.03D-02

 Cycle   4  Pass 1  IDiag  1:
 RMSU=  8.85D-05    CP:  9.93D-01  8.89D-01  5.68D-01
 E= -1116.53654541265     Delta-E=       -0.005088615537 Rises=F Damp=F
 DIIS: error= 2.66D-04 at cycle   4 NSaved=   4.
 NSaved= 4 IEnMin= 4 EnMin= -1116.53654541265     IErMin= 4 ErrMin= 2.66D-04
[...]
   20      H20     12.14  -0.043   -0.36
   21      H21     12.15  -0.041   -0.39
   22      H22     12.10  -0.043   -0.46
   23      H23      8.36  -0.041   -0.75
   24      H24     10.95  -0.065   -1.02
   25      H25      8.95  -0.052   -0.59
   26      H26     12.77  -0.075   -0.55
 Added spheres:    27.71  -0.097    0.00
 --------------------------------------------------------------------
 After PCM corrections, the energy is  -1116.53659523     a.u.
 --------------------------------------------------------------------
 Leave Link  502 at Thu Aug  6 22:01:05 2020, MaxMem=    33554432 cpu:       130.9
 (Enter /prod/apps/gaussian/g09d1/l601.exe)
 Copying SCF densities to generalized density rwf, IOpCl= 0 IROHF=0.

 **********************************************************************

            Population analysis using the SCF density.

 **********************************************************************

 Orbital symmetries:
       Occupied  (A) (A) (A) (A) (A) (A) (A) (A) (A) (A) (A) (A)
                 (A) (A) (A) (A) (A) (A) (A) (A) (A) (A) (A) (A)
                 (A) (A) (A) (A) (A) (A) (A) (A) (A) (A) (A) (A)
                 (A) (A) (A) (A) (A) (A) (A) (A) (A) (A) (A) (A)
                 (A) (A) (A) (A) (A) (A) (A) (A) (A) (A) (A) (A)
                 (A) (A)
       Virtual   (A) (A) (A) (A) (A) (A) (A) (A) (A) (A) (A) (A)
                 (A) (A) (A) (A) (A) (A) (A) (A) (A) (A) (A) (A)
                 (A) (A) (A) (A) (A) (A) (A) (A) (A) (A) (A) (A)
                 (A) (A) (A) (A) (A) (A) (A) (A) (A) (A) (A) (A)
                 (A) (A) (A) (A) (A) (A) (A) (A) (A) (A) (A) (A)
                 (A) (A) (A) (A) (A) (A) (A) (A) (A) (A) (A) (A)
                 (A) (A) (A) (A) (A) (A) (A) (A) (A) (A) (A) (A)
                 (A) (A) (A) (A) (A) (A) (A) (A) (A) (A) (A) (A)
                 (A) (A) (A) (A) (A) (A) (A) (A) (A) (A) (A) (A)
                 (A) (A) (A) (A) (A) (A) (A) (A) (A) (A) (A) (A)
                 (A) (A) (A) (A) (A) (A) (A) (A) (A) (A) (A) (A)
                 (A) (A) (A) (A) (A) (A) (A) (A) (A) (A) (A) (A)
                 (A) (A) (A) (A) (A) (A) (A) (A) (A) (A) (A) (A)
                 (A) (A) (A) (A) (A) (A) (A) (A) (A) (A) (A) (A)
                 (A) (A) (A) (A) (A) (A) (A) (A) (A) (A) (A) (A)
                 (A) (A) (A) (A) (A) (A) (A) (A) (A) (A) (A) (A)
                 (A) (A) (A) (A) (A) (A) (A) (A) (A) (A)
 The electronic state is 1-A.
 Alpha  occ. eigenvalues --  -89.12630 -19.15721 -19.15677 -14.44884 -14.40651
 Alpha  occ. eigenvalues --  -14.38667 -14.37323 -10.26679 -10.25261 -10.24789
 Alpha  occ. eigenvalues --  -10.22636 -10.20819 -10.20517 -10.20302 -10.20252
 Alpha  occ. eigenvalues --  -10.20003  -8.15217  -6.11717  -6.11641  -6.11489
 Alpha  occ. eigenvalues --   -1.12531  -1.11568  -1.01436  -0.96007  -0.93274
 Alpha  occ. eigenvalues --   -0.86275  -0.81465  -0.77746  -0.76517  -0.75962
 Alpha  occ. eigenvalues --   -0.67034  -0.66592  -0.63238  -0.61067  -0.58922
 Alpha  occ. eigenvalues --   -0.56673  -0.54115  -0.52749  -0.50005  -0.49937
 Alpha  occ. eigenvalues --   -0.48892  -0.48493  -0.47171  -0.45569  -0.44686
 Alpha  occ. eigenvalues --   -0.44013  -0.43547  -0.43482  -0.39026  -0.37424
 Alpha  occ. eigenvalues --   -0.36592  -0.36104  -0.35061  -0.34221  -0.33144
 Alpha  occ. eigenvalues --   -0.32187  -0.32017  -0.31528  -0.29125  -0.26922
 Alpha  occ. eigenvalues --   -0.26548  -0.24534
 Alpha virt. eigenvalues --   -0.04654  -0.01598   0.00963   0.01873   0.06676
 Alpha virt. eigenvalues --    0.07206   0.08880   0.09669   0.10105   0.10754
 Alpha virt. eigenvalues --    0.12215   0.13618   0.14926   0.15099   0.15398
 Alpha virt. eigenvalues --    0.15953   0.16332   0.18322   0.18987   0.19633
 Alpha virt. eigenvalues --    0.21257   0.23205   0.24404   0.29269   0.30159
 Alpha virt. eigenvalues --    0.30987   0.32564   0.33440   0.35403   0.36261
 Alpha virt. eigenvalues --    0.38840   0.42286   0.42732   0.43201   0.48268
 Alpha virt. eigenvalues --    0.48511   0.50062   0.51643   0.51860   0.52665
 Alpha virt. eigenvalues --    0.54079   0.54633   0.55595   0.57146   0.57633
 Alpha virt. eigenvalues --    0.58073   0.58580   0.59911   0.60586   0.60678
 Alpha virt. eigenvalues --    0.61048   0.62516   0.63169   0.64071   0.66311
 Alpha virt. eigenvalues --    0.67622   0.68642   0.70136   0.70186   0.72748
 Alpha virt. eigenvalues --    0.74070   0.77323   0.77466   0.78494   0.79110
 Alpha virt. eigenvalues --    0.80669   0.82948   0.83529   0.83857   0.84337
 Alpha virt. eigenvalues --    0.84578   0.85177   0.86555   0.86847   0.87847
 Alpha virt. eigenvalues --    0.89226   0.90078   0.91463   0.93166   0.93704
 Alpha virt. eigenvalues --    0.95357   0.96573   0.97335   0.99046   1.00579
 Alpha virt. eigenvalues --    1.01093   1.02376   1.04065   1.05800   1.06318
 Alpha virt. eigenvalues --    1.07690   1.10627   1.12593   1.15308   1.15364
 Alpha virt. eigenvalues --    1.16378   1.17550   1.19022   1.19283   1.24083
 Alpha virt. eigenvalues --    1.24297   1.25534   1.30499   1.31945   1.35327
 Alpha virt. eigenvalues --    1.36948   1.39824   1.41605   1.42471   1.44144
 Alpha virt. eigenvalues --    1.45698   1.46856   1.47779   1.49694   1.51389
 Alpha virt. eigenvalues --    1.51989   1.55990   1.57725   1.60919   1.64303
 Alpha virt. eigenvalues --    1.68530   1.71756   1.74516   1.77092   1.78522
 Alpha virt. eigenvalues --    1.78930   1.79564   1.80593   1.81069   1.83667
 Alpha virt. eigenvalues --    1.85240   1.86353   1.87904   1.89907   1.90777
 Alpha virt. eigenvalues --    1.94193   1.95931   1.96652   2.00312   2.03061
 Alpha virt. eigenvalues --    2.05157   2.05783   2.07485   2.08759   2.10608
 Alpha virt. eigenvalues --    2.10733   2.12897   2.13633   2.14573   2.16751
 Alpha virt. eigenvalues --    2.19473   2.19787   2.21257   2.22618   2.24336
 Alpha virt. eigenvalues --    2.25875   2.27698   2.29041   2.30385   2.31698
 Alpha virt. eigenvalues --    2.33960   2.36836   2.38093   2.48390   2.50883
 Alpha virt. eigenvalues --    2.52927   2.56534   2.57923   2.59118   2.62902
 Alpha virt. eigenvalues --    2.64080   2.66806   2.69475   2.71464   2.72851
 Alpha virt. eigenvalues --    2.73862   2.75517   2.76742   2.81609   2.86246
 Alpha virt. eigenvalues --    2.88607   3.00027   3.05930   3.12901   3.25287
 Alpha virt. eigenvalues --    3.42123   3.60291   3.75673   3.87747   3.93657
 Alpha virt. eigenvalues --    3.96744   4.06183   4.07812   4.09933   4.10602
 Alpha virt. eigenvalues --    4.15152   4.19001   4.23702   4.31578   4.38995
 Alpha virt. eigenvalues --    4.48511   4.70874
          Condensed to atoms (all electrons):
               1          2          3          4          5          6
     1  O    8.266209   0.448725  -0.051374   0.001572  -0.000017   0.000000
     2  S    0.448725  13.634285   0.133791  -0.017500   0.002226   0.000077
     3  N   -0.051374   0.133791   7.376703   0.255986  -0.058095   0.005653
     4  C    0.001572  -0.017500   0.255986   4.662461   0.369517  -0.082194
     5  N   -0.000017   0.002226  -0.058095   0.369517   6.885195   0.301865
     6  N    0.000000   0.000077   0.005653  -0.082194   0.301865   6.769975
     7  C   -0.000038  -0.004921  -0.071949   0.518329  -0.071777  -0.099406
     8  N    0.000000   0.000309   0.003335  -0.036724  -0.094617   0.229572
     9  C    0.000000  -0.000012  -0.000121   0.004216   0.006530  -0.043671
    10  C    0.000000   0.000000   0.000001  -0.000399   0.000367  -0.000413
    11  C    0.000000   0.000000   0.000000   0.000006  -0.000004   0.000293
    12  C    0.000000   0.000000   0.000000   0.000000   0.000000   0.000017
    13  C    0.000000   0.000000   0.000000  -0.000009   0.000002  -0.000067
    14  C    0.000000   0.000000   0.000004   0.000959  -0.000331   0.002977
    15  C   -0.058413   0.234743  -0.060732  -0.001975   0.000009   0.000007
    16  O   -0.043966   0.442950  -0.052114  -0.000421   0.000871   0.000040
    17  H    0.000909  -0.004461   0.298985  -0.026832   0.001794  -0.000072
    18  H    0.000000  -0.000023  -0.000467  -0.025714   0.004015   0.003450
    19  H    0.000000   0.000000   0.000000   0.000044  -0.000326   0.016120
    20  H    0.000000   0.000000   0.000000   0.000000   0.000000  -0.000008
    21  H    0.000000   0.000000   0.000000   0.000000   0.000000   0.000000
    22  H    0.000000   0.000000   0.000000   0.000000   0.000000   0.000001
    23  H    0.000000   0.000000   0.000000   0.000062  -0.000007  -0.000086
    24  H    0.000011  -0.008780   0.000138   0.000229  -0.000004   0.000000
    25  H    0.001808  -0.008649  -0.002382   0.002570  -0.000030  -0.000042
    26  H   -0.000433  -0.012913   0.002224   0.000015  -0.000002   0.000000
               7          8          9         10         11         12
     1  O   -0.000038   0.000000   0.000000   0.000000   0.000000   0.000000
     2  S   -0.004921   0.000309  -0.000012   0.000000   0.000000   0.000000
     3  N   -0.071949   0.003335  -0.000121   0.000001   0.000000   0.000000
     4  C    0.518329  -0.036724   0.004216  -0.000399   0.000006   0.000000
     5  N   -0.071777  -0.094617   0.006530   0.000367  -0.000004   0.000000
     6  N   -0.099406   0.229572  -0.043671  -0.000413   0.000293   0.000017
     7  C    5.009540   0.332949  -0.031518   0.007316  -0.000087   0.000020
     8  N    0.332949   6.876102   0.198346  -0.058663   0.004571   0.000334
     9  C   -0.031518   0.198346   4.625599   0.513494  -0.010738  -0.038249
    10  C    0.007316  -0.058663   0.513494   4.996812   0.519808  -0.039403
    11  C   -0.000087   0.004571  -0.010738   0.519808   4.880151   0.539156
    12  C    0.000020   0.000334  -0.038249  -0.039403   0.539156   4.870737
    13  C    0.000001   0.004664  -0.009574  -0.041435  -0.024741   0.544545
    14  C   -0.006879  -0.050578   0.528980  -0.071636  -0.042313  -0.041060
    15  C    0.000098  -0.000023  -0.000001   0.000000   0.000000   0.000000
    16  O   -0.000173   0.000003   0.000000   0.000000   0.000000   0.000000
    17  H   -0.001454   0.000004   0.000002   0.000000   0.000000   0.000000
    18  H    0.361711  -0.033233  -0.001769  -0.000101  -0.000004  -0.000001
    19  H    0.000229  -0.013630  -0.039280   0.356821  -0.037936   0.004496
    20  H    0.000001  -0.000103   0.003538  -0.037681   0.363792  -0.039846
    21  H    0.000000   0.000003   0.000477   0.004657  -0.041309   0.365856
    22  H   -0.000004  -0.000108   0.003437   0.000733   0.004440  -0.039423
    23  H    0.005837  -0.009217  -0.039705   0.005238   0.000211   0.004299
    24  H    0.000193   0.000000   0.000000   0.000000   0.000000   0.000000
    25  H    0.003049  -0.000100   0.000003   0.000000   0.000000   0.000000
    26  H   -0.000021   0.000001   0.000000   0.000000   0.000000   0.000000
              13         14         15         16         17         18
     1  O    0.000000   0.000000  -0.058413  -0.043966   0.000909   0.000000
     2  S    0.000000   0.000000   0.234743   0.442950  -0.004461  -0.000023
     3  N    0.000000   0.000004  -0.060732  -0.052114   0.298985  -0.000467
     4  C   -0.000009   0.000959  -0.001975  -0.000421  -0.026832  -0.025714
     5  N    0.000002  -0.000331   0.000009   0.000871   0.001794   0.004015
     6  N   -0.000067   0.002977   0.000007   0.000040  -0.000072   0.003450
     7  C    0.000001  -0.006879   0.000098  -0.000173  -0.001454   0.361711
     8  N    0.004664  -0.050578  -0.000023   0.000003   0.000004  -0.033233
     9  C   -0.009574   0.528980  -0.000001   0.000000   0.000002  -0.001769
    10  C   -0.041435  -0.071636   0.000000   0.000000   0.000000  -0.000101
    11  C   -0.024741  -0.042313   0.000000   0.000000   0.000000  -0.000004
    12  C    0.544545  -0.041060   0.000000   0.000000   0.000000  -0.000001
    13  C    4.862907   0.527483   0.000000   0.000000   0.000000   0.000166
    14  C    0.527483   4.993422   0.000000   0.000000   0.000000   0.002211
    15  C    0.000000   0.000000   5.535583  -0.058490   0.000087   0.000087
    16  O    0.000000   0.000000  -0.058490   8.271819   0.001299   0.000000
    17  H    0.000000   0.000000   0.000087   0.001299   0.303719   0.000701
    18  H    0.000166   0.002211   0.000087   0.000000   0.000701   0.456282
    19  H    0.000090   0.005472   0.000000   0.000000   0.000000  -0.000010
    20  H    0.004455   0.000713   0.000000   0.000000   0.000000   0.000000
    21  H   -0.041141   0.004889   0.000000   0.000000   0.000000   0.000000
    22  H    0.363561  -0.037577   0.000000   0.000000   0.000000  -0.000001
    23  H   -0.034590   0.353869   0.000000   0.000000   0.000000   0.001625
    24  H    0.000000   0.000000   0.343305   0.001853   0.000031   0.000028
    25  H    0.000000   0.000000   0.341123  -0.000204   0.000149   0.000114
    26  H    0.000000   0.000000   0.356119  -0.000115  -0.000006   0.000000
              19         20         21         22         23         24
     1  O    0.000000   0.000000   0.000000   0.000000   0.000000   0.000011
     2  S    0.000000   0.000000   0.000000   0.000000   0.000000  -0.008780
     3  N    0.000000   0.000000   0.000000   0.000000   0.000000   0.000138
     4  C    0.000044   0.000000   0.000000   0.000000   0.000062   0.000229
     5  N   -0.000326   0.000000   0.000000   0.000000  -0.000007  -0.000004
     6  N    0.016120  -0.000008   0.000000   0.000001  -0.000086   0.000000
     7  C    0.000229   0.000001   0.000000  -0.000004   0.005837   0.000193
     8  N   -0.013630  -0.000103   0.000003  -0.000108  -0.009217   0.000000
     9  C   -0.039280   0.003538   0.000477   0.003437  -0.039705   0.000000
    10  C    0.356821  -0.037681   0.004657   0.000733   0.005238   0.000000
    11  C   -0.037936   0.363792  -0.041309   0.004440   0.000211   0.000000
    12  C    0.004496  -0.039846   0.365856  -0.039423   0.004299   0.000000
    13  C    0.000090   0.004455  -0.041141   0.363561  -0.034590   0.000000
    14  C    0.005472   0.000713   0.004889  -0.037577   0.353869   0.000000
    15  C    0.000000   0.000000   0.000000   0.000000   0.000000   0.343305
    16  O    0.000000   0.000000   0.000000   0.000000   0.000000   0.001853
    17  H    0.000000   0.000000   0.000000   0.000000   0.000000   0.000031
    18  H   -0.000010   0.000000   0.000000  -0.000001   0.001625   0.000028
    19  H    0.537149  -0.005086  -0.000133   0.000013  -0.000129   0.000000
    20  H   -0.005086   0.550624  -0.005043  -0.000164   0.000013   0.000000
    21  H   -0.000133  -0.005043   0.555874  -0.005068  -0.000144   0.000000
    22  H    0.000013  -0.000164  -0.005068   0.549812  -0.005092   0.000000
    23  H   -0.000129   0.000013  -0.000144  -0.005092   0.542720   0.000000
    24  H    0.000000   0.000000   0.000000   0.000000   0.000000   0.470947
    25  H    0.000000   0.000000   0.000000   0.000000   0.000000  -0.021083
    26  H    0.000000   0.000000   0.000000   0.000000   0.000000  -0.017300
              25         26
     1  O    0.001808  -0.000433
     2  S   -0.008649  -0.012913
     3  N   -0.002382   0.002224
     4  C    0.002570   0.000015
     5  N   -0.000030  -0.000002
     6  N   -0.000042   0.000000
     7  C    0.003049  -0.000021
     8  N   -0.000100   0.000001
     9  C    0.000003   0.000000
    10  C    0.000000   0.000000
    11  C    0.000000   0.000000
    12  C    0.000000   0.000000
    13  C    0.000000   0.000000
    14  C    0.000000   0.000000
    15  C    0.341123   0.356119
    16  O   -0.000204  -0.000115
    17  H    0.000149  -0.000006
    18  H    0.000114   0.000000
    19  H    0.000000   0.000000
    20  H    0.000000   0.000000
    21  H    0.000000   0.000000
    22  H    0.000000   0.000000
    23  H    0.000000   0.000000
    24  H   -0.021083  -0.017300
    25  H    0.474937  -0.018907
    26  H   -0.018907   0.449786
 Mulliken charges:
               1
     1  O   -0.564993
     2  S    1.160152
     3  N   -0.779584
     4  C    0.375802
     5  N   -0.347180
     6  N   -0.104089
     7  C    0.048954
     8  N   -0.353197
     9  C    0.330015
    10  C   -0.155515
    11  C   -0.155295
    12  C   -0.131477
    13  C   -0.156318
    14  C   -0.170605
    15  C   -0.631528
    16  O   -0.563352
    17  H    0.425143
    18  H    0.230931
    19  H    0.176098
    20  H    0.164797
    21  H    0.161081
    22  H    0.165441
    23  H    0.175096
    24  H    0.230431
    25  H    0.227644
    26  H    0.241549
 Sum of Mulliken charges =   0.00000
 Mulliken charges with hydrogens summed into heavy atoms:
               1
     1  O   -0.564993
     2  S    1.160152
     3  N   -0.354441
     4  C    0.375802
     5  N   -0.347180
     6  N   -0.104089
     7  C    0.279885
     8  N   -0.353197
     9  C    0.330015
    10  C    0.020583
    11  C    0.009502
    12  C    0.029604
    13  C    0.009123
    14  C    0.004491
    15  C    0.068096
    16  O   -0.563352
 Electronic spatial extent (au):  <R**2>=           5474.5442
 Charge=              0.0000 electrons
 Dipole moment (field-independent basis, Debye):
    X=             -7.8825    Y=            -10.0403    Z=              1.8522  Tot=             12.8985
 Quadrupole moment (field-independent basis, Debye-Ang):
   XX=           -108.9172   YY=            -97.4907   ZZ=            -95.6328
   XY=            -11.9571   XZ=              4.0564   YZ=              3.5260
 Traceless Quadrupole moment (field-independent basis, Debye-Ang):
   XX=             -8.2370   YY=              3.1895   ZZ=              5.0475
   XY=            -11.9571   XZ=              4.0564   YZ=              3.5260
 Octapole moment (field-independent basis, Debye-Ang**2):
  XXX=           -218.1200  YYY=            -36.6613  ZZZ=              5.5698  XYY=             -5.2685
  XXY=            -45.5663  XXZ=             46.9475  XZZ=             29.4849  YZZ=            -10.4721
  YYZ=              1.3014  XYZ=            -22.6526
 Hexadecapole moment (field-independent basis, Debye-Ang**3):
 XXXX=          -6275.9616 YYYY=           -639.8728 ZZZZ=           -361.3420 XXXY=            -13.3452
 XXXZ=             37.7511 YYYX=            -27.4163 YYYZ=             27.7402 ZZZX=             29.9081
 ZZZY=              3.9594 XXYY=          -1068.3167 XXZZ=          -1071.3840 YYZZ=           -163.9608
 XXYZ=              4.2614 YYXZ=             -1.1228 ZZXY=            -40.4646
 N-N= 1.185436591248D+03 E-N=-4.987765213582D+03  KE= 1.108378462805D+03
 No NMR shielding tensors so no spin-rotation constants.
 Leave Link  601 at Thu Aug  6 22:01:05 2020, MaxMem=    33554432 cpu:         0.2
 (Enter /prod/apps/gaussian/g09d1/l9999.exe)
 1\1\GINC-PIRINEUS21\SP\RB3LYP\6-31G(d)\C9H10N4O2S1\UBAFAR01\06-Aug-202
 0\0\\#p b3lyp/6-31G(d) scrf=(iefpcm,read,solvent=Water) geom=allcheck 
 guess=read\\SM44.n.8.pdb.xyz\\0,1\O,0,3.444,-0.878,-2.209\S,0,3.014,-2
 .056,-1.447\N,0,2.705,-1.475,0.117\C,0,2.298,-2.37,1.126\N,0,3.189,-3.
 177,1.766\N,0,2.554,-3.865,2.676\C,0,1.047,-2.566,1.674\N,0,1.251,-3.4
 94,2.64\C,0,0.306,-4.065,3.54\C,0,0.567,-5.32,4.095\C,0,-0.356,-5.874,
 4.979\C,0,-1.532,-5.19,5.296\C,0,-1.781,-3.94,4.729\C,0,-0.861,-3.366,
 3.853\C,0,1.451,-2.635,-2.113\O,0,3.914,-3.205,-1.309\H,0,2.152,-0.617
 ,0.072\H,0,0.083,-2.142,1.452\H,0,1.475,-5.844,3.828\H,0,-0.158,-6.849
 ,5.412\H,0,-2.249,-5.629,5.981\H,0,-2.688,-3.4,4.974\H,0,-1.043,-2.386
 ,3.429\H,0,0.764,-1.791,-2.167\H,0,1.062,-3.419,-1.465\H,0,1.655,-3.03
 ,-3.109\\Version=AM64L-G09RevD.01\State=1-A\HF=-1116.5365952\RMSD=4.36
 7e-09\Dipole=-4.9688158,0.2684884,0.9954357\Quadrupole=-8.7273271,5.65
 16317,3.0756954,-4.4543213,6.7060295,0.0714401\PG=C01 [X(C9H10N4O2S1)]
 \\@


 GROWING OLD ISN'T SO BAD -- WHEN YOU CONSIDER THE ALTERNATIVE.

                     -- MAURICE CHEVALIER
 Job cpu time:       0 days  0 hours  2 minutes 12.3 seconds.
 File lengths (MBytes):  RWF=    118 Int=      0 D2E=      0 Chk=      5 Scr=      1
 Normal termination of Gaussian 09 at Thu Aug  6 22:01:05 2020.
