 Entering Gaussian System, Link 0=g09
 Initial command:
 /prod/apps/gaussian/g09d1/l1.exe "/tmp/ubafar01/1448665/Gau-208183.inp" -scrdir="/tmp/ubafar01/1448665/"
 Entering Link 1 = /prod/apps/gaussian/g09d1/l1.exe PID=    208184.
  
 Copyright (c) 1988,1990,1992,1993,1995,1998,2003,2009,2013,
            Gaussian, Inc.  All Rights Reserved.
  
 This is part of the Gaussian(R) 09 program.  It is based on
 the Gaussian(R) 03 system (copyright 2003, Gaussian, Inc.),
 the Gaussian(R) 98 system (copyright 1998, Gaussian, Inc.),
 the Gaussian(R) 94 system (copyright 1995, Gaussian, Inc.),
 the Gaussian 92(TM) system (copyright 1992, Gaussian, Inc.),
 the Gaussian 90(TM) system (copyright 1990, Gaussian, Inc.),
 the Gaussian 88(TM) system (copyright 1988, Gaussian, Inc.),
 the Gaussian 86(TM) system (copyright 1986, Carnegie Mellon
 University), and the Gaussian 82(TM) system (copyright 1983,
 Carnegie Mellon University). Gaussian is a federally registered
 trademark of Gaussian, Inc.
  
 This software contains proprietary and confidential information,
 including trade secrets, belonging to Gaussian, Inc.
  
 This software is provided under written license and may be
 used, copied, transmitted, or stored only in accord with that
 written license.
  
 The following legend is applicable only to US Government
 contracts under FAR:
  
                    RESTRICTED RIGHTS LEGEND
  
 Use, reproduction and disclosure by the US Government is
 subject to restrictions as set forth in subparagraphs (a)
 and (c) of the Commercial Computer Software - Restricted
 Rights clause in FAR 52.227-19.
  
 Gaussian, Inc.
 340 Quinnipiac St., Bldg. 40, Wallingford CT 06492
  
  
 ---------------------------------------------------------------
 Warning -- This program may not be used in any manner that
 competes with the business of Gaussian, Inc. or will provide
 assistance to any competitor of Gaussian, Inc.  The licensee
 of this program is prohibited from giving any competitor of
 Gaussian, Inc. access to this program.  By using this program,
 the user acknowledges that Gaussian, Inc. is engaged in the
 business of creating and licensing software in the field of
 computational chemistry and represents and warrants to the
 licensee that it is not a competitor of Gaussian, Inc. and that
 it will not use this program in any manner prohibited above.
 ---------------------------------------------------------------
  

 Cite this work as:
 Gaussian 09, Revision D.01,
 M. J. Frisch, G. W. Trucks, H. B. Schlegel, G. E. Scuseria, 
 M. A. Robb, J. R. Cheeseman, G. Scalmani, V. Barone, B. Mennucci, 
 G. A. Petersson, H. Nakatsuji, M. Caricato, X. Li, H. P. Hratchian, 
 A. F. Izmaylov, J. Bloino, G. Zheng, J. L. Sonnenberg, M. Hada, 
 M. Ehara, K. Toyota, R. Fukuda, J. Hasegawa, M. Ishida, T. Nakajima, 
 Y. Honda, O. Kitao, H. Nakai, T. Vreven, J. A. Montgomery, Jr., 
 J. E. Peralta, F. Ogliaro, M. Bearpark, J. J. Heyd, E. Brothers, 
 K. N. Kudin, V. N. Staroverov, T. Keith, R. Kobayashi, J. Normand, 
 K. Raghavachari, A. Rendell, J. C. Burant, S. S. Iyengar, J. Tomasi, 
 M. Cossi, N. Rega, J. M. Millam, M. Klene, J. E. Knox, J. B. Cross, 
 V. Bakken, C. Adamo, J. Jaramillo, R. Gomperts, R. E. Stratmann, 
 O. Yazyev, A. J. Austin, R. Cammi, C. Pomelli, J. W. Ochterski, 
 R. L. Martin, K. Morokuma, V. G. Zakrzewski, G. A. Voth, 
 P. Salvador, J. J. Dannenberg, S. Dapprich, A. D. Daniels, 
 O. Farkas, J. B. Foresman, J. V. Ortiz, J. Cioslowski, 
 and D. J. Fox, Gaussian, Inc., Wallingford CT, 2013.
 
 ******************************************
 Gaussian 09:  AM64L-G09RevD.01 24-Apr-2013
                 6-Aug-2020 
 ******************************************
 %nproc=1
 Will use up to    1 processors via shared memory.
 %Chk=SM44.n.3.pdb.xyz.mst.n.o.chk
 -----------------
 #p b3lyp/6-31G(d)
 -----------------
 1/38=1/1;
 2/12=2,17=6,18=5,40=1/2;
 3/5=1,6=6,7=1,11=2,16=1,25=1,30=1,74=-5/1,2,3;
 4//1;
 5/5=2,38=5/2;
 6/7=2,8=2,9=2,10=2,28=1/1;
 99/5=1,9=1/99;
 Leave Link    1 at Thu Aug  6 22:14:46 2020, MaxMem=           0 cpu:         0.0
 (Enter /prod/apps/gaussian/g09d1/l101.exe)
 ----------------
 SM44.n.3.pdb.xyz
 ----------------
 Symbolic Z-matrix:
 Charge =  0 Multiplicity = 1
 O                     3.471    -0.787    -2.126 
 S                     2.974    -2.011    -1.494 
 N                     2.851    -1.62      0.151 
 C                     2.382    -2.556     1.09 
 N                     3.17     -3.568     1.554 
 N                     2.5      -4.254     2.434 
 C                     1.158    -2.621     1.725 
 N                     1.274    -3.681     2.562 
 C                     0.318    -4.203     3.479 
 C                    -0.727    -3.392     3.923 
 C                    -1.665    -3.916     4.811 
 C                    -1.551    -5.232     5.261 
 C                    -0.495    -6.028     4.814 
 C                     0.443    -5.523     3.918 
 C                     1.296    -2.309    -2.067 
 O                     3.71     -3.268    -1.597 
 H                     2.536    -0.662     0.279 
 H                     0.264    -2.027     1.645 
 H                    -0.8      -2.364     3.59 
 H                    -2.478    -3.288     5.158 
 H                    -2.28     -5.635     5.955 
 H                    -0.402    -7.051     5.159 
 H                     1.264    -6.128     3.555 
 H                     0.718    -1.39     -1.967 
 H                     0.859    -3.116    -1.479 
 H                     1.365    -2.602    -3.116 
 
 NAtoms=     26 NQM=       26 NQMF=       0 NMMI=      0 NMMIF=      0
                NMic=       0 NMicF=      0.
                    Isotopes and Nuclear Properties:
 (Nuclear quadrupole moments (NQMom) in fm**2, nuclear magnetic moments (NMagM)
  in nuclear magnetons)

  Atom         1           2           3           4           5           6           7           8           9          10
 IAtWgt=          16          32          14          12          14          14          12          14          12          12
 AtmWgt=  15.9949146  31.9720718  14.0030740  12.0000000  14.0030740  14.0030740  12.0000000  14.0030740  12.0000000  12.0000000
 NucSpn=           0           0           2           0           2           2           0           2           0           0
 AtZEff=   0.0000000   0.0000000   0.0000000   0.0000000   0.0000000   0.0000000   0.0000000   0.0000000   0.0000000   0.0000000
 NQMom=    0.0000000   0.0000000   2.0440000   0.0000000   2.0440000   2.0440000   0.0000000   2.0440000   0.0000000   0.0000000
 NMagM=    0.0000000   0.0000000   0.4037610   0.0000000   0.4037610   0.4037610   0.0000000   0.4037610   0.0000000   0.0000000
 AtZNuc=   8.0000000  16.0000000   7.0000000   6.0000000   7.0000000   7.0000000   6.0000000   7.0000000   6.0000000   6.0000000

  Atom        11          12          13          14          15          16          17          18          19          20
 IAtWgt=          12          12          12          12          12          16           1           1           1           1
 AtmWgt=  12.0000000  12.0000000  12.0000000  12.0000000  12.0000000  15.9949146   1.0078250   1.0078250   1.0078250   1.0078250
 NucSpn=           0           0           0           0           0           0           1           1           1           1
 AtZEff=   0.0000000   0.0000000   0.0000000   0.0000000   0.0000000   0.0000000   0.0000000   0.0000000   0.0000000   0.0000000
 NQMom=    0.0000000   0.0000000   0.0000000   0.0000000   0.0000000   0.0000000   0.0000000   0.0000000   0.0000000   0.0000000
 NMagM=    0.0000000   0.0000000   0.0000000   0.0000000   0.0000000   0.0000000   2.7928460   2.7928460   2.7928460   2.7928460
 AtZNuc=   6.0000000   6.0000000   6.0000000   6.0000000   6.0000000   8.0000000   1.0000000   1.0000000   1.0000000   1.0000000

  Atom        21          22          23          24          25          26
 IAtWgt=           1           1           1           1           1           1
 AtmWgt=   1.0078250   1.0078250   1.0078250   1.0078250   1.0078250   1.0078250
 NucSpn=           1           1           1           1           1           1
 AtZEff=   0.0000000   0.0000000   0.0000000   0.0000000   0.0000000   0.0000000
 NQMom=    0.0000000   0.0000000   0.0000000   0.0000000   0.0000000   0.0000000
 NMagM=    2.7928460   2.7928460   2.7928460   2.7928460   2.7928460   2.7928460
 AtZNuc=   1.0000000   1.0000000   1.0000000   1.0000000   1.0000000   1.0000000
 Leave Link  101 at Thu Aug  6 22:14:46 2020, MaxMem=    33554432 cpu:         0.1
 (Enter /prod/apps/gaussian/g09d1/l202.exe)
                          Input orientation:                          
 ---------------------------------------------------------------------
 Center     Atomic      Atomic             Coordinates (Angstroms)
 Number     Number       Type             X           Y           Z
 ---------------------------------------------------------------------
      1          8           0        3.471000   -0.787000   -2.126000
      2         16           0        2.974000   -2.011000   -1.494000
      3          7           0        2.851000   -1.620000    0.151000
      4          6           0        2.382000   -2.556000    1.090000
      5          7           0        3.170000   -3.568000    1.554000
      6          7           0        2.500000   -4.254000    2.434000
      7          6           0        1.158000   -2.621000    1.725000
      8          7           0        1.274000   -3.681000    2.562000
      9          6           0        0.318000   -4.203000    3.479000
     10          6           0       -0.727000   -3.392000    3.923000
     11          6           0       -1.665000   -3.916000    4.811000
     12          6           0       -1.551000   -5.232000    5.261000
     13          6           0       -0.495000   -6.028000    4.814000
     14          6           0        0.443000   -5.523000    3.918000
     15          6           0        1.296000   -2.309000   -2.067000
     16          8           0        3.710000   -3.268000   -1.597000
     17          1           0        2.536000   -0.662000    0.279000
     18          1           0        0.264000   -2.027000    1.645000
     19          1           0       -0.800000   -2.364000    3.590000
     20          1           0       -2.478000   -3.288000    5.158000
     21          1           0       -2.280000   -5.635000    5.955000
     22          1           0       -0.402000   -7.051000    5.159000
     23          1           0        1.264000   -6.128000    3.555000
     24          1           0        0.718000   -1.390000   -1.967000
     25          1           0        0.859000   -3.116000   -1.479000
     26          1           0        1.365000   -2.602000   -3.116000
 ---------------------------------------------------------------------
                    Distance matrix (angstroms):
                    1          2          3          4          5
     1  O    0.000000
     2  S    1.464448   0.000000
     3  N    2.502602   1.695298   0.000000
     4  C    3.828569   2.706390   1.406335   0.000000
     5  N    4.622441   3.428260   2.421750   1.363959   0.000000
     6  N    5.810037   4.548067   3.503319   2.168747   1.301498
     7  C    4.852188   3.745920   2.519072   1.380444   2.230290
     8  N    5.931222   4.704257   3.542255   2.158720   2.150267
     9  C    7.281929   6.048961   4.915645   3.560902   3.498965
    10  C    7.810226   6.704361   5.492727   4.288434   4.563962
    11  C    9.181019   8.056201   6.883420   5.663360   5.840067
    12  C    9.977288   8.745313   7.650899   6.326666   6.228851
    13  C    9.558286   8.243853   7.236695   5.848084   5.487388
    14  C    8.253994   6.930357   5.934826   4.534357   4.104516
    15  C    2.655295   1.798004   2.795044   3.347694   4.267153
    16  O    2.548004   1.460258   2.551331   3.080665   3.210981
    17  H    2.583384   2.270501   1.016550   2.066077   3.236111
    18  H    5.103223   4.147008   3.015005   2.252507   3.290562
    19  H    7.307601   6.341509   5.070509   4.051171   4.621235
    20  H    9.731509   8.695064   7.500034   6.379972   6.705753
    21  H   11.039912   9.809459   8.725469   7.408287   7.303683
    22  H   10.359008   9.003410   8.072040   6.671765   6.155201
    23  H    8.103758   6.735443   5.867525   4.481666   3.767020
    24  H    2.822747   2.387238   3.014716   3.670654   4.811801
    25  H    3.558847   2.386310   2.977076   3.038567   3.839807
    26  H    2.951197   2.359883   3.720996   4.327452   5.099027
                    6          7          8          9         10
     6  N    0.000000
     7  C    2.229425   0.000000
     8  N    1.359334   1.355590   0.000000
     9  C    2.419866   2.506958   1.423836   0.000000
    10  C    3.657006   2.996476   2.437179   1.395307   0.000000
    11  C    4.807452   4.378327   3.708227   2.406010   1.393902
    12  C    5.035773   5.163264   4.203668   2.779843   2.419674
    13  C    4.216812   4.886919   3.702604   2.402877   2.792168
    14  C    2.836171   3.707031   2.433570   1.396691   2.431067
    15  C    5.048925   3.807316   4.828096   5.941535   6.414477
    16  O    4.322645   4.238749   4.837556   6.176218   7.083272
    17  H    4.189008   2.797764   3.989874   5.262908   5.601679
    18  H    3.252960   1.076323   2.143993   2.846304   2.834535
    19  H    3.974725   2.716254   2.663222   2.155033   1.083052
    20  H    5.756198   5.044886   4.579429   3.387312   2.145237
    21  H    6.095326   6.228719   5.287862   3.864040   3.401747
    22  H    4.865227   5.818149   4.572777   3.384066   3.875771
    23  H    2.509226   3.957169   2.640825   2.146233   3.403704
    24  H    5.544982   3.916609   5.105845   6.142629   6.386558
    25  H    4.393119   3.255771   4.101357   5.104509   5.636770
    26  H    5.900833   4.845461   5.780329   6.866836   7.385668
                   11         12         13         14         15
    11  C    0.000000
    12  C    1.395476   0.000000
    13  C    2.414426   1.395909   0.000000
    14  C    2.797063   2.421645   1.392008   0.000000
    15  C    7.658776   8.387426   8.024139   6.846724   0.000000
    16  O    8.388861   8.863836   8.148653   6.795111   2.639693
    17  H    6.983977   7.899924   7.651610   6.422795   3.123127
    18  H    4.160879   5.161560   5.160101   4.173798   3.863094
    19  H    2.155869   3.403185   3.875061   3.410559   6.033066
    20  H    1.084326   2.156171   3.399739   3.881374   8.209881
    21  H    2.154512   1.084198   2.154659   3.402446   9.391621
    22  H    3.397720   2.153919   1.083606   2.142169   8.808226
    23  H    3.879371   3.411375   2.165447   1.082513   6.796519
    24  H    7.615816   8.494310   8.304479   7.196564   1.090250
    25  H    6.824564   7.464125   7.065048   5.924045   1.089937
    26  H    8.587481   9.251707   8.836401   7.671993   1.091335
                   16         17         18         19         20
    16  O    0.000000
    17  H    3.418902   0.000000
    18  H    4.891376   2.981806   0.000000
    19  H    6.932697   4.998842   2.242474   0.000000
    20  H    9.160883   7.472664   4.631399   2.475497   0.000000
    21  H    9.925497   8.952182   6.169741   4.299194   2.486528
    22  H    8.767164   8.559531   6.167036   4.958642   4.297668
    23  H    6.380096   6.498255   4.633174   4.292903   4.963645
    24  H    3.551880   2.979870   3.695731   5.842367   8.036320
    25  H    2.857486   3.453261   3.361446   5.386330   7.430674
    26  H    2.872271   4.081772   4.920360   7.050837   9.148679
                   21         22         23         24         25
    21  H    0.000000
    22  H    2.483054   0.000000
    23  H    4.308478   2.490040   0.000000
    24  H    9.474498   9.169580   7.296523   0.000000
    25  H    8.453581   7.819040   5.880249   1.799195   0.000000
    26  H   10.235632   9.559891   7.546199   1.791020   1.788855
                   26
    26  H    0.000000
 Stoichiometry    C9H10N4O2S
 Framework group  C1[X(C9H10N4O2S)]
 Deg. of freedom    72
 Full point group                 C1      NOp   1
 Largest Abelian subgroup         C1      NOp   1
 Largest concise Abelian subgroup C1      NOp   1
                         Standard orientation:                         
 ---------------------------------------------------------------------
 Center     Atomic      Atomic             Coordinates (Angstroms)
 Number     Number       Type             X           Y           Z
 ---------------------------------------------------------------------
      1          8           0        4.694719   -0.595117   -0.483760
      2         16           0        3.492513   -0.099162    0.189544
      3          7           0        2.278243   -0.186338   -0.990279
      4          6           0        0.955261    0.195780   -0.704829
      5          7           0        0.580530    1.505904   -0.645371
      6          7           0       -0.696991    1.568150   -0.404619
      7          6           0       -0.157460   -0.593209   -0.492754
      8          7           0       -1.167079    0.295305   -0.322935
      9          6           0       -2.548425    0.042512   -0.087804
     10          6           0       -3.092265   -1.195096   -0.433414
     11          6           0       -4.442786   -1.437447   -0.187806
     12          6           0       -5.243677   -0.447991    0.383949
     13          6           0       -4.686519    0.787993    0.716330
     14          6           0       -3.336858    1.041145    0.488261
     15          6           0        3.031916   -1.271165    1.472930
     16          8           0        3.449440    1.239255    0.771899
     17          1           0        2.389350   -1.012272   -1.572396
     18          1           0       -0.296113   -1.659698   -0.449767
     19          1           0       -2.473652   -1.952986   -0.898090
     20          1           0       -4.868252   -2.398183   -0.455625
     21          1           0       -6.294732   -0.638437    0.569690
     22          1           0       -5.303190    1.559733    1.161682
     23          1           0       -2.886173    1.990910    0.746455
     24          1           0        3.024767   -2.276139    1.050295
     25          1           0        2.051282   -1.000642    1.864257
     26          1           0        3.785187   -1.195071    2.258934
 ---------------------------------------------------------------------
 Rotational constants (GHZ):      1.5951493      0.1977065      0.1893261
 Leave Link  202 at Thu Aug  6 22:14:46 2020, MaxMem=    33554432 cpu:         0.0
 (Enter /prod/apps/gaussian/g09d1/l301.exe)
 Standard basis: 6-31G(d) (6D, 7F)
 Ernie: Thresh=  0.10000D-02 Tol=  0.10000D-05 Strict=F.
 There are   264 symmetry adapted cartesian basis functions of A   symmetry.
 There are   264 symmetry adapted basis functions of A   symmetry.
   264 basis functions,   512 primitive gaussians,   264 cartesian basis functions
    62 alpha electrons       62 beta electrons
       nuclear repulsion energy      1184.4593126860 Hartrees.
 IExCor=  402 DFT=T Ex+Corr=B3LYP ExCW=0 ScaHFX=  0.200000
 ScaDFX=  0.800000  0.720000  1.000000  0.810000 ScalE2=  1.000000  1.000000
 IRadAn=      0 IRanWt=     -1 IRanGd=            0 ICorTp=0 IEmpDi=  4
 NAtoms=   26 NActive=   26 NUniq=   26 SFac= 1.00D+00 NAtFMM=   60 NAOKFM=F Big=F
 Integral buffers will be    131072 words long.
 Raffenetti 2 integral format.
 Two-electron integral symmetry is turned on.
 Leave Link  301 at Thu Aug  6 22:14:46 2020, MaxMem=    33554432 cpu:         0.0
 (Enter /prod/apps/gaussian/g09d1/l302.exe)
 NPDir=0 NMtPBC=     1 NCelOv=     1 NCel=       1 NClECP=     1 NCelD=      1
         NCelK=      1 NCelE2=     1 NClLst=     1 CellRange=     0.0.
 One-electron integrals computed using PRISM.
 NBasis=   264 RedAO= T EigKep=  4.65D-04  NBF=   264
 NBsUse=   264 1.00D-06 EigRej= -1.00D+00 NBFU=   264
 Precomputing XC quadrature grid using
 IXCGrd= 4 IRadAn=           0 IRanWt=          -1 IRanGd=           0 AccXCQ= 0.00D+00.
 Generated NRdTot=       0 NPtTot=           0 NUsed=           0 NTot=          32
 NSgBfM=   261   261   261   262   262 MxSgAt=    26 MxSgA2=    26.
 Leave Link  302 at Thu Aug  6 22:14:47 2020, MaxMem=    33554432 cpu:         0.7
 (Enter /prod/apps/gaussian/g09d1/l303.exe)
 DipDrv:  MaxL=1.
 Leave Link  303 at Thu Aug  6 22:14:47 2020, MaxMem=    33554432 cpu:         0.0
 (Enter /prod/apps/gaussian/g09d1/l401.exe)
 ExpMin= 1.17D-01 ExpMax= 2.19D+04 ExpMxC= 3.30D+03 IAcc=1 IRadAn=         1 AccDes= 0.00D+00
 Harris functional with IExCor=  402 and IRadAn=       1 diagonalized for initial guess.
 HarFok:  IExCor=  402 AccDes= 0.00D+00 IRadAn=         1 IDoV= 1 UseB2=F ITyADJ=14
 ICtDFT=  3500011 ScaDFX=  1.000000  1.000000  1.000000  1.000000
 FoFCou: FMM=F IPFlag=           0 FMFlag=      100000 FMFlg1=           0
         NFxFlg=           0 DoJE=T BraDBF=F KetDBF=T FulRan=T
         wScrn=  0.000000 ICntrl=     500 IOpCl=  0 I1Cent=   200000004 NGrid=           0
         NMat0=    1 NMatS0=      1 NMatT0=    0 NMatD0=    1 NMtDS0=    0 NMtDT0=    0
 Petite list used in FoFCou.
 Harris En= -1116.52729640464    
 JPrj=0 DoOrth=F DoCkMO=F.
 Leave Link  401 at Thu Aug  6 22:14:49 2020, MaxMem=    33554432 cpu:         2.2
 (Enter /prod/apps/gaussian/g09d1/l502.exe)
 Closed shell SCF:
 Using DIIS extrapolation, IDIIS=  1040.
 Integral symmetry usage will be decided dynamically.
 IVT=      231207 IEndB=      231207 NGot=    33554432 MDV=    33409826
 LenX=    33409826 LenY=    33339689
 Requested convergence on RMS density matrix=1.00D-08 within 128 cycles.
 Requested convergence on MAX density matrix=1.00D-06.
 Requested convergence on             energy=1.00D-06.
 No special actions if energy rises.
 Fock matrices will be formed incrementally for  20 cycles.
 Integral accuracy reduced to 1.0D-05 until final iterations.

 Cycle   1  Pass 0  IDiag  1:
 FoFJK:  IHMeth= 1 ICntrl=       0 DoSepK=F KAlg= 0 I1Cent=   0 FoldK=F
 IRaf= 770000000 NMat=   1 IRICut=       1 DoRegI=T DoRafI=F ISym2E= 0.
 FoFCou: FMM=F IPFlag=           0 FMFlag=      100000 FMFlg1=           0
         NFxFlg=           0 DoJE=F BraDBF=F KetDBF=F FulRan=T
         wScrn=  0.000000 ICntrl=       0 IOpCl=  0 I1Cent=           0 NGrid=           0
         NMat0=    1 NMatS0=      1 NMatT0=    0 NMatD0=    1 NMtDS0=    0 NMtDT0=    0
 Symmetry not used in FoFCou.
 E= -1115.99564688695    
 DIIS: error= 3.29D-02 at cycle   1 NSaved=   1.
 NSaved= 1 IEnMin= 1 EnMin= -1115.99564688695     IErMin= 1 ErrMin= 3.29D-02
 ErrMax= 3.29D-02  0.00D+00 EMaxC= 1.00D-01 BMatC= 5.93D-01 BMatP= 5.93D-01
 IDIUse=3 WtCom= 6.71D-01 WtEn= 3.29D-01
 Coeff-Com:  0.100D+01
 Coeff-En:   0.100D+01
 Coeff:      0.100D+01
 Gap=     0.298 Goal=   None    Shift=    0.000
 GapD=    0.298 DampG=1.000 DampE=0.500 DampFc=0.5000 IDamp=-1.
 Damping current iteration by 5.00D-01
 RMSDP=7.65D-03 MaxDP=5.76D-01              OVMax= 2.50D-01

 Cycle   2  Pass 0  IDiag  1:
 RMSU=  3.83D-03    CP:  9.96D-01
 E= -1116.09727841210     Delta-E=       -0.101631525155 Rises=F Damp=T
 DIIS: error= 1.95D-02 at cycle   2 NSaved=   2.
 NSaved= 2 IEnMin= 2 EnMin= -1116.09727841210     IErMin= 2 ErrMin= 1.95D-02
 ErrMax= 1.95D-02  0.00D+00 EMaxC= 1.00D-01 BMatC= 1.09D-01 BMatP= 5.93D-01
 IDIUse=3 WtCom= 8.05D-01 WtEn= 1.95D-01
 Coeff-Com:  0.253D+00 0.747D+00
 Coeff-En:   0.401D+00 0.599D+00
 Coeff:      0.282D+00 0.718D+00
 Gap=     0.229 Goal=   None    Shift=    0.000
 RMSDP=2.19D-03 MaxDP=1.21D-01 DE=-1.02D-01 OVMax= 2.10D-01

 Cycle   3  Pass 0  IDiag  1:
 RMSU=  1.75D-03    CP:  9.85D-01  6.61D-01
 E= -1116.45910641747     Delta-E=       -0.361828005371 Rises=F Damp=F
 DIIS: error= 1.02D-02 at cycle   3 NSaved=   3.
 NSaved= 3 IEnMin= 3 EnMin= -1116.45910641747     IErMin= 3 ErrMin= 1.02D-02
 ErrMax= 1.02D-02  0.00D+00 EMaxC= 1.00D-01 BMatC= 4.94D-02 BMatP= 1.09D-01
 IDIUse=3 WtCom= 8.98D-01 WtEn= 1.02D-01
 Coeff-Com:  0.925D-01 0.403D+00 0.505D+00
 Coeff-En:   0.000D+00 0.000D+00 0.100D+01
 Coeff:      0.831D-01 0.362D+00 0.555D+00
 Gap=     0.198 Goal=   None    Shift=    0.000
 RMSDP=1.15D-03 MaxDP=3.35D-02 DE=-3.62D-01 OVMax= 4.97D-02

 Cycle   4  Pass 0  IDiag  1:
 RMSU=  7.64D-04    CP:  9.91D-01  7.37D-01  5.40D-01
 E= -1116.49751297770     Delta-E=       -0.038406560228 Rises=F Damp=F
 DIIS: error= 3.70D-03 at cycle   4 NSaved=   4.
 NSaved= 4 IEnMin= 4 EnMin= -1116.49751297770     IErMin= 4 ErrMin= 3.70D-03
 ErrMax= 3.70D-03  0.00D+00 EMaxC= 1.00D-01 BMatC= 8.27D-03 BMatP= 4.94D-02
 IDIUse=3 WtCom= 9.63D-01 WtEn= 3.70D-02
 Coeff-Com:  0.121D-01 0.802D-01 0.304D+00 0.603D+00
 Coeff-En:   0.000D+00 0.000D+00 0.140D+00 0.860D+00
 Coeff:      0.116D-01 0.772D-01 0.298D+00 0.613D+00
 Gap=     0.197 Goal=   None    Shift=    0.000
 RMSDP=4.35D-04 MaxDP=1.61D-02 DE=-3.84D-02 OVMax= 2.49D-02

 Cycle   5  Pass 0  IDiag  1:
 RMSU=  2.55D-04    CP:  9.90D-01  7.18D-01  6.41D-01  6.12D-01
 E= -1116.50384757105     Delta-E=       -0.006334593354 Rises=F Damp=F
 DIIS: error= 1.49D-03 at cycle   5 NSaved=   5.
 NSaved= 5 IEnMin= 5 EnMin= -1116.50384757105     IErMin= 5 ErrMin= 1.49D-03
 ErrMax= 1.49D-03  0.00D+00 EMaxC= 1.00D-01 BMatC= 1.25D-03 BMatP= 8.27D-03
 IDIUse=3 WtCom= 9.85D-01 WtEn= 1.49D-02
 Coeff-Com:  0.103D-02 0.233D-01 0.150D+00 0.387D+00 0.439D+00
 Coeff-En:   0.000D+00 0.000D+00 0.000D+00 0.879D-01 0.912D+00
 Coeff:      0.102D-02 0.229D-01 0.148D+00 0.382D+00 0.446D+00
 Gap=     0.196 Goal=   None    Shift=    0.000
 RMSDP=1.68D-04 MaxDP=7.26D-03 DE=-6.33D-03 OVMax= 1.17D-02

 Cycle   6  Pass 0  IDiag  1:
 RMSU=  7.58D-05    CP:  9.90D-01  7.22D-01  6.46D-01  6.82D-01  4.55D-01
 E= -1116.50487636010     Delta-E=       -0.001028789045 Rises=F Damp=F
 DIIS: error= 4.44D-04 at cycle   6 NSaved=   6.
 NSaved= 6 IEnMin= 6 EnMin= -1116.50487636010     IErMin= 6 ErrMin= 4.44D-04
 ErrMax= 4.44D-04  0.00D+00 EMaxC= 1.00D-01 BMatC= 1.31D-04 BMatP= 1.25D-03
 IDIUse=3 WtCom= 9.96D-01 WtEn= 4.44D-03
 Coeff-Com: -0.106D-02 0.347D-02 0.518D-01 0.158D+00 0.281D+00 0.507D+00
 Coeff-En:   0.000D+00 0.000D+00 0.000D+00 0.000D+00 0.713D-01 0.929D+00
 Coeff:     -0.106D-02 0.345D-02 0.516D-01 0.157D+00 0.280D+00 0.509D+00
 Gap=     0.196 Goal=   None    Shift=    0.000
 RMSDP=4.90D-05 MaxDP=1.97D-03 DE=-1.03D-03 OVMax= 2.79D-03

 Cycle   7  Pass 0  IDiag  1:
 RMSU=  2.95D-05    CP:  9.90D-01  7.22D-01  6.46D-01  6.77D-01  5.38D-01
                    CP:  5.70D-01
 E= -1116.50498053647     Delta-E=       -0.000104176372 Rises=F Damp=F
 DIIS: error= 1.29D-04 at cycle   7 NSaved=   7.
 NSaved= 7 IEnMin= 7 EnMin= -1116.50498053647     IErMin= 7 ErrMin= 1.29D-04
 ErrMax= 1.29D-04  0.00D+00 EMaxC= 1.00D-01 BMatC= 9.82D-06 BMatP= 1.31D-04
 IDIUse=3 WtCom= 9.99D-01 WtEn= 1.29D-03
 Coeff-Com: -0.664D-03 0.232D-03 0.172D-01 0.569D-01 0.123D+00 0.298D+00
 Coeff-Com:  0.505D+00
 Coeff-En:   0.000D+00 0.000D+00 0.000D+00 0.000D+00 0.000D+00 0.110D-01
 Coeff-En:   0.989D+00
 Coeff:     -0.663D-03 0.231D-03 0.171D-01 0.568D-01 0.123D+00 0.298D+00
 Coeff:      0.506D+00
 Gap=     0.196 Goal=   None    Shift=    0.000
 RMSDP=1.46D-05 MaxDP=5.52D-04 DE=-1.04D-04 OVMax= 9.44D-04

 Cycle   8  Pass 0  IDiag  1:
 RMSU=  8.55D-06    CP:  9.90D-01  7.22D-01  6.46D-01  6.80D-01  5.38D-01
                    CP:  6.13D-01  6.21D-01
 E= -1116.50498889343     Delta-E=       -0.000008356960 Rises=F Damp=F
 DIIS: error= 4.88D-05 at cycle   8 NSaved=   8.
 NSaved= 8 IEnMin= 8 EnMin= -1116.50498889343     IErMin= 8 ErrMin= 4.88D-05
 ErrMax= 4.88D-05  0.00D+00 EMaxC= 1.00D-01 BMatC= 8.00D-07 BMatP= 9.82D-06
 IDIUse=1 WtCom= 1.00D+00 WtEn= 0.00D+00
 Coeff-Com: -0.279D-03-0.355D-03 0.447D-02 0.165D-01 0.424D-01 0.119D+00
 Coeff-Com:  0.284D+00 0.534D+00
 Coeff:     -0.279D-03-0.355D-03 0.447D-02 0.165D-01 0.424D-01 0.119D+00
 Coeff:      0.284D+00 0.534D+00
 Gap=     0.196 Goal=   None    Shift=    0.000
 RMSDP=4.64D-06 MaxDP=1.91D-04 DE=-8.36D-06 OVMax= 2.79D-04

 Initial convergence to 1.0D-05 achieved.  Increase integral accuracy.
 Cycle   9  Pass 1  IDiag  1:
 E= -1116.50489103755     Delta-E=        0.000097855882 Rises=F Damp=F
 DIIS: error= 6.15D-05 at cycle   1 NSaved=   1.
 NSaved= 1 IEnMin= 1 EnMin= -1116.50489103755     IErMin= 1 ErrMin= 6.15D-05
 ErrMax= 6.15D-05  0.00D+00 EMaxC= 1.00D-01 BMatC= 3.83D-07 BMatP= 3.83D-07
 IDIUse=1 WtCom= 1.00D+00 WtEn= 0.00D+00
 Coeff-Com:  0.100D+01
 Coeff:      0.100D+01
 Gap=     0.196 Goal=   None    Shift=    0.000
 RMSDP=4.64D-06 MaxDP=1.91D-04 DE= 9.79D-05 OVMax= 2.40D-04

 Cycle  10  Pass 1  IDiag  1:
 RMSU=  3.27D-05    CP:  1.00D+00
 E= -1116.50489101930     Delta-E=        0.000000018244 Rises=F Damp=F
 DIIS: error= 4.40D-05 at cycle   2 NSaved=   2.
 NSaved= 2 IEnMin= 1 EnMin= -1116.50489103755     IErMin= 2 ErrMin= 4.40D-05
 ErrMax= 4.40D-05  0.00D+00 EMaxC= 1.00D-01 BMatC= 4.62D-07 BMatP= 3.83D-07
 IDIUse=1 WtCom= 1.00D+00 WtEn= 0.00D+00
 Coeff-Com:  0.532D+00 0.468D+00
 Coeff:      0.532D+00 0.468D+00
 Gap=     0.196 Goal=   None    Shift=    0.000
 RMSDP=3.84D-06 MaxDP=1.98D-04 DE= 1.82D-08 OVMax= 2.45D-04

 Cycle  11  Pass 1  IDiag  1:
 RMSU=  3.82D-06    CP:  1.00D+00  9.92D-01
 E= -1116.50489131843     Delta-E=       -0.000000299132 Rises=F Damp=F
 DIIS: error= 2.39D-05 at cycle   3 NSaved=   3.
 NSaved= 3 IEnMin= 3 EnMin= -1116.50489131843     IErMin= 3 ErrMin= 2.39D-05
 ErrMax= 2.39D-05  0.00D+00 EMaxC= 1.00D-01 BMatC= 1.38D-07 BMatP= 3.83D-07
 IDIUse=1 WtCom= 1.00D+00 WtEn= 0.00D+00
 Coeff-Com:  0.141D-01 0.350D+00 0.636D+00
 Coeff:      0.141D-01 0.350D+00 0.636D+00
 Gap=     0.196 Goal=   None    Shift=    0.000
 RMSDP=1.45D-06 MaxDP=7.72D-05 DE=-2.99D-07 OVMax= 9.83D-05

 Cycle  12  Pass 1  IDiag  1:
 RMSU=  5.66D-07    CP:  1.00D+00  1.00D+00  6.63D-01
 E= -1116.50489143921     Delta-E=       -0.000000120778 Rises=F Damp=F
 DIIS: error= 3.16D-06 at cycle   4 NSaved=   4.
 NSaved= 4 IEnMin= 4 EnMin= -1116.50489143921     IErMin= 4 ErrMin= 3.16D-06
 ErrMax= 3.16D-06  0.00D+00 EMaxC= 1.00D-01 BMatC= 5.33D-09 BMatP= 1.38D-07
 IDIUse=1 WtCom= 1.00D+00 WtEn= 0.00D+00
 Coeff-Com: -0.620D-02 0.194D+00 0.375D+00 0.437D+00
 Coeff:     -0.620D-02 0.194D+00 0.375D+00 0.437D+00
 Gap=     0.196 Goal=   None    Shift=    0.000
 RMSDP=3.24D-07 MaxDP=1.23D-05 DE=-1.21D-07 OVMax= 1.92D-05

 Cycle  13  Pass 1  IDiag  1:
 RMSU=  1.62D-07    CP:  1.00D+00  1.00D+00  6.66D-01  5.08D-01
 E= -1116.50489144372     Delta-E=       -0.000000004509 Rises=F Damp=F
 DIIS: error= 8.91D-07 at cycle   5 NSaved=   5.
 NSaved= 5 IEnMin= 5 EnMin= -1116.50489144372     IErMin= 5 ErrMin= 8.91D-07
 ErrMax= 8.91D-07  0.00D+00 EMaxC= 1.00D-01 BMatC= 3.87D-10 BMatP= 5.33D-09
 IDIUse=1 WtCom= 1.00D+00 WtEn= 0.00D+00
 Coeff-Com: -0.462D-02 0.991D-01 0.194D+00 0.272D+00 0.440D+00
 Coeff:     -0.462D-02 0.991D-01 0.194D+00 0.272D+00 0.440D+00
 Gap=     0.196 Goal=   None    Shift=    0.000
 RMSDP=9.18D-08 MaxDP=3.66D-06 DE=-4.51D-09 OVMax= 7.30D-06

 Cycle  14  Pass 1  IDiag  1:
 RMSU=  6.77D-08    CP:  1.00D+00  1.00D+00  6.66D-01  5.26D-01  6.23D-01
 E= -1116.50489144407     Delta-E=       -0.000000000345 Rises=F Damp=F
 DIIS: error= 2.63D-07 at cycle   6 NSaved=   6.
 NSaved= 6 IEnMin= 6 EnMin= -1116.50489144407     IErMin= 6 ErrMin= 2.63D-07
 ErrMax= 2.63D-07  0.00D+00 EMaxC= 1.00D-01 BMatC= 3.18D-11 BMatP= 3.87D-10
 IDIUse=1 WtCom= 1.00D+00 WtEn= 0.00D+00
 Coeff-Com: -0.183D-02 0.314D-01 0.621D-01 0.967D-01 0.259D+00 0.552D+00
 Coeff:     -0.183D-02 0.314D-01 0.621D-01 0.967D-01 0.259D+00 0.552D+00
 Gap=     0.196 Goal=   None    Shift=    0.000
 RMSDP=2.78D-08 MaxDP=1.03D-06 DE=-3.45D-10 OVMax= 2.01D-06

 Cycle  15  Pass 1  IDiag  1:
 RMSU=  1.88D-08    CP:  1.00D+00  1.00D+00  6.66D-01  5.27D-01  6.96D-01
                    CP:  7.53D-01
 E= -1116.50489144409     Delta-E=       -0.000000000018 Rises=F Damp=F
 DIIS: error= 1.06D-07 at cycle   7 NSaved=   7.
 NSaved= 7 IEnMin= 7 EnMin= -1116.50489144409     IErMin= 7 ErrMin= 1.06D-07
 ErrMax= 1.06D-07  0.00D+00 EMaxC= 1.00D-01 BMatC= 3.32D-12 BMatP= 3.18D-11
 IDIUse=1 WtCom= 1.00D+00 WtEn= 0.00D+00
 Coeff-Com: -0.380D-03 0.383D-02 0.785D-02 0.155D-01 0.835D-01 0.304D+00
 Coeff-Com:  0.586D+00
 Coeff:     -0.380D-03 0.383D-02 0.785D-02 0.155D-01 0.835D-01 0.304D+00
 Coeff:      0.586D+00
 Gap=     0.196 Goal=   None    Shift=    0.000
 RMSDP=9.28D-09 MaxDP=3.09D-07 DE=-1.77D-11 OVMax= 6.12D-07

 SCF Done:  E(RB3LYP) =  -1116.50489144     A.U. after   15 cycles
            NFock= 15  Conv=0.93D-08     -V/T= 2.0073
 KE= 1.108403825532D+03 PE=-4.985463973406D+03 EE= 1.576095943745D+03
 Leave Link  502 at Thu Aug  6 22:17:19 2020, MaxMem=    33554432 cpu:       149.8
 (Enter /prod/apps/gaussian/g09d1/l601.exe)
 Copying SCF densities to generalized density rwf, IOpCl= 0 IROHF=0.

 **********************************************************************

            Population analysis using the SCF density.

 **********************************************************************

 Orbital symmetries:
       Occupied  (A) (A) (A) (A) (A) (A) (A) (A) (A) (A) (A) (A)
                 (A) (A) (A) (A) (A) (A) (A) (A) (A) (A) (A) (A)
                 (A) (A) (A) (A) (A) (A) (A) (A) (A) (A) (A) (A)
                 (A) (A) (A) (A) (A) (A) (A) (A) (A) (A) (A) (A)
                 (A) (A) (A) (A) (A) (A) (A) (A) (A) (A) (A) (A)
                 (A) (A)
       Virtual   (A) (A) (A) (A) (A) (A) (A) (A) (A) (A) (A) (A)
                 (A) (A) (A) (A) (A) (A) (A) (A) (A) (A) (A) (A)
                 (A) (A) (A) (A) (A) (A) (A) (A) (A) (A) (A) (A)
                 (A) (A) (A) (A) (A) (A) (A) (A) (A) (A) (A) (A)
                 (A) (A) (A) (A) (A) (A) (A) (A) (A) (A) (A) (A)
                 (A) (A) (A) (A) (A) (A) (A) (A) (A) (A) (A) (A)
                 (A) (A) (A) (A) (A) (A) (A) (A) (A) (A) (A) (A)
                 (A) (A) (A) (A) (A) (A) (A) (A) (A) (A) (A) (A)
                 (A) (A) (A) (A) (A) (A) (A) (A) (A) (A) (A) (A)
                 (A) (A) (A) (A) (A) (A) (A) (A) (A) (A) (A) (A)
                 (A) (A) (A) (A) (A) (A) (A) (A) (A) (A) (A) (A)
                 (A) (A) (A) (A) (A) (A) (A) (A) (A) (A) (A) (A)
                 (A) (A) (A) (A) (A) (A) (A) (A) (A) (A) (A) (A)
                 (A) (A) (A) (A) (A) (A) (A) (A) (A) (A) (A) (A)
                 (A) (A) (A) (A) (A) (A) (A) (A) (A) (A) (A) (A)
                 (A) (A) (A) (A) (A) (A) (A) (A) (A) (A) (A) (A)
                 (A) (A) (A) (A) (A) (A) (A) (A) (A) (A)
 The electronic state is 1-A.
 Alpha  occ. eigenvalues --  -89.11610 -19.14238 -19.14089 -14.44951 -14.40376
 Alpha  occ. eigenvalues --  -14.38677 -14.36648 -10.26839 -10.26211 -10.25465
 Alpha  occ. eigenvalues --  -10.23486 -10.22119 -10.21691 -10.21402 -10.21338
 Alpha  occ. eigenvalues --  -10.21215  -8.14156  -6.10681  -6.10539  -6.10459
 Alpha  occ. eigenvalues --   -1.11650  -1.11085  -1.00032  -0.95989  -0.93400
 Alpha  occ. eigenvalues --   -0.87197  -0.81617  -0.78121  -0.77479  -0.76829
 Alpha  occ. eigenvalues --   -0.67571  -0.66810  -0.63680  -0.61872  -0.59651
 Alpha  occ. eigenvalues --   -0.57667  -0.54229  -0.53193  -0.50952  -0.49894
 Alpha  occ. eigenvalues --   -0.49359  -0.48260  -0.47141  -0.46540  -0.45817
 Alpha  occ. eigenvalues --   -0.44775  -0.44727  -0.42834  -0.39691  -0.38686
 Alpha  occ. eigenvalues --   -0.37407  -0.35548  -0.34232  -0.33504  -0.31804
 Alpha  occ. eigenvalues --   -0.31460  -0.30788  -0.29947  -0.28021  -0.27484
 Alpha  occ. eigenvalues --   -0.27366  -0.24812
 Alpha virt. eigenvalues --   -0.05188  -0.02658   0.01095   0.01484   0.05070
 Alpha virt. eigenvalues --    0.06663   0.07690   0.09017   0.09893   0.10110
 Alpha virt. eigenvalues --    0.10835   0.12612   0.13266   0.14108   0.14296
 Alpha virt. eigenvalues --    0.14576   0.14965   0.17001   0.17325   0.18651
 Alpha virt. eigenvalues --    0.20509   0.22165   0.24369   0.27983   0.29732
 Alpha virt. eigenvalues --    0.30372   0.32270   0.33964   0.36184   0.36948
 Alpha virt. eigenvalues --    0.38703   0.41892   0.42252   0.43666   0.47542
 Alpha virt. eigenvalues --    0.47806   0.49290   0.51052   0.51506   0.52032
 Alpha virt. eigenvalues --    0.53327   0.53656   0.54779   0.56192   0.56877
 Alpha virt. eigenvalues --    0.57014   0.57657   0.59029   0.59612   0.59858
 Alpha virt. eigenvalues --    0.60497   0.61787   0.62448   0.64068   0.65953
 Alpha virt. eigenvalues --    0.68571   0.69381   0.70564   0.71359   0.72964
 Alpha virt. eigenvalues --    0.73794   0.75952   0.78161   0.79704   0.79866
 Alpha virt. eigenvalues --    0.81432   0.82120   0.82394   0.83563   0.84329
 Alpha virt. eigenvalues --    0.84635   0.84956   0.85694   0.86333   0.87427
 Alpha virt. eigenvalues --    0.88684   0.88920   0.90224   0.92076   0.92986
 Alpha virt. eigenvalues --    0.94415   0.96355   0.97212   0.98485   1.00595
 Alpha virt. eigenvalues --    1.02291   1.03628   1.04755   1.05010   1.06986
 Alpha virt. eigenvalues --    1.07967   1.11367   1.13022   1.15084   1.15482
 Alpha virt. eigenvalues --    1.16976   1.17870   1.19494   1.20490   1.23359
 Alpha virt. eigenvalues --    1.23932   1.25049   1.30035   1.32390   1.35702
 Alpha virt. eigenvalues --    1.36832   1.39074   1.40592   1.42251   1.43543
 Alpha virt. eigenvalues --    1.45002   1.46654   1.48065   1.48615   1.51812
 Alpha virt. eigenvalues --    1.52694   1.56476   1.56911   1.60687   1.64551
 Alpha virt. eigenvalues --    1.68368   1.72195   1.74803   1.77332   1.78446
 Alpha virt. eigenvalues --    1.78968   1.79982   1.80757   1.82031   1.84328
 Alpha virt. eigenvalues --    1.85463   1.86776   1.87572   1.89909   1.91795
 Alpha virt. eigenvalues --    1.93150   1.95306   1.95766   2.00245   2.03665
 Alpha virt. eigenvalues --    2.04889   2.05917   2.07687   2.08740   2.09909
 Alpha virt. eigenvalues --    2.10753   2.11995   2.13276   2.13660   2.16131
 Alpha virt. eigenvalues --    2.19074   2.19193   2.20701   2.21576   2.23733
 Alpha virt. eigenvalues --    2.25524   2.27886   2.28295   2.30362   2.31578
 Alpha virt. eigenvalues --    2.35184   2.36264   2.38475   2.48719   2.50331
 Alpha virt. eigenvalues --    2.53683   2.56686   2.57501   2.59524   2.61550
 Alpha virt. eigenvalues --    2.63593   2.66108   2.68590   2.70801   2.73032
 Alpha virt. eigenvalues --    2.74942   2.75937   2.77549   2.82828   2.86809
 Alpha virt. eigenvalues --    2.88283   3.00213   3.06457   3.12380   3.25231
 Alpha virt. eigenvalues --    3.41204   3.60855   3.76392   3.90219   3.95047
 Alpha virt. eigenvalues --    3.97466   4.05806   4.07293   4.09167   4.10326
 Alpha virt. eigenvalues --    4.14476   4.18670   4.22916   4.30430   4.38027
 Alpha virt. eigenvalues --    4.48426   4.69961
          Condensed to atoms (all electrons):
               1          2          3          4          5          6
     1  O    8.223686   0.448372  -0.051732   0.001643  -0.000017   0.000000
     2  S    0.448372  13.665993   0.105722  -0.016189   0.001672   0.000046
     3  N   -0.051732   0.105722   7.401719   0.249580  -0.058238   0.006009
     4  C    0.001643  -0.016189   0.249580   4.738215   0.345651  -0.057712
     5  N   -0.000017   0.001672  -0.058238   0.345651   6.823592   0.287208
     6  N    0.000000   0.000046   0.006009  -0.057712   0.287208   6.771704
     7  C   -0.000037  -0.004966  -0.083922   0.470265  -0.070854  -0.103805
     8  N    0.000000   0.000343   0.003673  -0.057658  -0.075101   0.178861
     9  C    0.000000  -0.000010  -0.000102   0.006571   0.006025  -0.043165
    10  C    0.000000   0.000000   0.000004   0.000845  -0.000315   0.003108
    11  C    0.000000   0.000000   0.000000  -0.000009   0.000002  -0.000067
    12  C    0.000000   0.000000   0.000000   0.000000   0.000000   0.000016
    13  C    0.000000   0.000000   0.000000   0.000006  -0.000005   0.000390
    14  C    0.000000   0.000000   0.000001  -0.000362   0.000314   0.000119
    15  C   -0.058085   0.203022  -0.061178  -0.000303   0.000001   0.000006
    16  O   -0.043194   0.452695  -0.051349  -0.000960   0.000742   0.000022
    17  H    0.002270  -0.003837   0.300434  -0.032586   0.001988  -0.000085
    18  H   -0.000001   0.000008   0.000086  -0.027810   0.003996   0.003565
    19  H    0.000000   0.000000   0.000001   0.000091  -0.000002  -0.000091
    20  H    0.000000   0.000000   0.000000   0.000000   0.000000   0.000001
    21  H    0.000000   0.000000   0.000000   0.000000   0.000000   0.000000
    22  H    0.000000   0.000000   0.000000   0.000000   0.000000  -0.000008
    23  H    0.000000   0.000000   0.000000   0.000074  -0.000373   0.016916
    24  H    0.000279  -0.007028   0.000533   0.000296  -0.000005  -0.000001
    25  H    0.001890  -0.007803  -0.002385   0.002617  -0.000045  -0.000049
    26  H   -0.000602  -0.013868   0.002361   0.000003  -0.000001   0.000000
               7          8          9         10         11         12
     1  O   -0.000037   0.000000   0.000000   0.000000   0.000000   0.000000
     2  S   -0.004966   0.000343  -0.000010   0.000000   0.000000   0.000000
     3  N   -0.083922   0.003673  -0.000102   0.000004   0.000000   0.000000
     4  C    0.470265  -0.057658   0.006571   0.000845  -0.000009   0.000000
     5  N   -0.070854  -0.075101   0.006025  -0.000315   0.000002   0.000000
     6  N   -0.103805   0.178861  -0.043165   0.003108  -0.000067   0.000016
     7  C    5.129472   0.321135  -0.036898  -0.008005  -0.000052   0.000021
     8  N    0.321135   6.958134   0.195504  -0.051754   0.004667   0.000398
     9  C   -0.036898   0.195504   4.613201   0.529477  -0.006824  -0.038148
    10  C   -0.008005  -0.051754   0.529477   4.997151   0.530328  -0.039645
    11  C   -0.000052   0.004667  -0.006824   0.530328   4.843322   0.550471
    12  C    0.000021   0.000398  -0.038148  -0.039645   0.550471   4.848327
    13  C   -0.000084   0.004555  -0.009809  -0.042505  -0.022501   0.543533
    14  C    0.007874  -0.056355   0.519491  -0.074419  -0.041770  -0.037256
    15  C   -0.000252  -0.000017  -0.000001   0.000000   0.000000   0.000000
    16  O   -0.000133   0.000002   0.000000   0.000000   0.000000   0.000000
    17  H   -0.001868   0.000003   0.000001   0.000000   0.000000   0.000000
    18  H    0.358091  -0.034549  -0.001772   0.002418   0.000190  -0.000001
    19  H    0.006086  -0.010085  -0.041424   0.347122  -0.038247   0.004536
    20  H   -0.000004  -0.000114   0.003568  -0.039646   0.359693  -0.040054
    21  H    0.000000   0.000004   0.000523   0.005017  -0.042388   0.362694
    22  H    0.000002  -0.000109   0.003447   0.000831   0.004586  -0.041336
    23  H    0.000262  -0.014225  -0.033115   0.005597   0.000160   0.004281
    24  H    0.000215   0.000000   0.000000   0.000000   0.000000   0.000000
    25  H    0.003617  -0.000134   0.000003   0.000000   0.000000   0.000000
    26  H   -0.000018   0.000001   0.000000   0.000000   0.000000   0.000000
              13         14         15         16         17         18
     1  O    0.000000   0.000000  -0.058085  -0.043194   0.002270  -0.000001
     2  S    0.000000   0.000000   0.203022   0.452695  -0.003837   0.000008
     3  N    0.000000   0.000001  -0.061178  -0.051349   0.300434   0.000086
     4  C    0.000006  -0.000362  -0.000303  -0.000960  -0.032586  -0.027810
     5  N   -0.000005   0.000314   0.000001   0.000742   0.001988   0.003996
     6  N    0.000390   0.000119   0.000006   0.000022  -0.000085   0.003565
     7  C   -0.000084   0.007874  -0.000252  -0.000133  -0.001868   0.358091
     8  N    0.004555  -0.056355  -0.000017   0.000002   0.000003  -0.034549
     9  C   -0.009809   0.519491  -0.000001   0.000000   0.000001  -0.001772
    10  C   -0.042505  -0.074419   0.000000   0.000000   0.000000   0.002418
    11  C   -0.022501  -0.041770   0.000000   0.000000   0.000000   0.000190
    12  C    0.543533  -0.037256   0.000000   0.000000   0.000000  -0.000001
    13  C    4.865241   0.517872   0.000000   0.000000   0.000000  -0.000005
    14  C    0.517872   4.982605   0.000000   0.000000   0.000000  -0.000135
    15  C    0.000000   0.000000   5.573450  -0.058629   0.000713   0.000107
    16  O    0.000000   0.000000  -0.058629   8.197630   0.001635   0.000000
    17  H    0.000000   0.000000   0.000713   0.001635   0.371213   0.000780
    18  H   -0.000005  -0.000135   0.000107   0.000000   0.000780   0.512086
    19  H    0.000255   0.005802   0.000000   0.000000   0.000000   0.002208
    20  H    0.004566   0.000778   0.000000   0.000000   0.000000  -0.000002
    21  H   -0.042227   0.004693   0.000000   0.000000   0.000000   0.000000
    22  H    0.360913  -0.038068   0.000000   0.000000   0.000000   0.000000
    23  H   -0.039520   0.354307   0.000000   0.000000   0.000000  -0.000011
    24  H    0.000000   0.000000   0.335044   0.002059  -0.000002   0.000051
    25  H    0.000000   0.000000   0.337431  -0.000233   0.000159   0.000105
    26  H    0.000000   0.000000   0.359587  -0.000081  -0.000022   0.000001
              19         20         21         22         23         24
     1  O    0.000000   0.000000   0.000000   0.000000   0.000000   0.000279
     2  S    0.000000   0.000000   0.000000   0.000000   0.000000  -0.007028
     3  N    0.000001   0.000000   0.000000   0.000000   0.000000   0.000533
     4  C    0.000091   0.000000   0.000000   0.000000   0.000074   0.000296
     5  N   -0.000002   0.000000   0.000000   0.000000  -0.000373  -0.000005
     6  N   -0.000091   0.000001   0.000000  -0.000008   0.016916  -0.000001
     7  C    0.006086  -0.000004   0.000000   0.000002   0.000262   0.000215
     8  N   -0.010085  -0.000114   0.000004  -0.000109  -0.014225   0.000000
     9  C   -0.041424   0.003568   0.000523   0.003447  -0.033115   0.000000
    10  C    0.347122  -0.039646   0.005017   0.000831   0.005597   0.000000
    11  C   -0.038247   0.359693  -0.042388   0.004586   0.000160   0.000000
    12  C    0.004536  -0.040054   0.362694  -0.041336   0.004281   0.000000
    13  C    0.000255   0.004566  -0.042227   0.360913  -0.039520   0.000000
    14  C    0.005802   0.000778   0.004693  -0.038068   0.354307   0.000000
    15  C    0.000000   0.000000   0.000000   0.000000   0.000000   0.335044
    16  O    0.000000   0.000000   0.000000   0.000000   0.000000   0.002059
    17  H    0.000000   0.000000   0.000000   0.000000   0.000000  -0.000002
    18  H    0.002208  -0.000002   0.000000   0.000000  -0.000011   0.000051
    19  H    0.589547  -0.005604  -0.000162   0.000015  -0.000141   0.000000
    20  H   -0.005604   0.578872  -0.005349  -0.000179   0.000013   0.000000
    21  H   -0.000162  -0.005349   0.580537  -0.005372  -0.000136   0.000000
    22  H    0.000015  -0.000179  -0.005372   0.572051  -0.004956   0.000000
    23  H   -0.000141   0.000013  -0.000136  -0.004956   0.526717   0.000000
    24  H    0.000000   0.000000   0.000000   0.000000   0.000000   0.521990
    25  H    0.000000   0.000000   0.000000   0.000000   0.000000  -0.025681
    26  H    0.000000   0.000000   0.000000   0.000000   0.000000  -0.020094
              25         26
     1  O    0.001890  -0.000602
     2  S   -0.007803  -0.013868
     3  N   -0.002385   0.002361
     4  C    0.002617   0.000003
     5  N   -0.000045  -0.000001
     6  N   -0.000049   0.000000
     7  C    0.003617  -0.000018
     8  N   -0.000134   0.000001
     9  C    0.000003   0.000000
    10  C    0.000000   0.000000
    11  C    0.000000   0.000000
    12  C    0.000000   0.000000
    13  C    0.000000   0.000000
    14  C    0.000000   0.000000
    15  C    0.337431   0.359587
    16  O   -0.000233  -0.000081
    17  H    0.000159  -0.000022
    18  H    0.000105   0.000001
    19  H    0.000000   0.000000
    20  H    0.000000   0.000000
    21  H    0.000000   0.000000
    22  H    0.000000   0.000000
    23  H    0.000000   0.000000
    24  H   -0.025681  -0.020094
    25  H    0.505091  -0.020993
    26  H   -0.020993   0.466839
 Mulliken charges:
               1
     1  O   -0.524471
     2  S    1.175828
     3  N   -0.761216
     4  C    0.377734
     5  N   -0.266236
     6  N   -0.062990
     7  C    0.013859
     8  N   -0.367180
     9  C    0.333458
    10  C   -0.165610
    11  C   -0.141562
    12  C   -0.117835
    13  C   -0.140674
    14  C   -0.145489
    15  C   -0.630895
    16  O   -0.500207
    17  H    0.359204
    18  H    0.180591
    19  H    0.140091
    20  H    0.143461
    21  H    0.142168
    22  H    0.148183
    23  H    0.184150
    24  H    0.192343
    25  H    0.206410
    26  H    0.226887
 Sum of Mulliken charges =   0.00000
 Mulliken charges with hydrogens summed into heavy atoms:
               1
     1  O   -0.524471
     2  S    1.175828
     3  N   -0.402013
     4  C    0.377734
     5  N   -0.266236
     6  N   -0.062990
     7  C    0.194450
     8  N   -0.367180
     9  C    0.333458
    10  C   -0.025518
    11  C    0.001898
    12  C    0.024333
    13  C    0.007509
    14  C    0.038661
    15  C   -0.005256
    16  O   -0.500207
 Electronic spatial extent (au):  <R**2>=           5497.9394
 Charge=              0.0000 electrons
 Dipole moment (field-independent basis, Debye):
    X=             -6.3058    Y=             -6.7245    Z=              1.3810  Tot=              9.3215
 Quadrupole moment (field-independent basis, Debye-Ang):
   XX=           -106.4951   YY=            -98.0657   ZZ=            -96.3940
   XY=             -8.9421   XZ=              2.9268   YZ=              2.6011
 Traceless Quadrupole moment (field-independent basis, Debye-Ang):
   XX=             -6.1768   YY=              2.2526   ZZ=              3.9242
   XY=             -8.9421   XZ=              2.9268   YZ=              2.6011
 Octapole moment (field-independent basis, Debye-Ang**2):
  XXX=           -169.3773  YYY=            -22.8444  ZZZ=              2.6082  XYY=             -4.6345
  XXY=            -25.8623  XXZ=             40.6487  XZZ=             30.4424  YZZ=             -6.2929
  YYZ=              0.3040  XYZ=            -19.2404
 Hexadecapole moment (field-independent basis, Debye-Ang**3):
 XXXX=          -6267.5994 YYYY=           -651.7159 ZZZZ=           -355.0851 XXXY=             -0.2167
 XXXZ=             29.3569 YYYX=            -18.3421 YYYZ=             24.4550 ZZZX=             21.4290
 ZZZY=              4.4230 XXYY=          -1092.0896 XXZZ=          -1085.5369 YYZZ=           -167.3160
 XXYZ=              1.9409 YYXZ=             -3.3790 ZZXY=            -33.4603
 N-N= 1.184459312686D+03 E-N=-4.985463994620D+03  KE= 1.108403825532D+03
 No NMR shielding tensors so no spin-rotation constants.
 Leave Link  601 at Thu Aug  6 22:17:19 2020, MaxMem=    33554432 cpu:         0.2
 (Enter /prod/apps/gaussian/g09d1/l9999.exe)
 1\1\GINC-PIRINEUS24\SP\RB3LYP\6-31G(d)\C9H10N4O2S1\UBAFAR01\06-Aug-202
 0\0\\#p b3lyp/6-31G(d)\\SM44.n.3.pdb.xyz\\0,1\O,0,3.471,-0.787,-2.126\
 S,0,2.974,-2.011,-1.494\N,0,2.851,-1.62,0.151\C,0,2.382,-2.556,1.09\N,
 0,3.17,-3.568,1.554\N,0,2.5,-4.254,2.434\C,0,1.158,-2.621,1.725\N,0,1.
 274,-3.681,2.562\C,0,0.318,-4.203,3.479\C,0,-0.727,-3.392,3.923\C,0,-1
 .665,-3.916,4.811\C,0,-1.551,-5.232,5.261\C,0,-0.495,-6.028,4.814\C,0,
 0.443,-5.523,3.918\C,0,1.296,-2.309,-2.067\O,0,3.71,-3.268,-1.597\H,0,
 2.536,-0.662,0.279\H,0,0.264,-2.027,1.645\H,0,-0.8,-2.364,3.59\H,0,-2.
 478,-3.288,5.158\H,0,-2.28,-5.635,5.955\H,0,-0.402,-7.051,5.159\H,0,1.
 264,-6.128,3.555\H,0,0.718,-1.39,-1.967\H,0,0.859,-3.116,-1.479\H,0,1.
 365,-2.602,-3.116\\Version=AM64L-G09RevD.01\State=1-A\HF=-1116.5048914
 \RMSD=9.276e-09\Dipole=-3.4324837,0.3690685,1.2374432\Quadrupole=-6.55
 21536,5.0723716,1.479782,-2.1744212,5.3574094,-0.150761\PG=C01 [X(C9H1
 0N4O2S1)]\\@


 EVERY WORD THAT YOU WRITE IS A BLOW THAT SMITES THE DEVIL.
     -- ST. BERNARD OF CLAIRVAUX
 Job cpu time:       0 days  0 hours  2 minutes 33.2 seconds.
 File lengths (MBytes):  RWF=     40 Int=      0 D2E=      0 Chk=      4 Scr=      1
 Normal termination of Gaussian 09 at Thu Aug  6 22:17:19 2020.
 Initial command:
 /prod/apps/gaussian/g09d1/l1.exe "/tmp/ubafar01/1448665/Gau-208183.inp" -scrdir="/tmp/ubafar01/1448665/"
 Entering Link 1 = /prod/apps/gaussian/g09d1/l1.exe PID=    208487.
  
 Copyright (c) 1988,1990,1992,1993,1995,1998,2003,2009,2013,
            Gaussian, Inc.  All Rights Reserved.
  
 This is part of the Gaussian(R) 09 program.  It is based on
 the Gaussian(R) 03 system (copyright 2003, Gaussian, Inc.),
 the Gaussian(R) 98 system (copyright 1998, Gaussian, Inc.),
 the Gaussian(R) 94 system (copyright 1995, Gaussian, Inc.),
 the Gaussian 92(TM) system (copyright 1992, Gaussian, Inc.),
 the Gaussian 90(TM) system (copyright 1990, Gaussian, Inc.),
 the Gaussian 88(TM) system (copyright 1988, Gaussian, Inc.),
 the Gaussian 86(TM) system (copyright 1986, Carnegie Mellon
 University), and the Gaussian 82(TM) system (copyright 1983,
 Carnegie Mellon University). Gaussian is a federally registered
 trademark of Gaussian, Inc.
  
 This software contains proprietary and confidential information,
 including trade secrets, belonging to Gaussian, Inc.
  
 This software is provided under written license and may be
 used, copied, transmitted, or stored only in accord with that
 written license.
  
 The following legend is applicable only to US Government
 contracts under FAR:
  
                    RESTRICTED RIGHTS LEGEND
  
 Use, reproduction and disclosure by the US Government is
 subject to restrictions as set forth in subparagraphs (a)
 and (c) of the Commercial Computer Software - Restricted
 Rights clause in FAR 52.227-19.
  
 Gaussian, Inc.
 340 Quinnipiac St., Bldg. 40, Wallingford CT 06492
  
  
 ---------------------------------------------------------------
 Warning -- This program may not be used in any manner that
 competes with the business of Gaussian, Inc. or will provide
 assistance to any competitor of Gaussian, Inc.  The licensee
 of this program is prohibited from giving any competitor of
 Gaussian, Inc. access to this program.  By using this program,
 the user acknowledges that Gaussian, Inc. is engaged in the
 business of creating and licensing software in the field of
 computational chemistry and represents and warrants to the
 licensee that it is not a competitor of Gaussian, Inc. and that
 it will not use this program in any manner prohibited above.
 ---------------------------------------------------------------
  

 Cite this work as:
 Gaussian 09, Revision D.01,
 M. J. Frisch, G. W. Trucks, H. B. Schlegel, G. E. Scuseria, 
 M. A. Robb, J. R. Cheeseman, G. Scalmani, V. Barone, B. Mennucci, 
 G. A. Petersson, H. Nakatsuji, M. Caricato, X. Li, H. P. Hratchian, 
 A. F. Izmaylov, J. Bloino, G. Zheng, J. L. Sonnenberg, M. Hada, 
 M. Ehara, K. Toyota, R. Fukuda, J. Hasegawa, M. Ishida, T. Nakajima, 
 Y. Honda, O. Kitao, H. Nakai, T. Vreven, J. A. Montgomery, Jr., 
 J. E. Peralta, F. Ogliaro, M. Bearpark, J. J. Heyd, E. Brothers, 
 K. N. Kudin, V. N. Staroverov, T. Keith, R. Kobayashi, J. Normand, 
 K. Raghavachari, A. Rendell, J. C. Burant, S. S. Iyengar, J. Tomasi, 
 M. Cossi, N. Rega, J. M. Millam, M. Klene, J. E. Knox, J. B. Cross, 
 V. Bakken, C. Adamo, J. Jaramillo, R. Gomperts, R. E. Stratmann, 
 O. Yazyev, A. J. Austin, R. Cammi, C. Pomelli, J. W. Ochterski, 
 R. L. Martin, K. Morokuma, V. G. Zakrzewski, G. A. Voth, 
 P. Salvador, J. J. Dannenberg, S. Dapprich, A. D. Daniels, 
 O. Farkas, J. B. Foresman, J. V. Ortiz, J. Cioslowski, 
 and D. J. Fox, Gaussian, Inc., Wallingford CT, 2013.
 
 ******************************************
 Gaussian 09:  AM64L-G09RevD.01 24-Apr-2013
                 6-Aug-2020 
 ******************************************
 %nproc=1
 Will use up to    1 processors via shared memory.
 %Chk=SM44.n.3.pdb.xyz.mst.n.o.chk
 %subst l301 /dades/curu/work_g09D01_MST_AddSphPartition_ReadGammas/exe-dir/
 %subst l502 /dades/curu/work_g09D01_MST_AddSphPartition_ReadGammas/exe-dir/
 ----------------------------------------------------------------------
 #p b3lyp/6-31G(d) scrf=(iefpcm,read,solvent=n-Octanol) geom=allcheck g
 uess=read
 ----------------------------------------------------------------------
 1/29=7,38=1,40=2/1;
 2/12=2,40=1/2;
 3/5=1,6=6,7=1,11=2,14=-4,16=1,25=1,30=1,70=2203,72=25,74=-5,116=-2/1,2,3;
 4/5=1/1;
 5/5=2,38=6,53=25/2;
 6/7=2,8=2,9=2,10=2,28=1/1;
 99/5=1,9=1/99;
 Leave Link    1 at Thu Aug  6 22:17:19 2020, MaxMem=           0 cpu:         0.0
 (Enter /prod/apps/gaussian/g09d1/l101.exe)
 Structure from the checkpoint file:  "SM44.n.3.pdb.xyz.mst.n.o.chk"
 ----------------
 SM44.n.3.pdb.xyz
 ----------------
 Charge =  0 Multiplicity = 1
 Z-Matrix found in file.
 O,0,3.471,-0.787,-2.126
 S,0,2.974,-2.011,-1.494
 N,0,2.851,-1.62,0.151
 C,0,2.382,-2.556,1.09
 N,0,3.17,-3.568,1.554
 N,0,2.5,-4.254,2.434
 C,0,1.158,-2.621,1.725
 N,0,1.274,-3.681,2.562
 C,0,0.318,-4.203,3.479
 C,0,-0.727,-3.392,3.923
 C,0,-1.665,-3.916,4.811
 C,0,-1.551,-5.232,5.261
 C,0,-0.495,-6.028,4.814
 C,0,0.443,-5.523,3.918
 C,0,1.296,-2.309,-2.067
 O,0,3.71,-3.268,-1.597
 H,0,2.536,-0.662,0.279
 H,0,0.264,-2.027,1.645
 H,0,-0.8,-2.364,3.59
 H,0,-2.478,-3.288,5.158
 H,0,-2.28,-5.635,5.955
 H,0,-0.402,-7.051,5.159
 H,0,1.264,-6.128,3.555
 H,0,0.718,-1.39,-1.967
 H,0,0.859,-3.116,-1.479
 H,0,1.365,-2.602,-3.116
 Recover connectivity data from disk.
 NAtoms=     26 NQM=       26 NQMF=       0 NMMI=      0 NMMIF=      0
                NMic=       0 NMicF=      0.
                    Isotopes and Nuclear Properties:
 (Nuclear quadrupole moments (NQMom) in fm**2, nuclear magnetic moments (NMagM)
  in nuclear magnetons)

  Atom         1           2           3           4           5           6           7           8           9          10
 IAtWgt=          16          32          14          12          14          14          12          14          12          12
 AtmWgt=  15.9949146  31.9720718  14.0030740  12.0000000  14.0030740  14.0030740  12.0000000  14.0030740  12.0000000  12.0000000
 NucSpn=           0           0           2           0           2           2           0           2           0           0
 AtZEff=  -5.6000000 -13.6000000  -4.5500000  -3.6000000  -4.5500000  -4.5500000  -3.6000000  -4.5500000  -3.6000000  -3.6000000
 NQMom=    0.0000000   0.0000000   2.0440000   0.0000000   2.0440000   2.0440000   0.0000000   2.0440000   0.0000000   0.0000000
 NMagM=    0.0000000   0.0000000   0.4037610   0.0000000   0.4037610   0.4037610   0.0000000   0.4037610   0.0000000   0.0000000
 AtZNuc=   8.0000000  16.0000000   7.0000000   6.0000000   7.0000000   7.0000000   6.0000000   7.0000000   6.0000000   6.0000000

  Atom        11          12          13          14          15          16          17          18          19          20
 IAtWgt=          12          12          12          12          12          16           1           1           1           1
 AtmWgt=  12.0000000  12.0000000  12.0000000  12.0000000  12.0000000  15.9949146   1.0078250   1.0078250   1.0078250   1.0078250
 NucSpn=           0           0           0           0           0           0           1           1           1           1
 AtZEff=  -3.6000000  -3.6000000  -3.6000000  -3.6000000  -3.6000000  -5.6000000  -1.0000000  -1.0000000  -1.0000000  -1.0000000
 NQMom=    0.0000000   0.0000000   0.0000000   0.0000000   0.0000000   0.0000000   0.0000000   0.0000000   0.0000000   0.0000000
 NMagM=    0.0000000   0.0000000   0.0000000   0.0000000   0.0000000   0.0000000   2.7928460   2.7928460   2.7928460   2.7928460
 AtZNuc=   6.0000000   6.0000000   6.0000000   6.0000000   6.0000000   8.0000000   1.0000000   1.0000000   1.0000000   1.0000000

  Atom        21          22          23          24          25          26
 IAtWgt=           1           1           1           1           1           1
 AtmWgt=   1.0078250   1.0078250   1.0078250   1.0078250   1.0078250   1.0078250
 NucSpn=           1           1           1           1           1           1
 AtZEff=  -1.0000000  -1.0000000  -1.0000000  -1.0000000  -1.0000000  -1.0000000
 NQMom=    0.0000000   0.0000000   0.0000000   0.0000000   0.0000000   0.0000000
 NMagM=    2.7928460   2.7928460   2.7928460   2.7928460   2.7928460   2.7928460
 AtZNuc=   1.0000000   1.0000000   1.0000000   1.0000000   1.0000000   1.0000000
 Leave Link  101 at Thu Aug  6 22:17:19 2020, MaxMem=    33554432 cpu:         0.0
 (Enter /prod/apps/gaussian/g09d1/l202.exe)
                          Input orientation:                          
 ---------------------------------------------------------------------
 Center     Atomic      Atomic             Coordinates (Angstroms)
 Number     Number       Type             X           Y           Z
 ---------------------------------------------------------------------
      1          8           0        3.471000   -0.787000   -2.126000
      2         16           0        2.974000   -2.011000   -1.494000
      3          7           0        2.851000   -1.620000    0.151000
      4          6           0        2.382000   -2.556000    1.090000
      5          7           0        3.170000   -3.568000    1.554000
      6          7           0        2.500000   -4.254000    2.434000
      7          6           0        1.158000   -2.621000    1.725000
      8          7           0        1.274000   -3.681000    2.562000
      9          6           0        0.318000   -4.203000    3.479000
     10          6           0       -0.727000   -3.392000    3.923000
     11          6           0       -1.665000   -3.916000    4.811000
     12          6           0       -1.551000   -5.232000    5.261000
     13          6           0       -0.495000   -6.028000    4.814000
     14          6           0        0.443000   -5.523000    3.918000
     15          6           0        1.296000   -2.309000   -2.067000
     16          8           0        3.710000   -3.268000   -1.597000
     17          1           0        2.536000   -0.662000    0.279000
     18          1           0        0.264000   -2.027000    1.645000
     19          1           0       -0.800000   -2.364000    3.590000
     20          1           0       -2.478000   -3.288000    5.158000
     21          1           0       -2.280000   -5.635000    5.955000
     22          1           0       -0.402000   -7.051000    5.159000
     23          1           0        1.264000   -6.128000    3.555000
     24          1           0        0.718000   -1.390000   -1.967000
     25          1           0        0.859000   -3.116000   -1.479000
     26          1           0        1.365000   -2.602000   -3.116000
 ---------------------------------------------------------------------
                    Distance matrix (angstroms):
                    1          2          3          4          5
     1  O    0.000000
     2  S    1.464448   0.000000
     3  N    2.502602   1.695298   0.000000
     4  C    3.828569   2.706390   1.406335   0.000000
     5  N    4.622441   3.428260   2.421750   1.363959   0.000000
     6  N    5.810037   4.548067   3.503319   2.168747   1.301498
     7  C    4.852188   3.745920   2.519072   1.380444   2.230290
     8  N    5.931222   4.704257   3.542255   2.158720   2.150267
     9  C    7.281929   6.048961   4.915645   3.560902   3.498965
    10  C    7.810226   6.704361   5.492727   4.288434   4.563962
    11  C    9.181019   8.056201   6.883420   5.663360   5.840067
    12  C    9.977288   8.745313   7.650899   6.326666   6.228851
    13  C    9.558286   8.243853   7.236695   5.848084   5.487388
    14  C    8.253994   6.930357   5.934826   4.534357   4.104516
    15  C    2.655295   1.798004   2.795044   3.347694   4.267153
    16  O    2.548004   1.460258   2.551331   3.080665   3.210981
    17  H    2.583384   2.270501   1.016550   2.066077   3.236111
    18  H    5.103223   4.147008   3.015005   2.252507   3.290562
    19  H    7.307601   6.341509   5.070509   4.051171   4.621235
    20  H    9.731509   8.695064   7.500034   6.379972   6.705753
    21  H   11.039912   9.809459   8.725469   7.408287   7.303683
    22  H   10.359008   9.003410   8.072040   6.671765   6.155201
    23  H    8.103758   6.735443   5.867525   4.481666   3.767020
    24  H    2.822747   2.387238   3.014716   3.670654   4.811801
    25  H    3.558847   2.386310   2.977076   3.038567   3.839807
    26  H    2.951197   2.359883   3.720996   4.327452   5.099027
                    6          7          8          9         10
     6  N    0.000000
     7  C    2.229425   0.000000
     8  N    1.359334   1.355590   0.000000
     9  C    2.419866   2.506958   1.423836   0.000000
    10  C    3.657006   2.996476   2.437179   1.395307   0.000000
    11  C    4.807452   4.378327   3.708227   2.406010   1.393902
    12  C    5.035773   5.163264   4.203668   2.779843   2.419674
    13  C    4.216812   4.886919   3.702604   2.402877   2.792168
    14  C    2.836171   3.707031   2.433570   1.396691   2.431067
    15  C    5.048925   3.807316   4.828096   5.941535   6.414477
    16  O    4.322645   4.238749   4.837556   6.176218   7.083272
    17  H    4.189008   2.797764   3.989874   5.262908   5.601679
    18  H    3.252960   1.076323   2.143993   2.846304   2.834535
    19  H    3.974725   2.716254   2.663222   2.155033   1.083052
    20  H    5.756198   5.044886   4.579429   3.387312   2.145237
    21  H    6.095326   6.228719   5.287862   3.864040   3.401747
    22  H    4.865227   5.818149   4.572777   3.384066   3.875771
    23  H    2.509226   3.957169   2.640825   2.146233   3.403704
    24  H    5.544982   3.916609   5.105845   6.142629   6.386558
    25  H    4.393119   3.255771   4.101357   5.104509   5.636770
    26  H    5.900833   4.845461   5.780329   6.866836   7.385668
                   11         12         13         14         15
    11  C    0.000000
    12  C    1.395476   0.000000
    13  C    2.414426   1.395909   0.000000
    14  C    2.797063   2.421645   1.392008   0.000000
    15  C    7.658776   8.387426   8.024139   6.846724   0.000000
    16  O    8.388861   8.863836   8.148653   6.795111   2.639693
    17  H    6.983977   7.899924   7.651610   6.422795   3.123127
    18  H    4.160879   5.161560   5.160101   4.173798   3.863094
    19  H    2.155869   3.403185   3.875061   3.410559   6.033066
    20  H    1.084326   2.156171   3.399739   3.881374   8.209881
    21  H    2.154512   1.084198   2.154659   3.402446   9.391621
    22  H    3.397720   2.153919   1.083606   2.142169   8.808226
    23  H    3.879371   3.411375   2.165447   1.082513   6.796519
    24  H    7.615816   8.494310   8.304479   7.196564   1.090250
    25  H    6.824564   7.464125   7.065048   5.924045   1.089937
    26  H    8.587481   9.251707   8.836401   7.671993   1.091335
                   16         17         18         19         20
    16  O    0.000000
    17  H    3.418902   0.000000
    18  H    4.891376   2.981806   0.000000
    19  H    6.932697   4.998842   2.242474   0.000000
    20  H    9.160883   7.472664   4.631399   2.475497   0.000000
    21  H    9.925497   8.952182   6.169741   4.299194   2.486528
    22  H    8.767164   8.559531   6.167036   4.958642   4.297668
    23  H    6.380096   6.498255   4.633174   4.292903   4.963645
    24  H    3.551880   2.979870   3.695731   5.842367   8.036320
    25  H    2.857486   3.453261   3.361446   5.386330   7.430674
    26  H    2.872271   4.081772   4.920360   7.050837   9.148679
                   21         22         23         24         25
    21  H    0.000000
    22  H    2.483054   0.000000
    23  H    4.308478   2.490040   0.000000
    24  H    9.474498   9.169580   7.296523   0.000000
    25  H    8.453581   7.819040   5.880249   1.799195   0.000000
    26  H   10.235632   9.559891   7.546199   1.791020   1.788855
                   26
    26  H    0.000000
 Stoichiometry    C9H10N4O2S
 Framework group  C1[X(C9H10N4O2S)]
 Deg. of freedom    72
 Full point group                 C1      NOp   1
 RotChk:  IX=0 Diff= 3.87D-15
 Largest Abelian subgroup         C1      NOp   1
 Largest concise Abelian subgroup C1      NOp   1
                         Standard orientation:                         
 ---------------------------------------------------------------------
 Center     Atomic      Atomic             Coordinates (Angstroms)
 Number     Number       Type             X           Y           Z
 ---------------------------------------------------------------------
      1          8           0        4.694719   -0.595117   -0.483760
      2         16           0        3.492513   -0.099162    0.189544
      3          7           0        2.278243   -0.186338   -0.990279
      4          6           0        0.955261    0.195780   -0.704829
      5          7           0        0.580530    1.505904   -0.645371
      6          7           0       -0.696991    1.568150   -0.404619
      7          6           0       -0.157460   -0.593209   -0.492754
      8          7           0       -1.167079    0.295305   -0.322935
      9          6           0       -2.548425    0.042512   -0.087804
     10          6           0       -3.092265   -1.195096   -0.433414
     11          6           0       -4.442786   -1.437447   -0.187806
     12          6           0       -5.243677   -0.447991    0.383949
     13          6           0       -4.686519    0.787993    0.716330
     14          6           0       -3.336858    1.041145    0.488261
     15          6           0        3.031916   -1.271165    1.472930
     16          8           0        3.449440    1.239255    0.771899
     17          1           0        2.389350   -1.012272   -1.572396
     18          1           0       -0.296113   -1.659698   -0.449767
     19          1           0       -2.473652   -1.952986   -0.898090
     20          1           0       -4.868252   -2.398183   -0.455625
     21          1           0       -6.294732   -0.638437    0.569690
     22          1           0       -5.303190    1.559733    1.161682
     23          1           0       -2.886173    1.990910    0.746455
     24          1           0        3.024767   -2.276139    1.050295
     25          1           0        2.051282   -1.000642    1.864257
     26          1           0        3.785187   -1.195071    2.258934
 ---------------------------------------------------------------------
 Rotational constants (GHZ):      1.5951493      0.1977065      0.1893261
 Leave Link  202 at Thu Aug  6 22:17:19 2020, MaxMem=    33554432 cpu:         0.0
 (Enter /dades/curu/work_g09D01_MST_AddSphPartition_ReadGammas/exe-dir/l301.exe)
 Standard basis: 6-31G(d) (6D, 7F)
 Ernie: Thresh=  0.10000D-02 Tol=  0.10000D-05 Strict=F.
 There are   264 symmetry adapted cartesian basis functions of A   symmetry.
 There are   264 symmetry adapted basis functions of A   symmetry.
   264 basis functions,   512 primitive gaussians,   264 cartesian basis functions
    62 alpha electrons       62 beta electrons
       nuclear repulsion energy      1184.4593126860 Hartrees.
 IExCor=  402 DFT=T Ex+Corr=B3LYP ExCW=0 ScaHFX=  0.200000
 ScaDFX=  0.800000  0.720000  1.000000  0.810000 ScalE2=  1.000000  1.000000
 IRadAn=      0 IRanWt=     -1 IRanGd=            0 ICorTp=0 IEmpDi=  4
 NAtoms=   26 NActive=   26 NUniq=   26 SFac= 1.00D+00 NAtFMM=   60 NAOKFM=F Big=F
 Integral buffers will be    131072 words long.
 Raffenetti 2 integral format.
 Two-electron integral symmetry is turned on.
 Using the following non-standard input for PCM:
 MSTModel=DFT cav g03defaults OFac=0.8 Rmin=0.3
 Warning! Using old PCM defaults because the g03defaults keyword was found.
 These settings can be overridden by following keywords.
 --- end of non-standard input.
 MST model for solvation energy: B3LYP parametrization.
 MST cavity parameters:
 ISph   IAn     Re0     Alpha   Atom Type   QCorr
 ------------------------------------------------
   1      8     1.40     1.50      O          F
   2     16     1.75     1.50      S          F
   3      7     1.50     1.50      NH         F
   4      6     1.50     1.50      C          F
   5      7     1.50     1.50      N          F
   6      7     1.50     1.50      N          F
   7      6     1.50     1.50      CH         F
   8      7     1.50     1.50      N          F
   9      6     1.50     1.50      C          F
  10      6     1.50     1.50      CH         F
  11      6     1.50     1.50      CH         F
  12      6     1.50     1.50      CH         F
  13      6     1.50     1.50      CH         F
  14      6     1.50     1.50      CH         F
  15      6     1.50     1.50      CH3        F
  16      8     1.40     1.50      O          F
  17      1     0.90     1.50      NH         F
  18      1     1.20     1.50      CH         F
  19      1     1.20     1.50      CH         F
  20      1     1.20     1.50      CH         F
  21      1     1.20     1.50      CH         F
  22      1     1.20     1.50      CH         F
  23      1     1.20     1.50      CH         F
  24      1     1.20     1.50      CH3        F
  25      1     1.20     1.50      CH3        F
  26      1     1.20     1.50      CH3        F
 ------------------------------------------------------------------------------
 Polarizable Continuum Model (PCM)
 =================================
 Model                : PCM (using non-symmetric T matrix).
 Atomic radii         : MST.
 Polarization charges : Total charges.
 Charge compensation  : None.
 Solution method      : On-the-fly selection.
 Cavity type          : Scaled SES (Solvent Excluding Surface) (Alpha=1.500).
 Cavity algorithm     : GePol (RMin=0.300 OFac=0.800).
                        Default sphere list used, NSphG=   26.
                        Tesserae with average area of 0.200 Ang**2.
                        Smoothing algorithm: None.
                        Polarization charges: point-like.
                        Self-potential: constant (ISelfS= 1).
                        Self-field    : global E.n sum rule (ISelfD= 3).
 Solvent              : n-Octanol, Eps=   9.862900 Eps(inf)=   2.043470
                        RSolv=   3.420000 Ang.
 ------------------------------------------------------------------------------
 GePol: Number of generator spheres                  =      26
 GePol: Total number of spheres                      =      39
 GePol: Number of exposed spheres                    =      36 ( 92.31%)
 GePol: Number of tesserae                           =    2257
 GePol: Average area of tesserae                     =       0.14 Ang**2
 GePol: Minimum area of tessera                      =   0.10D-02 Ang**2
 GePol: Maximum area of tessera                      =    0.31177 Ang**2
 GePol: Number of small tesserae                     =      12
 GePol: Fraction of small tesserae (<1% of avg)      =       0.53%
 GePol: Total count of vertices                      =    7684
 GePol: Maximum number of vertices in a tessera      =       6
 GePol: Cavity surface area                          =    310.361 Ang**2
 GePol: Cavity volume                                =    364.965 Ang**3
 Surface areas from nonelectrostatic (unscaled) cavity:
 Sphere =    1 Type = O    Surf =       15.445
 Sphere =    2 Type = S    Surf =        9.648
 Sphere =    3 Type = NH   Surf =        9.811
 Sphere =    4 Type = C    Surf =        5.876
 Sphere =    5 Type = N    Surf =       13.187
 Sphere =    6 Type = N    Surf =       12.413
 Sphere =    7 Type = CH   Surf =        8.202
 Sphere =    8 Type = N    Surf =        5.869
 Sphere =    9 Type = C    Surf =        5.939
 Sphere =   10 Type = CH   Surf =        7.673
 Sphere =   11 Type = CH   Surf =        7.716
 Sphere =   12 Type = CH   Surf =        7.742
 Sphere =   13 Type = CH   Surf =        7.701
 Sphere =   14 Type = CH   Surf =        7.577
 Sphere =   15 Type = CH3  Surf =        4.481
 Sphere =   16 Type = O    Surf =       15.417
 Sphere =   17 Type = NH   Surf =        3.957
 Sphere =   18 Type = CH   Surf =        9.674
 Sphere =   19 Type = CH   Surf =        9.717
 Sphere =   20 Type = CH   Surf =       10.318
 Sphere =   21 Type = CH   Surf =       10.319
 Sphere =   22 Type = CH   Surf =       10.314
 Sphere =   23 Type = CH   Surf =        9.624
 Sphere =   24 Type = CH3  Surf =       10.209
 Sphere =   25 Type = CH3  Surf =       10.205
 Sphere =   26 Type = CH3  Surf =       10.143
 PCM non-electrostatic energy =        -0.0090243277 Hartrees.
 Nuclear repulsion after PCM non-electrostatic terms =     1184.4502883583 Hartrees.
 Leave Link  301 at Thu Aug  6 22:17:19 2020, MaxMem=    33554432 cpu:         0.1
 (Enter /prod/apps/gaussian/g09d1/l302.exe)
 NPDir=0 NMtPBC=     1 NCelOv=     1 NCel=       1 NClECP=     1 NCelD=      1
         NCelK=      1 NCelE2=     1 NClLst=     1 CellRange=     0.0.
 One-electron integrals computed using PRISM.
 NBasis=   264 RedAO= T EigKep=  4.65D-04  NBF=   264
 NBsUse=   264 1.00D-06 EigRej= -1.00D+00 NBFU=   264
 Precomputing XC quadrature grid using
 IXCGrd= 4 IRadAn=           0 IRanWt=          -1 IRanGd=           0 AccXCQ= 0.00D+00.
 Generated NRdTot=       0 NPtTot=           0 NUsed=           0 NTot=          32
 NSgBfM=   262   262   262   262   262 MxSgAt=    26 MxSgA2=    26.
 Leave Link  302 at Thu Aug  6 22:17:20 2020, MaxMem=    33554432 cpu:         0.7
 (Enter /prod/apps/gaussian/g09d1/l303.exe)
 DipDrv:  MaxL=1.
 Leave Link  303 at Thu Aug  6 22:17:20 2020, MaxMem=    33554432 cpu:         0.0
 (Enter /prod/apps/gaussian/g09d1/l401.exe)
 Initial guess from the checkpoint file:  "SM44.n.3.pdb.xyz.mst.n.o.chk"
 B after Tr=     0.000000    0.000000    0.000000
         Rot=    1.000000    0.000000    0.000000    0.000000 Ang=   0.00 deg.
 Guess basis will be translated and rotated to current coordinates.
 JPrj=2 DoOrth=T DoCkMO=T.
 Leave Link  401 at Thu Aug  6 22:17:20 2020, MaxMem=    33554432 cpu:         0.2
 (Enter /dades/curu/work_g09D01_MST_AddSphPartition_ReadGammas/exe-dir/l502.exe)
 Closed shell SCF:
 Using DIIS extrapolation, IDIIS=  1040.
 Integral symmetry usage will be decided dynamically.
 IVT=      231207 IEndB=      231207 NGot=    33554432 MDV=    33409826
 LenX=    33409826 LenY=    33339689
 Requested convergence on RMS density matrix=1.00D-08 within 128 cycles.
 Requested convergence on MAX density matrix=1.00D-06.
 Requested convergence on             energy=1.00D-06.
 No special actions if energy rises.
 Fock matrices will be formed incrementally for  20 cycles.

 Cycle   1  Pass 1  IDiag  1:
 FoFJK:  IHMeth= 1 ICntrl=       0 DoSepK=F KAlg= 0 I1Cent=   0 FoldK=F
 IRaf= 770000000 NMat=   1 IRICut=       1 DoRegI=T DoRafI=F ISym2E= 0.
 FoFCou: FMM=F IPFlag=           0 FMFlag=      100000 FMFlg1=           0
         NFxFlg=           0 DoJE=F BraDBF=F KetDBF=F FulRan=T
         wScrn=  0.000000 ICntrl=       0 IOpCl=  0 I1Cent=           0 NGrid=           0
         NMat0=    1 NMatS0=      1 NMatT0=    0 NMatD0=    1 NMtDS0=    0 NMtDT0=    0
 Symmetry not used in FoFCou.
 Inv3:  Mode=1 IEnd=    15282147.
 Iteration    1 A*A^-1 deviation from unit magnitude is 5.88D-15 for   2257.
 Iteration    1 A*A^-1 deviation from orthogonality  is 3.00D-15 for   2257    945.
 Iteration    1 A^-1*A deviation from unit magnitude is 6.00D-15 for   2257.
 Iteration    1 A^-1*A deviation from orthogonality  is 1.98D-15 for   2234   2226.
 E= -1116.52904582155    
 DIIS: error= 1.65D-03 at cycle   1 NSaved=   1.
 NSaved= 1 IEnMin= 1 EnMin= -1116.52904582155     IErMin= 1 ErrMin= 1.65D-03
 ErrMax= 1.65D-03  0.00D+00 EMaxC= 1.00D-01 BMatC= 1.06D-03 BMatP= 1.06D-03
 IDIUse=3 WtCom= 9.84D-01 WtEn= 1.65D-02
 Coeff-Com:  0.100D+01
 Coeff-En:   0.100D+01
 Coeff:      0.100D+01
 Gap=     0.198 Goal=   None    Shift=    0.000
 GapD=    0.198 DampG=1.000 DampE=1.000 DampFc=1.0000 IDamp=-1.
 RMSDP=6.54D-04 MaxDP=1.51D-02              OVMax= 2.92D-02

 Cycle   2  Pass 1  IDiag  1:
 RMSU=  6.48D-04    CP:  9.96D-01
 E= -1116.52983589831     Delta-E=       -0.000790076765 Rises=F Damp=F
[...]
 After PCM corrections, the energy is  -1116.53154882     a.u.
 --------------------------------------------------------------------
 Leave Link  502 at Thu Aug  6 22:19:22 2020, MaxMem=    33554432 cpu:       122.1
 (Enter /prod/apps/gaussian/g09d1/l601.exe)
 Copying SCF densities to generalized density rwf, IOpCl= 0 IROHF=0.

 **********************************************************************

            Population analysis using the SCF density.

 **********************************************************************

 Orbital symmetries:
       Occupied  (A) (A) (A) (A) (A) (A) (A) (A) (A) (A) (A) (A)
                 (A) (A) (A) (A) (A) (A) (A) (A) (A) (A) (A) (A)
                 (A) (A) (A) (A) (A) (A) (A) (A) (A) (A) (A) (A)
                 (A) (A) (A) (A) (A) (A) (A) (A) (A) (A) (A) (A)
                 (A) (A) (A) (A) (A) (A) (A) (A) (A) (A) (A) (A)
                 (A) (A)
       Virtual   (A) (A) (A) (A) (A) (A) (A) (A) (A) (A) (A) (A)
                 (A) (A) (A) (A) (A) (A) (A) (A) (A) (A) (A) (A)
                 (A) (A) (A) (A) (A) (A) (A) (A) (A) (A) (A) (A)
                 (A) (A) (A) (A) (A) (A) (A) (A) (A) (A) (A) (A)
                 (A) (A) (A) (A) (A) (A) (A) (A) (A) (A) (A) (A)
                 (A) (A) (A) (A) (A) (A) (A) (A) (A) (A) (A) (A)
                 (A) (A) (A) (A) (A) (A) (A) (A) (A) (A) (A) (A)
                 (A) (A) (A) (A) (A) (A) (A) (A) (A) (A) (A) (A)
                 (A) (A) (A) (A) (A) (A) (A) (A) (A) (A) (A) (A)
                 (A) (A) (A) (A) (A) (A) (A) (A) (A) (A) (A) (A)
                 (A) (A) (A) (A) (A) (A) (A) (A) (A) (A) (A) (A)
                 (A) (A) (A) (A) (A) (A) (A) (A) (A) (A) (A) (A)
                 (A) (A) (A) (A) (A) (A) (A) (A) (A) (A) (A) (A)
                 (A) (A) (A) (A) (A) (A) (A) (A) (A) (A) (A) (A)
                 (A) (A) (A) (A) (A) (A) (A) (A) (A) (A) (A) (A)
                 (A) (A) (A) (A) (A) (A) (A) (A) (A) (A) (A) (A)
                 (A) (A) (A) (A) (A) (A) (A) (A) (A) (A)
 The electronic state is 1-A.
 Alpha  occ. eigenvalues --  -89.12391 -19.15271 -19.15267 -14.44880 -14.40500
 Alpha  occ. eigenvalues --  -14.38707 -14.37017 -10.26782 -10.25558 -10.25114
 Alpha  occ. eigenvalues --  -10.23062 -10.21228 -10.20759 -10.20738 -10.20573
 Alpha  occ. eigenvalues --  -10.20352  -8.14947  -6.11460  -6.11356  -6.11231
 Alpha  occ. eigenvalues --   -1.12303  -1.11489  -1.01206  -0.96007  -0.93369
 Alpha  occ. eigenvalues --   -0.86555  -0.81512  -0.77906  -0.76797  -0.76238
 Alpha  occ. eigenvalues --   -0.67216  -0.66722  -0.63464  -0.61323  -0.59231
 Alpha  occ. eigenvalues --   -0.57132  -0.54262  -0.53011  -0.50299  -0.49905
 Alpha  occ. eigenvalues --   -0.49010  -0.48676  -0.47189  -0.45910  -0.45074
 Alpha  occ. eigenvalues --   -0.44394  -0.43905  -0.43566  -0.39223  -0.37829
 Alpha  occ. eigenvalues --   -0.36648  -0.36081  -0.34666  -0.33943  -0.32744
 Alpha  occ. eigenvalues --   -0.31972  -0.31681  -0.31142  -0.28453  -0.27132
 Alpha  occ. eigenvalues --   -0.26825  -0.24576
 Alpha virt. eigenvalues --   -0.04837  -0.01906   0.01156   0.01733   0.06012
 Alpha virt. eigenvalues --    0.07277   0.08109   0.09774   0.10168   0.10239
 Alpha virt. eigenvalues --    0.11501   0.12934   0.14358   0.14787   0.14860
 Alpha virt. eigenvalues --    0.15379   0.15689   0.17872   0.18335   0.19231
 Alpha virt. eigenvalues --    0.20876   0.22900   0.24459   0.28875   0.30164
 Alpha virt. eigenvalues --    0.30924   0.32655   0.33339   0.35695   0.36375
 Alpha virt. eigenvalues --    0.38642   0.42054   0.42629   0.43357   0.48075
 Alpha virt. eigenvalues --    0.48292   0.49632   0.51471   0.51697   0.52545
 Alpha virt. eigenvalues --    0.53688   0.54176   0.55308   0.56851   0.57482
 Alpha virt. eigenvalues --    0.57701   0.58291   0.59652   0.60278   0.60436
 Alpha virt. eigenvalues --    0.60820   0.62102   0.62860   0.64254   0.66280
 Alpha virt. eigenvalues --    0.68047   0.69009   0.70426   0.70923   0.72825
 Alpha virt. eigenvalues --    0.74130   0.76842   0.77630   0.79215   0.79689
 Alpha virt. eigenvalues --    0.81010   0.83087   0.83329   0.83441   0.84575
 Alpha virt. eigenvalues --    0.84869   0.84881   0.86176   0.86524   0.87752
 Alpha virt. eigenvalues --    0.88867   0.89638   0.90809   0.92829   0.93372
 Alpha virt. eigenvalues --    0.94912   0.96425   0.97326   0.98688   1.00856
 Alpha virt. eigenvalues --    1.01152   1.02802   1.04247   1.05500   1.06531
 Alpha virt. eigenvalues --    1.07910   1.11419   1.13048   1.15600   1.15706
 Alpha virt. eigenvalues --    1.16732   1.17674   1.19410   1.19449   1.23264
 Alpha virt. eigenvalues --    1.24405   1.24988   1.30005   1.32095   1.35539
 Alpha virt. eigenvalues --    1.37069   1.39221   1.41352   1.42432   1.44111
 Alpha virt. eigenvalues --    1.45663   1.47429   1.48031   1.49368   1.51661
 Alpha virt. eigenvalues --    1.52401   1.56231   1.57177   1.60802   1.64277
 Alpha virt. eigenvalues --    1.68475   1.71825   1.74424   1.77407   1.78323
 Alpha virt. eigenvalues --    1.79153   1.79604   1.80430   1.81182   1.84118
 Alpha virt. eigenvalues --    1.85104   1.86426   1.87652   1.89906   1.91413
 Alpha virt. eigenvalues --    1.93927   1.95769   1.96345   1.99616   2.03437
 Alpha virt. eigenvalues --    2.04971   2.05768   2.07662   2.08671   2.10452
 Alpha virt. eigenvalues --    2.10733   2.12635   2.13435   2.14279   2.16394
 Alpha virt. eigenvalues --    2.19351   2.19461   2.20638   2.21833   2.24128
 Alpha virt. eigenvalues --    2.25747   2.27809   2.28796   2.30445   2.31877
 Alpha virt. eigenvalues --    2.34951   2.36263   2.38519   2.48945   2.50825
 Alpha virt. eigenvalues --    2.53515   2.57067   2.57762   2.59549   2.61906
 Alpha virt. eigenvalues --    2.64188   2.66636   2.69092   2.71445   2.73754
 Alpha virt. eigenvalues --    2.74046   2.75745   2.77177   2.82149   2.86743
 Alpha virt. eigenvalues --    2.88637   3.00262   3.06295   3.12624   3.25540
 Alpha virt. eigenvalues --    3.41950   3.60543   3.75494   3.89063   3.94582
 Alpha virt. eigenvalues --    3.96803   4.06144   4.07638   4.09794   4.10524
 Alpha virt. eigenvalues --    4.14968   4.18892   4.23117   4.31233   4.38674
 Alpha virt. eigenvalues --    4.48601   4.70675
          Condensed to atoms (all electrons):
               1          2          3          4          5          6
     1  O    8.244056   0.449330  -0.051782   0.001579  -0.000017   0.000000
     2  S    0.449330  13.641331   0.123113  -0.017305   0.002088   0.000084
     3  N   -0.051782   0.123113   7.396183   0.250203  -0.057823   0.005856
     4  C    0.001579  -0.017305   0.250203   4.697873   0.360816  -0.070120
     5  N   -0.000017   0.002088  -0.057823   0.360816   6.851593   0.293351
     6  N    0.000000   0.000084   0.005856  -0.070120   0.293351   6.770881
     7  C   -0.000037  -0.004617  -0.077774   0.496856  -0.072685  -0.101404
     8  N    0.000000   0.000301   0.003506  -0.048933  -0.084556   0.202979
     9  C    0.000000  -0.000011  -0.000113   0.005363   0.006329  -0.043646
    10  C    0.000000   0.000000   0.000004   0.000923  -0.000326   0.003088
    11  C    0.000000   0.000000   0.000000  -0.000009   0.000002  -0.000066
    12  C    0.000000   0.000000   0.000000   0.000000   0.000000   0.000017
    13  C    0.000000   0.000000   0.000000   0.000006  -0.000005   0.000351
    14  C    0.000000   0.000000   0.000001  -0.000375   0.000345  -0.000532
    15  C   -0.058844   0.225395  -0.062387  -0.000897  -0.000035   0.000006
    16  O   -0.042287   0.449999  -0.052036  -0.000837   0.000807   0.000028
    17  H    0.001814  -0.005175   0.302200  -0.027875   0.001739  -0.000070
    18  H   -0.000001  -0.000001  -0.000167  -0.026026   0.003928   0.003433
    19  H    0.000000   0.000000   0.000001   0.000104  -0.000005  -0.000089
    20  H    0.000000   0.000000   0.000000   0.000000   0.000000   0.000001
    21  H    0.000000   0.000000   0.000000   0.000000   0.000000   0.000000
    22  H    0.000000   0.000000   0.000000   0.000000   0.000000  -0.000008
    23  H    0.000000   0.000000   0.000000   0.000059  -0.000359   0.017019
    24  H    0.000120  -0.008078   0.000310   0.000250  -0.000004   0.000000
    25  H    0.001849  -0.008077  -0.002509   0.002764  -0.000034  -0.000048
    26  H   -0.000503  -0.013485   0.002363   0.000011  -0.000001   0.000000
               7          8          9         10         11         12
     1  O   -0.000037   0.000000   0.000000   0.000000   0.000000   0.000000
     2  S   -0.004617   0.000301  -0.000011   0.000000   0.000000   0.000000
     3  N   -0.077774   0.003506  -0.000113   0.000004   0.000000   0.000000
     4  C    0.496856  -0.048933   0.005363   0.000923  -0.000009   0.000000
     5  N   -0.072685  -0.084556   0.006329  -0.000326   0.000002   0.000000
     6  N   -0.101404   0.202979  -0.043646   0.003088  -0.000066   0.000017
     7  C    5.067010   0.328445  -0.034761  -0.007175  -0.000016   0.000021
     8  N    0.328445   6.924737   0.195679  -0.051513   0.004641   0.000365
     9  C   -0.034761   0.195679   4.623209   0.529263  -0.008324  -0.038198
    10  C   -0.007175  -0.051513   0.529263   4.995628   0.529673  -0.040384
    11  C   -0.000016   0.004641  -0.008324   0.529673   4.850914   0.547344
    12  C    0.000021   0.000365  -0.038198  -0.040384   0.547344   4.858561
    13  C   -0.000083   0.004558  -0.010239  -0.042654  -0.023507   0.541640
    14  C    0.007632  -0.057249   0.516969  -0.073029  -0.041526  -0.038296
    15  C   -0.000114  -0.000019  -0.000001   0.000000   0.000000   0.000000
    16  O   -0.000138   0.000002   0.000000   0.000000   0.000000   0.000000
    17  H   -0.001669   0.000003   0.000002   0.000000   0.000000   0.000000
    18  H    0.360611  -0.033369  -0.001916   0.002353   0.000189  -0.000001
    19  H    0.006016  -0.009665  -0.040874   0.351163  -0.035316   0.004353
    20  H   -0.000004  -0.000110   0.003445  -0.038092   0.361997  -0.039431
    21  H    0.000000   0.000004   0.000505   0.004936  -0.041466   0.364615
    22  H    0.000001  -0.000106   0.003504   0.000768   0.004522  -0.040372
    23  H    0.000250  -0.014221  -0.036606   0.005588   0.000111   0.004403
    24  H    0.000208   0.000000   0.000000   0.000000   0.000000   0.000000
    25  H    0.003280  -0.000119   0.000003   0.000000   0.000000   0.000000
    26  H   -0.000018   0.000001   0.000000   0.000000   0.000000   0.000000
              13         14         15         16         17         18
     1  O    0.000000   0.000000  -0.058844  -0.042287   0.001814  -0.000001
     2  S    0.000000   0.000000   0.225395   0.449999  -0.005175  -0.000001
     3  N    0.000000   0.000001  -0.062387  -0.052036   0.302200  -0.000167
     4  C    0.000006  -0.000375  -0.000897  -0.000837  -0.027875  -0.026026
     5  N   -0.000005   0.000345  -0.000035   0.000807   0.001739   0.003928
     6  N    0.000351  -0.000532   0.000006   0.000028  -0.000070   0.003433
     7  C   -0.000083   0.007632  -0.000114  -0.000138  -0.001669   0.360611
     8  N    0.004558  -0.057249  -0.000019   0.000002   0.000003  -0.033369
     9  C   -0.010239   0.516969  -0.000001   0.000000   0.000002  -0.001916
    10  C   -0.042654  -0.073029   0.000000   0.000000   0.000000   0.002353
    11  C   -0.023507  -0.041526   0.000000   0.000000   0.000000   0.000189
    12  C    0.541640  -0.038296   0.000000   0.000000   0.000000  -0.000001
    13  C    4.871588   0.519363   0.000000   0.000000   0.000000  -0.000004
    14  C    0.519363   4.989988   0.000000   0.000000   0.000000  -0.000123
    15  C    0.000000   0.000000   5.551878  -0.059916   0.000445   0.000095
    16  O    0.000000   0.000000  -0.059916   8.231540   0.001411   0.000000
    17  H    0.000000   0.000000   0.000445   0.001411   0.332771   0.000661
    18  H   -0.000004  -0.000123   0.000095   0.000000   0.000661   0.475049
    19  H    0.000248   0.005414   0.000000   0.000000   0.000000   0.001888
    20  H    0.004458   0.000763   0.000000   0.000000   0.000000  -0.000001
    21  H   -0.041614   0.004648   0.000000   0.000000   0.000000   0.000000
    22  H    0.362704  -0.038061   0.000000   0.000000   0.000000   0.000000
    23  H   -0.038965   0.355309   0.000000   0.000000   0.000000  -0.000010
    24  H    0.000000   0.000000   0.340988   0.001964  -0.000007   0.000038
    25  H    0.000000   0.000000   0.339888  -0.000285   0.000150   0.000096
    26  H    0.000000   0.000000   0.356961  -0.000009  -0.000018   0.000001
              19         20         21         22         23         24
     1  O    0.000000   0.000000   0.000000   0.000000   0.000000   0.000120
     2  S    0.000000   0.000000   0.000000   0.000000   0.000000  -0.008078
     3  N    0.000001   0.000000   0.000000   0.000000   0.000000   0.000310
     4  C    0.000104   0.000000   0.000000   0.000000   0.000059   0.000250
     5  N   -0.000005   0.000000   0.000000   0.000000  -0.000359  -0.000004
     6  N   -0.000089   0.000001   0.000000  -0.000008   0.017019   0.000000
     7  C    0.006016  -0.000004   0.000000   0.000001   0.000250   0.000208
     8  N   -0.009665  -0.000110   0.000004  -0.000106  -0.014221   0.000000
     9  C   -0.040874   0.003445   0.000505   0.003504  -0.036606   0.000000
    10  C    0.351163  -0.038092   0.004936   0.000768   0.005588   0.000000
    11  C   -0.035316   0.361997  -0.041466   0.004522   0.000111   0.000000
    12  C    0.004353  -0.039431   0.364615  -0.040372   0.004403   0.000000
    13  C    0.000248   0.004458  -0.041614   0.362704  -0.038965   0.000000
    14  C    0.005414   0.000763   0.004648  -0.038061   0.355309   0.000000
    15  C    0.000000   0.000000   0.000000   0.000000   0.000000   0.340988
    16  O    0.000000   0.000000   0.000000   0.000000   0.000000   0.001964
    17  H    0.000000   0.000000   0.000000   0.000000   0.000000  -0.000007
    18  H    0.001888  -0.000001   0.000000   0.000000  -0.000010   0.000038
    19  H    0.560382  -0.005235  -0.000152   0.000014  -0.000136   0.000000
    20  H   -0.005235   0.559850  -0.005121  -0.000171   0.000013   0.000000
    21  H   -0.000152  -0.005121   0.565127  -0.005197  -0.000134   0.000000
    22  H    0.000014  -0.000171  -0.005197   0.559737  -0.005040   0.000000
    23  H   -0.000136   0.000013  -0.000134  -0.005040   0.535202   0.000000
    24  H    0.000000   0.000000   0.000000   0.000000   0.000000   0.489973
    25  H    0.000000   0.000000   0.000000   0.000000   0.000000  -0.022698
    26  H    0.000000   0.000000   0.000000   0.000000   0.000000  -0.018580
              25         26
     1  O    0.001849  -0.000503
     2  S   -0.008077  -0.013485
     3  N   -0.002509   0.002363
     4  C    0.002764   0.000011
     5  N   -0.000034  -0.000001
     6  N   -0.000048   0.000000
     7  C    0.003280  -0.000018
     8  N   -0.000119   0.000001
     9  C    0.000003   0.000000
    10  C    0.000000   0.000000
    11  C    0.000000   0.000000
    12  C    0.000000   0.000000
    13  C    0.000000   0.000000
    14  C    0.000000   0.000000
    15  C    0.339888   0.356961
    16  O   -0.000285  -0.000009
    17  H    0.000150  -0.000018
    18  H    0.000096   0.000001
    19  H    0.000000   0.000000
    20  H    0.000000   0.000000
    21  H    0.000000   0.000000
    22  H    0.000000   0.000000
    23  H    0.000000   0.000000
    24  H   -0.022698  -0.018580
    25  H    0.487665  -0.019973
    26  H   -0.019973   0.460739
 Mulliken charges:
               1
     1  O   -0.545278
     2  S    1.165109
     3  N   -0.779147
     4  C    0.375569
     5  N   -0.305149
     6  N   -0.081109
     7  C    0.030163
     8  N   -0.365359
     9  C    0.330418
    10  C   -0.170212
    11  C   -0.149164
    12  C   -0.124633
    13  C   -0.147846
    14  C   -0.151241
    15  C   -0.633444
    16  O   -0.530243
    17  H    0.393619
    18  H    0.213275
    19  H    0.161888
    20  H    0.157639
    21  H    0.153849
    22  H    0.157703
    23  H    0.177517
    24  H    0.215515
    25  H    0.218049
    26  H    0.232511
 Sum of Mulliken charges =   0.00000
 Mulliken charges with hydrogens summed into heavy atoms:
               1
     1  O   -0.545278
     2  S    1.165109
     3  N   -0.385528
     4  C    0.375569
     5  N   -0.305149
     6  N   -0.081109
     7  C    0.243438
     8  N   -0.365359
     9  C    0.330418
    10  C   -0.008324
    11  C    0.008474
    12  C    0.029216
    13  C    0.009857
    14  C    0.026276
    15  C    0.032632
    16  O   -0.530243
 Electronic spatial extent (au):  <R**2>=           5497.9113
 Charge=              0.0000 electrons
 Dipole moment (field-independent basis, Debye):
    X=             -7.2911    Y=             -8.3920    Z=              1.4688  Tot=             11.2135
 Quadrupole moment (field-independent basis, Debye-Ang):
   XX=           -107.3427   YY=            -97.7520   ZZ=            -95.8222
   XY=             -9.9390   XZ=              3.2720   YZ=              2.8321
 Traceless Quadrupole moment (field-independent basis, Debye-Ang):
   XX=             -7.0371   YY=              2.5536   ZZ=              4.4834
   XY=             -9.9390   XZ=              3.2720   YZ=              2.8321
 Octapole moment (field-independent basis, Debye-Ang**2):
  XXX=           -199.7210  YYY=            -30.4142  ZZZ=              3.1126  XYY=             -6.4357
  XXY=            -36.0490  XXZ=             42.8619  XZZ=             30.6918  YZZ=             -8.5461
  YYZ=              0.7212  XYZ=            -20.9405
 Hexadecapole moment (field-independent basis, Debye-Ang**3):
 XXXX=          -6265.5579 YYYY=           -648.2148 ZZZZ=           -351.3317 XXXY=             -1.3785
 XXXZ=             30.5432 YYYX=            -21.0158 YYYZ=             25.0748 ZZZX=             23.2961
 ZZZY=              4.2408 XXYY=          -1082.3474 XXZZ=          -1081.6846 YYZZ=           -165.4714
 XXYZ=              0.2991 YYXZ=             -1.4391 ZZXY=            -36.8516
 N-N= 1.184450288358D+03 E-N=-4.985727502322D+03  KE= 1.108400530479D+03
 No NMR shielding tensors so no spin-rotation constants.
 Leave Link  601 at Thu Aug  6 22:19:23 2020, MaxMem=    33554432 cpu:         0.2
 (Enter /prod/apps/gaussian/g09d1/l9999.exe)
 1\1\GINC-PIRINEUS24\SP\RB3LYP\6-31G(d)\C9H10N4O2S1\UBAFAR01\06-Aug-202
 0\0\\#p b3lyp/6-31G(d) scrf=(iefpcm,read,solvent=n-Octanol) geom=allch
 eck guess=read\\SM44.n.3.pdb.xyz\\0,1\O,0,3.471,-0.787,-2.126\S,0,2.97
 4,-2.011,-1.494\N,0,2.851,-1.62,0.151\C,0,2.382,-2.556,1.09\N,0,3.17,-
 3.568,1.554\N,0,2.5,-4.254,2.434\C,0,1.158,-2.621,1.725\N,0,1.274,-3.6
 81,2.562\C,0,0.318,-4.203,3.479\C,0,-0.727,-3.392,3.923\C,0,-1.665,-3.
 916,4.811\C,0,-1.551,-5.232,5.261\C,0,-0.495,-6.028,4.814\C,0,0.443,-5
 .523,3.918\C,0,1.296,-2.309,-2.067\O,0,3.71,-3.268,-1.597\H,0,2.536,-0
 .662,0.279\H,0,0.264,-2.027,1.645\H,0,-0.8,-2.364,3.59\H,0,-2.478,-3.2
 88,5.158\H,0,-2.28,-5.635,5.955\H,0,-0.402,-7.051,5.159\H,0,1.264,-6.1
 28,3.555\H,0,0.718,-1.39,-1.967\H,0,0.859,-3.116,-1.479\H,0,1.365,-2.6
 02,-3.116\\Version=AM64L-G09RevD.01\State=1-A\HF=-1116.5315488\RMSD=9.
 981e-09\Dipole=-4.1304563,0.6144113,1.423068\Quadrupole=-7.2489944,5.6
 308462,1.6181482,-2.4274805,6.0546205,-0.1042746\PG=C01 [X(C9H10N4O2S1
 )]\\@


     ON THE SURVIVAL OF THE FITTEST -
 "STRONG REPRESENTATIVES FROM EACH PAST ERA THRIVE TODAY,
 SUCH AS PROGRAMMING IN THE THIRTY YEAR OLD LANGUAGE KNOWN
 AS FORTRAN, AND EVEN IN THE ANCIENT SCRIPT KNOWN AS DIRECT
 MACHINE CODE. SOME PEOPLE MIGHT LOOK ON SUCH RELICS AS LIVING
 FOSSILS; OTHERS WOULD POINT OUT THAT EVEN A VERY OLD SPECIES
 MIGHT STILL BE FILLING A PARTICULAR ECOLOGICAL NICHE."
     -- ALAN KAY, SCI.AM. SEPTEMBER 1984
 Job cpu time:       0 days  0 hours  2 minutes  3.5 seconds.
 File lengths (MBytes):  RWF=    125 Int=      0 D2E=      0 Chk=      5 Scr=      1
 Normal termination of Gaussian 09 at Thu Aug  6 22:19:23 2020.
