 Entering Gaussian System, Link 0=g09
 Initial command:
 /prod/apps/gaussian/g09d1/l1.exe "/tmp/ubafar01/1448617/Gau-178787.inp" -scrdir="/tmp/ubafar01/1448617/"
 Entering Link 1 = /prod/apps/gaussian/g09d1/l1.exe PID=    178788.
  
 Copyright (c) 1988,1990,1992,1993,1995,1998,2003,2009,2013,
            Gaussian, Inc.  All Rights Reserved.
  
 This is part of the Gaussian(R) 09 program.  It is based on
 the Gaussian(R) 03 system (copyright 2003, Gaussian, Inc.),
 the Gaussian(R) 98 system (copyright 1998, Gaussian, Inc.),
 the Gaussian(R) 94 system (copyright 1995, Gaussian, Inc.),
 the Gaussian 92(TM) system (copyright 1992, Gaussian, Inc.),
 the Gaussian 90(TM) system (copyright 1990, Gaussian, Inc.),
 the Gaussian 88(TM) system (copyright 1988, Gaussian, Inc.),
 the Gaussian 86(TM) system (copyright 1986, Carnegie Mellon
 University), and the Gaussian 82(TM) system (copyright 1983,
 Carnegie Mellon University). Gaussian is a federally registered
 trademark of Gaussian, Inc.
  
 This software contains proprietary and confidential information,
 including trade secrets, belonging to Gaussian, Inc.
  
 This software is provided under written license and may be
 used, copied, transmitted, or stored only in accord with that
 written license.
  
 The following legend is applicable only to US Government
 contracts under FAR:
  
                    RESTRICTED RIGHTS LEGEND
  
 Use, reproduction and disclosure by the US Government is
 subject to restrictions as set forth in subparagraphs (a)
 and (c) of the Commercial Computer Software - Restricted
 Rights clause in FAR 52.227-19.
  
 Gaussian, Inc.
 340 Quinnipiac St., Bldg. 40, Wallingford CT 06492
  
  
 ---------------------------------------------------------------
 Warning -- This program may not be used in any manner that
 competes with the business of Gaussian, Inc. or will provide
 assistance to any competitor of Gaussian, Inc.  The licensee
 of this program is prohibited from giving any competitor of
 Gaussian, Inc. access to this program.  By using this program,
 the user acknowledges that Gaussian, Inc. is engaged in the
 business of creating and licensing software in the field of
 computational chemistry and represents and warrants to the
 licensee that it is not a competitor of Gaussian, Inc. and that
 it will not use this program in any manner prohibited above.
 ---------------------------------------------------------------
  

 Cite this work as:
 Gaussian 09, Revision D.01,
 M. J. Frisch, G. W. Trucks, H. B. Schlegel, G. E. Scuseria, 
 M. A. Robb, J. R. Cheeseman, G. Scalmani, V. Barone, B. Mennucci, 
 G. A. Petersson, H. Nakatsuji, M. Caricato, X. Li, H. P. Hratchian, 
 A. F. Izmaylov, J. Bloino, G. Zheng, J. L. Sonnenberg, M. Hada, 
 M. Ehara, K. Toyota, R. Fukuda, J. Hasegawa, M. Ishida, T. Nakajima, 
 Y. Honda, O. Kitao, H. Nakai, T. Vreven, J. A. Montgomery, Jr., 
 J. E. Peralta, F. Ogliaro, M. Bearpark, J. J. Heyd, E. Brothers, 
 K. N. Kudin, V. N. Staroverov, T. Keith, R. Kobayashi, J. Normand, 
 K. Raghavachari, A. Rendell, J. C. Burant, S. S. Iyengar, J. Tomasi, 
 M. Cossi, N. Rega, J. M. Millam, M. Klene, J. E. Knox, J. B. Cross, 
 V. Bakken, C. Adamo, J. Jaramillo, R. Gomperts, R. E. Stratmann, 
 O. Yazyev, A. J. Austin, R. Cammi, C. Pomelli, J. W. Ochterski, 
 R. L. Martin, K. Morokuma, V. G. Zakrzewski, G. A. Voth, 
 P. Salvador, J. J. Dannenberg, S. Dapprich, A. D. Daniels, 
 O. Farkas, J. B. Foresman, J. V. Ortiz, J. Cioslowski, 
 and D. J. Fox, Gaussian, Inc., Wallingford CT, 2013.
 
 ******************************************
 Gaussian 09:  AM64L-G09RevD.01 24-Apr-2013
                 6-Aug-2020 
 ******************************************
 %nproc=1
 Will use up to    1 processors via shared memory.
 %Chk=SM44.n.7.pdb.xyz.mst.n.w.chk
 -----------------
 #p b3lyp/6-31G(d)
 -----------------
 1/38=1/1;
 2/12=2,17=6,18=5,40=1/2;
 3/5=1,6=6,7=1,11=2,16=1,25=1,30=1,74=-5/1,2,3;
 4//1;
 5/5=2,38=5/2;
 6/7=2,8=2,9=2,10=2,28=1/1;
 99/5=1,9=1/99;
 Leave Link    1 at Thu Aug  6 21:56:18 2020, MaxMem=           0 cpu:         0.0
 (Enter /prod/apps/gaussian/g09d1/l101.exe)
 ----------------
 SM44.n.7.pdb.xyz
 ----------------
 Symbolic Z-matrix:
 Charge =  0 Multiplicity = 1
 O                     2.216    -3.471    -1.964 
 S                     3.068    -2.318    -1.632 
 N                     2.751    -1.759    -0.049 
 C                     2.281    -2.669     0.914 
 N                     3.047    -3.712     1.334 
 N                     2.393    -4.374     2.254 
 C                     1.093    -2.68      1.611 
 N                     1.21     -3.748     2.442 
 C                     0.28     -4.219     3.413 
 C                    -0.641    -3.33      3.97 
 C                    -1.553    -3.801     4.913 
 C                    -1.536    -5.141     5.304 
 C                    -0.604    -6.016     4.743 
 C                     0.306    -5.564     3.789 
 C                     4.759    -2.886    -1.497 
 O                     3.006    -1.113    -2.472 
 H                     2.208    -0.896    -0.108 
 H                     0.219    -2.053     1.573 
 H                    -0.636    -2.286     3.682 
 H                    -2.271    -3.114     5.348 
 H                    -2.245    -5.502     6.041 
 H                    -0.588    -7.059     5.039 
 H                     1.024    -6.234     3.336 
 H                     4.796    -3.65     -0.72 
 H                     5.39     -2.036    -1.24 
 H                     5.037    -3.302    -2.466 
 
 NAtoms=     26 NQM=       26 NQMF=       0 NMMI=      0 NMMIF=      0
                NMic=       0 NMicF=      0.
                    Isotopes and Nuclear Properties:
 (Nuclear quadrupole moments (NQMom) in fm**2, nuclear magnetic moments (NMagM)
  in nuclear magnetons)

  Atom         1           2           3           4           5           6           7           8           9          10
 IAtWgt=          16          32          14          12          14          14          12          14          12          12
 AtmWgt=  15.9949146  31.9720718  14.0030740  12.0000000  14.0030740  14.0030740  12.0000000  14.0030740  12.0000000  12.0000000
 NucSpn=           0           0           2           0           2           2           0           2           0           0
 AtZEff=   0.0000000   0.0000000   0.0000000   0.0000000   0.0000000   0.0000000   0.0000000   0.0000000   0.0000000   0.0000000
 NQMom=    0.0000000   0.0000000   2.0440000   0.0000000   2.0440000   2.0440000   0.0000000   2.0440000   0.0000000   0.0000000
 NMagM=    0.0000000   0.0000000   0.4037610   0.0000000   0.4037610   0.4037610   0.0000000   0.4037610   0.0000000   0.0000000
 AtZNuc=   8.0000000  16.0000000   7.0000000   6.0000000   7.0000000   7.0000000   6.0000000   7.0000000   6.0000000   6.0000000

  Atom        11          12          13          14          15          16          17          18          19          20
 IAtWgt=          12          12          12          12          12          16           1           1           1           1
 AtmWgt=  12.0000000  12.0000000  12.0000000  12.0000000  12.0000000  15.9949146   1.0078250   1.0078250   1.0078250   1.0078250
 NucSpn=           0           0           0           0           0           0           1           1           1           1
 AtZEff=   0.0000000   0.0000000   0.0000000   0.0000000   0.0000000   0.0000000   0.0000000   0.0000000   0.0000000   0.0000000
 NQMom=    0.0000000   0.0000000   0.0000000   0.0000000   0.0000000   0.0000000   0.0000000   0.0000000   0.0000000   0.0000000
 NMagM=    0.0000000   0.0000000   0.0000000   0.0000000   0.0000000   0.0000000   2.7928460   2.7928460   2.7928460   2.7928460
 AtZNuc=   6.0000000   6.0000000   6.0000000   6.0000000   6.0000000   8.0000000   1.0000000   1.0000000   1.0000000   1.0000000

  Atom        21          22          23          24          25          26
 IAtWgt=           1           1           1           1           1           1
 AtmWgt=   1.0078250   1.0078250   1.0078250   1.0078250   1.0078250   1.0078250
 NucSpn=           1           1           1           1           1           1
 AtZEff=   0.0000000   0.0000000   0.0000000   0.0000000   0.0000000   0.0000000
 NQMom=    0.0000000   0.0000000   0.0000000   0.0000000   0.0000000   0.0000000
 NMagM=    2.7928460   2.7928460   2.7928460   2.7928460   2.7928460   2.7928460
 AtZNuc=   1.0000000   1.0000000   1.0000000   1.0000000   1.0000000   1.0000000
 Leave Link  101 at Thu Aug  6 21:56:18 2020, MaxMem=    33554432 cpu:         0.1
 (Enter /prod/apps/gaussian/g09d1/l202.exe)
                          Input orientation:                          
 ---------------------------------------------------------------------
 Center     Atomic      Atomic             Coordinates (Angstroms)
 Number     Number       Type             X           Y           Z
 ---------------------------------------------------------------------
      1          8           0        2.216000   -3.471000   -1.964000
      2         16           0        3.068000   -2.318000   -1.632000
      3          7           0        2.751000   -1.759000   -0.049000
      4          6           0        2.281000   -2.669000    0.914000
      5          7           0        3.047000   -3.712000    1.334000
      6          7           0        2.393000   -4.374000    2.254000
      7          6           0        1.093000   -2.680000    1.611000
      8          7           0        1.210000   -3.748000    2.442000
      9          6           0        0.280000   -4.219000    3.413000
     10          6           0       -0.641000   -3.330000    3.970000
     11          6           0       -1.553000   -3.801000    4.913000
     12          6           0       -1.536000   -5.141000    5.304000
     13          6           0       -0.604000   -6.016000    4.743000
     14          6           0        0.306000   -5.564000    3.789000
     15          6           0        4.759000   -2.886000   -1.497000
     16          8           0        3.006000   -1.113000   -2.472000
     17          1           0        2.208000   -0.896000   -0.108000
     18          1           0        0.219000   -2.053000    1.573000
     19          1           0       -0.636000   -2.286000    3.682000
     20          1           0       -2.271000   -3.114000    5.348000
     21          1           0       -2.245000   -5.502000    6.041000
     22          1           0       -0.588000   -7.059000    5.039000
     23          1           0        1.024000   -6.234000    3.336000
     24          1           0        4.796000   -3.650000   -0.720000
     25          1           0        5.390000   -2.036000   -1.240000
     26          1           0        5.037000   -3.302000   -2.466000
 ---------------------------------------------------------------------
                    Distance matrix (angstroms):
                    1          2          3          4          5
     1  O    0.000000
     2  S    1.471576   0.000000
     3  N    2.623813   1.708467   0.000000
     4  C    2.988363   2.687878   1.405834   0.000000
     5  N    3.409611   3.277321   2.411330   1.360516   0.000000
     6  N    4.317205   4.447894   3.502884   2.171444   1.308572
     7  C    3.829809   3.814278   2.520477   1.377416   2.227076
     8  N    4.527869   4.700483   3.540605   2.155473   2.145584
     9  C    5.763656   6.069495   4.913541   3.556895   3.497939
    10  C    6.587464   6.794353   5.488722   4.279502   4.549260
    11  C    7.849038   8.148003   6.878635   5.654466   5.828993
    12  C    8.348067   8.790577   7.646627   6.320789   6.229513
    13  C    7.708001   8.234040   7.234731   5.846954   5.500863
    14  C    6.412937   6.895825   5.931804   4.532910   4.119467
    15  C    2.650880   1.788947   2.720091   3.464173   3.409953
    16  O    2.538174   1.470194   2.520569   3.796282   4.608917
    17  H    3.174181   2.254830   1.021322   2.047765   3.273093
    18  H    4.302221   4.296400   3.021315   2.250685   3.287398
    19  H    6.435483   6.477595   5.066543   4.039480   4.594678
    20  H    8.586382   8.823771   7.495607   6.370172   6.689613
    21  H    9.386453   9.861073   8.721133   7.402479   7.305150
    22  H    8.353333   8.963574   8.070109   6.672247   6.175974
    23  H    6.094673   6.647858   5.870807   4.489472   3.802764
    24  H    2.869839   2.364731   2.864986   3.155557   2.698474
    25  H    3.557763   2.371681   2.908527   3.834878   3.863172
    26  H    2.870297   2.353885   3.667224   4.406884   4.309083
                    6          7          8          9         10
     6  N    0.000000
     7  C    2.230041   0.000000
     8  N    1.351558   1.358261   0.000000
     9  C    2.414969   2.505333   1.424634   0.000000
    10  C    3.638646   2.999023   2.436331   1.395998   0.000000
    11  C    4.792653   4.377346   3.707131   2.405122   1.393856
    12  C    5.032676   5.158140   4.203809   2.779176   2.420806
    13  C    4.227682   4.880382   3.705269   2.404073   2.795263
    14  C    2.850946   3.698717   2.435053   1.396810   2.433172
    15  C    4.677831   4.810578   5.371607   6.778380   7.697092
    16  O    5.774510   4.773463   5.858006   7.191073   7.727552
    17  H    4.208296   2.716771   3.953784   5.211233   5.538162
    18  H    3.252242   1.076313   2.147153   2.842688   2.848849
    19  H    3.946361   2.726485   2.661346   2.155900   1.083007
    20  H    5.737014   5.046783   4.578663   3.387160   2.145330
    21  H    6.093012   6.223410   5.288321   3.863690   3.402858
    22  H    4.883832   5.809698   4.576017   3.385690   3.879563
    23  H    2.550389   3.951114   2.648401   2.149346   3.406963
    24  H    3.891434   4.481815   4.781971   6.148147   7.187452
    25  H    5.162973   5.196840   5.827561   7.247620   8.074125
    26  H    5.515281   5.706483   6.239656   7.617912   8.582690
                   11         12         13         14         15
    11  C    0.000000
    12  C    1.395984   0.000000
    13  C    2.415725   1.396055   0.000000
    14  C    2.797754   2.422213   1.393743   0.000000
    15  C    9.042492   9.537591   8.803197   7.412334   0.000000
    16  O    9.085596   9.865127   9.440749   8.142575   2.677156
    17  H    6.913363   7.831175   7.593019   6.371376   3.520940
    18  H    4.165464   5.151323   5.141167   4.152752   5.543500
    19  H    2.156728   3.404689   3.878098   3.412345   7.502537
    20  H    1.084766   2.156592   3.400958   3.882513   9.814627
    21  H    2.155145   1.084514   2.154502   3.403373  10.617011
    22  H    3.400245   2.155842   1.084307   2.144006   9.419322
    23  H    3.879091   3.408999   2.162766   1.081496   6.965430
    24  H    8.489010   8.865996   8.037557   6.644891   1.090318
    25  H    9.443510  10.021698   9.357603   7.974000   1.089362
    26  H    9.905894  10.342106   9.547584   8.162354   1.090551
                   16         17         18         19         20
    16  O    0.000000
    17  H    2.504474   0.000000
    18  H    5.001299   2.849655   0.000000
    19  H    7.246503   4.938070   2.287618   0.000000
    20  H    9.643813   7.399250   4.645045   2.476765   0.000000
    21  H   10.922797   8.880014   6.158727   4.300746   2.486658
    22  H   10.231660   8.502458   6.142023   4.962387   4.300116
    23  H    7.992861   6.461984   4.608357   4.296745   4.963826
    24  H    3.565105   3.828421   5.362573   7.123533   9.330081
    25  H    2.837818   3.564568   5.886637   7.784681  10.161434
    26  H    2.986087   4.399118   6.409887   8.426926  10.700505
                   21         22         23         24         25
    21  H    0.000000
    22  H    2.484734   0.000000
    23  H    4.305718   2.485835   0.000000
    24  H    9.935628   8.589227   6.111970   0.000000
    25  H   11.104924  10.019623   7.591109   1.796728   0.000000
    26  H   11.412124  10.103499   7.639633   1.796580   1.797343
                   26
    26  H    0.000000
 Stoichiometry    C9H10N4O2S
 Framework group  C1[X(C9H10N4O2S)]
 Deg. of freedom    72
 Full point group                 C1      NOp   1
 Largest Abelian subgroup         C1      NOp   1
 Largest concise Abelian subgroup C1      NOp   1
                         Standard orientation:                         
 ---------------------------------------------------------------------
 Center     Atomic      Atomic             Coordinates (Angstroms)
 Number     Number       Type             X           Y           Z
 ---------------------------------------------------------------------
      1          8           0        2.909091    0.225242    1.637387
      2         16           0        3.460324   -0.188785    0.337287
      3          7           0        2.222053   -0.731861   -0.707037
      4          6           0        0.924359   -0.213506   -0.553196
      5          7           0        0.659088    1.103290   -0.769263
      6          7           0       -0.621457    1.310847   -0.597552
      7          6           0       -0.250758   -0.858212   -0.235822
      8          7           0       -1.187962    0.123545   -0.287559
      9          6           0       -2.591948    0.018173   -0.070073
     10          6           0       -3.229202   -1.206470   -0.277356
     11          6           0       -4.601652   -1.302980   -0.053965
     12          6           0       -5.330226   -0.186040    0.358823
     13          6           0       -4.679588    1.033480    0.554809
     14          6           0       -3.305562    1.143528    0.348746
     15          6           0        4.055420    1.268170   -0.513286
     16          8           0        4.477170   -1.249685    0.292751
     17          1           0        2.260908   -1.751046   -0.760439
     18          1           0       -0.476865   -1.878989    0.019793
     19          1           0       -2.665181   -2.065014   -0.620413
     20          1           0       -5.100990   -2.252756   -0.213041
     21          1           0       -6.398618   -0.265009    0.527564
     22          1           0       -5.238643    1.903981    0.879472
     23          1           0       -2.786560    2.078481    0.510399
     24          1           0        3.216293    1.954045   -0.632601
     25          1           0        4.453626    0.965374   -1.480993
     26          1           0        4.833661    1.709430    0.110357
 ---------------------------------------------------------------------
 Rotational constants (GHZ):      1.7288343      0.1942975      0.1861606
 Leave Link  202 at Thu Aug  6 21:56:18 2020, MaxMem=    33554432 cpu:         0.0
 (Enter /prod/apps/gaussian/g09d1/l301.exe)
 Standard basis: 6-31G(d) (6D, 7F)
 Ernie: Thresh=  0.10000D-02 Tol=  0.10000D-05 Strict=F.
 There are   264 symmetry adapted cartesian basis functions of A   symmetry.
 There are   264 symmetry adapted basis functions of A   symmetry.
   264 basis functions,   512 primitive gaussians,   264 cartesian basis functions
    62 alpha electrons       62 beta electrons
       nuclear repulsion energy      1183.5500634862 Hartrees.
 IExCor=  402 DFT=T Ex+Corr=B3LYP ExCW=0 ScaHFX=  0.200000
 ScaDFX=  0.800000  0.720000  1.000000  0.810000 ScalE2=  1.000000  1.000000
 IRadAn=      0 IRanWt=     -1 IRanGd=            0 ICorTp=0 IEmpDi=  4
 NAtoms=   26 NActive=   26 NUniq=   26 SFac= 1.00D+00 NAtFMM=   60 NAOKFM=F Big=F
 Integral buffers will be    131072 words long.
 Raffenetti 2 integral format.
 Two-electron integral symmetry is turned on.
 Leave Link  301 at Thu Aug  6 21:56:18 2020, MaxMem=    33554432 cpu:         0.0
 (Enter /prod/apps/gaussian/g09d1/l302.exe)
 NPDir=0 NMtPBC=     1 NCelOv=     1 NCel=       1 NClECP=     1 NCelD=      1
         NCelK=      1 NCelE2=     1 NClLst=     1 CellRange=     0.0.
 One-electron integrals computed using PRISM.
 NBasis=   264 RedAO= T EigKep=  4.68D-04  NBF=   264
 NBsUse=   264 1.00D-06 EigRej= -1.00D+00 NBFU=   264
 Precomputing XC quadrature grid using
 IXCGrd= 4 IRadAn=           0 IRanWt=          -1 IRanGd=           0 AccXCQ= 0.00D+00.
 Generated NRdTot=       0 NPtTot=           0 NUsed=           0 NTot=          32
 NSgBfM=   262   262   262   262   262 MxSgAt=    26 MxSgA2=    26.
 Leave Link  302 at Thu Aug  6 21:56:19 2020, MaxMem=    33554432 cpu:         0.7
 (Enter /prod/apps/gaussian/g09d1/l303.exe)
 DipDrv:  MaxL=1.
 Leave Link  303 at Thu Aug  6 21:56:19 2020, MaxMem=    33554432 cpu:         0.0
 (Enter /prod/apps/gaussian/g09d1/l401.exe)
 ExpMin= 1.17D-01 ExpMax= 2.19D+04 ExpMxC= 3.30D+03 IAcc=1 IRadAn=         1 AccDes= 0.00D+00
 Harris functional with IExCor=  402 and IRadAn=       1 diagonalized for initial guess.
 HarFok:  IExCor=  402 AccDes= 0.00D+00 IRadAn=         1 IDoV= 1 UseB2=F ITyADJ=14
 ICtDFT=  3500011 ScaDFX=  1.000000  1.000000  1.000000  1.000000
 FoFCou: FMM=F IPFlag=           0 FMFlag=      100000 FMFlg1=           0
         NFxFlg=           0 DoJE=T BraDBF=F KetDBF=T FulRan=T
         wScrn=  0.000000 ICntrl=     500 IOpCl=  0 I1Cent=   200000004 NGrid=           0
         NMat0=    1 NMatS0=      1 NMatT0=    0 NMatD0=    1 NMtDS0=    0 NMtDT0=    0
 Petite list used in FoFCou.
 Harris En= -1116.52947317680    
 JPrj=0 DoOrth=F DoCkMO=F.
 Leave Link  401 at Thu Aug  6 21:56:21 2020, MaxMem=    33554432 cpu:         2.1
 (Enter /prod/apps/gaussian/g09d1/l502.exe)
 Closed shell SCF:
 Using DIIS extrapolation, IDIIS=  1040.
 Integral symmetry usage will be decided dynamically.
 IVT=      231207 IEndB=      231207 NGot=    33554432 MDV=    33409826
 LenX=    33409826 LenY=    33339689
 Requested convergence on RMS density matrix=1.00D-08 within 128 cycles.
 Requested convergence on MAX density matrix=1.00D-06.
 Requested convergence on             energy=1.00D-06.
 No special actions if energy rises.
 Fock matrices will be formed incrementally for  20 cycles.
 Integral accuracy reduced to 1.0D-05 until final iterations.

 Cycle   1  Pass 0  IDiag  1:
 FoFJK:  IHMeth= 1 ICntrl=       0 DoSepK=F KAlg= 0 I1Cent=   0 FoldK=F
 IRaf= 750000000 NMat=   1 IRICut=       1 DoRegI=T DoRafI=F ISym2E= 0.
 FoFCou: FMM=F IPFlag=           0 FMFlag=      100000 FMFlg1=           0
         NFxFlg=           0 DoJE=F BraDBF=F KetDBF=F FulRan=T
         wScrn=  0.000000 ICntrl=       0 IOpCl=  0 I1Cent=           0 NGrid=           0
         NMat0=    1 NMatS0=      1 NMatT0=    0 NMatD0=    1 NMtDS0=    0 NMtDT0=    0
 Symmetry not used in FoFCou.
 E= -1116.01054963784    
 DIIS: error= 3.26D-02 at cycle   1 NSaved=   1.
 NSaved= 1 IEnMin= 1 EnMin= -1116.01054963784     IErMin= 1 ErrMin= 3.26D-02
 ErrMax= 3.26D-02  0.00D+00 EMaxC= 1.00D-01 BMatC= 5.87D-01 BMatP= 5.87D-01
 IDIUse=3 WtCom= 6.74D-01 WtEn= 3.26D-01
 Coeff-Com:  0.100D+01
 Coeff-En:   0.100D+01
 Coeff:      0.100D+01
 Gap=     0.309 Goal=   None    Shift=    0.000
 GapD=    0.309 DampG=1.000 DampE=0.500 DampFc=0.5000 IDamp=-1.
 Damping current iteration by 5.00D-01
 RMSDP=7.40D-03 MaxDP=5.76D-01              OVMax= 2.64D-01

 Cycle   2  Pass 0  IDiag  1:
 RMSU=  3.70D-03    CP:  9.95D-01
 E= -1116.11894014757     Delta-E=       -0.108390509732 Rises=F Damp=T
 DIIS: error= 2.10D-02 at cycle   2 NSaved=   2.
 NSaved= 2 IEnMin= 2 EnMin= -1116.11894014757     IErMin= 2 ErrMin= 2.10D-02
 ErrMax= 2.10D-02  0.00D+00 EMaxC= 1.00D-01 BMatC= 1.02D-01 BMatP= 5.87D-01
 IDIUse=3 WtCom= 7.90D-01 WtEn= 2.10D-01
 Coeff-Com:  0.245D+00 0.755D+00
 Coeff-En:   0.391D+00 0.609D+00
 Coeff:      0.276D+00 0.724D+00
 Gap=     0.230 Goal=   None    Shift=    0.000
 RMSDP=2.11D-03 MaxDP=1.14D-01 DE=-1.08D-01 OVMax= 1.96D-01

 Cycle   3  Pass 0  IDiag  1:
 RMSU=  1.72D-03    CP:  9.85D-01  6.77D-01
 E= -1116.47077891834     Delta-E=       -0.351838770773 Rises=F Damp=F
 DIIS: error= 1.25D-02 at cycle   3 NSaved=   3.
 NSaved= 3 IEnMin= 3 EnMin= -1116.47077891834     IErMin= 3 ErrMin= 1.25D-02
 ErrMax= 1.25D-02  0.00D+00 EMaxC= 1.00D-01 BMatC= 4.66D-02 BMatP= 1.02D-01
 IDIUse=3 WtCom= 8.75D-01 WtEn= 1.25D-01
 Coeff-Com:  0.916D-01 0.403D+00 0.505D+00
 Coeff-En:   0.000D+00 0.000D+00 0.100D+01
 Coeff:      0.802D-01 0.353D+00 0.567D+00
 Gap=     0.195 Goal=   None    Shift=    0.000
 RMSDP=1.17D-03 MaxDP=4.32D-02 DE=-3.52D-01 OVMax= 4.45D-02

 Cycle   4  Pass 0  IDiag  1:
 RMSU=  7.59D-04    CP:  9.89D-01  7.48D-01  5.08D-01
 E= -1116.50617376489     Delta-E=       -0.035394846542 Rises=F Damp=F
 DIIS: error= 4.55D-03 at cycle   4 NSaved=   4.
 NSaved= 4 IEnMin= 4 EnMin= -1116.50617376489     IErMin= 4 ErrMin= 4.55D-03
 ErrMax= 4.55D-03  0.00D+00 EMaxC= 1.00D-01 BMatC= 9.14D-03 BMatP= 4.66D-02
 IDIUse=3 WtCom= 9.55D-01 WtEn= 4.55D-02
 Coeff-Com:  0.132D-01 0.720D-01 0.317D+00 0.598D+00
 Coeff-En:   0.000D+00 0.000D+00 0.163D+00 0.837D+00
 Coeff:      0.126D-01 0.687D-01 0.310D+00 0.609D+00
 Gap=     0.192 Goal=   None    Shift=    0.000
 RMSDP=4.02D-04 MaxDP=1.85D-02 DE=-3.54D-02 OVMax= 1.88D-02

 Cycle   5  Pass 0  IDiag  1:
 RMSU=  2.01D-04    CP:  9.89D-01  7.29D-01  6.28D-01  6.43D-01
 E= -1116.51347914334     Delta-E=       -0.007305378450 Rises=F Damp=F
 DIIS: error= 1.40D-03 at cycle   5 NSaved=   5.
 NSaved= 5 IEnMin= 5 EnMin= -1116.51347914334     IErMin= 5 ErrMin= 1.40D-03
 ErrMax= 1.40D-03  0.00D+00 EMaxC= 1.00D-01 BMatC= 6.97D-04 BMatP= 9.14D-03
 IDIUse=3 WtCom= 9.86D-01 WtEn= 1.40D-02
 Coeff-Com:  0.157D-02 0.150D-01 0.139D+00 0.342D+00 0.502D+00
 Coeff-En:   0.000D+00 0.000D+00 0.000D+00 0.000D+00 0.100D+01
 Coeff:      0.155D-02 0.148D-01 0.137D+00 0.337D+00 0.509D+00
 Gap=     0.194 Goal=   None    Shift=    0.000
 RMSDP=1.29D-04 MaxDP=3.92D-03 DE=-7.31D-03 OVMax= 7.09D-03

 Cycle   6  Pass 0  IDiag  1:
 RMSU=  7.27D-05    CP:  9.88D-01  7.32D-01  6.32D-01  6.86D-01  5.00D-01
 E= -1116.51400122733     Delta-E=       -0.000522083995 Rises=F Damp=F
 DIIS: error= 7.65D-04 at cycle   6 NSaved=   6.
 NSaved= 6 IEnMin= 6 EnMin= -1116.51400122733     IErMin= 6 ErrMin= 7.65D-04
 ErrMax= 7.65D-04  0.00D+00 EMaxC= 1.00D-01 BMatC= 1.08D-04 BMatP= 6.97D-04
 IDIUse=3 WtCom= 9.92D-01 WtEn= 7.65D-03
 Coeff-Com: -0.376D-03 0.203D-02 0.521D-01 0.143D+00 0.324D+00 0.479D+00
 Coeff-En:   0.000D+00 0.000D+00 0.000D+00 0.000D+00 0.110D+00 0.890D+00
 Coeff:     -0.373D-03 0.202D-02 0.517D-01 0.142D+00 0.322D+00 0.482D+00
 Gap=     0.193 Goal=   None    Shift=    0.000
 RMSDP=4.39D-05 MaxDP=1.80D-03 DE=-5.22D-04 OVMax= 2.68D-03

 Cycle   7  Pass 0  IDiag  1:
 RMSU=  2.58D-05    CP:  9.88D-01  7.31D-01  6.32D-01  6.86D-01  5.86D-01
                    CP:  5.75D-01
 E= -1116.51408356739     Delta-E=       -0.000082340061 Rises=F Damp=F
 DIIS: error= 1.85D-04 at cycle   7 NSaved=   7.
 NSaved= 7 IEnMin= 7 EnMin= -1116.51408356739     IErMin= 7 ErrMin= 1.85D-04
 ErrMax= 1.85D-04  0.00D+00 EMaxC= 1.00D-01 BMatC= 9.09D-06 BMatP= 1.08D-04
 IDIUse=3 WtCom= 9.98D-01 WtEn= 1.85D-03
 Coeff-Com: -0.384D-03-0.361D-03 0.177D-01 0.524D-01 0.148D+00 0.294D+00
 Coeff-Com:  0.489D+00
 Coeff-En:   0.000D+00 0.000D+00 0.000D+00 0.000D+00 0.000D+00 0.914D-02
 Coeff-En:   0.991D+00
 Coeff:     -0.384D-03-0.360D-03 0.177D-01 0.523D-01 0.148D+00 0.293D+00
 Coeff:      0.490D+00
 Gap=     0.193 Goal=   None    Shift=    0.000
 RMSDP=1.23D-05 MaxDP=4.00D-04 DE=-8.23D-05 OVMax= 6.40D-04

 Cycle   8  Pass 0  IDiag  1:
 RMSU=  7.12D-06    CP:  9.88D-01  7.31D-01  6.33D-01  6.87D-01  5.86D-01
                    CP:  6.06D-01  6.22D-01
 E= -1116.51409063892     Delta-E=       -0.000007071526 Rises=F Damp=F
 DIIS: error= 3.86D-05 at cycle   8 NSaved=   8.
 NSaved= 8 IEnMin= 8 EnMin= -1116.51409063892     IErMin= 8 ErrMin= 3.86D-05
 ErrMax= 3.86D-05  0.00D+00 EMaxC= 1.00D-01 BMatC= 5.73D-07 BMatP= 9.09D-06
 IDIUse=1 WtCom= 1.00D+00 WtEn= 0.00D+00
 Coeff-Com: -0.166D-03-0.472D-03 0.408D-02 0.131D-01 0.468D-01 0.109D+00
 Coeff-Com:  0.262D+00 0.565D+00
 Coeff:     -0.166D-03-0.472D-03 0.408D-02 0.131D-01 0.468D-01 0.109D+00
 Coeff:      0.262D+00 0.565D+00
 Gap=     0.193 Goal=   None    Shift=    0.000
 RMSDP=3.69D-06 MaxDP=1.28D-04 DE=-7.07D-06 OVMax= 2.46D-04

 Initial convergence to 1.0D-05 achieved.  Increase integral accuracy.
 Cycle   9  Pass 1  IDiag  1:
 E= -1116.51406036551     Delta-E=        0.000030273407 Rises=F Damp=F
 DIIS: error= 6.33D-05 at cycle   1 NSaved=   1.
 NSaved= 1 IEnMin= 1 EnMin= -1116.51406036551     IErMin= 1 ErrMin= 6.33D-05
 ErrMax= 6.33D-05  0.00D+00 EMaxC= 1.00D-01 BMatC= 3.02D-07 BMatP= 3.02D-07
 IDIUse=1 WtCom= 1.00D+00 WtEn= 0.00D+00
 Coeff-Com:  0.100D+01
 Coeff:      0.100D+01
 Gap=     0.193 Goal=   None    Shift=    0.000
 RMSDP=3.69D-06 MaxDP=1.28D-04 DE= 3.03D-05 OVMax= 1.55D-04

 Cycle  10  Pass 1  IDiag  1:
 RMSU=  3.07D-05    CP:  1.00D+00
 E= -1116.51406060114     Delta-E=       -0.000000235628 Rises=F Damp=F
 DIIS: error= 1.22D-05 at cycle   2 NSaved=   2.
 NSaved= 2 IEnMin= 2 EnMin= -1116.51406060114     IErMin= 2 ErrMin= 1.22D-05
 ErrMax= 1.22D-05  0.00D+00 EMaxC= 1.00D-01 BMatC= 9.74D-08 BMatP= 3.02D-07
 IDIUse=1 WtCom= 1.00D+00 WtEn= 0.00D+00
 Coeff-Com:  0.300D+00 0.700D+00
 Coeff:      0.300D+00 0.700D+00
 Gap=     0.193 Goal=   None    Shift=    0.000
 RMSDP=2.34D-06 MaxDP=1.03D-04 DE=-2.36D-07 OVMax= 1.90D-04

 Cycle  11  Pass 1  IDiag  1:
 RMSU=  2.33D-06    CP:  1.00D+00  1.01D+00
 E= -1116.51406060564     Delta-E=       -0.000000004496 Rises=F Damp=F
 DIIS: error= 1.18D-05 at cycle   3 NSaved=   3.
 NSaved= 3 IEnMin= 3 EnMin= -1116.51406060564     IErMin= 3 ErrMin= 1.18D-05
 ErrMax= 1.18D-05  0.00D+00 EMaxC= 1.00D-01 BMatC= 9.30D-08 BMatP= 9.74D-08
 IDIUse=1 WtCom= 1.00D+00 WtEn= 0.00D+00
 Coeff-Com:  0.114D-01 0.492D+00 0.497D+00
 Coeff:      0.114D-01 0.492D+00 0.497D+00
 Gap=     0.193 Goal=   None    Shift=    0.000
 RMSDP=1.27D-06 MaxDP=4.45D-05 DE=-4.50D-09 OVMax= 1.03D-04

 Cycle  12  Pass 1  IDiag  1:
 RMSU=  5.07D-07    CP:  1.00D+00  1.01D+00  5.07D-01
 E= -1116.51406069149     Delta-E=       -0.000000085855 Rises=F Damp=F
 DIIS: error= 2.76D-06 at cycle   4 NSaved=   4.
 NSaved= 4 IEnMin= 4 EnMin= -1116.51406069149     IErMin= 4 ErrMin= 2.76D-06
 ErrMax= 2.76D-06  0.00D+00 EMaxC= 1.00D-01 BMatC= 5.39D-09 BMatP= 9.30D-08
 IDIUse=1 WtCom= 1.00D+00 WtEn= 0.00D+00
 Coeff-Com: -0.582D-02 0.286D+00 0.318D+00 0.401D+00
 Coeff:     -0.582D-02 0.286D+00 0.318D+00 0.401D+00
 Gap=     0.193 Goal=   None    Shift=    0.000
 RMSDP=3.16D-07 MaxDP=1.10D-05 DE=-8.59D-08 OVMax= 1.95D-05

 Cycle  13  Pass 1  IDiag  1:
 RMSU=  1.46D-07    CP:  1.00D+00  1.01D+00  5.30D-01  4.58D-01
 E= -1116.51406069619     Delta-E=       -0.000000004702 Rises=F Damp=F
 DIIS: error= 6.21D-07 at cycle   5 NSaved=   5.
 NSaved= 5 IEnMin= 5 EnMin= -1116.51406069619     IErMin= 5 ErrMin= 6.21D-07
 ErrMax= 6.21D-07  0.00D+00 EMaxC= 1.00D-01 BMatC= 2.58D-10 BMatP= 5.39D-09
 IDIUse=1 WtCom= 1.00D+00 WtEn= 0.00D+00
 Coeff-Com: -0.412D-02 0.141D+00 0.160D+00 0.244D+00 0.459D+00
 Coeff:     -0.412D-02 0.141D+00 0.160D+00 0.244D+00 0.459D+00
 Gap=     0.193 Goal=   None    Shift=    0.000
 RMSDP=7.30D-08 MaxDP=3.39D-06 DE=-4.70D-09 OVMax= 4.94D-06

 Cycle  14  Pass 1  IDiag  1:
 RMSU=  5.65D-08    CP:  1.00D+00  1.01D+00  5.28D-01  4.88D-01  7.04D-01
 E= -1116.51406069643     Delta-E=       -0.000000000240 Rises=F Damp=F
 DIIS: error= 1.73D-07 at cycle   6 NSaved=   6.
 NSaved= 6 IEnMin= 6 EnMin= -1116.51406069643     IErMin= 6 ErrMin= 1.73D-07
 ErrMax= 1.73D-07  0.00D+00 EMaxC= 1.00D-01 BMatC= 1.39D-11 BMatP= 2.58D-10
 IDIUse=1 WtCom= 1.00D+00 WtEn= 0.00D+00
 Coeff-Com: -0.145D-02 0.410D-01 0.470D-01 0.815D-01 0.234D+00 0.597D+00
 Coeff:     -0.145D-02 0.410D-01 0.470D-01 0.815D-01 0.234D+00 0.597D+00
 Gap=     0.193 Goal=   None    Shift=    0.000
 RMSDP=1.97D-08 MaxDP=5.92D-07 DE=-2.40D-10 OVMax= 1.47D-06

 Cycle  15  Pass 1  IDiag  1:
 RMSU=  1.53D-08    CP:  1.00D+00  1.01D+00  5.28D-01  4.92D-01  7.57D-01
                    CP:  8.33D-01
 E= -1116.51406069644     Delta-E=       -0.000000000005 Rises=F Damp=F
 DIIS: error= 9.75D-08 at cycle   7 NSaved=   7.
 NSaved= 7 IEnMin= 7 EnMin= -1116.51406069644     IErMin= 7 ErrMin= 9.75D-08
 ErrMax= 9.75D-08  0.00D+00 EMaxC= 1.00D-01 BMatC= 3.63D-12 BMatP= 1.39D-11
 IDIUse=1 WtCom= 1.00D+00 WtEn= 0.00D+00
 Coeff-Com: -0.247D-03 0.230D-02 0.287D-02 0.108D-01 0.741D-01 0.382D+00
 Coeff-Com:  0.528D+00
 Coeff:     -0.247D-03 0.230D-02 0.287D-02 0.108D-01 0.741D-01 0.382D+00
 Coeff:      0.528D+00
 Gap=     0.193 Goal=   None    Shift=    0.000
 RMSDP=9.07D-09 MaxDP=3.56D-07 DE=-5.00D-12 OVMax= 5.09D-07

 SCF Done:  E(RB3LYP) =  -1116.51406070     A.U. after   15 cycles
            NFock= 15  Conv=0.91D-08     -V/T= 2.0074
 KE= 1.108367556993D+03 PE=-4.983932559312D+03 EE= 1.575500878136D+03
 Leave Link  502 at Thu Aug  6 21:58:51 2020, MaxMem=    33554432 cpu:       149.8
 (Enter /prod/apps/gaussian/g09d1/l601.exe)
 Copying SCF densities to generalized density rwf, IOpCl= 0 IROHF=0.

 **********************************************************************

            Population analysis using the SCF density.

 **********************************************************************

 Orbital symmetries:
       Occupied  (A) (A) (A) (A) (A) (A) (A) (A) (A) (A) (A) (A)
                 (A) (A) (A) (A) (A) (A) (A) (A) (A) (A) (A) (A)
                 (A) (A) (A) (A) (A) (A) (A) (A) (A) (A) (A) (A)
                 (A) (A) (A) (A) (A) (A) (A) (A) (A) (A) (A) (A)
                 (A) (A) (A) (A) (A) (A) (A) (A) (A) (A) (A) (A)
                 (A) (A)
       Virtual   (A) (A) (A) (A) (A) (A) (A) (A) (A) (A) (A) (A)
                 (A) (A) (A) (A) (A) (A) (A) (A) (A) (A) (A) (A)
                 (A) (A) (A) (A) (A) (A) (A) (A) (A) (A) (A) (A)
                 (A) (A) (A) (A) (A) (A) (A) (A) (A) (A) (A) (A)
                 (A) (A) (A) (A) (A) (A) (A) (A) (A) (A) (A) (A)
                 (A) (A) (A) (A) (A) (A) (A) (A) (A) (A) (A) (A)
                 (A) (A) (A) (A) (A) (A) (A) (A) (A) (A) (A) (A)
                 (A) (A) (A) (A) (A) (A) (A) (A) (A) (A) (A) (A)
                 (A) (A) (A) (A) (A) (A) (A) (A) (A) (A) (A) (A)
                 (A) (A) (A) (A) (A) (A) (A) (A) (A) (A) (A) (A)
                 (A) (A) (A) (A) (A) (A) (A) (A) (A) (A) (A) (A)
                 (A) (A) (A) (A) (A) (A) (A) (A) (A) (A) (A) (A)
                 (A) (A) (A) (A) (A) (A) (A) (A) (A) (A) (A) (A)
                 (A) (A) (A) (A) (A) (A) (A) (A) (A) (A) (A) (A)
                 (A) (A) (A) (A) (A) (A) (A) (A) (A) (A) (A) (A)
                 (A) (A) (A) (A) (A) (A) (A) (A) (A) (A) (A) (A)
                 (A) (A) (A) (A) (A) (A) (A) (A) (A) (A)
 The electronic state is 1-A.
 Alpha  occ. eigenvalues --  -89.11434 -19.14259 -19.14100 -14.44765 -14.40279
 Alpha  occ. eigenvalues --  -14.38739 -14.36726 -10.26715 -10.25931 -10.24787
 Alpha  occ. eigenvalues --  -10.22379 -10.21830 -10.21419 -10.21202 -10.21147
 Alpha  occ. eigenvalues --  -10.20992  -8.14040  -6.10576  -6.10424  -6.10306
 Alpha  occ. eigenvalues --   -1.11506  -1.10738  -0.99574  -0.95992  -0.93080
 Alpha  occ. eigenvalues --   -0.86891  -0.81425  -0.77651  -0.77267  -0.76687
 Alpha  occ. eigenvalues --   -0.67457  -0.66432  -0.63484  -0.61754  -0.59137
 Alpha  occ. eigenvalues --   -0.57130  -0.53571  -0.52510  -0.50712  -0.49400
 Alpha  occ. eigenvalues --   -0.48943  -0.47952  -0.46475  -0.46232  -0.45471
 Alpha  occ. eigenvalues --   -0.44513  -0.43855  -0.42385  -0.39516  -0.38442
 Alpha  occ. eigenvalues --   -0.37195  -0.35826  -0.34941  -0.33968  -0.32059
 Alpha  occ. eigenvalues --   -0.31227  -0.30707  -0.29390  -0.28596  -0.27334
 Alpha  occ. eigenvalues --   -0.26693  -0.24126
 Alpha virt. eigenvalues --   -0.04806  -0.02399   0.01125   0.02249   0.05383
 Alpha virt. eigenvalues --    0.07181   0.08178   0.09117   0.10320   0.10634
 Alpha virt. eigenvalues --    0.11659   0.12160   0.13539   0.14188   0.14532
 Alpha virt. eigenvalues --    0.15364   0.16522   0.17466   0.17510   0.19357
 Alpha virt. eigenvalues --    0.21098   0.22497   0.24536   0.28224   0.29806
 Alpha virt. eigenvalues --    0.30707   0.32460   0.34722   0.35282   0.37689
 Alpha virt. eigenvalues --    0.40291   0.42204   0.42420   0.44942   0.47152
 Alpha virt. eigenvalues --    0.48458   0.49287   0.51206   0.51337   0.51982
 Alpha virt. eigenvalues --    0.53329   0.53909   0.55038   0.56318   0.57041
 Alpha virt. eigenvalues --    0.57184   0.57934   0.59231   0.59831   0.60031
 Alpha virt. eigenvalues --    0.60573   0.61515   0.62560   0.63945   0.66048
 Alpha virt. eigenvalues --    0.68531   0.69684   0.70137   0.71440   0.73377
 Alpha virt. eigenvalues --    0.74188   0.76926   0.78239   0.79619   0.80121
 Alpha virt. eigenvalues --    0.81955   0.82105   0.82400   0.82634   0.83856
 Alpha virt. eigenvalues --    0.84619   0.85544   0.86615   0.87779   0.88108
 Alpha virt. eigenvalues --    0.89352   0.89595   0.92015   0.93148   0.94257
 Alpha virt. eigenvalues --    0.95820   0.96168   0.97717   0.99601   1.00838
 Alpha virt. eigenvalues --    1.02192   1.03841   1.04887   1.05247   1.06479
 Alpha virt. eigenvalues --    1.08953   1.11568   1.12509   1.14358   1.15198
 Alpha virt. eigenvalues --    1.15391   1.17912   1.19271   1.20488   1.22383
 Alpha virt. eigenvalues --    1.24637   1.26915   1.31262   1.34040   1.36369
 Alpha virt. eigenvalues --    1.37577   1.40843   1.40914   1.42933   1.43418
 Alpha virt. eigenvalues --    1.44956   1.46843   1.47517   1.48847   1.50996
 Alpha virt. eigenvalues --    1.52657   1.56769   1.59217   1.61254   1.65755
 Alpha virt. eigenvalues --    1.67918   1.70185   1.74415   1.77868   1.78924
 Alpha virt. eigenvalues --    1.79471   1.79820   1.81199   1.83111   1.83246
 Alpha virt. eigenvalues --    1.84282   1.86590   1.86996   1.88834   1.91411
 Alpha virt. eigenvalues --    1.93284   1.95384   1.96019   2.02890   2.03715
 Alpha virt. eigenvalues --    2.06213   2.07330   2.07693   2.09934   2.10662
 Alpha virt. eigenvalues --    2.10974   2.12494   2.13683   2.13842   2.16831
 Alpha virt. eigenvalues --    2.18996   2.20779   2.22647   2.23274   2.24748
 Alpha virt. eigenvalues --    2.26445   2.28102   2.28322   2.29681   2.31242
 Alpha virt. eigenvalues --    2.32186   2.37407   2.37914   2.47831   2.50360
 Alpha virt. eigenvalues --    2.53901   2.56278   2.57172   2.58741   2.62996
 Alpha virt. eigenvalues --    2.63355   2.66443   2.69144   2.70759   2.72927
 Alpha virt. eigenvalues --    2.73121   2.77128   2.78366   2.82545   2.85663
 Alpha virt. eigenvalues --    2.88121   3.00624   3.06180   3.12722   3.25077
 Alpha virt. eigenvalues --    3.41223   3.61357   3.78278   3.88939   3.96895
 Alpha virt. eigenvalues --    4.00765   4.03846   4.06999   4.09229   4.09901
 Alpha virt. eigenvalues --    4.13896   4.19354   4.22801   4.30685   4.37852
 Alpha virt. eigenvalues --    4.46300   4.70027
          Condensed to atoms (all electrons):
               1          2          3          4          5          6
     1  O    8.222512   0.438079  -0.057499   0.012320  -0.001929  -0.000058
     2  S    0.438079  13.681907   0.084424  -0.003118  -0.003599  -0.000113
     3  N   -0.057499   0.084424   7.440024   0.242364  -0.056314   0.005828
     4  C    0.012320  -0.003118   0.242364   4.642488   0.341700  -0.061563
     5  N   -0.001929  -0.003599  -0.056314   0.341700   6.872358   0.295008
     6  N   -0.000058  -0.000113   0.005828  -0.061563   0.295008   6.750189
     7  C    0.000363  -0.000127  -0.079726   0.498898  -0.063531  -0.103362
     8  N   -0.000024   0.000117   0.003582  -0.045465  -0.082025   0.199909
     9  C    0.000000  -0.000022  -0.000105   0.005664   0.006442  -0.044442
    10  C    0.000000   0.000001   0.000004   0.000971  -0.000318   0.002995
    11  C    0.000000   0.000000   0.000000  -0.000008   0.000002  -0.000069
    12  C    0.000000   0.000000   0.000000   0.000000   0.000000   0.000016
    13  C    0.000000   0.000000   0.000000   0.000006  -0.000004   0.000350
    14  C    0.000000   0.000000   0.000000  -0.000435   0.000265   0.001003
    15  C   -0.057576   0.217846  -0.051111  -0.009295  -0.003490   0.000147
    16  O   -0.045286   0.450127  -0.049363   0.001427  -0.000031   0.000000
    17  H   -0.000156  -0.011949   0.304953  -0.027297   0.002727  -0.000116
    18  H    0.000018   0.000037  -0.000663  -0.026477   0.004074   0.003554
    19  H    0.000000   0.000000   0.000000   0.000026  -0.000005  -0.000095
    20  H    0.000000   0.000000   0.000000   0.000000   0.000000   0.000001
    21  H    0.000000   0.000000   0.000000   0.000000   0.000000   0.000000
    22  H    0.000000   0.000000   0.000000   0.000000   0.000000  -0.000007
    23  H    0.000000   0.000000   0.000000   0.000052  -0.000356   0.015122
    24  H   -0.000768  -0.000764  -0.001777  -0.000621   0.013438  -0.000319
    25  H    0.001903  -0.006500   0.000982   0.000350  -0.000044  -0.000001
    26  H    0.000025  -0.018883   0.002404   0.000139   0.000118  -0.000001
               7          8          9         10         11         12
     1  O    0.000363  -0.000024   0.000000   0.000000   0.000000   0.000000
     2  S   -0.000127   0.000117  -0.000022   0.000001   0.000000   0.000000
     3  N   -0.079726   0.003582  -0.000105   0.000004   0.000000   0.000000
     4  C    0.498898  -0.045465   0.005664   0.000971  -0.000008   0.000000
     5  N   -0.063531  -0.082025   0.006442  -0.000318   0.000002   0.000000
     6  N   -0.103362   0.199909  -0.044442   0.002995  -0.000069   0.000016
     7  C    5.088765   0.317457  -0.035740  -0.007674  -0.000023   0.000018
     8  N    0.317457   6.925467   0.200196  -0.051527   0.004686   0.000403
     9  C   -0.035740   0.200196   4.613563   0.529400  -0.007508  -0.037992
    10  C   -0.007674  -0.051527   0.529400   4.992236   0.529378  -0.039616
    11  C   -0.000023   0.004686  -0.007508   0.529378   4.844407   0.550204
    12  C    0.000018   0.000403  -0.037992  -0.039616   0.550204   4.848190
    13  C   -0.000086   0.004566  -0.009488  -0.042091  -0.022668   0.543768
    14  C    0.007776  -0.056999   0.519382  -0.073192  -0.041388  -0.037455
    15  C   -0.000214  -0.000008   0.000000   0.000000   0.000000   0.000000
    16  O   -0.000008   0.000000   0.000000   0.000000   0.000000   0.000000
    17  H   -0.002495  -0.000011   0.000000   0.000000   0.000000   0.000000
    18  H    0.358462  -0.035292  -0.001447   0.002191   0.000170  -0.000001
    19  H    0.006412  -0.009756  -0.041096   0.348002  -0.037796   0.004501
    20  H   -0.000004  -0.000115   0.003560  -0.039347   0.359566  -0.040188
    21  H    0.000000   0.000004   0.000527   0.004989  -0.042320   0.362498
    22  H    0.000002  -0.000110   0.003455   0.000818   0.004560  -0.041251
    23  H    0.000258  -0.013234  -0.034153   0.005572   0.000161   0.004368
    24  H    0.000194   0.000034  -0.000001   0.000000   0.000000   0.000000
    25  H    0.000000   0.000000   0.000000   0.000000   0.000000   0.000000
    26  H    0.000006   0.000000   0.000000   0.000000   0.000000   0.000000
              13         14         15         16         17         18
     1  O    0.000000   0.000000  -0.057576  -0.045286  -0.000156   0.000018
     2  S    0.000000   0.000000   0.217846   0.450127  -0.011949   0.000037
     3  N    0.000000   0.000000  -0.051111  -0.049363   0.304953  -0.000663
     4  C    0.000006  -0.000435  -0.009295   0.001427  -0.027297  -0.026477
     5  N   -0.000004   0.000265  -0.003490  -0.000031   0.002727   0.004074
     6  N    0.000350   0.001003   0.000147   0.000000  -0.000116   0.003554
     7  C   -0.000086   0.007776  -0.000214  -0.000008  -0.002495   0.358462
     8  N    0.004566  -0.056999  -0.000008   0.000000  -0.000011  -0.035292
     9  C   -0.009488   0.519382   0.000000   0.000000   0.000000  -0.001447
    10  C   -0.042091  -0.073192   0.000000   0.000000   0.000000   0.002191
    11  C   -0.022668  -0.041388   0.000000   0.000000   0.000000   0.000170
    12  C    0.543768  -0.037455   0.000000   0.000000   0.000000  -0.000001
    13  C    4.865885   0.517420   0.000000   0.000000   0.000000  -0.000006
    14  C    0.517420   4.977187   0.000000   0.000000   0.000000  -0.000107
    15  C    0.000000   0.000000   5.565787  -0.058132   0.003126   0.000000
    16  O    0.000000   0.000000  -0.058132   8.227744   0.005436  -0.000001
    17  H    0.000000   0.000000   0.003126   0.005436   0.359994   0.001228
    18  H   -0.000006  -0.000107   0.000000  -0.000001   0.001228   0.505882
    19  H    0.000251   0.005740   0.000000   0.000000   0.000001   0.001985
    20  H    0.004547   0.000785   0.000000   0.000000   0.000000  -0.000002
    21  H   -0.042341   0.004692   0.000000   0.000000   0.000000   0.000000
    22  H    0.360582  -0.038086   0.000000   0.000000   0.000000   0.000000
    23  H   -0.039830   0.355063   0.000000   0.000000   0.000000  -0.000011
    24  H    0.000000   0.000000   0.328512   0.001568  -0.000084  -0.000001
    25  H    0.000000   0.000000   0.339336  -0.000018  -0.000024   0.000000
    26  H    0.000000   0.000000   0.355697  -0.000478  -0.000063   0.000000
              19         20         21         22         23         24
     1  O    0.000000   0.000000   0.000000   0.000000   0.000000  -0.000768
     2  S    0.000000   0.000000   0.000000   0.000000   0.000000  -0.000764
     3  N    0.000000   0.000000   0.000000   0.000000   0.000000  -0.001777
     4  C    0.000026   0.000000   0.000000   0.000000   0.000052  -0.000621
     5  N   -0.000005   0.000000   0.000000   0.000000  -0.000356   0.013438
     6  N   -0.000095   0.000001   0.000000  -0.000007   0.015122  -0.000319
     7  C    0.006412  -0.000004   0.000000   0.000002   0.000258   0.000194
     8  N   -0.009756  -0.000115   0.000004  -0.000110  -0.013234   0.000034
     9  C   -0.041096   0.003560   0.000527   0.003455  -0.034153  -0.000001
    10  C    0.348002  -0.039347   0.004989   0.000818   0.005572   0.000000
    11  C   -0.037796   0.359566  -0.042320   0.004560   0.000161   0.000000
    12  C    0.004501  -0.040188   0.362498  -0.041251   0.004368   0.000000
    13  C    0.000251   0.004547  -0.042341   0.360582  -0.039830   0.000000
    14  C    0.005740   0.000785   0.004692  -0.038086   0.355063   0.000000
    15  C    0.000000   0.000000   0.000000   0.000000   0.000000   0.328512
    16  O    0.000000   0.000000   0.000000   0.000000   0.000000   0.001568
    17  H    0.000001   0.000000   0.000000   0.000000   0.000000  -0.000084
    18  H    0.001985  -0.000002   0.000000   0.000000  -0.000011  -0.000001
    19  H    0.584185  -0.005553  -0.000160   0.000015  -0.000139   0.000000
    20  H   -0.005553   0.578618  -0.005356  -0.000178   0.000013   0.000000
    21  H   -0.000160  -0.005356   0.581319  -0.005355  -0.000140   0.000000
    22  H    0.000015  -0.000178  -0.005355   0.573504  -0.005042   0.000000
    23  H   -0.000139   0.000013  -0.000140  -0.005042   0.532944   0.000000
    24  H    0.000000   0.000000   0.000000   0.000000   0.000000   0.457209
    25  H    0.000000   0.000000   0.000000   0.000000   0.000000  -0.021720
    26  H    0.000000   0.000000   0.000000   0.000000   0.000000  -0.016078
              25         26
     1  O    0.001903   0.000025
     2  S   -0.006500  -0.018883
     3  N    0.000982   0.002404
     4  C    0.000350   0.000139
     5  N   -0.000044   0.000118
     6  N   -0.000001  -0.000001
     7  C    0.000000   0.000006
     8  N    0.000000   0.000000
     9  C    0.000000   0.000000
    10  C    0.000000   0.000000
    11  C    0.000000   0.000000
    12  C    0.000000   0.000000
    13  C    0.000000   0.000000
    14  C    0.000000   0.000000
    15  C    0.339336   0.355697
    16  O   -0.000018  -0.000478
    17  H   -0.000024  -0.000063
    18  H    0.000000   0.000000
    19  H    0.000000   0.000000
    20  H    0.000000   0.000000
    21  H    0.000000   0.000000
    22  H    0.000000   0.000000
    23  H    0.000000   0.000000
    24  H   -0.021720  -0.016078
    25  H    0.495017  -0.019768
    26  H   -0.019768   0.481524
 Mulliken charges:
               1
     1  O   -0.511923
     2  S    1.172538
     3  N   -0.788004
     4  C    0.427873
     5  N   -0.324487
     6  N   -0.063977
     7  C    0.014381
     8  N   -0.361855
     9  C    0.329805
    10  C   -0.162793
    11  C   -0.141356
    12  C   -0.117463
    13  C   -0.140862
    14  C   -0.141651
    15  C   -0.630626
    16  O   -0.532986
    17  H    0.364731
    18  H    0.186407
    19  H    0.143483
    20  H    0.143655
    21  H    0.141643
    22  H    0.147094
    23  H    0.179352
    24  H    0.241177
    25  H    0.210487
    26  H    0.215360
 Sum of Mulliken charges =   0.00000
 Mulliken charges with hydrogens summed into heavy atoms:
               1
     1  O   -0.511923
     2  S    1.172538
     3  N   -0.423274
     4  C    0.427873
     5  N   -0.324487
     6  N   -0.063977
     7  C    0.200788
     8  N   -0.361855
     9  C    0.329805
    10  C   -0.019310
    11  C    0.002299
    12  C    0.024181
    13  C    0.006232
    14  C    0.037700
    15  C    0.036398
    16  O   -0.532986
 Electronic spatial extent (au):  <R**2>=           5584.6712
 Charge=              0.0000 electrons
 Dipole moment (field-independent basis, Debye):
    X=             -4.4416    Y=             -1.5366    Z=             -1.8190  Tot=              5.0397
 Quadrupole moment (field-independent basis, Debye-Ang):
   XX=            -89.7857   YY=            -92.0709   ZZ=           -105.9386
   XY=             11.0486   XZ=            -10.9971   YZ=              4.1376
 Traceless Quadrupole moment (field-independent basis, Debye-Ang):
   XX=              6.1460   YY=              3.8608   ZZ=            -10.0068
   XY=             11.0486   XZ=            -10.9971   YZ=              4.1376
 Octapole moment (field-independent basis, Debye-Ang**2):
  XXX=            -82.5928  YYY=            -15.3324  ZZZ=             -2.7788  XYY=             -0.2026
  XXY=             56.4467  XXZ=            -16.5153  XZZ=             11.5376  YZZ=             -1.8550
  YYZ=              2.1276  XYZ=             -6.5828
 Hexadecapole moment (field-independent basis, Debye-Ang**3):
 XXXX=          -5989.2433 YYYY=           -597.7260 ZZZZ=           -323.1005 XXXY=            288.4775
 XXXZ=           -168.4307 YYYX=              0.2231 YYYZ=             22.7943 ZZZX=              0.3245
 ZZZY=             -1.7587 XXYY=          -1097.8587 XXZZ=          -1185.3152 YYZZ=           -160.4570
 XXYZ=             41.0464 YYXZ=             -7.9047 ZZXY=            -12.2558
 N-N= 1.183550063486D+03 E-N=-4.983932583472D+03  KE= 1.108367556993D+03
 No NMR shielding tensors so no spin-rotation constants.
 Leave Link  601 at Thu Aug  6 21:58:51 2020, MaxMem=    33554432 cpu:         0.2
 (Enter /prod/apps/gaussian/g09d1/l9999.exe)
 1\1\GINC-PIRINEUS21\SP\RB3LYP\6-31G(d)\C9H10N4O2S1\UBAFAR01\06-Aug-202
 0\0\\#p b3lyp/6-31G(d)\\SM44.n.7.pdb.xyz\\0,1\O,0,2.216,-3.471,-1.964\
 S,0,3.068,-2.318,-1.632\N,0,2.751,-1.759,-0.049\C,0,2.281,-2.669,0.914
 \N,0,3.047,-3.712,1.334\N,0,2.393,-4.374,2.254\C,0,1.093,-2.68,1.611\N
 ,0,1.21,-3.748,2.442\C,0,0.28,-4.219,3.413\C,0,-0.641,-3.33,3.97\C,0,-
 1.553,-3.801,4.913\C,0,-1.536,-5.141,5.304\C,0,-0.604,-6.016,4.743\C,0
 ,0.306,-5.564,3.789\C,0,4.759,-2.886,-1.497\O,0,3.006,-1.113,-2.472\H,
 0,2.208,-0.896,-0.108\H,0,0.219,-2.053,1.573\H,0,-0.636,-2.286,3.682\H
 ,0,-2.271,-3.114,5.348\H,0,-2.245,-5.502,6.041\H,0,-0.588,-7.059,5.039
 \H,0,1.024,-6.234,3.336\H,0,4.796,-3.65,-0.72\H,0,5.39,-2.036,-1.24\H,
 0,5.037,-3.302,-2.466\\Version=AM64L-G09RevD.01\State=1-A\HF=-1116.514
 0607\RMSD=9.070e-09\Dipole=-0.8228345,0.2836423,1.7815168\Quadrupole=7
 .4558538,1.3209746,-8.7768285,-0.42325,-10.7591504,1.7029531\PG=C01 [X
 (C9H10N4O2S1)]\\@


 IN-LAWS ARE LIKE SEEDS. YOU DON'T NEED THEM
 BUT THEY COME WITH THE TOMATO.
 Job cpu time:       0 days  0 hours  2 minutes 33.1 seconds.
 File lengths (MBytes):  RWF=     40 Int=      0 D2E=      0 Chk=      4 Scr=      1
 Normal termination of Gaussian 09 at Thu Aug  6 21:58:51 2020.
 Initial command:
 /prod/apps/gaussian/g09d1/l1.exe "/tmp/ubafar01/1448617/Gau-178787.inp" -scrdir="/tmp/ubafar01/1448617/"
 Entering Link 1 = /prod/apps/gaussian/g09d1/l1.exe PID=    178822.
  
 Copyright (c) 1988,1990,1992,1993,1995,1998,2003,2009,2013,
            Gaussian, Inc.  All Rights Reserved.
  
 This is part of the Gaussian(R) 09 program.  It is based on
 the Gaussian(R) 03 system (copyright 2003, Gaussian, Inc.),
 the Gaussian(R) 98 system (copyright 1998, Gaussian, Inc.),
 the Gaussian(R) 94 system (copyright 1995, Gaussian, Inc.),
 the Gaussian 92(TM) system (copyright 1992, Gaussian, Inc.),
 the Gaussian 90(TM) system (copyright 1990, Gaussian, Inc.),
 the Gaussian 88(TM) system (copyright 1988, Gaussian, Inc.),
 the Gaussian 86(TM) system (copyright 1986, Carnegie Mellon
 University), and the Gaussian 82(TM) system (copyright 1983,
 Carnegie Mellon University). Gaussian is a federally registered
 trademark of Gaussian, Inc.
  
 This software contains proprietary and confidential information,
 including trade secrets, belonging to Gaussian, Inc.
  
 This software is provided under written license and may be
 used, copied, transmitted, or stored only in accord with that
 written license.
  
 The following legend is applicable only to US Government
 contracts under FAR:
  
                    RESTRICTED RIGHTS LEGEND
  
 Use, reproduction and disclosure by the US Government is
 subject to restrictions as set forth in subparagraphs (a)
 and (c) of the Commercial Computer Software - Restricted
 Rights clause in FAR 52.227-19.
  
 Gaussian, Inc.
 340 Quinnipiac St., Bldg. 40, Wallingford CT 06492
  
  
 ---------------------------------------------------------------
 Warning -- This program may not be used in any manner that
 competes with the business of Gaussian, Inc. or will provide
 assistance to any competitor of Gaussian, Inc.  The licensee
 of this program is prohibited from giving any competitor of
 Gaussian, Inc. access to this program.  By using this program,
 the user acknowledges that Gaussian, Inc. is engaged in the
 business of creating and licensing software in the field of
 computational chemistry and represents and warrants to the
 licensee that it is not a competitor of Gaussian, Inc. and that
 it will not use this program in any manner prohibited above.
 ---------------------------------------------------------------
  

 Cite this work as:
 Gaussian 09, Revision D.01,
 M. J. Frisch, G. W. Trucks, H. B. Schlegel, G. E. Scuseria, 
 M. A. Robb, J. R. Cheeseman, G. Scalmani, V. Barone, B. Mennucci, 
 G. A. Petersson, H. Nakatsuji, M. Caricato, X. Li, H. P. Hratchian, 
 A. F. Izmaylov, J. Bloino, G. Zheng, J. L. Sonnenberg, M. Hada, 
 M. Ehara, K. Toyota, R. Fukuda, J. Hasegawa, M. Ishida, T. Nakajima, 
 Y. Honda, O. Kitao, H. Nakai, T. Vreven, J. A. Montgomery, Jr., 
 J. E. Peralta, F. Ogliaro, M. Bearpark, J. J. Heyd, E. Brothers, 
 K. N. Kudin, V. N. Staroverov, T. Keith, R. Kobayashi, J. Normand, 
 K. Raghavachari, A. Rendell, J. C. Burant, S. S. Iyengar, J. Tomasi, 
 M. Cossi, N. Rega, J. M. Millam, M. Klene, J. E. Knox, J. B. Cross, 
 V. Bakken, C. Adamo, J. Jaramillo, R. Gomperts, R. E. Stratmann, 
 O. Yazyev, A. J. Austin, R. Cammi, C. Pomelli, J. W. Ochterski, 
 R. L. Martin, K. Morokuma, V. G. Zakrzewski, G. A. Voth, 
 P. Salvador, J. J. Dannenberg, S. Dapprich, A. D. Daniels, 
 O. Farkas, J. B. Foresman, J. V. Ortiz, J. Cioslowski, 
 and D. J. Fox, Gaussian, Inc., Wallingford CT, 2013.
 
 ******************************************
 Gaussian 09:  AM64L-G09RevD.01 24-Apr-2013
                 6-Aug-2020 
 ******************************************
 %nproc=1
 Will use up to    1 processors via shared memory.
 %Chk=SM44.n.7.pdb.xyz.mst.n.w.chk
 %subst l502 /dades/curu/work_g09D01_MST_AddSphPartition_ReadGammas/exe-dir/
 ----------------------------------------------------------------------
 #p b3lyp/6-31G(d) scrf=(iefpcm,read,solvent=Water) geom=allcheck guess
 =read
 ----------------------------------------------------------------------
 1/29=7,38=1,40=2/1;
 2/12=2,40=1/2;
 3/5=1,6=6,7=1,11=2,14=-4,16=1,25=1,30=1,70=2203,72=1,74=-5,116=-2/1,2,3;
 4/5=1/1;
 5/5=2,38=6,53=1/2;
 6/7=2,8=2,9=2,10=2,28=1/1;
 99/5=1,9=1/99;
 Leave Link    1 at Thu Aug  6 21:58:51 2020, MaxMem=           0 cpu:         0.0
 (Enter /prod/apps/gaussian/g09d1/l101.exe)
 Structure from the checkpoint file:  "SM44.n.7.pdb.xyz.mst.n.w.chk"
 ----------------
 SM44.n.7.pdb.xyz
 ----------------
 Charge =  0 Multiplicity = 1
 Z-Matrix found in file.
 O,0,2.216,-3.471,-1.964
 S,0,3.068,-2.318,-1.632
 N,0,2.751,-1.759,-0.049
 C,0,2.281,-2.669,0.914
 N,0,3.047,-3.712,1.334
 N,0,2.393,-4.374,2.254
 C,0,1.093,-2.68,1.611
 N,0,1.21,-3.748,2.442
 C,0,0.28,-4.219,3.413
 C,0,-0.641,-3.33,3.97
 C,0,-1.553,-3.801,4.913
 C,0,-1.536,-5.141,5.304
 C,0,-0.604,-6.016,4.743
 C,0,0.306,-5.564,3.789
 C,0,4.759,-2.886,-1.497
 O,0,3.006,-1.113,-2.472
 H,0,2.208,-0.896,-0.108
 H,0,0.219,-2.053,1.573
 H,0,-0.636,-2.286,3.682
 H,0,-2.271,-3.114,5.348
 H,0,-2.245,-5.502,6.041
 H,0,-0.588,-7.059,5.039
 H,0,1.024,-6.234,3.336
 H,0,4.796,-3.65,-0.72
 H,0,5.39,-2.036,-1.24
 H,0,5.037,-3.302,-2.466
 Recover connectivity data from disk.
 NAtoms=     26 NQM=       26 NQMF=       0 NMMI=      0 NMMIF=      0
                NMic=       0 NMicF=      0.
                    Isotopes and Nuclear Properties:
 (Nuclear quadrupole moments (NQMom) in fm**2, nuclear magnetic moments (NMagM)
  in nuclear magnetons)

  Atom         1           2           3           4           5           6           7           8           9          10
 IAtWgt=          16          32          14          12          14          14          12          14          12          12
 AtmWgt=  15.9949146  31.9720718  14.0030740  12.0000000  14.0030740  14.0030740  12.0000000  14.0030740  12.0000000  12.0000000
 NucSpn=           0           0           2           0           2           2           0           2           0           0
 AtZEff=  -5.6000000 -13.6000000  -4.5500000  -3.6000000  -4.5500000  -4.5500000  -3.6000000  -4.5500000  -3.6000000  -3.6000000
 NQMom=    0.0000000   0.0000000   2.0440000   0.0000000   2.0440000   2.0440000   0.0000000   2.0440000   0.0000000   0.0000000
 NMagM=    0.0000000   0.0000000   0.4037610   0.0000000   0.4037610   0.4037610   0.0000000   0.4037610   0.0000000   0.0000000
 AtZNuc=   8.0000000  16.0000000   7.0000000   6.0000000   7.0000000   7.0000000   6.0000000   7.0000000   6.0000000   6.0000000

  Atom        11          12          13          14          15          16          17          18          19          20
 IAtWgt=          12          12          12          12          12          16           1           1           1           1
 AtmWgt=  12.0000000  12.0000000  12.0000000  12.0000000  12.0000000  15.9949146   1.0078250   1.0078250   1.0078250   1.0078250
 NucSpn=           0           0           0           0           0           0           1           1           1           1
 AtZEff=  -3.6000000  -3.6000000  -3.6000000  -3.6000000  -3.6000000  -5.6000000  -1.0000000  -1.0000000  -1.0000000  -1.0000000
 NQMom=    0.0000000   0.0000000   0.0000000   0.0000000   0.0000000   0.0000000   0.0000000   0.0000000   0.0000000   0.0000000
 NMagM=    0.0000000   0.0000000   0.0000000   0.0000000   0.0000000   0.0000000   2.7928460   2.7928460   2.7928460   2.7928460
 AtZNuc=   6.0000000   6.0000000   6.0000000   6.0000000   6.0000000   8.0000000   1.0000000   1.0000000   1.0000000   1.0000000

  Atom        21          22          23          24          25          26
 IAtWgt=           1           1           1           1           1           1
 AtmWgt=   1.0078250   1.0078250   1.0078250   1.0078250   1.0078250   1.0078250
 NucSpn=           1           1           1           1           1           1
 AtZEff=  -1.0000000  -1.0000000  -1.0000000  -1.0000000  -1.0000000  -1.0000000
 NQMom=    0.0000000   0.0000000   0.0000000   0.0000000   0.0000000   0.0000000
 NMagM=    2.7928460   2.7928460   2.7928460   2.7928460   2.7928460   2.7928460
 AtZNuc=   1.0000000   1.0000000   1.0000000   1.0000000   1.0000000   1.0000000
 Leave Link  101 at Thu Aug  6 21:58:51 2020, MaxMem=    33554432 cpu:         0.1
 (Enter /prod/apps/gaussian/g09d1/l202.exe)
                          Input orientation:                          
 ---------------------------------------------------------------------
 Center     Atomic      Atomic             Coordinates (Angstroms)
 Number     Number       Type             X           Y           Z
 ---------------------------------------------------------------------
      1          8           0        2.216000   -3.471000   -1.964000
      2         16           0        3.068000   -2.318000   -1.632000
      3          7           0        2.751000   -1.759000   -0.049000
      4          6           0        2.281000   -2.669000    0.914000
      5          7           0        3.047000   -3.712000    1.334000
      6          7           0        2.393000   -4.374000    2.254000
      7          6           0        1.093000   -2.680000    1.611000
      8          7           0        1.210000   -3.748000    2.442000
      9          6           0        0.280000   -4.219000    3.413000
     10          6           0       -0.641000   -3.330000    3.970000
     11          6           0       -1.553000   -3.801000    4.913000
     12          6           0       -1.536000   -5.141000    5.304000
     13          6           0       -0.604000   -6.016000    4.743000
     14          6           0        0.306000   -5.564000    3.789000
     15          6           0        4.759000   -2.886000   -1.497000
     16          8           0        3.006000   -1.113000   -2.472000
     17          1           0        2.208000   -0.896000   -0.108000
     18          1           0        0.219000   -2.053000    1.573000
     19          1           0       -0.636000   -2.286000    3.682000
     20          1           0       -2.271000   -3.114000    5.348000
     21          1           0       -2.245000   -5.502000    6.041000
     22          1           0       -0.588000   -7.059000    5.039000
     23          1           0        1.024000   -6.234000    3.336000
     24          1           0        4.796000   -3.650000   -0.720000
     25          1           0        5.390000   -2.036000   -1.240000
     26          1           0        5.037000   -3.302000   -2.466000
 ---------------------------------------------------------------------
                    Distance matrix (angstroms):
                    1          2          3          4          5
     1  O    0.000000
     2  S    1.471576   0.000000
     3  N    2.623813   1.708467   0.000000
     4  C    2.988363   2.687878   1.405834   0.000000
     5  N    3.409611   3.277321   2.411330   1.360516   0.000000
     6  N    4.317205   4.447894   3.502884   2.171444   1.308572
     7  C    3.829809   3.814278   2.520477   1.377416   2.227076
     8  N    4.527869   4.700483   3.540605   2.155473   2.145584
     9  C    5.763656   6.069495   4.913541   3.556895   3.497939
    10  C    6.587464   6.794353   5.488722   4.279502   4.549260
    11  C    7.849038   8.148003   6.878635   5.654466   5.828993
    12  C    8.348067   8.790577   7.646627   6.320789   6.229513
    13  C    7.708001   8.234040   7.234731   5.846954   5.500863
    14  C    6.412937   6.895825   5.931804   4.532910   4.119467
    15  C    2.650880   1.788947   2.720091   3.464173   3.409953
    16  O    2.538174   1.470194   2.520569   3.796282   4.608917
    17  H    3.174181   2.254830   1.021322   2.047765   3.273093
    18  H    4.302221   4.296400   3.021315   2.250685   3.287398
    19  H    6.435483   6.477595   5.066543   4.039480   4.594678
    20  H    8.586382   8.823771   7.495607   6.370172   6.689613
    21  H    9.386453   9.861073   8.721133   7.402479   7.305150
    22  H    8.353333   8.963574   8.070109   6.672247   6.175974
    23  H    6.094673   6.647858   5.870807   4.489472   3.802764
    24  H    2.869839   2.364731   2.864986   3.155557   2.698474
    25  H    3.557763   2.371681   2.908527   3.834878   3.863172
    26  H    2.870297   2.353885   3.667224   4.406884   4.309083
                    6          7          8          9         10
     6  N    0.000000
     7  C    2.230041   0.000000
     8  N    1.351558   1.358261   0.000000
     9  C    2.414969   2.505333   1.424634   0.000000
    10  C    3.638646   2.999023   2.436331   1.395998   0.000000
    11  C    4.792653   4.377346   3.707131   2.405122   1.393856
    12  C    5.032676   5.158140   4.203809   2.779176   2.420806
    13  C    4.227682   4.880382   3.705269   2.404073   2.795263
    14  C    2.850946   3.698717   2.435053   1.396810   2.433172
    15  C    4.677831   4.810578   5.371607   6.778380   7.697092
    16  O    5.774510   4.773463   5.858006   7.191073   7.727552
    17  H    4.208296   2.716771   3.953784   5.211233   5.538162
    18  H    3.252242   1.076313   2.147153   2.842688   2.848849
    19  H    3.946361   2.726485   2.661346   2.155900   1.083007
    20  H    5.737014   5.046783   4.578663   3.387160   2.145330
    21  H    6.093012   6.223410   5.288321   3.863690   3.402858
    22  H    4.883832   5.809698   4.576017   3.385690   3.879563
    23  H    2.550389   3.951114   2.648401   2.149346   3.406963
    24  H    3.891434   4.481815   4.781971   6.148147   7.187452
    25  H    5.162973   5.196840   5.827561   7.247620   8.074125
    26  H    5.515281   5.706483   6.239656   7.617912   8.582690
                   11         12         13         14         15
    11  C    0.000000
    12  C    1.395984   0.000000
    13  C    2.415725   1.396055   0.000000
    14  C    2.797754   2.422213   1.393743   0.000000
    15  C    9.042492   9.537591   8.803197   7.412334   0.000000
    16  O    9.085596   9.865127   9.440749   8.142575   2.677156
    17  H    6.913363   7.831175   7.593019   6.371376   3.520940
    18  H    4.165464   5.151323   5.141167   4.152752   5.543500
    19  H    2.156728   3.404689   3.878098   3.412345   7.502537
    20  H    1.084766   2.156592   3.400958   3.882513   9.814627
    21  H    2.155145   1.084514   2.154502   3.403373  10.617011
    22  H    3.400245   2.155842   1.084307   2.144006   9.419322
    23  H    3.879091   3.408999   2.162766   1.081496   6.965430
    24  H    8.489010   8.865996   8.037557   6.644891   1.090318
    25  H    9.443510  10.021698   9.357603   7.974000   1.089362
    26  H    9.905894  10.342106   9.547584   8.162354   1.090551
                   16         17         18         19         20
    16  O    0.000000
    17  H    2.504474   0.000000
    18  H    5.001299   2.849655   0.000000
    19  H    7.246503   4.938070   2.287618   0.000000
    20  H    9.643813   7.399250   4.645045   2.476765   0.000000
    21  H   10.922797   8.880014   6.158727   4.300746   2.486658
    22  H   10.231660   8.502458   6.142023   4.962387   4.300116
    23  H    7.992861   6.461984   4.608357   4.296745   4.963826
    24  H    3.565105   3.828421   5.362573   7.123533   9.330081
    25  H    2.837818   3.564568   5.886637   7.784681  10.161434
    26  H    2.986087   4.399118   6.409887   8.426926  10.700505
                   21         22         23         24         25
    21  H    0.000000
    22  H    2.484734   0.000000
    23  H    4.305718   2.485835   0.000000
    24  H    9.935628   8.589227   6.111970   0.000000
    25  H   11.104924  10.019623   7.591109   1.796728   0.000000
    26  H   11.412124  10.103499   7.639633   1.796580   1.797343
                   26
    26  H    0.000000
 Stoichiometry    C9H10N4O2S
 Framework group  C1[X(C9H10N4O2S)]
 Deg. of freedom    72
 Full point group                 C1      NOp   1
 RotChk:  IX=0 Diff= 9.99D-15
 Largest Abelian subgroup         C1      NOp   1
 Largest concise Abelian subgroup C1      NOp   1
                         Standard orientation:                         
 ---------------------------------------------------------------------
 Center     Atomic      Atomic             Coordinates (Angstroms)
 Number     Number       Type             X           Y           Z
 ---------------------------------------------------------------------
      1          8           0        2.909091    0.225242    1.637387
      2         16           0        3.460324   -0.188785    0.337287
      3          7           0        2.222053   -0.731861   -0.707037
      4          6           0        0.924359   -0.213506   -0.553196
      5          7           0        0.659088    1.103290   -0.769263
      6          7           0       -0.621457    1.310847   -0.597552
      7          6           0       -0.250758   -0.858212   -0.235822
      8          7           0       -1.187962    0.123545   -0.287559
      9          6           0       -2.591948    0.018173   -0.070073
     10          6           0       -3.229202   -1.206470   -0.277356
     11          6           0       -4.601652   -1.302980   -0.053965
     12          6           0       -5.330226   -0.186040    0.358823
     13          6           0       -4.679588    1.033480    0.554809
     14          6           0       -3.305562    1.143528    0.348746
     15          6           0        4.055420    1.268170   -0.513286
     16          8           0        4.477170   -1.249685    0.292751
     17          1           0        2.260908   -1.751046   -0.760439
     18          1           0       -0.476865   -1.878989    0.019793
     19          1           0       -2.665181   -2.065014   -0.620413
     20          1           0       -5.100990   -2.252756   -0.213041
     21          1           0       -6.398618   -0.265009    0.527564
     22          1           0       -5.238643    1.903981    0.879472
     23          1           0       -2.786560    2.078481    0.510399
     24          1           0        3.216293    1.954045   -0.632601
     25          1           0        4.453626    0.965374   -1.480993
     26          1           0        4.833661    1.709430    0.110357
 ---------------------------------------------------------------------
 Rotational constants (GHZ):      1.7288343      0.1942975      0.1861606
 Leave Link  202 at Thu Aug  6 21:58:51 2020, MaxMem=    33554432 cpu:         0.0
 (Enter /prod/apps/gaussian/g09d1/l301.exe)
 Standard basis: 6-31G(d) (6D, 7F)
 Ernie: Thresh=  0.10000D-02 Tol=  0.10000D-05 Strict=F.
 There are   264 symmetry adapted cartesian basis functions of A   symmetry.
 There are   264 symmetry adapted basis functions of A   symmetry.
   264 basis functions,   512 primitive gaussians,   264 cartesian basis functions
    62 alpha electrons       62 beta electrons
       nuclear repulsion energy      1183.5500634862 Hartrees.
 IExCor=  402 DFT=T Ex+Corr=B3LYP ExCW=0 ScaHFX=  0.200000
 ScaDFX=  0.800000  0.720000  1.000000  0.810000 ScalE2=  1.000000  1.000000
 IRadAn=      0 IRanWt=     -1 IRanGd=            0 ICorTp=0 IEmpDi=  4
 NAtoms=   26 NActive=   26 NUniq=   26 SFac= 1.00D+00 NAtFMM=   60 NAOKFM=F Big=F
 Integral buffers will be    131072 words long.
 Raffenetti 2 integral format.
 Two-electron integral symmetry is turned on.
 Using the following non-standard input for PCM:
 MSTModel=DFT cav g03defaults OFac=0.8 Rmin=0.3
 Warning! Using old PCM defaults because the g03defaults keyword was found.
 These settings can be overridden by following keywords.
 --- end of non-standard input.
 MST model for solvation energy: B3LYP parametrization.
 MST cavity parameters:
 ISph   IAn     Re0     Alpha   Atom Type   QCorr
 ------------------------------------------------
   1      8     1.40     1.25      O          F
   2     16     1.75     1.25      S          F
   3      7     1.50     1.25      NH         F
   4      6     1.50     1.25      C          F
   5      7     1.40     1.25      N          F
   6      7     1.40     1.25      N          F
   7      6     1.50     1.25      CH         F
   8      7     1.40     1.25      N          F
   9      6     1.50     1.25      C          F
  10      6     1.50     1.25      CH         F
  11      6     1.50     1.25      CH         F
  12      6     1.50     1.25      CH         F
  13      6     1.50     1.25      CH         F
  14      6     1.50     1.25      CH         F
  15      6     1.50     1.25      CH3        F
  16      8     1.40     1.25      O          F
  17      1     0.90     1.25      NH         F
  18      1     1.20     1.25      CH         F
  19      1     1.20     1.25      CH         F
  20      1     1.20     1.25      CH         F
  21      1     1.20     1.25      CH         F
  22      1     1.20     1.25      CH         F
  23      1     1.20     1.25      CH         F
  24      1     1.20     1.25      CH3        F
  25      1     1.20     1.25      CH3        F
  26      1     1.20     1.25      CH3        F
 ------------------------------------------------------------------------------
 Polarizable Continuum Model (PCM)
 =================================
 Model                : PCM (using non-symmetric T matrix).
 Atomic radii         : MST.
 Polarization charges : Total charges.
 Charge compensation  : None.
 Solution method      : On-the-fly selection.
 Cavity type          : Scaled SES (Solvent Excluding Surface) (Alpha=1.250).
 Cavity algorithm     : GePol (RMin=0.300 OFac=0.800).
                        Default sphere list used, NSphG=   26.
                        Tesserae with average area of 0.200 Ang**2.
                        Smoothing algorithm: None.
                        Polarization charges: point-like.
                        Self-potential: constant (ISelfS= 1).
                        Self-field    : global E.n sum rule (ISelfD= 3).
 Solvent              : Water, Eps=  78.355300 Eps(inf)=   1.777849
                        RSolv=   1.385000 Ang.
 ------------------------------------------------------------------------------
 GePol: Number of generator spheres                  =      26
 GePol: Total number of spheres                      =      56
 GePol: Number of exposed spheres                    =      54 ( 96.43%)
 GePol: Number of tesserae                           =    2100
 GePol: Average area of tesserae                     =       0.13 Ang**2
 GePol: Minimum area of tessera                      =   0.10D-02 Ang**2
 GePol: Maximum area of tessera                      =    0.30575 Ang**2
 GePol: Number of small tesserae                     =      13
 GePol: Fraction of small tesserae (<1% of avg)      =       0.62%
 GePol: Total count of vertices                      =    7335
 GePol: Maximum number of vertices in a tessera      =       7
 GePol: Cavity surface area                          =    266.175 Ang**2
 GePol: Cavity volume                                =    258.426 Ang**3
 PCM non-electrostatic energy =         0.0029778798 Hartrees.
 Nuclear repulsion after PCM non-electrostatic terms =     1183.5530413660 Hartrees.
 Leave Link  301 at Thu Aug  6 21:58:51 2020, MaxMem=    33554432 cpu:         0.1
 (Enter /prod/apps/gaussian/g09d1/l302.exe)
 NPDir=0 NMtPBC=     1 NCelOv=     1 NCel=       1 NClECP=     1 NCelD=      1
         NCelK=      1 NCelE2=     1 NClLst=     1 CellRange=     0.0.
 One-electron integrals computed using PRISM.
 NBasis=   264 RedAO= T EigKep=  4.68D-04  NBF=   264
 NBsUse=   264 1.00D-06 EigRej= -1.00D+00 NBFU=   264
 Precomputing XC quadrature grid using
 IXCGrd= 4 IRadAn=           0 IRanWt=          -1 IRanGd=           0 AccXCQ= 0.00D+00.
 Generated NRdTot=       0 NPtTot=           0 NUsed=           0 NTot=          32
 NSgBfM=   262   262   262   262   262 MxSgAt=    26 MxSgA2=    26.
 Leave Link  302 at Thu Aug  6 21:58:52 2020, MaxMem=    33554432 cpu:         0.7
 (Enter /prod/apps/gaussian/g09d1/l303.exe)
 DipDrv:  MaxL=1.
 Leave Link  303 at Thu Aug  6 21:58:52 2020, MaxMem=    33554432 cpu:         0.0
 (Enter /prod/apps/gaussian/g09d1/l401.exe)
 Initial guess from the checkpoint file:  "SM44.n.7.pdb.xyz.mst.n.w.chk"
 B after Tr=     0.000000    0.000000    0.000000
         Rot=    1.000000    0.000000    0.000000    0.000000 Ang=   0.00 deg.
 Guess basis will be translated and rotated to current coordinates.
 JPrj=2 DoOrth=T DoCkMO=T.
 Leave Link  401 at Thu Aug  6 21:58:52 2020, MaxMem=    33554432 cpu:         0.2
 (Enter /dades/curu/work_g09D01_MST_AddSphPartition_ReadGammas/exe-dir/l502.exe)
 Closed shell SCF:
 Using DIIS extrapolation, IDIIS=  1040.
 Integral symmetry usage will be decided dynamically.
 IVT=      231207 IEndB=      231207 NGot=    33554432 MDV=    33409826
 LenX=    33409826 LenY=    33339689
 Requested convergence on RMS density matrix=1.00D-08 within 128 cycles.
 Requested convergence on MAX density matrix=1.00D-06.
 Requested convergence on             energy=1.00D-06.
 No special actions if energy rises.
 Fock matrices will be formed incrementally for  20 cycles.

 Cycle   1  Pass 1  IDiag  1:
 FoFJK:  IHMeth= 1 ICntrl=       0 DoSepK=F KAlg= 0 I1Cent=   0 FoldK=F
 IRaf= 750000000 NMat=   1 IRICut=       1 DoRegI=T DoRafI=F ISym2E= 0.
 FoFCou: FMM=F IPFlag=           0 FMFlag=      100000 FMFlg1=           0
         NFxFlg=           0 DoJE=F BraDBF=F KetDBF=F FulRan=T
         wScrn=  0.000000 ICntrl=       0 IOpCl=  0 I1Cent=           0 NGrid=           0
         NMat0=    1 NMatS0=      1 NMatT0=    0 NMatD0=    1 NMtDS0=    0 NMtDT0=    0
 Symmetry not used in FoFCou.
 Inv3:  Mode=1 IEnd=    13230000.
 Iteration    1 A*A^-1 deviation from unit magnitude is 6.22D-15 for   2087.
 Iteration    1 A*A^-1 deviation from orthogonality  is 2.28D-15 for   2099   1771.
 Iteration    1 A^-1*A deviation from unit magnitude is 6.33D-15 for   2071.
 Iteration    1 A^-1*A deviation from orthogonality  is 2.00D-15 for   2088   1325.
 E= -1116.53351545558    
 DIIS: error= 2.42D-03 at cycle   1 NSaved=   1.
 NSaved= 1 IEnMin= 1 EnMin= -1116.53351545558     IErMin= 1 ErrMin= 2.42D-03
 ErrMax= 2.42D-03  0.00D+00 EMaxC= 1.00D-01 BMatC= 1.61D-03 BMatP= 1.61D-03
 IDIUse=3 WtCom= 9.76D-01 WtEn= 2.42D-02
 Coeff-Com:  0.100D+01
 Coeff-En:   0.100D+01
 Coeff:      0.100D+01
 Gap=     0.195 Goal=   None    Shift=    0.000
 GapD=    0.195 DampG=1.000 DampE=1.000 DampFc=1.0000 IDamp=-1.
 RMSDP=7.55D-04 MaxDP=1.74D-02              OVMax= 3.98D-02

 Cycle   2  Pass 1  IDiag  1:
 RMSU=  7.50D-04    CP:  9.96D-01
 E= -1116.53565807852     Delta-E=       -0.002142622940 Rises=F Damp=F
 DIIS: error= 1.89D-03 at cycle   2 NSaved=   2.
 NSaved= 2 IEnMin= 2 EnMin= -1116.53565807852     IErMin= 2 ErrMin= 1.89D-03
 ErrMax= 1.89D-03  0.00D+00 EMaxC= 1.00D-01 BMatC= 2.31D-03 BMatP= 1.61D-03
 IDIUse=3 WtCom= 1.87D-01 WtEn= 8.13D-01
 Coeff-Com:  0.564D+00 0.436D+00
 Coeff-En:   0.171D+00 0.829D+00
 Coeff:      0.244D+00 0.756D+00
 Gap=     0.196 Goal=   None    Shift=    0.000
 RMSDP=3.95D-04 MaxDP=1.50D-02 DE=-2.14D-03 OVMax= 3.07D-02

 Cycle   3  Pass 1  IDiag  1:
 RMSU=  3.28D-04    CP:  9.97D-01  7.08D-01
 E= -1116.53487702418     Delta-E=        0.000781054343 Rises=F Damp=F
 DIIS: error= 2.32D-03 at cycle   3 NSaved=   3.
 NSaved= 3 IEnMin= 2 EnMin= -1116.53565807852     IErMin= 2 ErrMin= 1.89D-03
 ErrMax= 2.32D-03  0.00D+00 EMaxC= 1.00D-01 BMatC= 3.30D-03 BMatP= 1.61D-03
 IDIUse=3 WtCom= 1.72D-01 WtEn= 8.28D-01
 Coeff-Com:  0.695D-01 0.517D+00 0.413D+00
 Coeff-En:   0.000D+00 0.561D+00 0.439D+00
 Coeff:      0.120D-01 0.554D+00 0.434D+00
 Gap=     0.195 Goal=   None    Shift=    0.000
 RMSDP=1.97D-04 MaxDP=8.49D-03 DE= 7.81D-04 OVMax= 1.75D-02

 Cycle   4  Pass 1  IDiag  1:
 RMSU=  6.31D-05    CP:  9.96D-01  8.63D-01  5.58D-01
 E= -1116.53774453531     Delta-E=       -0.002867511132 Rises=F Damp=F
 DIIS: error= 1.77D-04 at cycle   4 NSaved=   4.
 NSaved= 4 IEnMin= 4 EnMin= -1116.53774453531     IErMin= 4 ErrMin= 1.77D-04
[...]
   21      H21     12.15  -0.041   -0.35
   22      H22     12.13  -0.043   -0.33
   23      H23      9.90  -0.035   -0.16
   24      H24      9.13  -0.039   -0.10
   25      H25     11.11  -0.059   -0.33
   26      H26     12.75  -0.072   -0.35
 Added spheres:    29.39  -0.069    0.00
 --------------------------------------------------------------------
 After PCM corrections, the energy is  -1116.53777113     a.u.
 --------------------------------------------------------------------
 Leave Link  502 at Thu Aug  6 22:01:00 2020, MaxMem=    33554432 cpu:       128.1
 (Enter /prod/apps/gaussian/g09d1/l601.exe)
 Copying SCF densities to generalized density rwf, IOpCl= 0 IROHF=0.

 **********************************************************************

            Population analysis using the SCF density.

 **********************************************************************

 Orbital symmetries:
       Occupied  (A) (A) (A) (A) (A) (A) (A) (A) (A) (A) (A) (A)
                 (A) (A) (A) (A) (A) (A) (A) (A) (A) (A) (A) (A)
                 (A) (A) (A) (A) (A) (A) (A) (A) (A) (A) (A) (A)
                 (A) (A) (A) (A) (A) (A) (A) (A) (A) (A) (A) (A)
                 (A) (A) (A) (A) (A) (A) (A) (A) (A) (A) (A) (A)
                 (A) (A)
       Virtual   (A) (A) (A) (A) (A) (A) (A) (A) (A) (A) (A) (A)
                 (A) (A) (A) (A) (A) (A) (A) (A) (A) (A) (A) (A)
                 (A) (A) (A) (A) (A) (A) (A) (A) (A) (A) (A) (A)
                 (A) (A) (A) (A) (A) (A) (A) (A) (A) (A) (A) (A)
                 (A) (A) (A) (A) (A) (A) (A) (A) (A) (A) (A) (A)
                 (A) (A) (A) (A) (A) (A) (A) (A) (A) (A) (A) (A)
                 (A) (A) (A) (A) (A) (A) (A) (A) (A) (A) (A) (A)
                 (A) (A) (A) (A) (A) (A) (A) (A) (A) (A) (A) (A)
                 (A) (A) (A) (A) (A) (A) (A) (A) (A) (A) (A) (A)
                 (A) (A) (A) (A) (A) (A) (A) (A) (A) (A) (A) (A)
                 (A) (A) (A) (A) (A) (A) (A) (A) (A) (A) (A) (A)
                 (A) (A) (A) (A) (A) (A) (A) (A) (A) (A) (A) (A)
                 (A) (A) (A) (A) (A) (A) (A) (A) (A) (A) (A) (A)
                 (A) (A) (A) (A) (A) (A) (A) (A) (A) (A) (A) (A)
                 (A) (A) (A) (A) (A) (A) (A) (A) (A) (A) (A) (A)
                 (A) (A) (A) (A) (A) (A) (A) (A) (A) (A) (A) (A)
                 (A) (A) (A) (A) (A) (A) (A) (A) (A) (A)
 The electronic state is 1-A.
 Alpha  occ. eigenvalues --  -89.12657 -19.15844 -19.15805 -14.44776 -14.40576
 Alpha  occ. eigenvalues --  -14.38509 -14.37239 -10.26668 -10.25210 -10.24401
 Alpha  occ. eigenvalues --  -10.22391 -10.20769 -10.20503 -10.20294 -10.20221
 Alpha  occ. eigenvalues --  -10.19976  -8.15261  -6.11777  -6.11684  -6.11508
 Alpha  occ. eigenvalues --   -1.12385  -1.11481  -1.01319  -0.95970  -0.93017
 Alpha  occ. eigenvalues --   -0.86197  -0.81413  -0.77829  -0.76549  -0.75956
 Alpha  occ. eigenvalues --   -0.66993  -0.66435  -0.63239  -0.61059  -0.58675
 Alpha  occ. eigenvalues --   -0.56543  -0.53343  -0.52726  -0.49962  -0.49525
 Alpha  occ. eigenvalues --   -0.49007  -0.48182  -0.47332  -0.45561  -0.44529
 Alpha  occ. eigenvalues --   -0.43839  -0.43449  -0.43325  -0.39075  -0.37520
 Alpha  occ. eigenvalues --   -0.36562  -0.36170  -0.35655  -0.34818  -0.32978
 Alpha  occ. eigenvalues --   -0.32647  -0.31697  -0.31140  -0.29426  -0.26596
 Alpha  occ. eigenvalues --   -0.26281  -0.24053
 Alpha virt. eigenvalues --   -0.04550  -0.01567   0.01139   0.02285   0.06283
 Alpha virt. eigenvalues --    0.07347   0.08786   0.09216   0.10442   0.11598
 Alpha virt. eigenvalues --    0.11946   0.12949   0.14936   0.15077   0.15415
 Alpha virt. eigenvalues --    0.15902   0.16619   0.18395   0.19133   0.20187
 Alpha virt. eigenvalues --    0.21538   0.23300   0.24736   0.29325   0.30539
 Alpha virt. eigenvalues --    0.31379   0.33128   0.34022   0.35180   0.36789
 Alpha virt. eigenvalues --    0.40607   0.41571   0.42491   0.44507   0.47788
 Alpha virt. eigenvalues --    0.49014   0.49390   0.51375   0.51465   0.52392
 Alpha virt. eigenvalues --    0.53886   0.54156   0.55657   0.57048   0.57530
 Alpha virt. eigenvalues --    0.58071   0.58551   0.59726   0.60552   0.60630
 Alpha virt. eigenvalues --    0.61073   0.61908   0.63107   0.64022   0.66416
 Alpha virt. eigenvalues --    0.67810   0.69039   0.69667   0.71186   0.72760
 Alpha virt. eigenvalues --    0.74565   0.77424   0.77789   0.78753   0.79612
 Alpha virt. eigenvalues --    0.80370   0.82227   0.83707   0.83821   0.84010
 Alpha virt. eigenvalues --    0.85373   0.85963   0.87046   0.87749   0.88708
 Alpha virt. eigenvalues --    0.89111   0.90346   0.92480   0.93669   0.94442
 Alpha virt. eigenvalues --    0.96195   0.96587   0.97345   1.00003   1.00457
 Alpha virt. eigenvalues --    1.01205   1.01740   1.04520   1.05645   1.06226
 Alpha virt. eigenvalues --    1.09043   1.11092   1.12547   1.13516   1.15014
 Alpha virt. eigenvalues --    1.15981   1.18068   1.18656   1.19850   1.21462
 Alpha virt. eigenvalues --    1.25202   1.27016   1.31076   1.33764   1.35965
 Alpha virt. eigenvalues --    1.37636   1.41325   1.41692   1.43008   1.43829
 Alpha virt. eigenvalues --    1.45482   1.47005   1.47873   1.49718   1.50798
 Alpha virt. eigenvalues --    1.52230   1.57101   1.58972   1.61390   1.64954
 Alpha virt. eigenvalues --    1.68215   1.69849   1.73312   1.77630   1.78724
 Alpha virt. eigenvalues --    1.79199   1.79483   1.80389   1.82352   1.82441
 Alpha virt. eigenvalues --    1.83675   1.85005   1.87729   1.88389   1.91287
 Alpha virt. eigenvalues --    1.94206   1.95987   1.96616   2.01901   2.03970
 Alpha virt. eigenvalues --    2.05870   2.07061   2.07711   2.09468   2.10643
 Alpha virt. eigenvalues --    2.11286   2.13271   2.13644   2.14505   2.16870
 Alpha virt. eigenvalues --    2.18855   2.20702   2.23009   2.23387   2.24732
 Alpha virt. eigenvalues --    2.26423   2.27749   2.28898   2.29604   2.31339
 Alpha virt. eigenvalues --    2.32318   2.37577   2.37968   2.48002   2.50898
 Alpha virt. eigenvalues --    2.53782   2.56240   2.57913   2.58776   2.63353
 Alpha virt. eigenvalues --    2.64037   2.66996   2.69649   2.70875   2.72167
 Alpha virt. eigenvalues --    2.73894   2.76677   2.78324   2.80766   2.85654
 Alpha virt. eigenvalues --    2.88751   3.00706   3.05898   3.13038   3.25381
 Alpha virt. eigenvalues --    3.42086   3.60736   3.76997   3.87211   3.95905
 Alpha virt. eigenvalues --    4.00390   4.03630   4.07708   4.09346   4.10504
 Alpha virt. eigenvalues --    4.14651   4.19380   4.22655   4.31605   4.38562
 Alpha virt. eigenvalues --    4.46617   4.70843
          Condensed to atoms (all electrons):
               1          2          3          4          5          6
     1  O    8.273940   0.432846  -0.057551   0.012082  -0.001927  -0.000058
     2  S    0.432846  13.631966   0.114811  -0.006416  -0.002495  -0.000091
     3  N   -0.057551   0.114811   7.413262   0.251437  -0.058188   0.005864
     4  C    0.012082  -0.006416   0.251437   4.606191   0.358497  -0.074945
     5  N   -0.001927  -0.002495  -0.058188   0.358497   6.915813   0.288731
     6  N   -0.000058  -0.000091   0.005864  -0.074945   0.288731   6.781686
     7  C    0.000402  -0.000478  -0.072420   0.525022  -0.063545  -0.104496
     8  N   -0.000023   0.000091   0.003243  -0.036612  -0.093049   0.228097
     9  C    0.000000  -0.000022  -0.000117   0.004456   0.006376  -0.043111
    10  C    0.000000   0.000001   0.000004   0.001018  -0.000315   0.002955
    11  C    0.000000   0.000000   0.000000  -0.000008   0.000002  -0.000068
    12  C    0.000000   0.000000   0.000000   0.000000   0.000000   0.000017
    13  C    0.000000   0.000000   0.000000   0.000006  -0.000004   0.000287
    14  C    0.000000   0.000000   0.000000  -0.000425   0.000327  -0.000078
    15  C   -0.058021   0.242115  -0.053203  -0.008941  -0.003880   0.000157
    16  O   -0.044261   0.451294  -0.049417   0.001297  -0.000030   0.000000
    17  H   -0.000227  -0.010651   0.302178  -0.021766   0.002290  -0.000095
    18  H    0.000015   0.000010  -0.000850  -0.024602   0.003987   0.003518
    19  H    0.000000   0.000000   0.000000   0.000054  -0.000007  -0.000090
    20  H    0.000000   0.000000   0.000000   0.000000   0.000000   0.000001
    21  H    0.000000   0.000000   0.000000   0.000000   0.000000   0.000000
    22  H    0.000000   0.000000   0.000000   0.000000   0.000000  -0.000008
    23  H    0.000000   0.000000   0.000000   0.000040  -0.000333   0.015568
    24  H   -0.000700  -0.002005  -0.001783  -0.000579   0.013848  -0.000309
    25  H    0.001848  -0.007051   0.000748   0.000307  -0.000045  -0.000001
    26  H    0.000183  -0.017742   0.002437   0.000132   0.000110  -0.000001
               7          8          9         10         11         12
     1  O    0.000402  -0.000023   0.000000   0.000000   0.000000   0.000000
     2  S   -0.000478   0.000091  -0.000022   0.000001   0.000000   0.000000
     3  N   -0.072420   0.003243  -0.000117   0.000004   0.000000   0.000000
     4  C    0.525022  -0.036612   0.004456   0.001018  -0.000008   0.000000
     5  N   -0.063545  -0.093049   0.006376  -0.000315   0.000002   0.000000
     6  N   -0.104496   0.228097  -0.043111   0.002955  -0.000068   0.000017
     7  C    5.010808   0.331488  -0.032059  -0.006644   0.000012   0.000019
     8  N    0.331488   6.877116   0.199126  -0.050610   0.004708   0.000339
     9  C   -0.032059   0.199126   4.626525   0.528776  -0.009923  -0.038217
    10  C   -0.006644  -0.050610   0.528776   4.992951   0.527204  -0.041132
    11  C    0.000012   0.004708  -0.009923   0.527204   4.864537   0.543977
    12  C    0.000019   0.000339  -0.038217  -0.041132   0.543977   4.871049
    13  C   -0.000086   0.004554  -0.010683  -0.042145  -0.024768   0.539808
    14  C    0.007238  -0.058992   0.513567  -0.071013  -0.041378  -0.039515
    15  C   -0.000200  -0.000008   0.000000   0.000000   0.000000   0.000000
    16  O   -0.000008   0.000000   0.000000   0.000000   0.000000   0.000000
    17  H   -0.002171  -0.000002   0.000001   0.000000   0.000000   0.000000
    18  H    0.362065  -0.034544  -0.001799   0.002119   0.000167  -0.000001
    19  H    0.005997  -0.009203  -0.039733   0.353900  -0.034543   0.004292
    20  H   -0.000004  -0.000109   0.003438  -0.037477   0.363336  -0.039382
    21  H    0.000000   0.000003   0.000475   0.004876  -0.041131   0.365844
    22  H    0.000001  -0.000104   0.003540   0.000711   0.004471  -0.039934
    23  H    0.000220  -0.013299  -0.039520   0.005470   0.000090   0.004511
    24  H    0.000169   0.000033  -0.000001   0.000000   0.000000   0.000000
    25  H    0.000000   0.000000   0.000000   0.000000   0.000000   0.000000
    26  H    0.000005   0.000000   0.000000   0.000000   0.000000   0.000000
              13         14         15         16         17         18
     1  O    0.000000   0.000000  -0.058021  -0.044261  -0.000227   0.000015
     2  S    0.000000   0.000000   0.242115   0.451294  -0.010651   0.000010
     3  N    0.000000   0.000000  -0.053203  -0.049417   0.302178  -0.000850
     4  C    0.000006  -0.000425  -0.008941   0.001297  -0.021766  -0.024602
     5  N   -0.000004   0.000327  -0.003880  -0.000030   0.002290   0.003987
     6  N    0.000287  -0.000078   0.000157   0.000000  -0.000095   0.003518
     7  C   -0.000086   0.007238  -0.000200  -0.000008  -0.002171   0.362065
     8  N    0.004554  -0.058992  -0.000008   0.000000  -0.000002  -0.034544
     9  C   -0.010683   0.513567   0.000000   0.000000   0.000001  -0.001799
    10  C   -0.042145  -0.071013   0.000000   0.000000   0.000000   0.002119
    11  C   -0.024768  -0.041378   0.000000   0.000000   0.000000   0.000167
    12  C    0.539808  -0.039515   0.000000   0.000000   0.000000  -0.000001
    13  C    4.880102   0.519079   0.000000   0.000000   0.000000  -0.000004
    14  C    0.519079   4.996658   0.000000   0.000000   0.000000  -0.000097
    15  C    0.000000   0.000000   5.536429  -0.057562   0.002376   0.000000
    16  O    0.000000   0.000000  -0.057562   8.263570   0.004196  -0.000001
    17  H    0.000000   0.000000   0.002376   0.004196   0.300374   0.000952
    18  H   -0.000004  -0.000097   0.000000  -0.000001   0.000952   0.459713
    19  H    0.000208   0.005262   0.000000   0.000000   0.000001   0.001538
    20  H    0.004423   0.000732   0.000000   0.000000   0.000000  -0.000001
    21  H   -0.041384   0.004667   0.000000   0.000000   0.000000   0.000000
    22  H    0.363807  -0.037719   0.000000   0.000000   0.000000   0.000000
    23  H   -0.037898   0.356968   0.000000   0.000000   0.000000  -0.000010
    24  H    0.000000   0.000000   0.328265   0.001627  -0.000057  -0.000001
    25  H    0.000000   0.000000   0.343106  -0.000103  -0.000027   0.000000
    26  H    0.000000   0.000000   0.353715  -0.000390  -0.000047   0.000000
              19         20         21         22         23         24
     1  O    0.000000   0.000000   0.000000   0.000000   0.000000  -0.000700
     2  S    0.000000   0.000000   0.000000   0.000000   0.000000  -0.002005
     3  N    0.000000   0.000000   0.000000   0.000000   0.000000  -0.001783
     4  C    0.000054   0.000000   0.000000   0.000000   0.000040  -0.000579
     5  N   -0.000007   0.000000   0.000000   0.000000  -0.000333   0.013848
     6  N   -0.000090   0.000001   0.000000  -0.000008   0.015568  -0.000309
     7  C    0.005997  -0.000004   0.000000   0.000001   0.000220   0.000169
     8  N   -0.009203  -0.000109   0.000003  -0.000104  -0.013299   0.000033
     9  C   -0.039733   0.003438   0.000475   0.003540  -0.039520  -0.000001
    10  C    0.353900  -0.037477   0.004876   0.000711   0.005470   0.000000
    11  C   -0.034543   0.363336  -0.041131   0.004471   0.000090   0.000000
    12  C    0.004292  -0.039382   0.365844  -0.039934   0.004511   0.000000
    13  C    0.000208   0.004423  -0.041384   0.363807  -0.037898   0.000000
    14  C    0.005262   0.000732   0.004667  -0.037719   0.356968   0.000000
    15  C    0.000000   0.000000   0.000000   0.000000   0.000000   0.328265
    16  O    0.000000   0.000000   0.000000   0.000000   0.000000   0.001627
    17  H    0.000001   0.000000   0.000000   0.000000   0.000000  -0.000057
    18  H    0.001538  -0.000001   0.000000   0.000000  -0.000010  -0.000001
    19  H    0.542548  -0.005072  -0.000144   0.000013  -0.000129   0.000000
    20  H   -0.005072   0.550058  -0.005040  -0.000164   0.000013   0.000000
    21  H   -0.000144  -0.005040   0.556225  -0.005083  -0.000134   0.000000
    22  H    0.000013  -0.000164  -0.005083   0.551039  -0.005099   0.000000
    23  H   -0.000129   0.000013  -0.000134  -0.005099   0.538238   0.000000
    24  H    0.000000   0.000000   0.000000   0.000000   0.000000   0.462061
    25  H    0.000000   0.000000   0.000000   0.000000   0.000000  -0.020160
    26  H    0.000000   0.000000   0.000000   0.000000   0.000000  -0.015146
              25         26
     1  O    0.001848   0.000183
     2  S   -0.007051  -0.017742
     3  N    0.000748   0.002437
     4  C    0.000307   0.000132
     5  N   -0.000045   0.000110
     6  N   -0.000001  -0.000001
     7  C    0.000000   0.000005
     8  N    0.000000   0.000000
     9  C    0.000000   0.000000
    10  C    0.000000   0.000000
    11  C    0.000000   0.000000
    12  C    0.000000   0.000000
    13  C    0.000000   0.000000
    14  C    0.000000   0.000000
    15  C    0.343106   0.353715
    16  O   -0.000103  -0.000390
    17  H   -0.000027  -0.000047
    18  H    0.000000   0.000000
    19  H    0.000000   0.000000
    20  H    0.000000   0.000000
    21  H    0.000000   0.000000
    22  H    0.000000   0.000000
    23  H    0.000000   0.000000
    24  H   -0.020160  -0.015146
    25  H    0.468743  -0.017117
    26  H   -0.017117   0.459915
 Mulliken charges:
               1
     1  O   -0.558549
     2  S    1.173816
     3  N   -0.800457
     4  C    0.413757
     5  N   -0.366163
     6  N   -0.103531
     7  C    0.038664
     8  N   -0.352247
     9  C    0.328905
    10  C   -0.170650
    11  C   -0.156684
    12  C   -0.131676
    13  C   -0.155301
    14  C   -0.155282
    15  C   -0.624348
    16  O   -0.570211
    17  H    0.422675
    18  H    0.227829
    19  H    0.175107
    20  H    0.165250
    21  H    0.160826
    22  H    0.164528
    23  H    0.175304
    24  H    0.234737
    25  H    0.229754
    26  H    0.233946
 Sum of Mulliken charges =   0.00000
 Mulliken charges with hydrogens summed into heavy atoms:
               1
     1  O   -0.558549
     2  S    1.173816
     3  N   -0.377782
     4  C    0.413757
     5  N   -0.366163
     6  N   -0.103531
     7  C    0.266494
     8  N   -0.352247
     9  C    0.328905
    10  C    0.004457
    11  C    0.008566
    12  C    0.029151
    13  C    0.009227
    14  C    0.020023
    15  C    0.074089
    16  O   -0.570211
 Electronic spatial extent (au):  <R**2>=           5582.5973
 Charge=              0.0000 electrons
 Dipole moment (field-independent basis, Debye):
    X=             -5.3143    Y=             -2.8989    Z=             -2.3371  Tot=              6.4890
 Quadrupole moment (field-independent basis, Debye-Ang):
   XX=            -87.6105   YY=            -90.8485   ZZ=           -106.5469
   XY=             13.3089   XZ=            -13.3191   YZ=              5.0143
 Traceless Quadrupole moment (field-independent basis, Debye-Ang):
   XX=              7.3915   YY=              4.1535   ZZ=            -11.5450
   XY=             13.3089   XZ=            -13.3191   YZ=              5.0143
 Octapole moment (field-independent basis, Debye-Ang**2):
  XXX=           -107.3244  YYY=            -21.3125  ZZZ=             -5.0016  XYY=             -2.3299
  XXY=             59.0387  XXZ=            -23.2462  XZZ=              9.6295  YZZ=             -3.0562
  YYZ=              1.4869  XYZ=             -7.2551
 Hexadecapole moment (field-independent basis, Debye-Ang**3):
 XXXX=          -5870.8586 YYYY=           -588.0667 ZZZZ=           -326.7677 XXXY=            347.5942
 XXXZ=           -210.1260 YYYX=             11.0512 YYYZ=             26.8520 ZZZX=             -7.8399
 ZZZY=             -0.7098 XXYY=          -1077.2037 XXZZ=          -1186.1780 YYZZ=           -159.8059
 XXYZ=             45.0015 YYXZ=            -11.5014 ZZXY=            -11.1314
 N-N= 1.183553041366D+03 E-N=-4.984324351565D+03  KE= 1.108364239052D+03
 No NMR shielding tensors so no spin-rotation constants.
 Leave Link  601 at Thu Aug  6 22:01:00 2020, MaxMem=    33554432 cpu:         0.2
 (Enter /prod/apps/gaussian/g09d1/l9999.exe)
 1\1\GINC-PIRINEUS21\SP\RB3LYP\6-31G(d)\C9H10N4O2S1\UBAFAR01\06-Aug-202
 0\0\\#p b3lyp/6-31G(d) scrf=(iefpcm,read,solvent=Water) geom=allcheck 
 guess=read\\SM44.n.7.pdb.xyz\\0,1\O,0,2.216,-3.471,-1.964\S,0,3.068,-2
 .318,-1.632\N,0,2.751,-1.759,-0.049\C,0,2.281,-2.669,0.914\N,0,3.047,-
 3.712,1.334\N,0,2.393,-4.374,2.254\C,0,1.093,-2.68,1.611\N,0,1.21,-3.7
 48,2.442\C,0,0.28,-4.219,3.413\C,0,-0.641,-3.33,3.97\C,0,-1.553,-3.801
 ,4.913\C,0,-1.536,-5.141,5.304\C,0,-0.604,-6.016,4.743\C,0,0.306,-5.56
 4,3.789\C,0,4.759,-2.886,-1.497\O,0,3.006,-1.113,-2.472\H,0,2.208,-0.8
 96,-0.108\H,0,0.219,-2.053,1.573\H,0,-0.636,-2.286,3.682\H,0,-2.271,-3
 .114,5.348\H,0,-2.245,-5.502,6.041\H,0,-0.588,-7.059,5.039\H,0,1.024,-
 6.234,3.336\H,0,4.796,-3.65,-0.72\H,0,5.39,-2.036,-1.24\H,0,5.037,-3.3
 02,-2.466\\Version=AM64L-G09RevD.01\State=1-A\HF=-1116.5377711\RMSD=3.
 967e-09\Dipole=-1.1893934,0.7079609,2.1451859\Quadrupole=9.0161569,1.4
 757899,-10.4919468,-0.191211,-12.8444926,2.1852326\PG=C01 [X(C9H10N4O2
 S1)]\\@


 A great many people think they are thinking when they
 are merely rearranging their prejudices.
                               -- William James
 Job cpu time:       0 days  0 hours  2 minutes  9.5 seconds.
 File lengths (MBytes):  RWF=    113 Int=      0 D2E=      0 Chk=      5 Scr=      1
 Normal termination of Gaussian 09 at Thu Aug  6 22:01:01 2020.
