 Entering Gaussian System, Link 0=g09
 Initial command:
 /prod/apps/gaussian/g09d1/l1.exe "/tmp/ubafar01/1448666/Gau-165012.inp" -scrdir="/tmp/ubafar01/1448666/"
 Entering Link 1 = /prod/apps/gaussian/g09d1/l1.exe PID=    165013.
  
 Copyright (c) 1988,1990,1992,1993,1995,1998,2003,2009,2013,
            Gaussian, Inc.  All Rights Reserved.
  
 This is part of the Gaussian(R) 09 program.  It is based on
 the Gaussian(R) 03 system (copyright 2003, Gaussian, Inc.),
 the Gaussian(R) 98 system (copyright 1998, Gaussian, Inc.),
 the Gaussian(R) 94 system (copyright 1995, Gaussian, Inc.),
 the Gaussian 92(TM) system (copyright 1992, Gaussian, Inc.),
 the Gaussian 90(TM) system (copyright 1990, Gaussian, Inc.),
 the Gaussian 88(TM) system (copyright 1988, Gaussian, Inc.),
 the Gaussian 86(TM) system (copyright 1986, Carnegie Mellon
 University), and the Gaussian 82(TM) system (copyright 1983,
 Carnegie Mellon University). Gaussian is a federally registered
 trademark of Gaussian, Inc.
  
 This software contains proprietary and confidential information,
 including trade secrets, belonging to Gaussian, Inc.
  
 This software is provided under written license and may be
 used, copied, transmitted, or stored only in accord with that
 written license.
  
 The following legend is applicable only to US Government
 contracts under FAR:
  
                    RESTRICTED RIGHTS LEGEND
  
 Use, reproduction and disclosure by the US Government is
 subject to restrictions as set forth in subparagraphs (a)
 and (c) of the Commercial Computer Software - Restricted
 Rights clause in FAR 52.227-19.
  
 Gaussian, Inc.
 340 Quinnipiac St., Bldg. 40, Wallingford CT 06492
  
  
 ---------------------------------------------------------------
 Warning -- This program may not be used in any manner that
 competes with the business of Gaussian, Inc. or will provide
 assistance to any competitor of Gaussian, Inc.  The licensee
 of this program is prohibited from giving any competitor of
 Gaussian, Inc. access to this program.  By using this program,
 the user acknowledges that Gaussian, Inc. is engaged in the
 business of creating and licensing software in the field of
 computational chemistry and represents and warrants to the
 licensee that it is not a competitor of Gaussian, Inc. and that
 it will not use this program in any manner prohibited above.
 ---------------------------------------------------------------
  

 Cite this work as:
 Gaussian 09, Revision D.01,
 M. J. Frisch, G. W. Trucks, H. B. Schlegel, G. E. Scuseria, 
 M. A. Robb, J. R. Cheeseman, G. Scalmani, V. Barone, B. Mennucci, 
 G. A. Petersson, H. Nakatsuji, M. Caricato, X. Li, H. P. Hratchian, 
 A. F. Izmaylov, J. Bloino, G. Zheng, J. L. Sonnenberg, M. Hada, 
 M. Ehara, K. Toyota, R. Fukuda, J. Hasegawa, M. Ishida, T. Nakajima, 
 Y. Honda, O. Kitao, H. Nakai, T. Vreven, J. A. Montgomery, Jr., 
 J. E. Peralta, F. Ogliaro, M. Bearpark, J. J. Heyd, E. Brothers, 
 K. N. Kudin, V. N. Staroverov, T. Keith, R. Kobayashi, J. Normand, 
 K. Raghavachari, A. Rendell, J. C. Burant, S. S. Iyengar, J. Tomasi, 
 M. Cossi, N. Rega, J. M. Millam, M. Klene, J. E. Knox, J. B. Cross, 
 V. Bakken, C. Adamo, J. Jaramillo, R. Gomperts, R. E. Stratmann, 
 O. Yazyev, A. J. Austin, R. Cammi, C. Pomelli, J. W. Ochterski, 
 R. L. Martin, K. Morokuma, V. G. Zakrzewski, G. A. Voth, 
 P. Salvador, J. J. Dannenberg, S. Dapprich, A. D. Daniels, 
 O. Farkas, J. B. Foresman, J. V. Ortiz, J. Cioslowski, 
 and D. J. Fox, Gaussian, Inc., Wallingford CT, 2013.
 
 ******************************************
 Gaussian 09:  AM64L-G09RevD.01 24-Apr-2013
                 6-Aug-2020 
 ******************************************
 %nproc=1
 Will use up to    1 processors via shared memory.
 %Chk=SM44.n.4.pdb.xyz.mst.n.o.chk
 -----------------
 #p b3lyp/6-31G(d)
 -----------------
 1/38=1/1;
 2/12=2,17=6,18=5,40=1/2;
 3/5=1,6=6,7=1,11=2,16=1,25=1,30=1,74=-5/1,2,3;
 4//1;
 5/5=2,38=5/2;
 6/7=2,8=2,9=2,10=2,28=1/1;
 99/5=1,9=1/99;
 Leave Link    1 at Thu Aug  6 22:14:46 2020, MaxMem=           0 cpu:         0.0
 (Enter /prod/apps/gaussian/g09d1/l101.exe)
 ----------------
 SM44.n.4.pdb.xyz
 ----------------
 Symbolic Z-matrix:
 Charge =  0 Multiplicity = 1
 O                     3.633    -0.575    -2.024 
 S                     3.07     -1.811    -1.476 
 N                     3.006    -1.542     0.198 
 C                     2.474    -2.508     1.071 
 N                     3.176    -3.621     1.426 
 N                     2.464    -4.316     2.267 
 C                     1.264    -2.515     1.734 
 N                     1.299    -3.649     2.477 
 C                     0.319    -4.159     3.375 
 C                    -0.636    -3.297     3.917 
 C                    -1.599    -3.809     4.785 
 C                    -1.599    -5.164     5.118 
 C                    -0.632    -6.011     4.574 
 C                     0.329    -5.518     3.696 
 C                     1.363    -1.957    -2.026 
 O                     3.719    -3.101    -1.694 
 H                     2.768    -0.575     0.404 
 H                     0.426    -1.839     1.728 
 H                    -0.62     -2.242     3.675 
 H                    -2.342    -3.142     5.207 
 H                    -2.347    -5.557     5.797 
 H                    -0.628    -7.065     4.827 
 H                     1.082    -6.161     3.259 
 H                     0.848    -1.015    -1.839 
 H                     0.888    -2.779    -1.49 
 H                     1.391    -2.17     -3.095 
 
 NAtoms=     26 NQM=       26 NQMF=       0 NMMI=      0 NMMIF=      0
                NMic=       0 NMicF=      0.
                    Isotopes and Nuclear Properties:
 (Nuclear quadrupole moments (NQMom) in fm**2, nuclear magnetic moments (NMagM)
  in nuclear magnetons)

  Atom         1           2           3           4           5           6           7           8           9          10
 IAtWgt=          16          32          14          12          14          14          12          14          12          12
 AtmWgt=  15.9949146  31.9720718  14.0030740  12.0000000  14.0030740  14.0030740  12.0000000  14.0030740  12.0000000  12.0000000
 NucSpn=           0           0           2           0           2           2           0           2           0           0
 AtZEff=   0.0000000   0.0000000   0.0000000   0.0000000   0.0000000   0.0000000   0.0000000   0.0000000   0.0000000   0.0000000
 NQMom=    0.0000000   0.0000000   2.0440000   0.0000000   2.0440000   2.0440000   0.0000000   2.0440000   0.0000000   0.0000000
 NMagM=    0.0000000   0.0000000   0.4037610   0.0000000   0.4037610   0.4037610   0.0000000   0.4037610   0.0000000   0.0000000
 AtZNuc=   8.0000000  16.0000000   7.0000000   6.0000000   7.0000000   7.0000000   6.0000000   7.0000000   6.0000000   6.0000000

  Atom        11          12          13          14          15          16          17          18          19          20
 IAtWgt=          12          12          12          12          12          16           1           1           1           1
 AtmWgt=  12.0000000  12.0000000  12.0000000  12.0000000  12.0000000  15.9949146   1.0078250   1.0078250   1.0078250   1.0078250
 NucSpn=           0           0           0           0           0           0           1           1           1           1
 AtZEff=   0.0000000   0.0000000   0.0000000   0.0000000   0.0000000   0.0000000   0.0000000   0.0000000   0.0000000   0.0000000
 NQMom=    0.0000000   0.0000000   0.0000000   0.0000000   0.0000000   0.0000000   0.0000000   0.0000000   0.0000000   0.0000000
 NMagM=    0.0000000   0.0000000   0.0000000   0.0000000   0.0000000   0.0000000   2.7928460   2.7928460   2.7928460   2.7928460
 AtZNuc=   6.0000000   6.0000000   6.0000000   6.0000000   6.0000000   8.0000000   1.0000000   1.0000000   1.0000000   1.0000000

  Atom        21          22          23          24          25          26
 IAtWgt=           1           1           1           1           1           1
 AtmWgt=   1.0078250   1.0078250   1.0078250   1.0078250   1.0078250   1.0078250
 NucSpn=           1           1           1           1           1           1
 AtZEff=   0.0000000   0.0000000   0.0000000   0.0000000   0.0000000   0.0000000
 NQMom=    0.0000000   0.0000000   0.0000000   0.0000000   0.0000000   0.0000000
 NMagM=    2.7928460   2.7928460   2.7928460   2.7928460   2.7928460   2.7928460
 AtZNuc=   1.0000000   1.0000000   1.0000000   1.0000000   1.0000000   1.0000000
 Leave Link  101 at Thu Aug  6 22:14:46 2020, MaxMem=    33554432 cpu:         0.1
 (Enter /prod/apps/gaussian/g09d1/l202.exe)
                          Input orientation:                          
 ---------------------------------------------------------------------
 Center     Atomic      Atomic             Coordinates (Angstroms)
 Number     Number       Type             X           Y           Z
 ---------------------------------------------------------------------
      1          8           0        3.633000   -0.575000   -2.024000
      2         16           0        3.070000   -1.811000   -1.476000
      3          7           0        3.006000   -1.542000    0.198000
      4          6           0        2.474000   -2.508000    1.071000
      5          7           0        3.176000   -3.621000    1.426000
      6          7           0        2.464000   -4.316000    2.267000
      7          6           0        1.264000   -2.515000    1.734000
      8          7           0        1.299000   -3.649000    2.477000
      9          6           0        0.319000   -4.159000    3.375000
     10          6           0       -0.636000   -3.297000    3.917000
     11          6           0       -1.599000   -3.809000    4.785000
     12          6           0       -1.599000   -5.164000    5.118000
     13          6           0       -0.632000   -6.011000    4.574000
     14          6           0        0.329000   -5.518000    3.696000
     15          6           0        1.363000   -1.957000   -2.026000
     16          8           0        3.719000   -3.101000   -1.694000
     17          1           0        2.768000   -0.575000    0.404000
     18          1           0        0.426000   -1.839000    1.728000
     19          1           0       -0.620000   -2.242000    3.675000
     20          1           0       -2.342000   -3.142000    5.207000
     21          1           0       -2.347000   -5.557000    5.797000
     22          1           0       -0.628000   -7.065000    4.827000
     23          1           0        1.082000   -6.161000    3.259000
     24          1           0        0.848000   -1.015000   -1.839000
     25          1           0        0.888000   -2.779000   -1.490000
     26          1           0        1.391000   -2.170000   -3.095000
 ---------------------------------------------------------------------
                    Distance matrix (angstroms):
                    1          2          3          4          5
     1  O    0.000000
     2  S    1.464571   0.000000
     3  N    2.503098   1.696683   0.000000
     4  C    3.828681   2.707071   1.406524   0.000000
     5  N    4.624875   3.421833   2.420563   1.362937   0.000000
     6  N    5.811568   4.544481   3.502799   2.167805   1.302785
     7  C    4.847507   3.749847   2.518053   1.379753   2.230212
     8  N    5.929252   4.705411   3.542194   2.158551   2.151398
     9  C    7.278520   6.050893   4.915484   3.560652   3.500071
    10  C    7.805711   6.710222   5.493191   4.288862   4.565238
    11  C    9.175787   8.061742   6.883740   5.663544   5.841134
    12  C    9.972006   8.747743   7.650576   6.326284   6.229955
    13  C    9.553739   8.243015   7.235771   5.847158   5.488430
    14  C    8.250337   6.928529   5.933878   4.533404   4.105718
    15  C    2.657598   1.799351   2.796042   3.336065   4.239360
    16  O    2.548916   1.460419   2.553138   3.089806   3.209307
    17  H    2.577481   2.270088   1.016941   2.065869   3.238682
    18  H    5.095100   4.154171   3.014218   2.252446   3.290779
    19  H    7.303800   6.350958   5.072219   4.052704   4.622689
    20  H    9.725095   8.701942   7.500079   6.379836   6.706245
    21  H   11.033982   9.811877   8.724886   7.407666   7.304606
    22  H   10.354343   9.000418   8.070757   6.670546   6.156164
    23  H    8.100684   6.730146   5.865719   4.479890   3.767801
    24  H    2.825606   2.388026   3.013978   3.652537   4.782368
    25  H    3.560589   2.387120   2.977488   3.024493   3.800916
    26  H    2.952563   2.359890   3.721083   4.317718   5.072580
                    6          7          8          9         10
     6  N    0.000000
     7  C    2.228832   0.000000
     8  N    1.358755   1.356182   0.000000
     9  C    2.419367   2.507716   1.423694   0.000000
    10  C    3.656619   2.997835   2.437566   1.396006   0.000000
    11  C    4.806802   4.379476   3.708216   2.406101   1.393893
    12  C    5.035402   5.163858   4.203393   2.779712   2.419806
    13  C    4.216692   4.886966   3.702055   2.402479   2.792393
    14  C    2.836383   3.706977   2.433110   1.396432   2.431647
    15  C    5.020650   3.802468   4.810818   5.925330   6.411774
    16  O    4.329061   4.256948   4.853241   6.194685   7.105474
    17  H    4.190258   2.791866   3.988078   5.260180   5.598006
    18  H    3.252613   1.076688   2.144582   2.847184   2.836429
    19  H    3.974292   2.718725   2.664097   2.155600   1.082518
    20  H    5.754955   5.045601   4.578955   3.386951   2.144426
    21  H    6.094809   6.229049   5.287360   3.863683   3.401400
    22  H    4.865292   5.817973   4.572186   3.383777   3.876337
    23  H    2.509584   3.956269   2.639840   2.145607   3.403966
    24  H    5.510653   3.897356   5.076339   6.111495   6.367206
    25  H    4.354445   3.256570   4.082023   5.088849   5.641502
    26  H    5.874325   4.842974   5.765682   6.853189   7.385594
                   11         12         13         14         15
    11  C    0.000000
    12  C    1.395319   0.000000
    13  C    2.414211   1.395863   0.000000
    14  C    2.797103   2.421690   1.391925   0.000000
    15  C    7.654611   8.372277   7.998434   6.818443   0.000000
    16  O    8.411886   8.884843   8.166219   6.810733   2.640018
    17  H    6.980158   7.896291   7.648464   6.420221   3.128714
    18  H    4.162544   5.162204   5.159909   4.173425   3.870970
    19  H    2.155465   3.402760   3.874752   3.410750   6.042757
    20  H    1.083984   2.156027   3.399404   3.881074   8.212645
    21  H    2.153869   1.083971   2.154778   3.402455   9.376749
    22  H    3.397961   2.154373   1.083947   2.142013   8.776067
    23  H    3.879219   3.411400   2.165530   1.082325   6.758979
    24  H    7.594183   8.461788   8.262989   7.154201   1.089751
    25  H    6.828008   7.452453   7.037636   5.891451   1.090232
    26  H    8.586083   9.238913   8.812455   7.645563   1.090373
                   16         17         18         19         20
    16  O    0.000000
    17  H    3.418579   0.000000
    18  H    4.913917   2.972480   0.000000
    19  H    6.956361   4.995686   2.246627   0.000000
    20  H    9.184835   7.467958   4.632826   2.474330   0.000000
    21  H    9.947028   8.948072   6.170074   4.298213   2.486031
    22  H    8.782548   8.556626   6.166506   4.958679   4.297921
    23  H    6.391367   6.495923   4.631844   4.292834   4.963148
    24  H    3.551769   2.985138   3.685180   5.836501   8.021617
    25  H    2.856547   3.461106   3.384164   5.407371   7.444090
    26  H    2.872133   4.084502   4.929718   7.062734   9.154413
                   21         22         23         24         25
    21  H    0.000000
    22  H    2.483933   0.000000
    23  H    4.308631   2.489968   0.000000
    24  H    9.441731   9.122315   7.247460   0.000000
    25  H    8.442919   7.782836   5.833400   1.798638   0.000000
    26  H   10.223115   9.528666   7.509785   1.790645   1.788831
                   26
    26  H    0.000000
 Stoichiometry    C9H10N4O2S
 Framework group  C1[X(C9H10N4O2S)]
 Deg. of freedom    72
 Full point group                 C1      NOp   1
 Largest Abelian subgroup         C1      NOp   1
 Largest concise Abelian subgroup C1      NOp   1
                         Standard orientation:                         
 ---------------------------------------------------------------------
 Center     Atomic      Atomic             Coordinates (Angstroms)
 Number     Number       Type             X           Y           Z
 ---------------------------------------------------------------------
      1          8           0        4.688566   -0.632303   -0.470013
      2         16           0        3.494268   -0.098215    0.188297
      3          7           0        2.277387   -0.205464   -0.989171
      4          6           0        0.955101    0.182389   -0.707319
      5          7           0        0.585315    1.493231   -0.656825
      6          7           0       -0.693453    1.559814   -0.416886
      7          6           0       -0.158803   -0.602660   -0.491375
      8          7           0       -1.166840    0.289422   -0.326199
      9          6           0       -2.548642    0.041881   -0.089032
     10          6           0       -3.096647   -1.196155   -0.429314
     11          6           0       -4.447667   -1.432767   -0.180924
     12          6           0       -5.244554   -0.438816    0.388238
     13          6           0       -4.683087    0.796690    0.714906
     14          6           0       -3.332907    1.044715    0.484793
     15          6           0        3.015292   -1.223321    1.508290
     16          8           0        3.470082    1.257935    0.729682
     17          1           0        2.385714   -1.045974   -1.551290
     18          1           0       -0.299898   -1.668821   -0.439902
     19          1           0       -2.481603   -1.957582   -0.891693
     20          1           0       -4.875718   -2.393343   -0.443772
     21          1           0       -6.295774   -0.625584    0.575453
     22          1           0       -5.296319    1.572160    1.159353
     23          1           0       -2.878761    1.993934    0.738093
     24          1           0        2.991140   -2.240038    1.116803
     25          1           0        2.038772   -0.924791    1.890250
     26          1           0        3.769586   -1.134329    2.290617
 ---------------------------------------------------------------------
 Rotational constants (GHZ):      1.5973333      0.1976329      0.1893712
 Leave Link  202 at Thu Aug  6 22:14:46 2020, MaxMem=    33554432 cpu:         0.0
 (Enter /prod/apps/gaussian/g09d1/l301.exe)
 Standard basis: 6-31G(d) (6D, 7F)
 Ernie: Thresh=  0.10000D-02 Tol=  0.10000D-05 Strict=F.
 There are   264 symmetry adapted cartesian basis functions of A   symmetry.
 There are   264 symmetry adapted basis functions of A   symmetry.
   264 basis functions,   512 primitive gaussians,   264 cartesian basis functions
    62 alpha electrons       62 beta electrons
       nuclear repulsion energy      1184.4752098239 Hartrees.
 IExCor=  402 DFT=T Ex+Corr=B3LYP ExCW=0 ScaHFX=  0.200000
 ScaDFX=  0.800000  0.720000  1.000000  0.810000 ScalE2=  1.000000  1.000000
 IRadAn=      0 IRanWt=     -1 IRanGd=            0 ICorTp=0 IEmpDi=  4
 NAtoms=   26 NActive=   26 NUniq=   26 SFac= 1.00D+00 NAtFMM=   60 NAOKFM=F Big=F
 Integral buffers will be    131072 words long.
 Raffenetti 2 integral format.
 Two-electron integral symmetry is turned on.
 Leave Link  301 at Thu Aug  6 22:14:46 2020, MaxMem=    33554432 cpu:         0.0
 (Enter /prod/apps/gaussian/g09d1/l302.exe)
 NPDir=0 NMtPBC=     1 NCelOv=     1 NCel=       1 NClECP=     1 NCelD=      1
         NCelK=      1 NCelE2=     1 NClLst=     1 CellRange=     0.0.
 One-electron integrals computed using PRISM.
 NBasis=   264 RedAO= T EigKep=  4.65D-04  NBF=   264
 NBsUse=   264 1.00D-06 EigRej= -1.00D+00 NBFU=   264
 Precomputing XC quadrature grid using
 IXCGrd= 4 IRadAn=           0 IRanWt=          -1 IRanGd=           0 AccXCQ= 0.00D+00.
 Generated NRdTot=       0 NPtTot=           0 NUsed=           0 NTot=          32
 NSgBfM=   261   261   262   262   262 MxSgAt=    26 MxSgA2=    26.
 Leave Link  302 at Thu Aug  6 22:14:47 2020, MaxMem=    33554432 cpu:         0.7
 (Enter /prod/apps/gaussian/g09d1/l303.exe)
 DipDrv:  MaxL=1.
 Leave Link  303 at Thu Aug  6 22:14:47 2020, MaxMem=    33554432 cpu:         0.0
 (Enter /prod/apps/gaussian/g09d1/l401.exe)
 ExpMin= 1.17D-01 ExpMax= 2.19D+04 ExpMxC= 3.30D+03 IAcc=1 IRadAn=         1 AccDes= 0.00D+00
 Harris functional with IExCor=  402 and IRadAn=       1 diagonalized for initial guess.
 HarFok:  IExCor=  402 AccDes= 0.00D+00 IRadAn=         1 IDoV= 1 UseB2=F ITyADJ=14
 ICtDFT=  3500011 ScaDFX=  1.000000  1.000000  1.000000  1.000000
 FoFCou: FMM=F IPFlag=           0 FMFlag=      100000 FMFlg1=           0
         NFxFlg=           0 DoJE=T BraDBF=F KetDBF=T FulRan=T
         wScrn=  0.000000 ICntrl=     500 IOpCl=  0 I1Cent=   200000004 NGrid=           0
         NMat0=    1 NMatS0=      1 NMatT0=    0 NMatD0=    1 NMtDS0=    0 NMtDT0=    0
 Petite list used in FoFCou.
 Harris En= -1116.52753725712    
 JPrj=0 DoOrth=F DoCkMO=F.
 Leave Link  401 at Thu Aug  6 22:14:49 2020, MaxMem=    33554432 cpu:         2.1
 (Enter /prod/apps/gaussian/g09d1/l502.exe)
 Closed shell SCF:
 Using DIIS extrapolation, IDIIS=  1040.
 Integral symmetry usage will be decided dynamically.
 IVT=      231207 IEndB=      231207 NGot=    33554432 MDV=    33409826
 LenX=    33409826 LenY=    33339689
 Requested convergence on RMS density matrix=1.00D-08 within 128 cycles.
 Requested convergence on MAX density matrix=1.00D-06.
 Requested convergence on             energy=1.00D-06.
 No special actions if energy rises.
 Fock matrices will be formed incrementally for  20 cycles.
 Integral accuracy reduced to 1.0D-05 until final iterations.

 Cycle   1  Pass 0  IDiag  1:
 FoFJK:  IHMeth= 1 ICntrl=       0 DoSepK=F KAlg= 0 I1Cent=   0 FoldK=F
 IRaf= 770000000 NMat=   1 IRICut=       1 DoRegI=T DoRafI=F ISym2E= 0.
 FoFCou: FMM=F IPFlag=           0 FMFlag=      100000 FMFlg1=           0
         NFxFlg=           0 DoJE=F BraDBF=F KetDBF=F FulRan=T
         wScrn=  0.000000 ICntrl=       0 IOpCl=  0 I1Cent=           0 NGrid=           0
         NMat0=    1 NMatS0=      1 NMatT0=    0 NMatD0=    1 NMtDS0=    0 NMtDT0=    0
 Symmetry not used in FoFCou.
 E= -1115.99544542374    
 DIIS: error= 3.26D-02 at cycle   1 NSaved=   1.
 NSaved= 1 IEnMin= 1 EnMin= -1115.99544542374     IErMin= 1 ErrMin= 3.26D-02
 ErrMax= 3.26D-02  0.00D+00 EMaxC= 1.00D-01 BMatC= 5.93D-01 BMatP= 5.93D-01
 IDIUse=3 WtCom= 6.74D-01 WtEn= 3.26D-01
 Coeff-Com:  0.100D+01
 Coeff-En:   0.100D+01
 Coeff:      0.100D+01
 Gap=     0.295 Goal=   None    Shift=    0.000
 GapD=    0.295 DampG=1.000 DampE=0.500 DampFc=0.5000 IDamp=-1.
 Damping current iteration by 5.00D-01
 RMSDP=7.65D-03 MaxDP=5.76D-01              OVMax= 2.50D-01

 Cycle   2  Pass 0  IDiag  1:
 RMSU=  3.83D-03    CP:  9.96D-01
 E= -1116.09697533617     Delta-E=       -0.101529912432 Rises=F Damp=T
 DIIS: error= 1.80D-02 at cycle   2 NSaved=   2.
 NSaved= 2 IEnMin= 2 EnMin= -1116.09697533617     IErMin= 2 ErrMin= 1.80D-02
 ErrMax= 1.80D-02  0.00D+00 EMaxC= 1.00D-01 BMatC= 1.09D-01 BMatP= 5.93D-01
 IDIUse=3 WtCom= 8.20D-01 WtEn= 1.80D-01
 Coeff-Com:  0.253D+00 0.747D+00
 Coeff-En:   0.401D+00 0.599D+00
 Coeff:      0.280D+00 0.720D+00
 Gap=     0.230 Goal=   None    Shift=    0.000
 RMSDP=2.20D-03 MaxDP=1.22D-01 DE=-1.02D-01 OVMax= 2.11D-01

 Cycle   3  Pass 0  IDiag  1:
 RMSU=  1.75D-03    CP:  9.85D-01  6.58D-01
 E= -1116.45843259590     Delta-E=       -0.361457259735 Rises=F Damp=F
 DIIS: error= 9.64D-03 at cycle   3 NSaved=   3.
 NSaved= 3 IEnMin= 3 EnMin= -1116.45843259590     IErMin= 3 ErrMin= 9.64D-03
 ErrMax= 9.64D-03  0.00D+00 EMaxC= 1.00D-01 BMatC= 5.03D-02 BMatP= 1.09D-01
 IDIUse=3 WtCom= 9.04D-01 WtEn= 9.64D-02
 Coeff-Com:  0.912D-01 0.406D+00 0.503D+00
 Coeff-En:   0.000D+00 0.000D+00 0.100D+01
 Coeff:      0.824D-01 0.367D+00 0.551D+00
 Gap=     0.197 Goal=   None    Shift=    0.000
 RMSDP=1.16D-03 MaxDP=3.31D-02 DE=-3.61D-01 OVMax= 5.03D-02

 Cycle   4  Pass 0  IDiag  1:
 RMSU=  7.62D-04    CP:  9.91D-01  7.37D-01  5.41D-01
 E= -1116.49776885385     Delta-E=       -0.039336257944 Rises=F Damp=F
 DIIS: error= 3.20D-03 at cycle   4 NSaved=   4.
 NSaved= 4 IEnMin= 4 EnMin= -1116.49776885385     IErMin= 4 ErrMin= 3.20D-03
 ErrMax= 3.20D-03  0.00D+00 EMaxC= 1.00D-01 BMatC= 8.07D-03 BMatP= 5.03D-02
 IDIUse=3 WtCom= 9.68D-01 WtEn= 3.20D-02
 Coeff-Com:  0.112D-01 0.824D-01 0.301D+00 0.605D+00
 Coeff-En:   0.000D+00 0.000D+00 0.133D+00 0.867D+00
 Coeff:      0.108D-01 0.798D-01 0.296D+00 0.614D+00
 Gap=     0.197 Goal=   None    Shift=    0.000
 RMSDP=4.31D-04 MaxDP=1.60D-02 DE=-3.93D-02 OVMax= 2.47D-02

 Cycle   5  Pass 0  IDiag  1:
 RMSU=  2.56D-04    CP:  9.90D-01  7.18D-01  6.39D-01  6.15D-01
 E= -1116.50391273322     Delta-E=       -0.006143879376 Rises=F Damp=F
 DIIS: error= 1.52D-03 at cycle   5 NSaved=   5.
 NSaved= 5 IEnMin= 5 EnMin= -1116.50391273322     IErMin= 5 ErrMin= 1.52D-03
 ErrMax= 1.52D-03  0.00D+00 EMaxC= 1.00D-01 BMatC= 1.26D-03 BMatP= 8.07D-03
 IDIUse=3 WtCom= 9.85D-01 WtEn= 1.52D-02
 Coeff-Com:  0.518D-03 0.243D-01 0.148D+00 0.388D+00 0.439D+00
 Coeff-En:   0.000D+00 0.000D+00 0.000D+00 0.930D-01 0.907D+00
 Coeff:      0.510D-03 0.239D-01 0.146D+00 0.383D+00 0.446D+00
 Gap=     0.196 Goal=   None    Shift=    0.000
 RMSDP=1.68D-04 MaxDP=7.25D-03 DE=-6.14D-03 OVMax= 1.16D-02

 Cycle   6  Pass 0  IDiag  1:
 RMSU=  7.63D-05    CP:  9.90D-01  7.22D-01  6.44D-01  6.85D-01  4.56D-01
 E= -1116.50494605909     Delta-E=       -0.001033325872 Rises=F Damp=F
 DIIS: error= 4.49D-04 at cycle   6 NSaved=   6.
 NSaved= 6 IEnMin= 6 EnMin= -1116.50494605909     IErMin= 6 ErrMin= 4.49D-04
 ErrMax= 4.49D-04  0.00D+00 EMaxC= 1.00D-01 BMatC= 1.32D-04 BMatP= 1.26D-03
 IDIUse=3 WtCom= 9.96D-01 WtEn= 4.49D-03
 Coeff-Com: -0.127D-02 0.383D-02 0.511D-01 0.158D+00 0.281D+00 0.507D+00
 Coeff-En:   0.000D+00 0.000D+00 0.000D+00 0.000D+00 0.715D-01 0.928D+00
 Coeff:     -0.126D-02 0.381D-02 0.508D-01 0.157D+00 0.280D+00 0.509D+00
 Gap=     0.196 Goal=   None    Shift=    0.000
 RMSDP=4.91D-05 MaxDP=1.96D-03 DE=-1.03D-03 OVMax= 2.78D-03

 Cycle   7  Pass 0  IDiag  1:
 RMSU=  2.96D-05    CP:  9.90D-01  7.22D-01  6.45D-01  6.81D-01  5.39D-01
                    CP:  5.70D-01
 E= -1116.50505080321     Delta-E=       -0.000104744118 Rises=F Damp=F
 DIIS: error= 1.25D-04 at cycle   7 NSaved=   7.
 NSaved= 7 IEnMin= 7 EnMin= -1116.50505080321     IErMin= 7 ErrMin= 1.25D-04
 ErrMax= 1.25D-04  0.00D+00 EMaxC= 1.00D-01 BMatC= 9.87D-06 BMatP= 1.32D-04
 IDIUse=3 WtCom= 9.99D-01 WtEn= 1.25D-03
 Coeff-Com: -0.743D-03 0.361D-03 0.168D-01 0.569D-01 0.123D+00 0.298D+00
 Coeff-Com:  0.505D+00
 Coeff-En:   0.000D+00 0.000D+00 0.000D+00 0.000D+00 0.000D+00 0.104D-01
 Coeff-En:   0.990D+00
 Coeff:     -0.742D-03 0.361D-03 0.168D-01 0.569D-01 0.123D+00 0.298D+00
 Coeff:      0.506D+00
 Gap=     0.196 Goal=   None    Shift=    0.000
 RMSDP=1.47D-05 MaxDP=5.51D-04 DE=-1.05D-04 OVMax= 9.47D-04

 Cycle   8  Pass 0  IDiag  1:
 RMSU=  8.59D-06    CP:  9.90D-01  7.22D-01  6.45D-01  6.83D-01  5.39D-01
                    CP:  6.13D-01  6.21D-01
 E= -1116.50505920877     Delta-E=       -0.000008405560 Rises=F Damp=F
 DIIS: error= 4.80D-05 at cycle   8 NSaved=   8.
 NSaved= 8 IEnMin= 8 EnMin= -1116.50505920877     IErMin= 8 ErrMin= 4.80D-05
 ErrMax= 4.80D-05  0.00D+00 EMaxC= 1.00D-01 BMatC= 8.03D-07 BMatP= 9.87D-06
 IDIUse=1 WtCom= 1.00D+00 WtEn= 0.00D+00
 Coeff-Com: -0.305D-03-0.318D-03 0.434D-02 0.165D-01 0.423D-01 0.119D+00
 Coeff-Com:  0.284D+00 0.535D+00
 Coeff:     -0.305D-03-0.318D-03 0.434D-02 0.165D-01 0.423D-01 0.119D+00
 Coeff:      0.284D+00 0.535D+00
 Gap=     0.196 Goal=   None    Shift=    0.000
 RMSDP=4.65D-06 MaxDP=1.90D-04 DE=-8.41D-06 OVMax= 2.80D-04

 Initial convergence to 1.0D-05 achieved.  Increase integral accuracy.
 Cycle   9  Pass 1  IDiag  1:
 E= -1116.50494203264     Delta-E=        0.000117176134 Rises=F Damp=F
 DIIS: error= 6.00D-05 at cycle   1 NSaved=   1.
 NSaved= 1 IEnMin= 1 EnMin= -1116.50494203264     IErMin= 1 ErrMin= 6.00D-05
 ErrMax= 6.00D-05  0.00D+00 EMaxC= 1.00D-01 BMatC= 3.76D-07 BMatP= 3.76D-07
 IDIUse=1 WtCom= 1.00D+00 WtEn= 0.00D+00
 Coeff-Com:  0.100D+01
 Coeff:      0.100D+01
 Gap=     0.196 Goal=   None    Shift=    0.000
 RMSDP=4.65D-06 MaxDP=1.90D-04 DE= 1.17D-04 OVMax= 2.39D-04

 Cycle  10  Pass 1  IDiag  1:
 RMSU=  3.20D-05    CP:  1.00D+00
 E= -1116.50494200687     Delta-E=        0.000000025766 Rises=F Damp=F
 DIIS: error= 4.34D-05 at cycle   2 NSaved=   2.
 NSaved= 2 IEnMin= 1 EnMin= -1116.50494203264     IErMin= 2 ErrMin= 4.34D-05
 ErrMax= 4.34D-05  0.00D+00 EMaxC= 1.00D-01 BMatC= 4.64D-07 BMatP= 3.76D-07
 IDIUse=1 WtCom= 1.00D+00 WtEn= 0.00D+00
 Coeff-Com:  0.535D+00 0.465D+00
 Coeff:      0.535D+00 0.465D+00
 Gap=     0.196 Goal=   None    Shift=    0.000
 RMSDP=3.81D-06 MaxDP=1.96D-04 DE= 2.58D-08 OVMax= 2.40D-04

 Cycle  11  Pass 1  IDiag  1:
 RMSU=  3.80D-06    CP:  1.00D+00  9.92D-01
 E= -1116.50494231154     Delta-E=       -0.000000304663 Rises=F Damp=F
 DIIS: error= 2.31D-05 at cycle   3 NSaved=   3.
 NSaved= 3 IEnMin= 3 EnMin= -1116.50494231154     IErMin= 3 ErrMin= 2.31D-05
 ErrMax= 2.31D-05  0.00D+00 EMaxC= 1.00D-01 BMatC= 1.33D-07 BMatP= 3.76D-07
 IDIUse=1 WtCom= 1.00D+00 WtEn= 0.00D+00
 Coeff-Com:  0.147D-01 0.346D+00 0.639D+00
 Coeff:      0.147D-01 0.346D+00 0.639D+00
 Gap=     0.196 Goal=   None    Shift=    0.000
 RMSDP=1.43D-06 MaxDP=7.53D-05 DE=-3.05D-07 OVMax= 9.48D-05

 Cycle  12  Pass 1  IDiag  1:
 RMSU=  5.58D-07    CP:  1.00D+00  1.00D+00  6.68D-01
 E= -1116.50494242762     Delta-E=       -0.000000116089 Rises=F Damp=F
 DIIS: error= 3.22D-06 at cycle   4 NSaved=   4.
 NSaved= 4 IEnMin= 4 EnMin= -1116.50494242762     IErMin= 4 ErrMin= 3.22D-06
 ErrMax= 3.22D-06  0.00D+00 EMaxC= 1.00D-01 BMatC= 5.28D-09 BMatP= 1.33D-07
 IDIUse=1 WtCom= 1.00D+00 WtEn= 0.00D+00
 Coeff-Com: -0.615D-02 0.192D+00 0.377D+00 0.438D+00
 Coeff:     -0.615D-02 0.192D+00 0.377D+00 0.438D+00
 Gap=     0.196 Goal=   None    Shift=    0.000
 RMSDP=3.20D-07 MaxDP=1.21D-05 DE=-1.16D-07 OVMax= 1.88D-05

 Cycle  13  Pass 1  IDiag  1:
 RMSU=  1.60D-07    CP:  1.00D+00  1.00D+00  6.71D-01  5.07D-01
 E= -1116.50494243206     Delta-E=       -0.000000004437 Rises=F Damp=F
 DIIS: error= 9.02D-07 at cycle   5 NSaved=   5.
 NSaved= 5 IEnMin= 5 EnMin= -1116.50494243206     IErMin= 5 ErrMin= 9.02D-07
 ErrMax= 9.02D-07  0.00D+00 EMaxC= 1.00D-01 BMatC= 3.79D-10 BMatP= 5.28D-09
 IDIUse=1 WtCom= 1.00D+00 WtEn= 0.00D+00
 Coeff-Com: -0.461D-02 0.978D-01 0.195D+00 0.272D+00 0.440D+00
 Coeff:     -0.461D-02 0.978D-01 0.195D+00 0.272D+00 0.440D+00
 Gap=     0.196 Goal=   None    Shift=    0.000
 RMSDP=9.08D-08 MaxDP=3.62D-06 DE=-4.44D-09 OVMax= 7.17D-06

 Cycle  14  Pass 1  IDiag  1:
 RMSU=  6.63D-08    CP:  1.00D+00  1.00D+00  6.71D-01  5.26D-01  6.19D-01
 E= -1116.50494243239     Delta-E=       -0.000000000324 Rises=F Damp=F
 DIIS: error= 2.63D-07 at cycle   6 NSaved=   6.
 NSaved= 6 IEnMin= 6 EnMin= -1116.50494243239     IErMin= 6 ErrMin= 2.63D-07
 ErrMax= 2.63D-07  0.00D+00 EMaxC= 1.00D-01 BMatC= 3.19D-11 BMatP= 3.79D-10
 IDIUse=1 WtCom= 1.00D+00 WtEn= 0.00D+00
 Coeff-Com: -0.186D-02 0.316D-01 0.636D-01 0.985D-01 0.261D+00 0.547D+00
 Coeff:     -0.186D-02 0.316D-01 0.636D-01 0.985D-01 0.261D+00 0.547D+00
 Gap=     0.196 Goal=   None    Shift=    0.000
 RMSDP=2.77D-08 MaxDP=1.03D-06 DE=-3.24D-10 OVMax= 1.99D-06

 Cycle  15  Pass 1  IDiag  1:
 RMSU=  1.87D-08    CP:  1.00D+00  1.00D+00  6.71D-01  5.26D-01  6.93D-01
                    CP:  7.51D-01
 E= -1116.50494243243     Delta-E=       -0.000000000044 Rises=F Damp=F
 DIIS: error= 1.04D-07 at cycle   7 NSaved=   7.
 NSaved= 7 IEnMin= 7 EnMin= -1116.50494243243     IErMin= 7 ErrMin= 1.04D-07
 ErrMax= 1.04D-07  0.00D+00 EMaxC= 1.00D-01 BMatC= 3.20D-12 BMatP= 3.19D-11
 IDIUse=1 WtCom= 1.00D+00 WtEn= 0.00D+00
 Coeff-Com: -0.404D-03 0.432D-02 0.888D-02 0.170D-01 0.850D-01 0.300D+00
 Coeff-Com:  0.585D+00
 Coeff:     -0.404D-03 0.432D-02 0.888D-02 0.170D-01 0.850D-01 0.300D+00
 Coeff:      0.585D+00
 Gap=     0.196 Goal=   None    Shift=    0.000
 RMSDP=9.14D-09 MaxDP=3.01D-07 DE=-4.41D-11 OVMax= 6.04D-07

 SCF Done:  E(RB3LYP) =  -1116.50494243     A.U. after   15 cycles
            NFock= 15  Conv=0.91D-08     -V/T= 2.0073
 KE= 1.108403308741D+03 PE=-4.985489937940D+03 EE= 1.576106476943D+03
 Leave Link  502 at Thu Aug  6 22:17:15 2020, MaxMem=    33554432 cpu:       146.0
 (Enter /prod/apps/gaussian/g09d1/l601.exe)
 Copying SCF densities to generalized density rwf, IOpCl= 0 IROHF=0.

 **********************************************************************

            Population analysis using the SCF density.

 **********************************************************************

 Orbital symmetries:
       Occupied  (A) (A) (A) (A) (A) (A) (A) (A) (A) (A) (A) (A)
                 (A) (A) (A) (A) (A) (A) (A) (A) (A) (A) (A) (A)
                 (A) (A) (A) (A) (A) (A) (A) (A) (A) (A) (A) (A)
                 (A) (A) (A) (A) (A) (A) (A) (A) (A) (A) (A) (A)
                 (A) (A) (A) (A) (A) (A) (A) (A) (A) (A) (A) (A)
                 (A) (A)
       Virtual   (A) (A) (A) (A) (A) (A) (A) (A) (A) (A) (A) (A)
                 (A) (A) (A) (A) (A) (A) (A) (A) (A) (A) (A) (A)
                 (A) (A) (A) (A) (A) (A) (A) (A) (A) (A) (A) (A)
                 (A) (A) (A) (A) (A) (A) (A) (A) (A) (A) (A) (A)
                 (A) (A) (A) (A) (A) (A) (A) (A) (A) (A) (A) (A)
                 (A) (A) (A) (A) (A) (A) (A) (A) (A) (A) (A) (A)
                 (A) (A) (A) (A) (A) (A) (A) (A) (A) (A) (A) (A)
                 (A) (A) (A) (A) (A) (A) (A) (A) (A) (A) (A) (A)
                 (A) (A) (A) (A) (A) (A) (A) (A) (A) (A) (A) (A)
                 (A) (A) (A) (A) (A) (A) (A) (A) (A) (A) (A) (A)
                 (A) (A) (A) (A) (A) (A) (A) (A) (A) (A) (A) (A)
                 (A) (A) (A) (A) (A) (A) (A) (A) (A) (A) (A) (A)
                 (A) (A) (A) (A) (A) (A) (A) (A) (A) (A) (A) (A)
                 (A) (A) (A) (A) (A) (A) (A) (A) (A) (A) (A) (A)
                 (A) (A) (A) (A) (A) (A) (A) (A) (A) (A) (A) (A)
                 (A) (A) (A) (A) (A) (A) (A) (A) (A) (A) (A) (A)
                 (A) (A) (A) (A) (A) (A) (A) (A) (A) (A)
 The electronic state is 1-A.
 Alpha  occ. eigenvalues --  -89.11613 -19.14270 -19.14099 -14.44970 -14.40377
 Alpha  occ. eigenvalues --  -14.38680 -14.36650 -10.26845 -10.26223 -10.25456
 Alpha  occ. eigenvalues --  -10.23474 -10.22127 -10.21692 -10.21413 -10.21346
 Alpha  occ. eigenvalues --  -10.21221  -8.14160  -6.10685  -6.10543  -6.10462
 Alpha  occ. eigenvalues --   -1.11648  -1.11080  -1.00043  -0.95999  -0.93378
 Alpha  occ. eigenvalues --   -0.87202  -0.81617  -0.78105  -0.77486  -0.76851
 Alpha  occ. eigenvalues --   -0.67594  -0.66807  -0.63678  -0.61882  -0.59645
 Alpha  occ. eigenvalues --   -0.57654  -0.54199  -0.53192  -0.50960  -0.49899
 Alpha  occ. eigenvalues --   -0.49365  -0.48263  -0.47128  -0.46544  -0.45830
 Alpha  occ. eigenvalues --   -0.44788  -0.44730  -0.42846  -0.39705  -0.38697
 Alpha  occ. eigenvalues --   -0.37416  -0.35558  -0.34246  -0.33512  -0.31827
 Alpha  occ. eigenvalues --   -0.31471  -0.30792  -0.29963  -0.28041  -0.27503
 Alpha  occ. eigenvalues --   -0.27347  -0.24803
 Alpha virt. eigenvalues --   -0.05202  -0.02665   0.01078   0.01493   0.05071
 Alpha virt. eigenvalues --    0.06677   0.07659   0.09000   0.09876   0.10118
 Alpha virt. eigenvalues --    0.10837   0.12526   0.13261   0.14086   0.14304
 Alpha virt. eigenvalues --    0.14565   0.14996   0.17004   0.17315   0.18654
 Alpha virt. eigenvalues --    0.20521   0.22161   0.24364   0.27976   0.29709
 Alpha virt. eigenvalues --    0.30350   0.32280   0.33956   0.36162   0.36931
 Alpha virt. eigenvalues --    0.38724   0.41876   0.42218   0.43653   0.47531
 Alpha virt. eigenvalues --    0.47799   0.49240   0.51034   0.51490   0.51991
 Alpha virt. eigenvalues --    0.53315   0.53665   0.54768   0.56174   0.56865
 Alpha virt. eigenvalues --    0.57010   0.57649   0.59021   0.59600   0.59851
 Alpha virt. eigenvalues --    0.60524   0.61784   0.62451   0.64050   0.65929
 Alpha virt. eigenvalues --    0.68580   0.69366   0.70564   0.71411   0.72911
 Alpha virt. eigenvalues --    0.73774   0.75969   0.78157   0.79693   0.79834
 Alpha virt. eigenvalues --    0.81431   0.82128   0.82383   0.83581   0.84321
 Alpha virt. eigenvalues --    0.84687   0.84954   0.85736   0.86345   0.87377
 Alpha virt. eigenvalues --    0.88650   0.88897   0.90207   0.92092   0.92988
 Alpha virt. eigenvalues --    0.94435   0.96339   0.97236   0.98518   1.00598
 Alpha virt. eigenvalues --    1.02199   1.03625   1.04698   1.05000   1.07075
 Alpha virt. eigenvalues --    1.07944   1.11265   1.13000   1.15087   1.15431
 Alpha virt. eigenvalues --    1.16934   1.18023   1.19582   1.20451   1.23375
 Alpha virt. eigenvalues --    1.23920   1.25031   1.30089   1.32287   1.35765
 Alpha virt. eigenvalues --    1.36709   1.39097   1.40556   1.42197   1.43458
 Alpha virt. eigenvalues --    1.44968   1.46631   1.47862   1.48595   1.51796
 Alpha virt. eigenvalues --    1.52698   1.56542   1.56916   1.60637   1.64482
 Alpha virt. eigenvalues --    1.68366   1.72283   1.74667   1.77428   1.78452
 Alpha virt. eigenvalues --    1.78967   1.80003   1.80755   1.82076   1.84420
 Alpha virt. eigenvalues --    1.85367   1.86760   1.87497   1.89893   1.91848
 Alpha virt. eigenvalues --    1.93157   1.95286   1.95760   2.00250   2.03702
 Alpha virt. eigenvalues --    2.04927   2.05873   2.07659   2.08689   2.09892
 Alpha virt. eigenvalues --    2.10756   2.11998   2.13239   2.13640   2.16087
 Alpha virt. eigenvalues --    2.19063   2.19276   2.20736   2.21610   2.23734
 Alpha virt. eigenvalues --    2.25558   2.27889   2.28291   2.30313   2.31522
 Alpha virt. eigenvalues --    2.35124   2.36291   2.38452   2.48698   2.50314
 Alpha virt. eigenvalues --    2.53663   2.56665   2.57456   2.59431   2.61582
 Alpha virt. eigenvalues --    2.63564   2.66094   2.68605   2.70768   2.73020
 Alpha virt. eigenvalues --    2.74968   2.75929   2.77461   2.82804   2.86795
 Alpha virt. eigenvalues --    2.88302   3.00244   3.06428   3.12410   3.25197
 Alpha virt. eigenvalues --    3.41195   3.60895   3.76381   3.90402   3.95090
 Alpha virt. eigenvalues --    3.97413   4.05804   4.07245   4.09161   4.10316
 Alpha virt. eigenvalues --    4.14504   4.18713   4.22698   4.30424   4.38010
 Alpha virt. eigenvalues --    4.48363   4.69948
          Condensed to atoms (all electrons):
               1          2          3          4          5          6
     1  O    8.224245   0.447322  -0.051532   0.001663  -0.000018   0.000000
     2  S    0.447322  13.667979   0.105470  -0.016880   0.001802   0.000066
     3  N   -0.051532   0.105470   7.401549   0.249613  -0.058312   0.006018
     4  C    0.001663  -0.016880   0.249613   4.738028   0.345064  -0.057788
     5  N   -0.000018   0.001802  -0.058312   0.345064   6.825033   0.286741
     6  N    0.000000   0.000066   0.006018  -0.057788   0.286741   6.772916
     7  C   -0.000035  -0.004909  -0.084247   0.470949  -0.070662  -0.104231
     8  N    0.000000   0.000342   0.003690  -0.057282  -0.074889   0.179124
     9  C    0.000000  -0.000010  -0.000103   0.006548   0.005992  -0.043139
    10  C    0.000000   0.000000   0.000004   0.000849  -0.000313   0.003103
    11  C    0.000000   0.000000   0.000000  -0.000009   0.000002  -0.000067
    12  C    0.000000   0.000000   0.000000   0.000000   0.000000   0.000016
    13  C    0.000000   0.000000   0.000000   0.000006  -0.000005   0.000388
    14  C    0.000000   0.000000   0.000001  -0.000364   0.000310   0.000107
    15  C   -0.057842   0.202501  -0.061235   0.000032  -0.000032   0.000005
    16  O   -0.043059   0.452491  -0.051124  -0.001306   0.000821   0.000023
    17  H    0.002347  -0.003749   0.300319  -0.032643   0.002050  -0.000087
    18  H   -0.000001   0.000008   0.000048  -0.027722   0.003998   0.003575
    19  H    0.000000   0.000000   0.000001   0.000091  -0.000002  -0.000091
    20  H    0.000000   0.000000   0.000000   0.000000   0.000000   0.000001
    21  H    0.000000   0.000000   0.000000   0.000000   0.000000   0.000000
    22  H    0.000000   0.000000   0.000000   0.000000   0.000000  -0.000008
    23  H    0.000000   0.000000   0.000000   0.000074  -0.000375   0.016941
    24  H    0.000295  -0.007076   0.000550   0.000283  -0.000005  -0.000001
    25  H    0.001877  -0.007805  -0.002417   0.002701  -0.000031  -0.000053
    26  H   -0.000593  -0.013886   0.002357   0.000008  -0.000001   0.000000
               7          8          9         10         11         12
     1  O   -0.000035   0.000000   0.000000   0.000000   0.000000   0.000000
     2  S   -0.004909   0.000342  -0.000010   0.000000   0.000000   0.000000
     3  N   -0.084247   0.003690  -0.000103   0.000004   0.000000   0.000000
     4  C    0.470949  -0.057282   0.006548   0.000849  -0.000009   0.000000
     5  N   -0.070662  -0.074889   0.005992  -0.000313   0.000002   0.000000
     6  N   -0.104231   0.179124  -0.043139   0.003103  -0.000067   0.000016
     7  C    5.130857   0.320579  -0.036787  -0.007987  -0.000053   0.000021
     8  N    0.320579   6.957263   0.195355  -0.051713   0.004661   0.000400
     9  C   -0.036787   0.195355   4.613922   0.529296  -0.006800  -0.038167
    10  C   -0.007987  -0.051713   0.529296   4.996843   0.530369  -0.039648
    11  C   -0.000053   0.004661  -0.006800   0.530369   4.843150   0.550450
    12  C    0.000021   0.000400  -0.038167  -0.039648   0.550450   4.848183
    13  C   -0.000085   0.004563  -0.009794  -0.042504  -0.022454   0.543579
    14  C    0.007861  -0.056338   0.519516  -0.074318  -0.041750  -0.037281
    15  C   -0.000252  -0.000018  -0.000001   0.000000   0.000000   0.000000
    16  O   -0.000110   0.000002   0.000000   0.000000   0.000000   0.000000
    17  H   -0.001880   0.000003   0.000001   0.000000   0.000000   0.000000
    18  H    0.357978  -0.034548  -0.001723   0.002410   0.000188  -0.000001
    19  H    0.006089  -0.010031  -0.041398   0.347259  -0.038268   0.004542
    20  H   -0.000004  -0.000114   0.003577  -0.039694   0.359725  -0.040076
    21  H    0.000000   0.000004   0.000521   0.005022  -0.042424   0.362755
    22  H    0.000002  -0.000109   0.003452   0.000831   0.004581  -0.041302
    23  H    0.000265  -0.014236  -0.033200   0.005593   0.000158   0.004280
    24  H    0.000237   0.000000   0.000000   0.000000   0.000000   0.000000
    25  H    0.003595  -0.000141   0.000003   0.000000   0.000000   0.000000
    26  H   -0.000017   0.000001   0.000000   0.000000   0.000000   0.000000
              13         14         15         16         17         18
     1  O    0.000000   0.000000  -0.057842  -0.043059   0.002347  -0.000001
     2  S    0.000000   0.000000   0.202501   0.452491  -0.003749   0.000008
     3  N    0.000000   0.000001  -0.061235  -0.051124   0.300319   0.000048
     4  C    0.000006  -0.000364   0.000032  -0.001306  -0.032643  -0.027722
     5  N   -0.000005   0.000310  -0.000032   0.000821   0.002050   0.003998
     6  N    0.000388   0.000107   0.000005   0.000023  -0.000087   0.003575
     7  C   -0.000085   0.007861  -0.000252  -0.000110  -0.001880   0.357978
     8  N    0.004563  -0.056338  -0.000018   0.000002   0.000003  -0.034548
     9  C   -0.009794   0.519516  -0.000001   0.000000   0.000001  -0.001723
    10  C   -0.042504  -0.074318   0.000000   0.000000   0.000000   0.002410
    11  C   -0.022454  -0.041750   0.000000   0.000000   0.000000   0.000188
    12  C    0.543579  -0.037281   0.000000   0.000000   0.000000  -0.000001
    13  C    4.865310   0.517789   0.000000   0.000000   0.000000  -0.000005
    14  C    0.517789   4.982430   0.000000   0.000000   0.000000  -0.000136
    15  C    0.000000   0.000000   5.573429  -0.058650   0.000703   0.000105
    16  O    0.000000   0.000000  -0.058650   8.197199   0.001632   0.000000
    17  H    0.000000   0.000000   0.000703   0.001632   0.371295   0.000803
    18  H   -0.000005  -0.000136   0.000105   0.000000   0.000803   0.512154
    19  H    0.000254   0.005796   0.000000   0.000000   0.000000   0.002179
    20  H    0.004571   0.000779   0.000000   0.000000   0.000000  -0.000002
    21  H   -0.042228   0.004692   0.000000   0.000000   0.000000   0.000000
    22  H    0.360865  -0.038078   0.000000   0.000000   0.000000   0.000000
    23  H   -0.039469   0.354317   0.000000   0.000000   0.000000  -0.000011
    24  H    0.000000   0.000000   0.335046   0.002062  -0.000004   0.000055
    25  H    0.000000   0.000000   0.337690  -0.000238   0.000154   0.000092
    26  H    0.000000   0.000000   0.359750  -0.000067  -0.000022   0.000001
              19         20         21         22         23         24
     1  O    0.000000   0.000000   0.000000   0.000000   0.000000   0.000295
     2  S    0.000000   0.000000   0.000000   0.000000   0.000000  -0.007076
     3  N    0.000001   0.000000   0.000000   0.000000   0.000000   0.000550
     4  C    0.000091   0.000000   0.000000   0.000000   0.000074   0.000283
     5  N   -0.000002   0.000000   0.000000   0.000000  -0.000375  -0.000005
     6  N   -0.000091   0.000001   0.000000  -0.000008   0.016941  -0.000001
     7  C    0.006089  -0.000004   0.000000   0.000002   0.000265   0.000237
     8  N   -0.010031  -0.000114   0.000004  -0.000109  -0.014236   0.000000
     9  C   -0.041398   0.003577   0.000521   0.003452  -0.033200   0.000000
    10  C    0.347259  -0.039694   0.005022   0.000831   0.005593   0.000000
    11  C   -0.038268   0.359725  -0.042424   0.004581   0.000158   0.000000
    12  C    0.004542  -0.040076   0.362755  -0.041302   0.004280   0.000000
    13  C    0.000254   0.004571  -0.042228   0.360865  -0.039469   0.000000
    14  C    0.005796   0.000779   0.004692  -0.038078   0.354317   0.000000
    15  C    0.000000   0.000000   0.000000   0.000000   0.000000   0.335046
    16  O    0.000000   0.000000   0.000000   0.000000   0.000000   0.002062
    17  H    0.000000   0.000000   0.000000   0.000000   0.000000  -0.000004
    18  H    0.002179  -0.000002   0.000000   0.000000  -0.000011   0.000055
    19  H    0.589166  -0.005613  -0.000162   0.000015  -0.000141   0.000000
    20  H   -0.005613   0.578895  -0.005359  -0.000179   0.000013   0.000000
    21  H   -0.000162  -0.005359   0.580449  -0.005365  -0.000136   0.000000
    22  H    0.000015  -0.000179  -0.005365   0.572071  -0.004958   0.000000
    23  H   -0.000141   0.000013  -0.000136  -0.004958   0.526785   0.000000
    24  H    0.000000   0.000000   0.000000   0.000000   0.000000   0.522095
    25  H    0.000000   0.000000   0.000000   0.000000   0.000000  -0.025693
    26  H    0.000000   0.000000   0.000000   0.000000   0.000000  -0.020075
              25         26
     1  O    0.001877  -0.000593
     2  S   -0.007805  -0.013886
     3  N   -0.002417   0.002357
     4  C    0.002701   0.000008
     5  N   -0.000031  -0.000001
     6  N   -0.000053   0.000000
     7  C    0.003595  -0.000017
     8  N   -0.000141   0.000001
     9  C    0.000003   0.000000
    10  C    0.000000   0.000000
    11  C    0.000000   0.000000
    12  C    0.000000   0.000000
    13  C    0.000000   0.000000
    14  C    0.000000   0.000000
    15  C    0.337690   0.359750
    16  O   -0.000238  -0.000067
    17  H    0.000154  -0.000022
    18  H    0.000092   0.000001
    19  H    0.000000   0.000000
    20  H    0.000000   0.000000
    21  H    0.000000   0.000000
    22  H    0.000000   0.000000
    23  H    0.000000   0.000000
    24  H   -0.025693  -0.020075
    25  H    0.504256  -0.020922
    26  H   -0.020922   0.466519
 Mulliken charges:
               1
     1  O   -0.524669
     2  S    1.176335
     3  N   -0.760648
     4  C    0.378085
     5  N   -0.267169
     6  N   -0.063560
     7  C    0.012828
     8  N   -0.366567
     9  C    0.332939
    10  C   -0.165403
    11  C   -0.141460
    12  C   -0.117749
    13  C   -0.140780
    14  C   -0.145330
    15  C   -0.631230
    16  O   -0.499676
    17  H    0.359076
    18  H    0.180557
    19  H    0.140316
    20  H    0.143479
    21  H    0.142232
    22  H    0.148184
    23  H    0.184099
    24  H    0.192231
    25  H    0.206932
    26  H    0.226948
 Sum of Mulliken charges =   0.00000
 Mulliken charges with hydrogens summed into heavy atoms:
               1
     1  O   -0.524669
     2  S    1.176335
     3  N   -0.401573
     4  C    0.378085
     5  N   -0.267169
     6  N   -0.063560
     7  C    0.193385
     8  N   -0.366567
     9  C    0.332939
    10  C   -0.025087
    11  C    0.002019
    12  C    0.024483
    13  C    0.007404
    14  C    0.038770
    15  C   -0.005120
    16  O   -0.499676
 Electronic spatial extent (au):  <R**2>=           5497.2289
 Charge=              0.0000 electrons
 Dipole moment (field-independent basis, Debye):
    X=             -6.3481    Y=             -6.6491    Z=              1.5112  Tot=              9.3163
 Quadrupole moment (field-independent basis, Debye-Ang):
   XX=           -106.6586   YY=            -98.1757   ZZ=            -96.3010
   XY=             -8.6302   XZ=              3.1746   YZ=              2.7168
 Traceless Quadrupole moment (field-independent basis, Debye-Ang):
   XX=             -6.2801   YY=              2.2027   ZZ=              4.0774
   XY=             -8.6302   XZ=              3.1746   YZ=              2.7168
 Octapole moment (field-independent basis, Debye-Ang**2):
  XXX=           -170.0872  YYY=            -22.8224  ZZZ=              3.1698  XYY=             -5.7020
  XXY=            -24.4233  XXZ=             41.0095  XZZ=             31.0344  YZZ=             -6.1069
  YYZ=              0.2775  XYZ=            -18.8734
 Hexadecapole moment (field-independent basis, Debye-Ang**3):
 XXXX=          -6268.2507 YYYY=           -647.4282 ZZZZ=           -357.5825 XXXY=              5.7931
 XXXZ=             28.4884 YYYX=            -18.3633 YYYZ=             24.4867 ZZZX=             23.2696
 ZZZY=              4.5795 XXYY=          -1095.5239 XXZZ=          -1084.0384 YYZZ=           -167.2152
 XXYZ=              2.7264 YYXZ=             -3.9210 ZZXY=            -32.6795
 N-N= 1.184475209824D+03 E-N=-4.985489959578D+03  KE= 1.108403308741D+03
 No NMR shielding tensors so no spin-rotation constants.
 Leave Link  601 at Thu Aug  6 22:17:15 2020, MaxMem=    33554432 cpu:         0.2
 (Enter /prod/apps/gaussian/g09d1/l9999.exe)
 1\1\GINC-PIRINEUS28\SP\RB3LYP\6-31G(d)\C9H10N4O2S1\UBAFAR01\06-Aug-202
 0\0\\#p b3lyp/6-31G(d)\\SM44.n.4.pdb.xyz\\0,1\O,0,3.633,-0.575,-2.024\
 S,0,3.07,-1.811,-1.476\N,0,3.006,-1.542,0.198\C,0,2.474,-2.508,1.071\N
 ,0,3.176,-3.621,1.426\N,0,2.464,-4.316,2.267\C,0,1.264,-2.515,1.734\N,
 0,1.299,-3.649,2.477\C,0,0.319,-4.159,3.375\C,0,-0.636,-3.297,3.917\C,
 0,-1.599,-3.809,4.785\C,0,-1.599,-5.164,5.118\C,0,-0.632,-6.011,4.574\
 C,0,0.329,-5.518,3.696\C,0,1.363,-1.957,-2.026\O,0,3.719,-3.101,-1.694
 \H,0,2.768,-0.575,0.404\H,0,0.426,-1.839,1.728\H,0,-0.62,-2.242,3.675\
 H,0,-2.342,-3.142,5.207\H,0,-2.347,-5.557,5.797\H,0,-0.628,-7.065,4.82
 7\H,0,1.082,-6.161,3.259\H,0,0.848,-1.015,-1.839\H,0,0.888,-2.779,-1.4
 9\H,0,1.391,-2.17,-3.095\\Version=AM64L-G09RevD.01\State=1-A\HF=-1116.
 5049424\RMSD=9.137e-09\Dipole=-3.3655121,0.5322872,1.3507334\Quadrupol
 e=-6.6308834,5.3291221,1.3017613,-1.5515287,5.3119814,-0.0163601\PG=C0
 1 [X(C9H10N4O2S1)]\\@


 There was a great rattling of the words for the fewness of ideas.
                   -- Charles Baxter in Gryphon
 Job cpu time:       0 days  0 hours  2 minutes 29.3 seconds.
 File lengths (MBytes):  RWF=     40 Int=      0 D2E=      0 Chk=      4 Scr=      1
 Normal termination of Gaussian 09 at Thu Aug  6 22:17:15 2020.
 Initial command:
 /prod/apps/gaussian/g09d1/l1.exe "/tmp/ubafar01/1448666/Gau-165012.inp" -scrdir="/tmp/ubafar01/1448666/"
 Entering Link 1 = /prod/apps/gaussian/g09d1/l1.exe PID=    165248.
  
 Copyright (c) 1988,1990,1992,1993,1995,1998,2003,2009,2013,
            Gaussian, Inc.  All Rights Reserved.
  
 This is part of the Gaussian(R) 09 program.  It is based on
 the Gaussian(R) 03 system (copyright 2003, Gaussian, Inc.),
 the Gaussian(R) 98 system (copyright 1998, Gaussian, Inc.),
 the Gaussian(R) 94 system (copyright 1995, Gaussian, Inc.),
 the Gaussian 92(TM) system (copyright 1992, Gaussian, Inc.),
 the Gaussian 90(TM) system (copyright 1990, Gaussian, Inc.),
 the Gaussian 88(TM) system (copyright 1988, Gaussian, Inc.),
 the Gaussian 86(TM) system (copyright 1986, Carnegie Mellon
 University), and the Gaussian 82(TM) system (copyright 1983,
 Carnegie Mellon University). Gaussian is a federally registered
 trademark of Gaussian, Inc.
  
 This software contains proprietary and confidential information,
 including trade secrets, belonging to Gaussian, Inc.
  
 This software is provided under written license and may be
 used, copied, transmitted, or stored only in accord with that
 written license.
  
 The following legend is applicable only to US Government
 contracts under FAR:
  
                    RESTRICTED RIGHTS LEGEND
  
 Use, reproduction and disclosure by the US Government is
 subject to restrictions as set forth in subparagraphs (a)
 and (c) of the Commercial Computer Software - Restricted
 Rights clause in FAR 52.227-19.
  
 Gaussian, Inc.
 340 Quinnipiac St., Bldg. 40, Wallingford CT 06492
  
  
 ---------------------------------------------------------------
 Warning -- This program may not be used in any manner that
 competes with the business of Gaussian, Inc. or will provide
 assistance to any competitor of Gaussian, Inc.  The licensee
 of this program is prohibited from giving any competitor of
 Gaussian, Inc. access to this program.  By using this program,
 the user acknowledges that Gaussian, Inc. is engaged in the
 business of creating and licensing software in the field of
 computational chemistry and represents and warrants to the
 licensee that it is not a competitor of Gaussian, Inc. and that
 it will not use this program in any manner prohibited above.
 ---------------------------------------------------------------
  

 Cite this work as:
 Gaussian 09, Revision D.01,
 M. J. Frisch, G. W. Trucks, H. B. Schlegel, G. E. Scuseria, 
 M. A. Robb, J. R. Cheeseman, G. Scalmani, V. Barone, B. Mennucci, 
 G. A. Petersson, H. Nakatsuji, M. Caricato, X. Li, H. P. Hratchian, 
 A. F. Izmaylov, J. Bloino, G. Zheng, J. L. Sonnenberg, M. Hada, 
 M. Ehara, K. Toyota, R. Fukuda, J. Hasegawa, M. Ishida, T. Nakajima, 
 Y. Honda, O. Kitao, H. Nakai, T. Vreven, J. A. Montgomery, Jr., 
 J. E. Peralta, F. Ogliaro, M. Bearpark, J. J. Heyd, E. Brothers, 
 K. N. Kudin, V. N. Staroverov, T. Keith, R. Kobayashi, J. Normand, 
 K. Raghavachari, A. Rendell, J. C. Burant, S. S. Iyengar, J. Tomasi, 
 M. Cossi, N. Rega, J. M. Millam, M. Klene, J. E. Knox, J. B. Cross, 
 V. Bakken, C. Adamo, J. Jaramillo, R. Gomperts, R. E. Stratmann, 
 O. Yazyev, A. J. Austin, R. Cammi, C. Pomelli, J. W. Ochterski, 
 R. L. Martin, K. Morokuma, V. G. Zakrzewski, G. A. Voth, 
 P. Salvador, J. J. Dannenberg, S. Dapprich, A. D. Daniels, 
 O. Farkas, J. B. Foresman, J. V. Ortiz, J. Cioslowski, 
 and D. J. Fox, Gaussian, Inc., Wallingford CT, 2013.
 
 ******************************************
 Gaussian 09:  AM64L-G09RevD.01 24-Apr-2013
                 6-Aug-2020 
 ******************************************
 %nproc=1
 Will use up to    1 processors via shared memory.
 %Chk=SM44.n.4.pdb.xyz.mst.n.o.chk
 %subst l301 /dades/curu/work_g09D01_MST_AddSphPartition_ReadGammas/exe-dir/
 %subst l502 /dades/curu/work_g09D01_MST_AddSphPartition_ReadGammas/exe-dir/
 ----------------------------------------------------------------------
 #p b3lyp/6-31G(d) scrf=(iefpcm,read,solvent=n-Octanol) geom=allcheck g
 uess=read
 ----------------------------------------------------------------------
 1/29=7,38=1,40=2/1;
 2/12=2,40=1/2;
 3/5=1,6=6,7=1,11=2,14=-4,16=1,25=1,30=1,70=2203,72=25,74=-5,116=-2/1,2,3;
 4/5=1/1;
 5/5=2,38=6,53=25/2;
 6/7=2,8=2,9=2,10=2,28=1/1;
 99/5=1,9=1/99;
 Leave Link    1 at Thu Aug  6 22:17:15 2020, MaxMem=           0 cpu:         0.0
 (Enter /prod/apps/gaussian/g09d1/l101.exe)
 Structure from the checkpoint file:  "SM44.n.4.pdb.xyz.mst.n.o.chk"
 ----------------
 SM44.n.4.pdb.xyz
 ----------------
 Charge =  0 Multiplicity = 1
 Z-Matrix found in file.
 O,0,3.633,-0.575,-2.024
 S,0,3.07,-1.811,-1.476
 N,0,3.006,-1.542,0.198
 C,0,2.474,-2.508,1.071
 N,0,3.176,-3.621,1.426
 N,0,2.464,-4.316,2.267
 C,0,1.264,-2.515,1.734
 N,0,1.299,-3.649,2.477
 C,0,0.319,-4.159,3.375
 C,0,-0.636,-3.297,3.917
 C,0,-1.599,-3.809,4.785
 C,0,-1.599,-5.164,5.118
 C,0,-0.632,-6.011,4.574
 C,0,0.329,-5.518,3.696
 C,0,1.363,-1.957,-2.026
 O,0,3.719,-3.101,-1.694
 H,0,2.768,-0.575,0.404
 H,0,0.426,-1.839,1.728
 H,0,-0.62,-2.242,3.675
 H,0,-2.342,-3.142,5.207
 H,0,-2.347,-5.557,5.797
 H,0,-0.628,-7.065,4.827
 H,0,1.082,-6.161,3.259
 H,0,0.848,-1.015,-1.839
 H,0,0.888,-2.779,-1.49
 H,0,1.391,-2.17,-3.095
 Recover connectivity data from disk.
 NAtoms=     26 NQM=       26 NQMF=       0 NMMI=      0 NMMIF=      0
                NMic=       0 NMicF=      0.
                    Isotopes and Nuclear Properties:
 (Nuclear quadrupole moments (NQMom) in fm**2, nuclear magnetic moments (NMagM)
  in nuclear magnetons)

  Atom         1           2           3           4           5           6           7           8           9          10
 IAtWgt=          16          32          14          12          14          14          12          14          12          12
 AtmWgt=  15.9949146  31.9720718  14.0030740  12.0000000  14.0030740  14.0030740  12.0000000  14.0030740  12.0000000  12.0000000
 NucSpn=           0           0           2           0           2           2           0           2           0           0
 AtZEff=  -5.6000000 -13.6000000  -4.5500000  -3.6000000  -4.5500000  -4.5500000  -3.6000000  -4.5500000  -3.6000000  -3.6000000
 NQMom=    0.0000000   0.0000000   2.0440000   0.0000000   2.0440000   2.0440000   0.0000000   2.0440000   0.0000000   0.0000000
 NMagM=    0.0000000   0.0000000   0.4037610   0.0000000   0.4037610   0.4037610   0.0000000   0.4037610   0.0000000   0.0000000
 AtZNuc=   8.0000000  16.0000000   7.0000000   6.0000000   7.0000000   7.0000000   6.0000000   7.0000000   6.0000000   6.0000000

  Atom        11          12          13          14          15          16          17          18          19          20
 IAtWgt=          12          12          12          12          12          16           1           1           1           1
 AtmWgt=  12.0000000  12.0000000  12.0000000  12.0000000  12.0000000  15.9949146   1.0078250   1.0078250   1.0078250   1.0078250
 NucSpn=           0           0           0           0           0           0           1           1           1           1
 AtZEff=  -3.6000000  -3.6000000  -3.6000000  -3.6000000  -3.6000000  -5.6000000  -1.0000000  -1.0000000  -1.0000000  -1.0000000
 NQMom=    0.0000000   0.0000000   0.0000000   0.0000000   0.0000000   0.0000000   0.0000000   0.0000000   0.0000000   0.0000000
 NMagM=    0.0000000   0.0000000   0.0000000   0.0000000   0.0000000   0.0000000   2.7928460   2.7928460   2.7928460   2.7928460
 AtZNuc=   6.0000000   6.0000000   6.0000000   6.0000000   6.0000000   8.0000000   1.0000000   1.0000000   1.0000000   1.0000000

  Atom        21          22          23          24          25          26
 IAtWgt=           1           1           1           1           1           1
 AtmWgt=   1.0078250   1.0078250   1.0078250   1.0078250   1.0078250   1.0078250
 NucSpn=           1           1           1           1           1           1
 AtZEff=  -1.0000000  -1.0000000  -1.0000000  -1.0000000  -1.0000000  -1.0000000
 NQMom=    0.0000000   0.0000000   0.0000000   0.0000000   0.0000000   0.0000000
 NMagM=    2.7928460   2.7928460   2.7928460   2.7928460   2.7928460   2.7928460
 AtZNuc=   1.0000000   1.0000000   1.0000000   1.0000000   1.0000000   1.0000000
 Leave Link  101 at Thu Aug  6 22:17:15 2020, MaxMem=    33554432 cpu:         0.1
 (Enter /prod/apps/gaussian/g09d1/l202.exe)
                          Input orientation:                          
 ---------------------------------------------------------------------
 Center     Atomic      Atomic             Coordinates (Angstroms)
 Number     Number       Type             X           Y           Z
 ---------------------------------------------------------------------
      1          8           0        3.633000   -0.575000   -2.024000
      2         16           0        3.070000   -1.811000   -1.476000
      3          7           0        3.006000   -1.542000    0.198000
      4          6           0        2.474000   -2.508000    1.071000
      5          7           0        3.176000   -3.621000    1.426000
      6          7           0        2.464000   -4.316000    2.267000
      7          6           0        1.264000   -2.515000    1.734000
      8          7           0        1.299000   -3.649000    2.477000
      9          6           0        0.319000   -4.159000    3.375000
     10          6           0       -0.636000   -3.297000    3.917000
     11          6           0       -1.599000   -3.809000    4.785000
     12          6           0       -1.599000   -5.164000    5.118000
     13          6           0       -0.632000   -6.011000    4.574000
     14          6           0        0.329000   -5.518000    3.696000
     15          6           0        1.363000   -1.957000   -2.026000
     16          8           0        3.719000   -3.101000   -1.694000
     17          1           0        2.768000   -0.575000    0.404000
     18          1           0        0.426000   -1.839000    1.728000
     19          1           0       -0.620000   -2.242000    3.675000
     20          1           0       -2.342000   -3.142000    5.207000
     21          1           0       -2.347000   -5.557000    5.797000
     22          1           0       -0.628000   -7.065000    4.827000
     23          1           0        1.082000   -6.161000    3.259000
     24          1           0        0.848000   -1.015000   -1.839000
     25          1           0        0.888000   -2.779000   -1.490000
     26          1           0        1.391000   -2.170000   -3.095000
 ---------------------------------------------------------------------
                    Distance matrix (angstroms):
                    1          2          3          4          5
     1  O    0.000000
     2  S    1.464571   0.000000
     3  N    2.503098   1.696683   0.000000
     4  C    3.828681   2.707071   1.406524   0.000000
     5  N    4.624875   3.421833   2.420563   1.362937   0.000000
     6  N    5.811568   4.544481   3.502799   2.167805   1.302785
     7  C    4.847507   3.749847   2.518053   1.379753   2.230212
     8  N    5.929252   4.705411   3.542194   2.158551   2.151398
     9  C    7.278520   6.050893   4.915484   3.560652   3.500071
    10  C    7.805711   6.710222   5.493191   4.288862   4.565238
    11  C    9.175787   8.061742   6.883740   5.663544   5.841134
    12  C    9.972006   8.747743   7.650576   6.326284   6.229955
    13  C    9.553739   8.243015   7.235771   5.847158   5.488430
    14  C    8.250337   6.928529   5.933878   4.533404   4.105718
    15  C    2.657598   1.799351   2.796042   3.336065   4.239360
    16  O    2.548916   1.460419   2.553138   3.089806   3.209307
    17  H    2.577481   2.270088   1.016941   2.065869   3.238682
    18  H    5.095100   4.154171   3.014218   2.252446   3.290779
    19  H    7.303800   6.350958   5.072219   4.052704   4.622689
    20  H    9.725095   8.701942   7.500079   6.379836   6.706245
    21  H   11.033982   9.811877   8.724886   7.407666   7.304606
    22  H   10.354343   9.000418   8.070757   6.670546   6.156164
    23  H    8.100684   6.730146   5.865719   4.479890   3.767801
    24  H    2.825606   2.388026   3.013978   3.652537   4.782368
    25  H    3.560589   2.387120   2.977488   3.024493   3.800916
    26  H    2.952563   2.359890   3.721083   4.317718   5.072580
                    6          7          8          9         10
     6  N    0.000000
     7  C    2.228832   0.000000
     8  N    1.358755   1.356182   0.000000
     9  C    2.419367   2.507716   1.423694   0.000000
    10  C    3.656619   2.997835   2.437566   1.396006   0.000000
    11  C    4.806802   4.379476   3.708216   2.406101   1.393893
    12  C    5.035402   5.163858   4.203393   2.779712   2.419806
    13  C    4.216692   4.886966   3.702055   2.402479   2.792393
    14  C    2.836383   3.706977   2.433110   1.396432   2.431647
    15  C    5.020650   3.802468   4.810818   5.925330   6.411774
    16  O    4.329061   4.256948   4.853241   6.194685   7.105474
    17  H    4.190258   2.791866   3.988078   5.260180   5.598006
    18  H    3.252613   1.076688   2.144582   2.847184   2.836429
    19  H    3.974292   2.718725   2.664097   2.155600   1.082518
    20  H    5.754955   5.045601   4.578955   3.386951   2.144426
    21  H    6.094809   6.229049   5.287360   3.863683   3.401400
    22  H    4.865292   5.817973   4.572186   3.383777   3.876337
    23  H    2.509584   3.956269   2.639840   2.145607   3.403966
    24  H    5.510653   3.897356   5.076339   6.111495   6.367206
    25  H    4.354445   3.256570   4.082023   5.088849   5.641502
    26  H    5.874325   4.842974   5.765682   6.853189   7.385594
                   11         12         13         14         15
    11  C    0.000000
    12  C    1.395319   0.000000
    13  C    2.414211   1.395863   0.000000
    14  C    2.797103   2.421690   1.391925   0.000000
    15  C    7.654611   8.372277   7.998434   6.818443   0.000000
    16  O    8.411886   8.884843   8.166219   6.810733   2.640018
    17  H    6.980158   7.896291   7.648464   6.420221   3.128714
    18  H    4.162544   5.162204   5.159909   4.173425   3.870970
    19  H    2.155465   3.402760   3.874752   3.410750   6.042757
    20  H    1.083984   2.156027   3.399404   3.881074   8.212645
    21  H    2.153869   1.083971   2.154778   3.402455   9.376749
    22  H    3.397961   2.154373   1.083947   2.142013   8.776067
    23  H    3.879219   3.411400   2.165530   1.082325   6.758979
    24  H    7.594183   8.461788   8.262989   7.154201   1.089751
    25  H    6.828008   7.452453   7.037636   5.891451   1.090232
    26  H    8.586083   9.238913   8.812455   7.645563   1.090373
                   16         17         18         19         20
    16  O    0.000000
    17  H    3.418579   0.000000
    18  H    4.913917   2.972480   0.000000
    19  H    6.956361   4.995686   2.246627   0.000000
    20  H    9.184835   7.467958   4.632826   2.474330   0.000000
    21  H    9.947028   8.948072   6.170074   4.298213   2.486031
    22  H    8.782548   8.556626   6.166506   4.958679   4.297921
    23  H    6.391367   6.495923   4.631844   4.292834   4.963148
    24  H    3.551769   2.985138   3.685180   5.836501   8.021617
    25  H    2.856547   3.461106   3.384164   5.407371   7.444090
    26  H    2.872133   4.084502   4.929718   7.062734   9.154413
                   21         22         23         24         25
    21  H    0.000000
    22  H    2.483933   0.000000
    23  H    4.308631   2.489968   0.000000
    24  H    9.441731   9.122315   7.247460   0.000000
    25  H    8.442919   7.782836   5.833400   1.798638   0.000000
    26  H   10.223115   9.528666   7.509785   1.790645   1.788831
                   26
    26  H    0.000000
 Stoichiometry    C9H10N4O2S
 Framework group  C1[X(C9H10N4O2S)]
 Deg. of freedom    72
 Full point group                 C1      NOp   1
 RotChk:  IX=0 Diff= 3.46D-15
 Largest Abelian subgroup         C1      NOp   1
 Largest concise Abelian subgroup C1      NOp   1
                         Standard orientation:                         
 ---------------------------------------------------------------------
 Center     Atomic      Atomic             Coordinates (Angstroms)
 Number     Number       Type             X           Y           Z
 ---------------------------------------------------------------------
      1          8           0        4.688566   -0.632303   -0.470013
      2         16           0        3.494268   -0.098215    0.188297
      3          7           0        2.277387   -0.205464   -0.989171
      4          6           0        0.955101    0.182389   -0.707319
      5          7           0        0.585315    1.493231   -0.656825
      6          7           0       -0.693453    1.559814   -0.416886
      7          6           0       -0.158803   -0.602660   -0.491375
      8          7           0       -1.166840    0.289422   -0.326199
      9          6           0       -2.548642    0.041881   -0.089032
     10          6           0       -3.096647   -1.196155   -0.429314
     11          6           0       -4.447667   -1.432767   -0.180924
     12          6           0       -5.244554   -0.438816    0.388238
     13          6           0       -4.683087    0.796690    0.714906
     14          6           0       -3.332907    1.044715    0.484793
     15          6           0        3.015292   -1.223321    1.508290
     16          8           0        3.470082    1.257935    0.729682
     17          1           0        2.385714   -1.045974   -1.551290
     18          1           0       -0.299898   -1.668821   -0.439902
     19          1           0       -2.481603   -1.957582   -0.891693
     20          1           0       -4.875718   -2.393343   -0.443772
     21          1           0       -6.295774   -0.625584    0.575453
     22          1           0       -5.296319    1.572160    1.159353
     23          1           0       -2.878761    1.993934    0.738093
     24          1           0        2.991140   -2.240038    1.116803
     25          1           0        2.038772   -0.924791    1.890250
     26          1           0        3.769586   -1.134329    2.290617
 ---------------------------------------------------------------------
 Rotational constants (GHZ):      1.5973333      0.1976329      0.1893712
 Leave Link  202 at Thu Aug  6 22:17:15 2020, MaxMem=    33554432 cpu:         0.0
 (Enter /dades/curu/work_g09D01_MST_AddSphPartition_ReadGammas/exe-dir/l301.exe)
 Standard basis: 6-31G(d) (6D, 7F)
 Ernie: Thresh=  0.10000D-02 Tol=  0.10000D-05 Strict=F.
 There are   264 symmetry adapted cartesian basis functions of A   symmetry.
 There are   264 symmetry adapted basis functions of A   symmetry.
   264 basis functions,   512 primitive gaussians,   264 cartesian basis functions
    62 alpha electrons       62 beta electrons
       nuclear repulsion energy      1184.4752098239 Hartrees.
 IExCor=  402 DFT=T Ex+Corr=B3LYP ExCW=0 ScaHFX=  0.200000
 ScaDFX=  0.800000  0.720000  1.000000  0.810000 ScalE2=  1.000000  1.000000
 IRadAn=      0 IRanWt=     -1 IRanGd=            0 ICorTp=0 IEmpDi=  4
 NAtoms=   26 NActive=   26 NUniq=   26 SFac= 1.00D+00 NAtFMM=   60 NAOKFM=F Big=F
 Integral buffers will be    131072 words long.
 Raffenetti 2 integral format.
 Two-electron integral symmetry is turned on.
 Using the following non-standard input for PCM:
 MSTModel=DFT cav g03defaults OFac=0.8 Rmin=0.3
 Warning! Using old PCM defaults because the g03defaults keyword was found.
 These settings can be overridden by following keywords.
 --- end of non-standard input.
 MST model for solvation energy: B3LYP parametrization.
 MST cavity parameters:
 ISph   IAn     Re0     Alpha   Atom Type   QCorr
 ------------------------------------------------
   1      8     1.40     1.50      O          F
   2     16     1.75     1.50      S          F
   3      7     1.50     1.50      NH         F
   4      6     1.50     1.50      C          F
   5      7     1.50     1.50      N          F
   6      7     1.50     1.50      N          F
   7      6     1.50     1.50      CH         F
   8      7     1.50     1.50      N          F
   9      6     1.50     1.50      C          F
  10      6     1.50     1.50      CH         F
  11      6     1.50     1.50      CH         F
  12      6     1.50     1.50      CH         F
  13      6     1.50     1.50      CH         F
  14      6     1.50     1.50      CH         F
  15      6     1.50     1.50      CH3        F
  16      8     1.40     1.50      O          F
  17      1     0.90     1.50      NH         F
  18      1     1.20     1.50      CH         F
  19      1     1.20     1.50      CH         F
  20      1     1.20     1.50      CH         F
  21      1     1.20     1.50      CH         F
  22      1     1.20     1.50      CH         F
  23      1     1.20     1.50      CH         F
  24      1     1.20     1.50      CH3        F
  25      1     1.20     1.50      CH3        F
  26      1     1.20     1.50      CH3        F
 ------------------------------------------------------------------------------
 Polarizable Continuum Model (PCM)
 =================================
 Model                : PCM (using non-symmetric T matrix).
 Atomic radii         : MST.
 Polarization charges : Total charges.
 Charge compensation  : None.
 Solution method      : On-the-fly selection.
 Cavity type          : Scaled SES (Solvent Excluding Surface) (Alpha=1.500).
 Cavity algorithm     : GePol (RMin=0.300 OFac=0.800).
                        Default sphere list used, NSphG=   26.
                        Tesserae with average area of 0.200 Ang**2.
                        Smoothing algorithm: None.
                        Polarization charges: point-like.
                        Self-potential: constant (ISelfS= 1).
                        Self-field    : global E.n sum rule (ISelfD= 3).
 Solvent              : n-Octanol, Eps=   9.862900 Eps(inf)=   2.043470
                        RSolv=   3.420000 Ang.
 ------------------------------------------------------------------------------
 GePol: Number of generator spheres                  =      26
 GePol: Total number of spheres                      =      38
 GePol: Number of exposed spheres                    =      35 ( 92.11%)
 GePol: Number of tesserae                           =    2239
 GePol: Average area of tesserae                     =       0.14 Ang**2
 GePol: Minimum area of tessera                      =   0.11D-02 Ang**2
 GePol: Maximum area of tessera                      =    0.31367 Ang**2
 GePol: Number of small tesserae                     =      10
 GePol: Fraction of small tesserae (<1% of avg)      =       0.45%
 GePol: Total count of vertices                      =    7618
 GePol: Maximum number of vertices in a tessera      =       6
 GePol: Cavity surface area                          =    310.459 Ang**2
 GePol: Cavity volume                                =    365.570 Ang**3
 Surface areas from nonelectrostatic (unscaled) cavity:
 Sphere =    1 Type = O    Surf =       15.446
 Sphere =    2 Type = S    Surf =        9.660
 Sphere =    3 Type = NH   Surf =        9.818
 Sphere =    4 Type = C    Surf =        5.868
 Sphere =    5 Type = N    Surf =       13.191
 Sphere =    6 Type = N    Surf =       12.415
 Sphere =    7 Type = CH   Surf =        8.204
 Sphere =    8 Type = N    Surf =        5.872
 Sphere =    9 Type = C    Surf =        5.940
 Sphere =   10 Type = CH   Surf =        7.676
 Sphere =   11 Type = CH   Surf =        7.715
 Sphere =   12 Type = CH   Surf =        7.740
 Sphere =   13 Type = CH   Surf =        7.701
 Sphere =   14 Type = CH   Surf =        7.576
 Sphere =   15 Type = CH3  Surf =        4.488
 Sphere =   16 Type = O    Surf =       15.417
 Sphere =   17 Type = NH   Surf =        3.960
 Sphere =   18 Type = CH   Surf =        9.692
 Sphere =   19 Type = CH   Surf =        9.729
 Sphere =   20 Type = CH   Surf =       10.316
 Sphere =   21 Type = CH   Surf =       10.317
 Sphere =   22 Type = CH   Surf =       10.317
 Sphere =   23 Type = CH   Surf =        9.625
 Sphere =   24 Type = CH3  Surf =       10.207
 Sphere =   25 Type = CH3  Surf =       10.207
 Sphere =   26 Type = CH3  Surf =       10.137
 PCM non-electrostatic energy =        -0.0090265571 Hartrees.
 Nuclear repulsion after PCM non-electrostatic terms =     1184.4661832668 Hartrees.
 Leave Link  301 at Thu Aug  6 22:17:15 2020, MaxMem=    33554432 cpu:         0.1
 (Enter /prod/apps/gaussian/g09d1/l302.exe)
 NPDir=0 NMtPBC=     1 NCelOv=     1 NCel=       1 NClECP=     1 NCelD=      1
         NCelK=      1 NCelE2=     1 NClLst=     1 CellRange=     0.0.
 One-electron integrals computed using PRISM.
 NBasis=   264 RedAO= T EigKep=  4.65D-04  NBF=   264
 NBsUse=   264 1.00D-06 EigRej= -1.00D+00 NBFU=   264
 Precomputing XC quadrature grid using
 IXCGrd= 4 IRadAn=           0 IRanWt=          -1 IRanGd=           0 AccXCQ= 0.00D+00.
 Generated NRdTot=       0 NPtTot=           0 NUsed=           0 NTot=          32
 NSgBfM=   262   262   262   262   262 MxSgAt=    26 MxSgA2=    26.
 Leave Link  302 at Thu Aug  6 22:17:16 2020, MaxMem=    33554432 cpu:         0.7
 (Enter /prod/apps/gaussian/g09d1/l303.exe)
 DipDrv:  MaxL=1.
 Leave Link  303 at Thu Aug  6 22:17:16 2020, MaxMem=    33554432 cpu:         0.0
 (Enter /prod/apps/gaussian/g09d1/l401.exe)
 Initial guess from the checkpoint file:  "SM44.n.4.pdb.xyz.mst.n.o.chk"
 B after Tr=     0.000000    0.000000    0.000000
         Rot=    1.000000    0.000000    0.000000    0.000000 Ang=   0.00 deg.
 Guess basis will be translated and rotated to current coordinates.
 JPrj=2 DoOrth=T DoCkMO=T.
 Leave Link  401 at Thu Aug  6 22:17:16 2020, MaxMem=    33554432 cpu:         0.2
 (Enter /dades/curu/work_g09D01_MST_AddSphPartition_ReadGammas/exe-dir/l502.exe)
 Closed shell SCF:
 Using DIIS extrapolation, IDIIS=  1040.
 Integral symmetry usage will be decided dynamically.
 IVT=      231207 IEndB=      231207 NGot=    33554432 MDV=    33409826
 LenX=    33409826 LenY=    33339689
 Requested convergence on RMS density matrix=1.00D-08 within 128 cycles.
 Requested convergence on MAX density matrix=1.00D-06.
 Requested convergence on             energy=1.00D-06.
 No special actions if energy rises.
 Fock matrices will be formed incrementally for  20 cycles.

 Cycle   1  Pass 1  IDiag  1:
 FoFJK:  IHMeth= 1 ICntrl=       0 DoSepK=F KAlg= 0 I1Cent=   0 FoldK=F
 IRaf= 770000000 NMat=   1 IRICut=       1 DoRegI=T DoRafI=F ISym2E= 0.
 FoFCou: FMM=F IPFlag=           0 FMFlag=      100000 FMFlg1=           0
         NFxFlg=           0 DoJE=F BraDBF=F KetDBF=F FulRan=T
         wScrn=  0.000000 ICntrl=       0 IOpCl=  0 I1Cent=           0 NGrid=           0
         NMat0=    1 NMatS0=      1 NMatT0=    0 NMatD0=    1 NMtDS0=    0 NMtDT0=    0
 Symmetry not used in FoFCou.
 Inv3:  Mode=1 IEnd=    15039363.
 Iteration    1 A*A^-1 deviation from unit magnitude is 6.66D-15 for   2221.
 Iteration    1 A*A^-1 deviation from orthogonality  is 2.10D-15 for   2236   1090.
 Iteration    1 A^-1*A deviation from unit magnitude is 7.33D-15 for   2221.
 Iteration    1 A^-1*A deviation from orthogonality  is 2.16D-15 for   2232   2221.
 E= -1116.52906482138    
 DIIS: error= 1.61D-03 at cycle   1 NSaved=   1.
 NSaved= 1 IEnMin= 1 EnMin= -1116.52906482138     IErMin= 1 ErrMin= 1.61D-03
 ErrMax= 1.61D-03  0.00D+00 EMaxC= 1.00D-01 BMatC= 1.06D-03 BMatP= 1.06D-03
 IDIUse=3 WtCom= 9.84D-01 WtEn= 1.61D-02
 Coeff-Com:  0.100D+01
 Coeff-En:   0.100D+01
 Coeff:      0.100D+01
 Gap=     0.198 Goal=   None    Shift=    0.000
 GapD=    0.198 DampG=1.000 DampE=1.000 DampFc=1.0000 IDamp=-1.
 RMSDP=6.53D-04 MaxDP=1.51D-02              OVMax= 2.93D-02

 Cycle   2  Pass 1  IDiag  1:
 RMSU=  6.47D-04    CP:  9.96D-01
[...]
   20      H20     16.52  -0.036   -0.28
   21      H21     16.55  -0.034   -0.22
   22      H22     16.53  -0.036   -0.20
   23      H23     11.51  -0.022   -0.06
   24      H24     11.88  -0.041   -0.47
   25      H25      9.53  -0.033   -0.27
   26      H26     15.14  -0.052   -0.23
 Added spheres:    24.80  -0.013    0.00
 --------------------------------------------------------------------
 After PCM corrections, the energy is  -1116.53155691     a.u.
 --------------------------------------------------------------------
 Leave Link  502 at Thu Aug  6 22:19:20 2020, MaxMem=    33554432 cpu:       123.9
 (Enter /prod/apps/gaussian/g09d1/l601.exe)
 Copying SCF densities to generalized density rwf, IOpCl= 0 IROHF=0.

 **********************************************************************

            Population analysis using the SCF density.

 **********************************************************************

 Orbital symmetries:
       Occupied  (A) (A) (A) (A) (A) (A) (A) (A) (A) (A) (A) (A)
                 (A) (A) (A) (A) (A) (A) (A) (A) (A) (A) (A) (A)
                 (A) (A) (A) (A) (A) (A) (A) (A) (A) (A) (A) (A)
                 (A) (A) (A) (A) (A) (A) (A) (A) (A) (A) (A) (A)
                 (A) (A) (A) (A) (A) (A) (A) (A) (A) (A) (A) (A)
                 (A) (A)
       Virtual   (A) (A) (A) (A) (A) (A) (A) (A) (A) (A) (A) (A)
                 (A) (A) (A) (A) (A) (A) (A) (A) (A) (A) (A) (A)
                 (A) (A) (A) (A) (A) (A) (A) (A) (A) (A) (A) (A)
                 (A) (A) (A) (A) (A) (A) (A) (A) (A) (A) (A) (A)
                 (A) (A) (A) (A) (A) (A) (A) (A) (A) (A) (A) (A)
                 (A) (A) (A) (A) (A) (A) (A) (A) (A) (A) (A) (A)
                 (A) (A) (A) (A) (A) (A) (A) (A) (A) (A) (A) (A)
                 (A) (A) (A) (A) (A) (A) (A) (A) (A) (A) (A) (A)
                 (A) (A) (A) (A) (A) (A) (A) (A) (A) (A) (A) (A)
                 (A) (A) (A) (A) (A) (A) (A) (A) (A) (A) (A) (A)
                 (A) (A) (A) (A) (A) (A) (A) (A) (A) (A) (A) (A)
                 (A) (A) (A) (A) (A) (A) (A) (A) (A) (A) (A) (A)
                 (A) (A) (A) (A) (A) (A) (A) (A) (A) (A) (A) (A)
                 (A) (A) (A) (A) (A) (A) (A) (A) (A) (A) (A) (A)
                 (A) (A) (A) (A) (A) (A) (A) (A) (A) (A) (A) (A)
                 (A) (A) (A) (A) (A) (A) (A) (A) (A) (A) (A) (A)
                 (A) (A) (A) (A) (A) (A) (A) (A) (A) (A)
 The electronic state is 1-A.
 Alpha  occ. eigenvalues --  -89.12397 -19.15303 -19.15282 -14.44898 -14.40497
 Alpha  occ. eigenvalues --  -14.38712 -14.37016 -10.26787 -10.25566 -10.25104
 Alpha  occ. eigenvalues --  -10.23062 -10.21233 -10.20761 -10.20735 -10.20580
 Alpha  occ. eigenvalues --  -10.20354  -8.14955  -6.11468  -6.11363  -6.11238
 Alpha  occ. eigenvalues --   -1.12299  -1.11485  -1.01220  -0.96017  -0.93346
 Alpha  occ. eigenvalues --   -0.86557  -0.81512  -0.77895  -0.76803  -0.76255
 Alpha  occ. eigenvalues --   -0.67227  -0.66731  -0.63460  -0.61332  -0.59224
 Alpha  occ. eigenvalues --   -0.57120  -0.54231  -0.53013  -0.50305  -0.49911
 Alpha  occ. eigenvalues --   -0.49010  -0.48685  -0.47189  -0.45912  -0.45084
 Alpha  occ. eigenvalues --   -0.44407  -0.43913  -0.43577  -0.39234  -0.37835
 Alpha  occ. eigenvalues --   -0.36647  -0.36094  -0.34649  -0.33977  -0.32776
 Alpha  occ. eigenvalues --   -0.31971  -0.31699  -0.31151  -0.28484  -0.27112
 Alpha  occ. eigenvalues --   -0.26825  -0.24570
 Alpha virt. eigenvalues --   -0.04849  -0.01909   0.01150   0.01732   0.06006
 Alpha virt. eigenvalues --    0.07227   0.08122   0.09735   0.10161   0.10244
 Alpha virt. eigenvalues --    0.11495   0.12861   0.14352   0.14790   0.14838
 Alpha virt. eigenvalues --    0.15395   0.15693   0.17870   0.18347   0.19235
 Alpha virt. eigenvalues --    0.20893   0.22889   0.24458   0.28872   0.30150
 Alpha virt. eigenvalues --    0.30901   0.32673   0.33333   0.35678   0.36342
 Alpha virt. eigenvalues --    0.38667   0.42038   0.42596   0.43339   0.48066
 Alpha virt. eigenvalues --    0.48284   0.49579   0.51473   0.51652   0.52513
 Alpha virt. eigenvalues --    0.53674   0.54178   0.55300   0.56836   0.57472
 Alpha virt. eigenvalues --    0.57700   0.58291   0.59635   0.60272   0.60445
 Alpha virt. eigenvalues --    0.60842   0.62107   0.62862   0.64243   0.66254
 Alpha virt. eigenvalues --    0.68051   0.68992   0.70436   0.70959   0.72763
 Alpha virt. eigenvalues --    0.74121   0.76858   0.77618   0.79222   0.79665
 Alpha virt. eigenvalues --    0.81005   0.83106   0.83342   0.83429   0.84602
 Alpha virt. eigenvalues --    0.84850   0.84918   0.86216   0.86520   0.87690
 Alpha virt. eigenvalues --    0.88788   0.89656   0.90789   0.92848   0.93380
 Alpha virt. eigenvalues --    0.94925   0.96400   0.97346   0.98742   1.00850
 Alpha virt. eigenvalues --    1.01111   1.02779   1.04139   1.05517   1.06633
 Alpha virt. eigenvalues --    1.07891   1.11301   1.13019   1.15604   1.15689
 Alpha virt. eigenvalues --    1.16681   1.17826   1.19373   1.19522   1.23271
 Alpha virt. eigenvalues --    1.24384   1.25004   1.30048   1.32007   1.35591
 Alpha virt. eigenvalues --    1.36941   1.39227   1.41320   1.42375   1.44054
 Alpha virt. eigenvalues --    1.45629   1.47402   1.47833   1.49365   1.51634
 Alpha virt. eigenvalues --    1.52409   1.56276   1.57200   1.60748   1.64214
 Alpha virt. eigenvalues --    1.68473   1.71902   1.74293   1.77545   1.78308
 Alpha virt. eigenvalues --    1.79156   1.79601   1.80412   1.81227   1.84192
 Alpha virt. eigenvalues --    1.85020   1.86356   1.87641   1.89894   1.91470
 Alpha virt. eigenvalues --    1.93938   1.95743   1.96356   1.99633   2.03476
 Alpha virt. eigenvalues --    2.04983   2.05716   2.07631   2.08630   2.10439
 Alpha virt. eigenvalues --    2.10747   2.12651   2.13366   2.14277   2.16341
 Alpha virt. eigenvalues --    2.19410   2.19477   2.20662   2.21867   2.24128
 Alpha virt. eigenvalues --    2.25775   2.27837   2.28789   2.30398   2.31824
 Alpha virt. eigenvalues --    2.34881   2.36296   2.38499   2.48927   2.50809
 Alpha virt. eigenvalues --    2.53500   2.57006   2.57754   2.59463   2.61941
 Alpha virt. eigenvalues --    2.64164   2.66626   2.69112   2.71415   2.73744
 Alpha virt. eigenvalues --    2.74047   2.75752   2.77091   2.82142   2.86721
 Alpha virt. eigenvalues --    2.88658   3.00295   3.06269   3.12655   3.25508
 Alpha virt. eigenvalues --    3.41945   3.60587   3.75481   3.89237   3.94632
 Alpha virt. eigenvalues --    3.96746   4.06132   4.07597   4.09793   4.10525
 Alpha virt. eigenvalues --    4.14993   4.18934   4.22894   4.31231   4.38661
 Alpha virt. eigenvalues --    4.48539   4.70666
          Condensed to atoms (all electrons):
               1          2          3          4          5          6
     1  O    8.244276   0.448378  -0.051580   0.001598  -0.000017   0.000000
     2  S    0.448378  13.643447   0.122778  -0.017878   0.002225   0.000103
     3  N   -0.051580   0.122778   7.396287   0.250105  -0.057921   0.005863
     4  C    0.001598  -0.017878   0.250105   4.697631   0.360337  -0.070206
     5  N   -0.000017   0.002225  -0.057921   0.360337   6.852747   0.292930
     6  N    0.000000   0.000103   0.005863  -0.070206   0.292930   6.772008
     7  C   -0.000035  -0.004578  -0.078044   0.497564  -0.072505  -0.101839
     8  N    0.000000   0.000299   0.003520  -0.048632  -0.084304   0.203210
     9  C    0.000000  -0.000011  -0.000114   0.005345   0.006296  -0.043616
    10  C    0.000000   0.000000   0.000004   0.000926  -0.000324   0.003083
    11  C    0.000000   0.000000   0.000000  -0.000009   0.000002  -0.000067
    12  C    0.000000   0.000000   0.000000   0.000000   0.000000   0.000017
    13  C    0.000000   0.000000   0.000000   0.000006  -0.000005   0.000349
    14  C    0.000000   0.000000   0.000001  -0.000377   0.000340  -0.000538
    15  C   -0.058571   0.224716  -0.062406  -0.000579  -0.000070   0.000005
    16  O   -0.042162   0.449709  -0.051812  -0.001184   0.000886   0.000029
    17  H    0.001884  -0.005102   0.302096  -0.027926   0.001794  -0.000072
    18  H   -0.000001  -0.000001  -0.000200  -0.025946   0.003931   0.003441
    19  H    0.000000   0.000000   0.000001   0.000103  -0.000005  -0.000089
    20  H    0.000000   0.000000   0.000000   0.000000   0.000000   0.000001
    21  H    0.000000   0.000000   0.000000   0.000000   0.000000   0.000000
    22  H    0.000000   0.000000   0.000000   0.000000   0.000000  -0.000008
    23  H    0.000000   0.000000   0.000000   0.000059  -0.000361   0.017038
    24  H    0.000137  -0.008126   0.000325   0.000238  -0.000004  -0.000001
    25  H    0.001839  -0.008097  -0.002541   0.002861  -0.000022  -0.000052
    26  H   -0.000497  -0.013505   0.002358   0.000016  -0.000002   0.000000
               7          8          9         10         11         12
     1  O   -0.000035   0.000000   0.000000   0.000000   0.000000   0.000000
     2  S   -0.004578   0.000299  -0.000011   0.000000   0.000000   0.000000
     3  N   -0.078044   0.003520  -0.000114   0.000004   0.000000   0.000000
     4  C    0.497564  -0.048632   0.005345   0.000926  -0.000009   0.000000
     5  N   -0.072505  -0.084304   0.006296  -0.000324   0.000002   0.000000
     6  N   -0.101839   0.203210  -0.043616   0.003083  -0.000067   0.000017
     7  C    5.068488   0.327897  -0.034648  -0.007161  -0.000017   0.000021
     8  N    0.327897   6.923959   0.195494  -0.051472   0.004636   0.000366
     9  C   -0.034648   0.195494   4.624009   0.529072  -0.008300  -0.038216
    10  C   -0.007161  -0.051472   0.529072   4.995290   0.529722  -0.040384
    11  C   -0.000017   0.004636  -0.008300   0.529722   4.850730   0.547323
    12  C    0.000021   0.000366  -0.038216  -0.040384   0.547323   4.858386
    13  C   -0.000084   0.004565  -0.010226  -0.042653  -0.023458   0.541676
    14  C    0.007619  -0.057232   0.517020  -0.072924  -0.041506  -0.038318
    15  C   -0.000115  -0.000020  -0.000001   0.000000   0.000000   0.000000
    16  O   -0.000115   0.000002   0.000000   0.000000   0.000000   0.000000
    17  H   -0.001675   0.000003   0.000002   0.000000   0.000000   0.000000
    18  H    0.360524  -0.033386  -0.001869   0.002341   0.000187  -0.000001
    19  H    0.006012  -0.009617  -0.040852   0.351286  -0.035347   0.004359
    20  H   -0.000004  -0.000110   0.003454  -0.038144   0.362030  -0.039450
    21  H    0.000000   0.000004   0.000504   0.004941  -0.041501   0.364673
    22  H    0.000001  -0.000107   0.003508   0.000768   0.004516  -0.040341
    23  H    0.000252  -0.014231  -0.036680   0.005583   0.000110   0.004402
    24  H    0.000228   0.000000   0.000000   0.000000   0.000000   0.000000
    25  H    0.003265  -0.000125   0.000003   0.000000   0.000000   0.000000
    26  H   -0.000017   0.000001   0.000000   0.000000   0.000000   0.000000
              13         14         15         16         17         18
     1  O    0.000000   0.000000  -0.058571  -0.042162   0.001884  -0.000001
     2  S    0.000000   0.000000   0.224716   0.449709  -0.005102  -0.000001
     3  N    0.000000   0.000001  -0.062406  -0.051812   0.302096  -0.000200
     4  C    0.000006  -0.000377  -0.000579  -0.001184  -0.027926  -0.025946
     5  N   -0.000005   0.000340  -0.000070   0.000886   0.001794   0.003931
     6  N    0.000349  -0.000538   0.000005   0.000029  -0.000072   0.003441
     7  C   -0.000084   0.007619  -0.000115  -0.000115  -0.001675   0.360524
     8  N    0.004565  -0.057232  -0.000020   0.000002   0.000003  -0.033386
     9  C   -0.010226   0.517020  -0.000001   0.000000   0.000002  -0.001869
    10  C   -0.042653  -0.072924   0.000000   0.000000   0.000000   0.002341
    11  C   -0.023458  -0.041506   0.000000   0.000000   0.000000   0.000187
    12  C    0.541676  -0.038318   0.000000   0.000000   0.000000  -0.000001
    13  C    4.871670   0.519281   0.000000   0.000000   0.000000  -0.000004
    14  C    0.519281   4.989675   0.000000   0.000000   0.000000  -0.000123
    15  C    0.000000   0.000000   5.551952  -0.059942   0.000442   0.000092
    16  O    0.000000   0.000000  -0.059942   8.231306   0.001407   0.000000
    17  H    0.000000   0.000000   0.000442   0.001407   0.332829   0.000681
    18  H   -0.000004  -0.000123   0.000092   0.000000   0.000681   0.475117
    19  H    0.000246   0.005409   0.000000   0.000000   0.000000   0.001863
    20  H    0.004464   0.000764   0.000000   0.000000   0.000000  -0.000001
    21  H   -0.041612   0.004647   0.000000   0.000000   0.000000   0.000000
    22  H    0.362657  -0.038066   0.000000   0.000000   0.000000   0.000000
    23  H   -0.038910   0.355331   0.000000   0.000000   0.000000  -0.000010
    24  H    0.000000   0.000000   0.341018   0.001966  -0.000009   0.000041
    25  H    0.000000   0.000000   0.340011  -0.000288   0.000145   0.000085
    26  H    0.000000   0.000000   0.357155   0.000006  -0.000018   0.000001
              19         20         21         22         23         24
     1  O    0.000000   0.000000   0.000000   0.000000   0.000000   0.000137
     2  S    0.000000   0.000000   0.000000   0.000000   0.000000  -0.008126
     3  N    0.000001   0.000000   0.000000   0.000000   0.000000   0.000325
     4  C    0.000103   0.000000   0.000000   0.000000   0.000059   0.000238
     5  N   -0.000005   0.000000   0.000000   0.000000  -0.000361  -0.000004
     6  N   -0.000089   0.000001   0.000000  -0.000008   0.017038  -0.000001
     7  C    0.006012  -0.000004   0.000000   0.000001   0.000252   0.000228
     8  N   -0.009617  -0.000110   0.000004  -0.000107  -0.014231   0.000000
     9  C   -0.040852   0.003454   0.000504   0.003508  -0.036680   0.000000
    10  C    0.351286  -0.038144   0.004941   0.000768   0.005583   0.000000
    11  C   -0.035347   0.362030  -0.041501   0.004516   0.000110   0.000000
    12  C    0.004359  -0.039450   0.364673  -0.040341   0.004402   0.000000
    13  C    0.000246   0.004464  -0.041612   0.362657  -0.038910   0.000000
    14  C    0.005409   0.000764   0.004647  -0.038066   0.355331   0.000000
    15  C    0.000000   0.000000   0.000000   0.000000   0.000000   0.341018
    16  O    0.000000   0.000000   0.000000   0.000000   0.000000   0.001966
    17  H    0.000000   0.000000   0.000000   0.000000   0.000000  -0.000009
    18  H    0.001863  -0.000001   0.000000   0.000000  -0.000010   0.000041
    19  H    0.560128  -0.005244  -0.000152   0.000014  -0.000136   0.000000
    20  H   -0.005244   0.559892  -0.005131  -0.000170   0.000013   0.000000
    21  H   -0.000152  -0.005131   0.565040  -0.005190  -0.000134   0.000000
    22  H    0.000014  -0.000170  -0.005190   0.559738  -0.005041   0.000000
    23  H   -0.000136   0.000013  -0.000134  -0.005041   0.535172   0.000000
    24  H    0.000000   0.000000   0.000000   0.000000   0.000000   0.490029
    25  H    0.000000   0.000000   0.000000   0.000000   0.000000  -0.022744
    26  H    0.000000   0.000000   0.000000   0.000000   0.000000  -0.018543
              25         26
     1  O    0.001839  -0.000497
     2  S   -0.008097  -0.013505
     3  N   -0.002541   0.002358
     4  C    0.002861   0.000016
     5  N   -0.000022  -0.000002
     6  N   -0.000052   0.000000
     7  C    0.003265  -0.000017
     8  N   -0.000125   0.000001
     9  C    0.000003   0.000000
    10  C    0.000000   0.000000
    11  C    0.000000   0.000000
    12  C    0.000000   0.000000
    13  C    0.000000   0.000000
    14  C    0.000000   0.000000
    15  C    0.340011   0.357155
    16  O   -0.000288   0.000006
    17  H    0.000145  -0.000018
    18  H    0.000085   0.000001
    19  H    0.000000   0.000000
    20  H    0.000000   0.000000
    21  H    0.000000   0.000000
    22  H    0.000000   0.000000
    23  H    0.000000   0.000000
    24  H   -0.022744  -0.018543
    25  H    0.487484  -0.019924
    26  H   -0.019924   0.460274
 Mulliken charges:
               1
     1  O   -0.545248
     2  S    1.165642
     3  N   -0.778719
     4  C    0.375947
     5  N   -0.305950
     6  N   -0.081590
     7  C    0.028965
     8  N   -0.364718
     9  C    0.329825
    10  C   -0.169954
    11  C   -0.149052
    12  C   -0.124514
    13  C   -0.147961
    14  C   -0.151002
    15  C   -0.633687
    16  O   -0.529809
    17  H    0.393516
    18  H    0.213237
    19  H    0.162020
    20  H    0.157639
    21  H    0.153911
    22  H    0.157720
    23  H    0.177545
    24  H    0.215443
    25  H    0.218101
    26  H    0.232695
 Sum of Mulliken charges =   0.00000
 Mulliken charges with hydrogens summed into heavy atoms:
               1
     1  O   -0.545248
     2  S    1.165642
     3  N   -0.385203
     4  C    0.375947
     5  N   -0.305950
     6  N   -0.081590
     7  C    0.242202
     8  N   -0.364718
     9  C    0.329825
    10  C   -0.007934
    11  C    0.008587
    12  C    0.029398
    13  C    0.009759
    14  C    0.026542
    15  C    0.032552
    16  O   -0.529809
 Electronic spatial extent (au):  <R**2>=           5497.2076
 Charge=              0.0000 electrons
 Dipole moment (field-independent basis, Debye):
    X=             -7.3423    Y=             -8.3046    Z=              1.6242  Tot=             11.2033
 Quadrupole moment (field-independent basis, Debye-Ang):
   XX=           -107.5193   YY=            -97.8717   ZZ=            -95.7157
   XY=             -9.6010   XZ=              3.5577   YZ=              2.9591
 Traceless Quadrupole moment (field-independent basis, Debye-Ang):
   XX=             -7.1504   YY=              2.4972   ZZ=              4.6532
   XY=             -9.6010   XZ=              3.5577   YZ=              2.9591
 Octapole moment (field-independent basis, Debye-Ang**2):
  XXX=           -200.5967  YYY=            -30.2980  ZZZ=              3.8037  XYY=             -7.6283
  XXY=            -34.4546  XXZ=             43.3857  XZZ=             31.3445  YZZ=             -8.3547
  YYZ=              0.7096  XYZ=            -20.5509
 Hexadecapole moment (field-independent basis, Debye-Ang**3):
 XXXX=          -6266.2520 YYYY=           -644.0701 ZZZZ=           -353.6939 XXXY=              5.0886
 XXXZ=             29.8422 YYYX=            -20.8674 YYYZ=             25.1937 ZZZX=             25.4164
 ZZZY=              4.3801 XXYY=          -1086.2427 XXZZ=          -1079.9628 YYZZ=           -165.3530
 XXYZ=              1.1274 YYXZ=             -2.0238 ZZXY=            -36.0517
 N-N= 1.184466183267D+03 E-N=-4.985753226151D+03  KE= 1.108400025047D+03
 No NMR shielding tensors so no spin-rotation constants.
 Leave Link  601 at Thu Aug  6 22:19:21 2020, MaxMem=    33554432 cpu:         0.2
 (Enter /prod/apps/gaussian/g09d1/l9999.exe)
 1\1\GINC-PIRINEUS28\SP\RB3LYP\6-31G(d)\C9H10N4O2S1\UBAFAR01\06-Aug-202
 0\0\\#p b3lyp/6-31G(d) scrf=(iefpcm,read,solvent=n-Octanol) geom=allch
 eck guess=read\\SM44.n.4.pdb.xyz\\0,1\O,0,3.633,-0.575,-2.024\S,0,3.07
 ,-1.811,-1.476\N,0,3.006,-1.542,0.198\C,0,2.474,-2.508,1.071\N,0,3.176
 ,-3.621,1.426\N,0,2.464,-4.316,2.267\C,0,1.264,-2.515,1.734\N,0,1.299,
 -3.649,2.477\C,0,0.319,-4.159,3.375\C,0,-0.636,-3.297,3.917\C,0,-1.599
 ,-3.809,4.785\C,0,-1.599,-5.164,5.118\C,0,-0.632,-6.011,4.574\C,0,0.32
 9,-5.518,3.696\C,0,1.363,-1.957,-2.026\O,0,3.719,-3.101,-1.694\H,0,2.7
 68,-0.575,0.404\H,0,0.426,-1.839,1.728\H,0,-0.62,-2.242,3.675\H,0,-2.3
 42,-3.142,5.207\H,0,-2.347,-5.557,5.797\H,0,-0.628,-7.065,4.827\H,0,1.
 082,-6.161,3.259\H,0,0.848,-1.015,-1.839\H,0,0.888,-2.779,-1.49\H,0,1.
 391,-2.17,-3.095\\Version=AM64L-G09RevD.01\State=1-A\HF=-1116.5315569\
 RMSD=3.725e-09\Dipole=-4.035257,0.8162949,1.5742914\Quadrupole=-7.3421
 082,5.9082554,1.4338528,-1.7494451,6.0108278,0.0335102\PG=C01 [X(C9H10
 N4O2S1)]\\@


 IF MATHEMATICALLY YOU END UP WITH THE INCORRECT ANSWER,
 TRY MULTIPLYING BY THE PAGE NUMBER.
 Job cpu time:       0 days  0 hours  2 minutes  5.3 seconds.
 File lengths (MBytes):  RWF=    124 Int=      0 D2E=      0 Chk=      5 Scr=      1
 Normal termination of Gaussian 09 at Thu Aug  6 22:19:21 2020.
