 Entering Gaussian System, Link 0=g09
 Initial command:
 /prod/apps/gaussian/g09d1/l1.exe "/tmp/ubafar01/1448546/Gau-5943.inp" -scrdir="/tmp/ubafar01/1448546/"
 Entering Link 1 = /prod/apps/gaussian/g09d1/l1.exe PID=      5944.
  
 Copyright (c) 1988,1990,1992,1993,1995,1998,2003,2009,2013,
            Gaussian, Inc.  All Rights Reserved.
  
 This is part of the Gaussian(R) 09 program.  It is based on
 the Gaussian(R) 03 system (copyright 2003, Gaussian, Inc.),
 the Gaussian(R) 98 system (copyright 1998, Gaussian, Inc.),
 the Gaussian(R) 94 system (copyright 1995, Gaussian, Inc.),
 the Gaussian 92(TM) system (copyright 1992, Gaussian, Inc.),
 the Gaussian 90(TM) system (copyright 1990, Gaussian, Inc.),
 the Gaussian 88(TM) system (copyright 1988, Gaussian, Inc.),
 the Gaussian 86(TM) system (copyright 1986, Carnegie Mellon
 University), and the Gaussian 82(TM) system (copyright 1983,
 Carnegie Mellon University). Gaussian is a federally registered
 trademark of Gaussian, Inc.
  
 This software contains proprietary and confidential information,
 including trade secrets, belonging to Gaussian, Inc.
  
 This software is provided under written license and may be
 used, copied, transmitted, or stored only in accord with that
 written license.
  
 The following legend is applicable only to US Government
 contracts under FAR:
  
                    RESTRICTED RIGHTS LEGEND
  
 Use, reproduction and disclosure by the US Government is
 subject to restrictions as set forth in subparagraphs (a)
 and (c) of the Commercial Computer Software - Restricted
 Rights clause in FAR 52.227-19.
  
 Gaussian, Inc.
 340 Quinnipiac St., Bldg. 40, Wallingford CT 06492
  
  
 ---------------------------------------------------------------
 Warning -- This program may not be used in any manner that
 competes with the business of Gaussian, Inc. or will provide
 assistance to any competitor of Gaussian, Inc.  The licensee
 of this program is prohibited from giving any competitor of
 Gaussian, Inc. access to this program.  By using this program,
 the user acknowledges that Gaussian, Inc. is engaged in the
 business of creating and licensing software in the field of
 computational chemistry and represents and warrants to the
 licensee that it is not a competitor of Gaussian, Inc. and that
 it will not use this program in any manner prohibited above.
 ---------------------------------------------------------------
  

 Cite this work as:
 Gaussian 09, Revision D.01,
 M. J. Frisch, G. W. Trucks, H. B. Schlegel, G. E. Scuseria, 
 M. A. Robb, J. R. Cheeseman, G. Scalmani, V. Barone, B. Mennucci, 
 G. A. Petersson, H. Nakatsuji, M. Caricato, X. Li, H. P. Hratchian, 
 A. F. Izmaylov, J. Bloino, G. Zheng, J. L. Sonnenberg, M. Hada, 
 M. Ehara, K. Toyota, R. Fukuda, J. Hasegawa, M. Ishida, T. Nakajima, 
 Y. Honda, O. Kitao, H. Nakai, T. Vreven, J. A. Montgomery, Jr., 
 J. E. Peralta, F. Ogliaro, M. Bearpark, J. J. Heyd, E. Brothers, 
 K. N. Kudin, V. N. Staroverov, T. Keith, R. Kobayashi, J. Normand, 
 K. Raghavachari, A. Rendell, J. C. Burant, S. S. Iyengar, J. Tomasi, 
 M. Cossi, N. Rega, J. M. Millam, M. Klene, J. E. Knox, J. B. Cross, 
 V. Bakken, C. Adamo, J. Jaramillo, R. Gomperts, R. E. Stratmann, 
 O. Yazyev, A. J. Austin, R. Cammi, C. Pomelli, J. W. Ochterski, 
 R. L. Martin, K. Morokuma, V. G. Zakrzewski, G. A. Voth, 
 P. Salvador, J. J. Dannenberg, S. Dapprich, A. D. Daniels, 
 O. Farkas, J. B. Foresman, J. V. Ortiz, J. Cioslowski, 
 and D. J. Fox, Gaussian, Inc., Wallingford CT, 2013.
 
 ******************************************
 Gaussian 09:  AM64L-G09RevD.01 24-Apr-2013
                 6-Aug-2020 
 ******************************************
 %nproc=1
 Will use up to    1 processors via shared memory.
 %Chk=SM45.n.8.pdb.xyz.mst.n.o.chk
 -----------------
 #p b3lyp/6-31G(d)
 -----------------
 1/38=1/1;
 2/12=2,17=6,18=5,40=1/2;
 3/5=1,6=6,7=1,11=2,16=1,25=1,30=1,74=-5/1,2,3;
 4//1;
 5/5=2,38=5/2;
 6/7=2,8=2,9=2,10=2,28=1/1;
 99/5=1,9=1/99;
 Leave Link    1 at Thu Aug  6 21:05:14 2020, MaxMem=           0 cpu:         0.0
 (Enter /prod/apps/gaussian/g09d1/l101.exe)
 ----------------
 SM45.n.8.pdb.xyz
 ----------------
 Symbolic Z-matrix:
 Charge =  0 Multiplicity = 1
 O                     2.57     -3.904     1.532 
 S                     2.47     -3.104     0.309 
 N                     1.891    -1.551     0.717 
 C                     1.85     -1.123     2.051 
 N                     2.988    -0.934     2.773 
 N                     2.67     -0.501     3.962 
 C                     0.767    -0.782     2.832 
 N                     1.323    -0.385     4.008 
 C                     0.674     0.094     5.181 
 C                    -0.61      0.635     5.089 
 C                    -1.24      1.09      6.245 
 C                    -0.59      1.018     7.478 
 C                     0.698     0.483     7.552 
 C                     1.335     0.013     6.407 
 C                     4.116    -2.804    -0.319 
 C                     5.068    -2.185     0.494 
 C                     6.356    -2.015    -0.007 
 C                     6.68     -2.464    -1.29 
 C                     5.715    -3.082    -2.086 
 C                     4.418    -3.256    -1.602 
 O                     1.628    -3.542    -0.811 
 H                     1.072    -1.332     0.155 
 H                    -0.294    -0.804     2.658 
 H                    -1.104     0.711     4.127 
 H                    -2.237     1.509     6.177 
 H                    -1.083     1.377     8.374 
 H                     1.208     0.422     8.507 
 H                     2.329    -0.414     6.447 
 H                     4.791    -1.821     1.478 
 H                     7.108    -1.529     0.605 
 H                     7.687    -2.329    -1.67 
 H                     5.967    -3.427    -3.082 
 H                     3.647    -3.727    -2.199 
 
 NAtoms=     33 NQM=       33 NQMF=       0 NMMI=      0 NMMIF=      0
                NMic=       0 NMicF=      0.
                    Isotopes and Nuclear Properties:
 (Nuclear quadrupole moments (NQMom) in fm**2, nuclear magnetic moments (NMagM)
  in nuclear magnetons)

  Atom         1           2           3           4           5           6           7           8           9          10
 IAtWgt=          16          32          14          12          14          14          12          14          12          12
 AtmWgt=  15.9949146  31.9720718  14.0030740  12.0000000  14.0030740  14.0030740  12.0000000  14.0030740  12.0000000  12.0000000
 NucSpn=           0           0           2           0           2           2           0           2           0           0
 AtZEff=   0.0000000   0.0000000   0.0000000   0.0000000   0.0000000   0.0000000   0.0000000   0.0000000   0.0000000   0.0000000
 NQMom=    0.0000000   0.0000000   2.0440000   0.0000000   2.0440000   2.0440000   0.0000000   2.0440000   0.0000000   0.0000000
 NMagM=    0.0000000   0.0000000   0.4037610   0.0000000   0.4037610   0.4037610   0.0000000   0.4037610   0.0000000   0.0000000
 AtZNuc=   8.0000000  16.0000000   7.0000000   6.0000000   7.0000000   7.0000000   6.0000000   7.0000000   6.0000000   6.0000000

  Atom        11          12          13          14          15          16          17          18          19          20
 IAtWgt=          12          12          12          12          12          12          12          12          12          12
 AtmWgt=  12.0000000  12.0000000  12.0000000  12.0000000  12.0000000  12.0000000  12.0000000  12.0000000  12.0000000  12.0000000
 NucSpn=           0           0           0           0           0           0           0           0           0           0
 AtZEff=   0.0000000   0.0000000   0.0000000   0.0000000   0.0000000   0.0000000   0.0000000   0.0000000   0.0000000   0.0000000
 NQMom=    0.0000000   0.0000000   0.0000000   0.0000000   0.0000000   0.0000000   0.0000000   0.0000000   0.0000000   0.0000000
 NMagM=    0.0000000   0.0000000   0.0000000   0.0000000   0.0000000   0.0000000   0.0000000   0.0000000   0.0000000   0.0000000
 AtZNuc=   6.0000000   6.0000000   6.0000000   6.0000000   6.0000000   6.0000000   6.0000000   6.0000000   6.0000000   6.0000000

  Atom        21          22          23          24          25          26          27          28          29          30
 IAtWgt=          16           1           1           1           1           1           1           1           1           1
 AtmWgt=  15.9949146   1.0078250   1.0078250   1.0078250   1.0078250   1.0078250   1.0078250   1.0078250   1.0078250   1.0078250
 NucSpn=           0           1           1           1           1           1           1           1           1           1
 AtZEff=   0.0000000   0.0000000   0.0000000   0.0000000   0.0000000   0.0000000   0.0000000   0.0000000   0.0000000   0.0000000
 NQMom=    0.0000000   0.0000000   0.0000000   0.0000000   0.0000000   0.0000000   0.0000000   0.0000000   0.0000000   0.0000000
 NMagM=    0.0000000   2.7928460   2.7928460   2.7928460   2.7928460   2.7928460   2.7928460   2.7928460   2.7928460   2.7928460
 AtZNuc=   8.0000000   1.0000000   1.0000000   1.0000000   1.0000000   1.0000000   1.0000000   1.0000000   1.0000000   1.0000000

  Atom        31          32          33
 IAtWgt=           1           1           1
 AtmWgt=   1.0078250   1.0078250   1.0078250
 NucSpn=           1           1           1
 AtZEff=   0.0000000   0.0000000   0.0000000
 NQMom=    0.0000000   0.0000000   0.0000000
 NMagM=    2.7928460   2.7928460   2.7928460
 AtZNuc=   1.0000000   1.0000000   1.0000000
 Leave Link  101 at Thu Aug  6 21:05:14 2020, MaxMem=    33554432 cpu:         0.1
 (Enter /prod/apps/gaussian/g09d1/l202.exe)
                          Input orientation:                          
 ---------------------------------------------------------------------
 Center     Atomic      Atomic             Coordinates (Angstroms)
 Number     Number       Type             X           Y           Z
 ---------------------------------------------------------------------
      1          8           0        2.570000   -3.904000    1.532000
      2         16           0        2.470000   -3.104000    0.309000
      3          7           0        1.891000   -1.551000    0.717000
      4          6           0        1.850000   -1.123000    2.051000
      5          7           0        2.988000   -0.934000    2.773000
      6          7           0        2.670000   -0.501000    3.962000
      7          6           0        0.767000   -0.782000    2.832000
      8          7           0        1.323000   -0.385000    4.008000
      9          6           0        0.674000    0.094000    5.181000
     10          6           0       -0.610000    0.635000    5.089000
     11          6           0       -1.240000    1.090000    6.245000
     12          6           0       -0.590000    1.018000    7.478000
     13          6           0        0.698000    0.483000    7.552000
     14          6           0        1.335000    0.013000    6.407000
     15          6           0        4.116000   -2.804000   -0.319000
     16          6           0        5.068000   -2.185000    0.494000
     17          6           0        6.356000   -2.015000   -0.007000
     18          6           0        6.680000   -2.464000   -1.290000
     19          6           0        5.715000   -3.082000   -2.086000
     20          6           0        4.418000   -3.256000   -1.602000
     21          8           0        1.628000   -3.542000   -0.811000
     22          1           0        1.072000   -1.332000    0.155000
     23          1           0       -0.294000   -0.804000    2.658000
     24          1           0       -1.104000    0.711000    4.127000
     25          1           0       -2.237000    1.509000    6.177000
     26          1           0       -1.083000    1.377000    8.374000
     27          1           0        1.208000    0.422000    8.507000
     28          1           0        2.329000   -0.414000    6.447000
     29          1           0        4.791000   -1.821000    1.478000
     30          1           0        7.108000   -1.529000    0.605000
     31          1           0        7.687000   -2.329000   -1.670000
     32          1           0        5.967000   -3.427000   -3.082000
     33          1           0        3.647000   -3.727000   -2.199000
 ---------------------------------------------------------------------
                    Distance matrix (angstroms):
                    1          2          3          4          5
     1  O    0.000000
     2  S    1.464831   0.000000
     3  N    2.581061   1.706902   0.000000
     4  C    2.919199   2.709857   1.401578   0.000000
     5  N    3.245875   3.323931   2.410650   1.360900   0.000000
     6  N    4.182739   4.489991   3.498481   2.170531   1.304735
     7  C    3.832453   3.828501   2.515544   1.378090   2.226977
     8  N    4.479838   4.731931   3.537352   2.156901   2.144493
     9  C    5.735331   6.098295   4.910643   3.558225   3.494259
    10  C    6.585375   6.805507   5.490718   4.286211   4.557546
    11  C    7.852930   8.160259   6.880176   5.659956   5.833296
    12  C    8.340659   8.817542   7.646322   6.323750   6.224903
    13  C    7.680531   8.274515   7.230327   5.845284   5.485511
    14  C    6.374460   6.941867   5.927169   4.531055   4.103069
    15  C    2.650720   1.787093   2.755709   3.684755   3.785465
    16  C    3.205060   2.761954   3.247309   3.729292   3.329451
    17  C    4.502293   4.048058   4.547054   5.033395   4.498932
    18  C    5.189353   4.548681   5.272204   6.024074   5.699099
    19  C    4.863808   4.033179   4.982343   5.990883   5.971626
    20  C    3.695533   2.733080   3.830211   4.948608   5.155309
    21  O    2.551089   1.468063   2.523496   3.753916   4.636412
    22  H    3.279530   2.262323   1.017136   2.060044   3.268545
    23  H    4.368109   4.295055   3.016573   2.250988   3.286586
    24  H    6.444418   6.473394   5.070973   4.049623   4.613437
    25  H    8.601386   8.824344   7.497705   6.376117   6.697469
    26  H    9.383301   9.886728   8.720522   7.404919   7.299655
    27  H    8.319852   9.012909   8.064944   6.669267   6.155152
    28  H    6.032861   6.703061   5.858115   4.478497   3.768681
    29  H    3.045430   2.898222   3.010319   3.076526   2.390524
    30  H    5.205132   4.907065   5.218248   5.468301   4.693469
    31  H    6.238359   5.633308   6.316381   7.026439   6.615654
    32  H    5.749446   4.881825   5.879248   6.971786   7.026416
    33  H    3.887367   2.839634   4.039996   5.298351   5.740724
                    6          7          8          9         10
     6  N    0.000000
     7  C    2.230980   0.000000
     8  N    1.352768   1.360044   0.000000
     9  C    2.413297   2.508750   1.423577   0.000000
    10  C    3.649524   2.999678   2.438329   1.396353   0.000000
    11  C    4.799111   4.379612   3.707932   2.405724   1.392933
    12  C    5.029634   5.163987   4.203436   2.779871   2.419589
    13  C    4.212498   4.887063   3.701889   2.402819   2.792908
    14  C    2.832745   3.706113   2.431820   1.395191   2.430439
    15  C    5.071655   5.023255   5.689933   7.106037   7.962930
    16  C    4.540185   5.092470   5.441803   6.816821   7.829822
    17  C    5.624211   6.388829   6.641402   7.977992   9.028669
    18  C    6.893256   7.401593   7.815913   9.191803  10.170523
    19  C    7.246509   7.345708   7.981247   9.397231  10.261693
    20  C    6.450087   6.253865   7.020952   8.440920   9.229851
    21  O    5.754561   4.650846   5.769093   7.073519   7.567428
    22  H    4.211581   2.749883   3.975603   5.239519   5.571586
    23  H    3.252310   1.075398   2.147731   2.847623   2.842594
    24  H    3.967272   2.721528   2.665653   2.157056   1.084092
    25  H    5.746736   5.045961   4.578799   3.386467   2.143537
    26  H    6.089141   6.228768   5.287290   3.863727   3.400811
    27  H    4.862756   5.818051   4.572251   3.384526   3.877269
    28  H    2.509796   3.955186   2.638484   2.144725   3.403276
    29  H    3.522967   4.370974   4.526590   5.859106   6.945650
    30  H    5.658805   6.762087   6.808478   8.060413   9.184589
    31  H    7.760882   8.399263   8.747532  10.098975  11.104485
    32  H    8.309610   8.307311   9.004921  10.425472  11.248200
    33  H    7.022786   6.502183   7.422721   8.826277   9.500739
                   11         12         13         14         15
    11  C    0.000000
    12  C    1.395698   0.000000
    13  C    2.415066   1.396655   0.000000
    14  C    2.795854   2.421299   1.392011   0.000000
    15  C    9.323951   9.876605   9.189110   7.804391   0.000000
    16  C    9.142783   9.541930   8.719546   7.330079   1.396579
    17  C   10.316382  10.652288   9.766855   8.394202   2.395301
    18  C   11.494935  11.910292  11.074750   9.692696   2.762705
    19  C   11.626830  12.166886  11.435496  10.044624   2.399244
    20  C   10.605474  11.215772  10.564764   9.183427   1.393412
    21  O    8.914482   9.717029   9.327663   8.051298   2.641373
    22  H    6.949786   7.868359   7.625596   6.400445   3.414293
    23  H    4.165180   5.161366   5.156711   4.168469   5.684244
    24  H    2.155936   3.404063   3.876830   3.410913   7.705228
    25  H    1.083602   2.155526   3.399636   3.879446  10.057862
    26  H    2.153987   1.083857   2.155663   3.402398  10.958039
    27  H    3.399349   2.155658   1.084364   2.143224   9.836758
    28  H    3.878219   3.410886   2.164670   1.082573   7.394878
    29  H    8.220169   8.544886   7.678186   6.293054   2.156646
    30  H   10.409508  10.629419   9.664215   8.328775   3.381045
    31  H   12.410806  12.782685  11.907928  10.539013   3.847449
    32  H   12.622879  13.200980  12.495296  11.105411   3.383563
    33  H   10.880597  11.580653  11.022826   9.664170   2.146227
                   16         17         18         19         20
    16  C    0.000000
    17  C    1.392424   0.000000
    18  C    2.420546   1.397378   0.000000
    19  C    2.807066   2.423141   1.395265   0.000000
    20  C    2.441876   2.799991   2.416868   1.395257   0.000000
    21  O    3.921489   5.033103   5.187893   4.305902   2.914031
    22  H    4.100067   5.330421   5.900772   5.444449   4.240818
    23  H    5.944838   7.265758   8.184069   7.987672   6.809027
    24  H    7.725224   8.953917  10.000758   9.974316   8.891064
    25  H    9.965197  11.157960  12.290391  12.352682  11.291904
    26  H   10.612118  11.708354  12.977301  13.247909  12.298222
    27  H    9.268453  10.243489  11.586759  12.033400  11.226026
    28  H    6.787987   7.773934   9.110152   9.560089   8.787906
    29  H    1.085118   2.166122   3.412271   3.891785   3.418297
    30  H    2.145753   1.084548   2.156023   3.404958   3.884518
    31  H    3.400411   2.153074   1.084746   2.151476   3.398575
    32  H    3.890828   3.405979   2.155691   1.083764   2.149196
    33  H    3.413100   3.882588   3.408891   2.169198   1.082909
                   21         22         23         24         25
    21  O    0.000000
    22  H    2.475155   0.000000
    23  H    4.819200   2.899957   0.000000
    24  H    7.066518   4.968461   2.260373   0.000000
    25  H    9.448967   7.435405   4.637734   2.474468   0.000000
    26  H   10.766165   8.918221   6.168625   4.298954   2.485146
    27  H   10.134832   8.535275   6.161971   4.961176   4.298662
    28  H    7.934378   6.481669   4.624797   4.293427   4.961772
    29  H    4.266841   3.977488   5.318262   6.941127   9.086379
    30  H    6.007298   6.055956   7.715571   9.211896  11.296267
    31  H    6.238648   6.934180   9.206170  10.960314  13.220871
    32  H    4.898733   6.231229   8.889761  10.912917  13.319114
    33  H    2.457057   4.231780   6.904047   9.071170  11.497588
                   26         27         28         29         30
    26  H    0.000000
    27  H    2.485638   0.000000
    28  H    4.308451   2.489807   0.000000
    29  H    9.606555   8.202181   5.721193   0.000000
    30  H   11.657387  10.052761   7.629615   2.493167   0.000000
    31  H   13.839410  12.374036   9.912673   4.307526   2.480094
    32  H   14.283587  13.106022  10.635556   4.975521   4.300960
    33  H   12.657490  11.738030   9.352348   4.296731   4.967106
                   31         32         33
    31  H    0.000000
    32  H    2.481481   0.000000
    33  H    4.307650   2.500418   0.000000
 Stoichiometry    C14H12N4O2S
 Framework group  C1[X(C14H12N4O2S)]
 Deg. of freedom    93
 Full point group                 C1      NOp   1
 Largest Abelian subgroup         C1      NOp   1
 Largest concise Abelian subgroup C1      NOp   1
                         Standard orientation:                         
 ---------------------------------------------------------------------
 Center     Atomic      Atomic             Coordinates (Angstroms)
 Number     Number       Type             X           Y           Z
 ---------------------------------------------------------------------
      1          8           0        1.560154   -0.945049    1.760707
      2         16           0        2.154451   -1.248468    0.456683
      3          7           0        0.955623   -1.071349   -0.745379
      4          6           0       -0.263032   -0.439514   -0.462387
      5          7           0       -0.322762    0.883458   -0.148978
      6          7           0       -1.570142    1.222229    0.028813
      7          6           0       -1.543623   -0.948031   -0.487459
      8          7           0       -2.327566    0.123353   -0.192008
      9          6           0       -3.746539    0.187116   -0.097040
     10          6           0       -4.526913   -0.771721   -0.746231
     11          6           0       -5.914005   -0.706288   -0.636885
     12          6           0       -6.516422    0.313267    0.101746
     13          6           0       -5.722352    1.270424    0.737314
     14          6           0       -4.334567    1.210374    0.647086
     15          6           0        3.355602    0.014943    0.063325
     16          6           0        2.968064    1.356271    0.030351
     17          6           0        3.940048    2.319728   -0.226245
     18          6           0        5.269478    1.943780   -0.435876
     19          6           0        5.636904    0.598331   -0.396775
     20          6           0        4.675107   -0.380866   -0.146054
     21          8           0        2.766673   -2.556631    0.193807
     22          1           0        0.896404   -1.922908   -1.298467
     23          1           0       -1.933949   -1.933874   -0.667016
     24          1           0       -4.057836   -1.549373   -1.338245
     25          1           0       -6.522206   -1.449807   -1.138346
     26          1           0       -7.596311    0.362049    0.180527
     27          1           0       -6.183657    2.063995    1.314625
     28          1           0       -3.703103    1.937645    1.141348
     29          1           0        1.926641    1.626641    0.171133
     30          1           0        3.658487    3.366388   -0.264612
     31          1           0        6.019534    2.702342   -0.632533
     32          1           0        6.667833    0.308066   -0.562538
     33          1           0        4.929762   -1.432956   -0.115276
 ---------------------------------------------------------------------
 Rotational constants (GHZ):      0.8839371      0.1193177      0.1100811
 Leave Link  202 at Thu Aug  6 21:05:14 2020, MaxMem=    33554432 cpu:         0.0
 (Enter /prod/apps/gaussian/g09d1/l301.exe)
 Standard basis: 6-31G(d) (6D, 7F)
 Ernie: Thresh=  0.10000D-02 Tol=  0.10000D-05 Strict=F.
 There are   343 symmetry adapted cartesian basis functions of A   symmetry.
 There are   343 symmetry adapted basis functions of A   symmetry.
   343 basis functions,   660 primitive gaussians,   343 cartesian basis functions
    78 alpha electrons       78 beta electrons
       nuclear repulsion energy      1702.6998646005 Hartrees.
 IExCor=  402 DFT=T Ex+Corr=B3LYP ExCW=0 ScaHFX=  0.200000
 ScaDFX=  0.800000  0.720000  1.000000  0.810000 ScalE2=  1.000000  1.000000
 IRadAn=      0 IRanWt=     -1 IRanGd=            0 ICorTp=0 IEmpDi=  4
 NAtoms=   33 NActive=   33 NUniq=   33 SFac= 1.00D+00 NAtFMM=   60 NAOKFM=F Big=F
 Integral buffers will be    131072 words long.
 Raffenetti 2 integral format.
 Two-electron integral symmetry is turned on.
 Leave Link  301 at Thu Aug  6 21:05:14 2020, MaxMem=    33554432 cpu:         0.0
 (Enter /prod/apps/gaussian/g09d1/l302.exe)
 NPDir=0 NMtPBC=     1 NCelOv=     1 NCel=       1 NClECP=     1 NCelD=      1
         NCelK=      1 NCelE2=     1 NClLst=     1 CellRange=     0.0.
 One-electron integrals computed using PRISM.
 NBasis=   343 RedAO= T EigKep=  4.64D-04  NBF=   343
 NBsUse=   343 1.00D-06 EigRej= -1.00D+00 NBFU=   343
 Precomputing XC quadrature grid using
 IXCGrd= 4 IRadAn=           0 IRanWt=          -1 IRanGd=           0 AccXCQ= 0.00D+00.
 Generated NRdTot=       0 NPtTot=           0 NUsed=           0 NTot=          32
 NSgBfM=   336   336   336   336   336 MxSgAt=    33 MxSgA2=    33.
 Leave Link  302 at Thu Aug  6 21:05:15 2020, MaxMem=    33554432 cpu:         1.2
 (Enter /prod/apps/gaussian/g09d1/l303.exe)
 DipDrv:  MaxL=1.
 Leave Link  303 at Thu Aug  6 21:05:15 2020, MaxMem=    33554432 cpu:         0.1
 (Enter /prod/apps/gaussian/g09d1/l401.exe)
 ExpMin= 1.17D-01 ExpMax= 2.19D+04 ExpMxC= 3.30D+03 IAcc=1 IRadAn=         1 AccDes= 0.00D+00
 Harris functional with IExCor=  402 and IRadAn=       1 diagonalized for initial guess.
 HarFok:  IExCor=  402 AccDes= 0.00D+00 IRadAn=         1 IDoV= 1 UseB2=F ITyADJ=14
 ICtDFT=  3500011 ScaDFX=  1.000000  1.000000  1.000000  1.000000
 FoFCou: FMM=F IPFlag=           0 FMFlag=      100000 FMFlg1=           0
         NFxFlg=           0 DoJE=T BraDBF=F KetDBF=T FulRan=T
         wScrn=  0.000000 ICntrl=     500 IOpCl=  0 I1Cent=   200000004 NGrid=           0
         NMat0=    1 NMatS0=      1 NMatT0=    0 NMatD0=    1 NMtDS0=    0 NMtDT0=    0
 Petite list used in FoFCou.
 Harris En= -1308.25494783274    
 JPrj=0 DoOrth=F DoCkMO=F.
 Leave Link  401 at Thu Aug  6 21:05:19 2020, MaxMem=    33554432 cpu:         3.5
 (Enter /prod/apps/gaussian/g09d1/l502.exe)
 Closed shell SCF:
 Using DIIS extrapolation, IDIIS=  1040.
 Integral symmetry usage will be decided dynamically.
 IVT=      376131 IEndB=      376131 NGot=    33554432 MDV=    33312934
 LenX=    33312934 LenY=    33194844
 Requested convergence on RMS density matrix=1.00D-08 within 128 cycles.
 Requested convergence on MAX density matrix=1.00D-06.
 Requested convergence on             energy=1.00D-06.
 No special actions if energy rises.
 Fock matrices will be formed incrementally for  20 cycles.
 Integral accuracy reduced to 1.0D-05 until final iterations.

 Cycle   1  Pass 0  IDiag  1:
 FoFJK:  IHMeth= 1 ICntrl=       0 DoSepK=F KAlg= 0 I1Cent=   0 FoldK=F
 IRaf= 660000000 NMat=   1 IRICut=       1 DoRegI=T DoRafI=F ISym2E= 0.
 FoFCou: FMM=F IPFlag=           0 FMFlag=      100000 FMFlg1=           0
         NFxFlg=           0 DoJE=F BraDBF=F KetDBF=F FulRan=T
         wScrn=  0.000000 ICntrl=       0 IOpCl=  0 I1Cent=           0 NGrid=           0
         NMat0=    1 NMatS0=      1 NMatT0=    0 NMatD0=    1 NMtDS0=    0 NMtDT0=    0
 Symmetry not used in FoFCou.
 E= -1307.64845922864    
 DIIS: error= 3.62D-02 at cycle   1 NSaved=   1.
 NSaved= 1 IEnMin= 1 EnMin= -1307.64845922864     IErMin= 1 ErrMin= 3.62D-02
 ErrMax= 3.62D-02  0.00D+00 EMaxC= 1.00D-01 BMatC= 6.70D-01 BMatP= 6.70D-01
 IDIUse=3 WtCom= 6.38D-01 WtEn= 3.62D-01
 Coeff-Com:  0.100D+01
 Coeff-En:   0.100D+01
 Coeff:      0.100D+01
 Gap=     0.291 Goal=   None    Shift=    0.000
 GapD=    0.291 DampG=1.000 DampE=0.500 DampFc=0.5000 IDamp=-1.
 Damping current iteration by 5.00D-01
 RMSDP=6.26D-03 MaxDP=5.90D-01              OVMax= 2.40D-01

 Cycle   2  Pass 0  IDiag  1:
 RMSU=  3.12D-03    CP:  9.91D-01
 E= -1307.77594788068     Delta-E=       -0.127488652042 Rises=F Damp=T
 DIIS: error= 1.53D-02 at cycle   2 NSaved=   2.
 NSaved= 2 IEnMin= 2 EnMin= -1307.77594788068     IErMin= 2 ErrMin= 1.53D-02
 ErrMax= 1.53D-02  0.00D+00 EMaxC= 1.00D-01 BMatC= 1.25D-01 BMatP= 6.70D-01
 IDIUse=3 WtCom= 8.47D-01 WtEn= 1.53D-01
 Coeff-Com:  0.248D+00 0.752D+00
 Coeff-En:   0.390D+00 0.610D+00
 Coeff:      0.270D+00 0.730D+00
 Gap=     0.216 Goal=   None    Shift=    0.000
 RMSDP=1.93D-03 MaxDP=1.36D-01 DE=-1.27D-01 OVMax= 1.92D-01

 Cycle   3  Pass 0  IDiag  1:
 RMSU=  1.60D-03    CP:  9.79D-01  6.65D-01
 E= -1308.18440053506     Delta-E=       -0.408452654373 Rises=F Damp=F
 DIIS: error= 1.11D-02 at cycle   3 NSaved=   3.
 NSaved= 3 IEnMin= 3 EnMin= -1308.18440053506     IErMin= 3 ErrMin= 1.11D-02
 ErrMax= 1.11D-02  0.00D+00 EMaxC= 1.00D-01 BMatC= 6.50D-02 BMatP= 1.25D-01
 IDIUse=3 WtCom= 8.89D-01 WtEn= 1.11D-01
 Coeff-Com:  0.792D-01 0.417D+00 0.504D+00
 Coeff-En:   0.000D+00 0.000D+00 0.100D+01
 Coeff:      0.704D-01 0.371D+00 0.559D+00
 Gap=     0.196 Goal=   None    Shift=    0.000
 RMSDP=1.13D-03 MaxDP=3.97D-02 DE=-4.08D-01 OVMax= 6.86D-02

 Cycle   4  Pass 0  IDiag  1:
 RMSU=  7.28D-04    CP:  9.84D-01  7.55D-01  4.97D-01
 E= -1308.23291840225     Delta-E=       -0.048517867197 Rises=F Damp=F
 DIIS: error= 7.26D-03 at cycle   4 NSaved=   4.
 NSaved= 4 IEnMin= 4 EnMin= -1308.23291840225     IErMin= 4 ErrMin= 7.26D-03
 ErrMax= 7.26D-03  0.00D+00 EMaxC= 1.00D-01 BMatC= 1.37D-02 BMatP= 6.50D-02
 IDIUse=3 WtCom= 9.27D-01 WtEn= 7.26D-02
 Coeff-Com:  0.110D-01 0.937D-01 0.329D+00 0.566D+00
 Coeff-En:   0.000D+00 0.000D+00 0.190D+00 0.810D+00
 Coeff:      0.102D-01 0.869D-01 0.319D+00 0.584D+00
 Gap=     0.190 Goal=   None    Shift=    0.000
 RMSDP=4.13D-04 MaxDP=1.65D-02 DE=-4.85D-02 OVMax= 2.72D-02

 Cycle   5  Pass 0  IDiag  1:
 RMSU=  1.98D-04    CP:  9.84D-01  7.33D-01  6.33D-01  6.13D-01
 E= -1308.24432154465     Delta-E=       -0.011403142397 Rises=F Damp=F
 DIIS: error= 2.59D-03 at cycle   5 NSaved=   5.
 NSaved= 5 IEnMin= 5 EnMin= -1308.24432154465     IErMin= 5 ErrMin= 2.59D-03
 ErrMax= 2.59D-03  0.00D+00 EMaxC= 1.00D-01 BMatC= 1.13D-03 BMatP= 1.37D-02
 IDIUse=3 WtCom= 9.74D-01 WtEn= 2.59D-02
 Coeff-Com: -0.233D-03 0.198D-01 0.137D+00 0.331D+00 0.512D+00
 Coeff-En:   0.000D+00 0.000D+00 0.000D+00 0.152D-01 0.985D+00
 Coeff:     -0.227D-03 0.192D-01 0.133D+00 0.323D+00 0.525D+00
 Gap=     0.191 Goal=   None    Shift=    0.000
 RMSDP=1.34D-04 MaxDP=4.66D-03 DE=-1.14D-02 OVMax= 1.05D-02

 Cycle   6  Pass 0  IDiag  1:
 RMSU=  8.08D-05    CP:  9.83D-01  7.37D-01  6.31D-01  6.64D-01  4.99D-01
 E= -1308.24523598893     Delta-E=       -0.000914444281 Rises=F Damp=F
 DIIS: error= 8.11D-04 at cycle   6 NSaved=   6.
 NSaved= 6 IEnMin= 6 EnMin= -1308.24523598893     IErMin= 6 ErrMin= 8.11D-04
 ErrMax= 8.11D-04  0.00D+00 EMaxC= 1.00D-01 BMatC= 1.96D-04 BMatP= 1.13D-03
 IDIUse=3 WtCom= 9.92D-01 WtEn= 8.11D-03
 Coeff-Com: -0.119D-02 0.380D-02 0.513D-01 0.143D+00 0.342D+00 0.461D+00
 Coeff-En:   0.000D+00 0.000D+00 0.000D+00 0.000D+00 0.142D+00 0.858D+00
 Coeff:     -0.118D-02 0.377D-02 0.509D-01 0.142D+00 0.340D+00 0.464D+00
 Gap=     0.190 Goal=   None    Shift=    0.000
 RMSDP=4.93D-05 MaxDP=1.91D-03 DE=-9.14D-04 OVMax= 3.40D-03

 Cycle   7  Pass 0  IDiag  1:
 RMSU=  2.54D-05    CP:  9.83D-01  7.36D-01  6.33D-01  6.65D-01  5.90D-01
                    CP:  5.31D-01
 E= -1308.24540763420     Delta-E=       -0.000171645272 Rises=F Damp=F
 DIIS: error= 1.65D-04 at cycle   7 NSaved=   7.
 NSaved= 7 IEnMin= 7 EnMin= -1308.24540763420     IErMin= 7 ErrMin= 1.65D-04
 ErrMax= 1.65D-04  0.00D+00 EMaxC= 1.00D-01 BMatC= 1.53D-05 BMatP= 1.96D-04
 IDIUse=3 WtCom= 9.98D-01 WtEn= 1.65D-03
 Coeff-Com: -0.755D-03 0.427D-04 0.177D-01 0.550D-01 0.161D+00 0.286D+00
 Coeff-Com:  0.481D+00
 Coeff-En:   0.000D+00 0.000D+00 0.000D+00 0.000D+00 0.000D+00 0.000D+00
 Coeff-En:   0.100D+01
 Coeff:     -0.754D-03 0.427D-04 0.177D-01 0.549D-01 0.161D+00 0.286D+00
 Coeff:      0.481D+00
 Gap=     0.190 Goal=   None    Shift=    0.000
 RMSDP=1.29D-05 MaxDP=7.32D-04 DE=-1.72D-04 OVMax= 1.06D-03

 Cycle   8  Pass 0  IDiag  1:
 RMSU=  7.79D-06    CP:  9.83D-01  7.36D-01  6.33D-01  6.66D-01  5.96D-01
                    CP:  5.74D-01  6.22D-01
 E= -1308.24541971646     Delta-E=       -0.000012082252 Rises=F Damp=F
 DIIS: error= 5.75D-05 at cycle   8 NSaved=   8.
 NSaved= 8 IEnMin= 8 EnMin= -1308.24541971646     IErMin= 8 ErrMin= 5.75D-05
 ErrMax= 5.75D-05  0.00D+00 EMaxC= 1.00D-01 BMatC= 1.29D-06 BMatP= 1.53D-05
 IDIUse=1 WtCom= 1.00D+00 WtEn= 0.00D+00
 Coeff-Com: -0.290D-03-0.384D-03 0.434D-02 0.153D-01 0.553D-01 0.116D+00
 Coeff-Com:  0.280D+00 0.530D+00
 Coeff:     -0.290D-03-0.384D-03 0.434D-02 0.153D-01 0.553D-01 0.116D+00
 Coeff:      0.280D+00 0.530D+00
 Gap=     0.190 Goal=   None    Shift=    0.000
 RMSDP=4.42D-06 MaxDP=2.09D-04 DE=-1.21D-05 OVMax= 3.04D-04

 Initial convergence to 1.0D-05 achieved.  Increase integral accuracy.
 Cycle   9  Pass 1  IDiag  1:
 E= -1308.24534600239     Delta-E=        0.000073714067 Rises=F Damp=F
 DIIS: error= 4.60D-05 at cycle   1 NSaved=   1.
 NSaved= 1 IEnMin= 1 EnMin= -1308.24534600239     IErMin= 1 ErrMin= 4.60D-05
 ErrMax= 4.60D-05  0.00D+00 EMaxC= 1.00D-01 BMatC= 7.74D-07 BMatP= 7.74D-07
 IDIUse=1 WtCom= 1.00D+00 WtEn= 0.00D+00
 Coeff-Com:  0.100D+01
 Coeff:      0.100D+01
 Gap=     0.190 Goal=   None    Shift=    0.000
 RMSDP=4.42D-06 MaxDP=2.09D-04 DE= 7.37D-05 OVMax= 2.32D-04

 Cycle  10  Pass 1  IDiag  1:
 RMSU=  3.12D-05    CP:  1.00D+00
 E= -1308.24534629698     Delta-E=       -0.000000294594 Rises=F Damp=F
 DIIS: error= 3.08D-05 at cycle   2 NSaved=   2.
 NSaved= 2 IEnMin= 2 EnMin= -1308.24534629698     IErMin= 2 ErrMin= 3.08D-05
 ErrMax= 3.08D-05  0.00D+00 EMaxC= 1.00D-01 BMatC= 5.45D-07 BMatP= 7.74D-07
 IDIUse=1 WtCom= 1.00D+00 WtEn= 0.00D+00
 Coeff-Com:  0.437D+00 0.563D+00
 Coeff:      0.437D+00 0.563D+00
 Gap=     0.190 Goal=   None    Shift=    0.000
 RMSDP=3.96D-06 MaxDP=1.95D-04 DE=-2.95D-07 OVMax= 3.04D-04

 Cycle  11  Pass 1  IDiag  1:
 RMSU=  3.95D-06    CP:  1.00D+00  9.94D-01
 E= -1308.24534644635     Delta-E=       -0.000000149370 Rises=F Damp=F
 DIIS: error= 2.66D-05 at cycle   3 NSaved=   3.
 NSaved= 3 IEnMin= 3 EnMin= -1308.24534644635     IErMin= 3 ErrMin= 2.66D-05
 ErrMax= 2.66D-05  0.00D+00 EMaxC= 1.00D-01 BMatC= 3.88D-07 BMatP= 5.45D-07
 IDIUse=1 WtCom= 1.00D+00 WtEn= 0.00D+00
 Coeff-Com:  0.135D-01 0.454D+00 0.533D+00
 Coeff:      0.135D-01 0.454D+00 0.533D+00
 Gap=     0.190 Goal=   None    Shift=    0.000
 RMSDP=1.97D-06 MaxDP=1.04D-04 DE=-1.49D-07 OVMax= 1.61D-04

 Cycle  12  Pass 1  IDiag  1:
 RMSU=  6.86D-07    CP:  1.00D+00  1.01D+00  5.43D-01
 E= -1308.24534678639     Delta-E=       -0.000000340032 Rises=F Damp=F
 DIIS: error= 9.12D-06 at cycle   4 NSaved=   4.
 NSaved= 4 IEnMin= 4 EnMin= -1308.24534678639     IErMin= 4 ErrMin= 9.12D-06
 ErrMax= 9.12D-06  0.00D+00 EMaxC= 1.00D-01 BMatC= 1.49D-08 BMatP= 3.88D-07
 IDIUse=1 WtCom= 1.00D+00 WtEn= 0.00D+00
 Coeff-Com: -0.501D-02 0.266D+00 0.334D+00 0.405D+00
 Coeff:     -0.501D-02 0.266D+00 0.334D+00 0.405D+00
 Gap=     0.190 Goal=   None    Shift=    0.000
 RMSDP=4.32D-07 MaxDP=1.45D-05 DE=-3.40D-07 OVMax= 4.02D-05

 Cycle  13  Pass 1  IDiag  1:
 RMSU=  1.91D-07    CP:  1.00D+00  1.01D+00  5.58D-01  4.42D-01
 E= -1308.24534680087     Delta-E=       -0.000000014484 Rises=F Damp=F
 DIIS: error= 2.40D-06 at cycle   5 NSaved=   5.
 NSaved= 5 IEnMin= 5 EnMin= -1308.24534680087     IErMin= 5 ErrMin= 2.40D-06
 ErrMax= 2.40D-06  0.00D+00 EMaxC= 1.00D-01 BMatC= 6.19D-10 BMatP= 1.49D-08
 IDIUse=1 WtCom= 1.00D+00 WtEn= 0.00D+00
 Coeff-Com: -0.375D-02 0.124D+00 0.157D+00 0.235D+00 0.487D+00
 Coeff:     -0.375D-02 0.124D+00 0.157D+00 0.235D+00 0.487D+00
 Gap=     0.190 Goal=   None    Shift=    0.000
 RMSDP=9.02D-08 MaxDP=3.84D-06 DE=-1.45D-08 OVMax= 8.96D-06

 Cycle  14  Pass 1  IDiag  1:
 RMSU=  6.69D-08    CP:  1.00D+00  1.01D+00  5.57D-01  4.72D-01  7.05D-01
 E= -1308.24534680159     Delta-E=       -0.000000000716 Rises=F Damp=F
 DIIS: error= 4.70D-07 at cycle   6 NSaved=   6.
 NSaved= 6 IEnMin= 6 EnMin= -1308.24534680159     IErMin= 6 ErrMin= 4.70D-07
 ErrMax= 4.70D-07  0.00D+00 EMaxC= 1.00D-01 BMatC= 3.19D-11 BMatP= 6.19D-10
 IDIUse=1 WtCom= 1.00D+00 WtEn= 0.00D+00
 Coeff-Com: -0.145D-02 0.409D-01 0.515D-01 0.871D-01 0.244D+00 0.578D+00
 Coeff:     -0.145D-02 0.409D-01 0.515D-01 0.871D-01 0.244D+00 0.578D+00
 Gap=     0.190 Goal=   None    Shift=    0.000
 RMSDP=2.25D-08 MaxDP=1.03D-06 DE=-7.16D-10 OVMax= 1.79D-06

 Cycle  15  Pass 1  IDiag  1:
 RMSU=  1.83D-08    CP:  1.00D+00  1.01D+00  5.56D-01  4.72D-01  7.39D-01
                    CP:  8.35D-01
 E= -1308.24534680158     Delta-E=        0.000000000001 Rises=F Damp=F
 DIIS: error= 1.52D-07 at cycle   7 NSaved=   7.
 NSaved= 7 IEnMin= 6 EnMin= -1308.24534680159     IErMin= 7 ErrMin= 1.52D-07
 ErrMax= 1.52D-07  0.00D+00 EMaxC= 1.00D-01 BMatC= 8.01D-12 BMatP= 3.19D-11
 IDIUse=1 WtCom= 1.00D+00 WtEn= 0.00D+00
 Coeff-Com: -0.319D-03 0.593D-02 0.720D-02 0.171D-01 0.737D-01 0.364D+00
 Coeff-Com:  0.533D+00
 Coeff:     -0.319D-03 0.593D-02 0.720D-02 0.171D-01 0.737D-01 0.364D+00
 Coeff:      0.533D+00
 Gap=     0.190 Goal=   None    Shift=    0.000
 RMSDP=1.06D-08 MaxDP=7.15D-07 DE= 9.09D-13 OVMax= 5.52D-07

 Cycle  16  Pass 1  IDiag  1:
 RMSU=  6.25D-09    CP:  1.00D+00  1.01D+00  5.56D-01  4.76D-01  7.48D-01
                    CP:  8.78D-01  6.03D-01
 E= -1308.24534680155     Delta-E=        0.000000000034 Rises=F Damp=F
 DIIS: error= 3.64D-08 at cycle   8 NSaved=   8.
 NSaved= 8 IEnMin= 6 EnMin= -1308.24534680159     IErMin= 8 ErrMin= 3.64D-08
 ErrMax= 3.64D-08  0.00D+00 EMaxC= 1.00D-01 BMatC= 9.81D-13 BMatP= 8.01D-12
 IDIUse=1 WtCom= 1.00D+00 WtEn= 0.00D+00
 Coeff-Com:  0.390D-05-0.198D-02-0.267D-02-0.128D-02 0.115D-01 0.145D+00
 Coeff-Com:  0.323D+00 0.527D+00
 Coeff:      0.390D-05-0.198D-02-0.267D-02-0.128D-02 0.115D-01 0.145D+00
 Coeff:      0.323D+00 0.527D+00
 Gap=     0.190 Goal=   None    Shift=    0.000
 RMSDP=3.34D-09 MaxDP=2.23D-07 DE= 3.41D-11 OVMax= 1.96D-07

 SCF Done:  E(RB3LYP) =  -1308.24534680     A.U. after   16 cycles
            NFock= 16  Conv=0.33D-08     -V/T= 2.0077
 KE= 1.298265148897D+03 PE=-6.466440812652D+03 EE= 2.157230452353D+03
 Leave Link  502 at Thu Aug  6 21:10:29 2020, MaxMem=    33554432 cpu:       309.6
 (Enter /prod/apps/gaussian/g09d1/l601.exe)
 Copying SCF densities to generalized density rwf, IOpCl= 0 IROHF=0.

 **********************************************************************

            Population analysis using the SCF density.

 **********************************************************************

 Orbital symmetries:
       Occupied  (A) (A) (A) (A) (A) (A) (A) (A) (A) (A) (A) (A)
                 (A) (A) (A) (A) (A) (A) (A) (A) (A) (A) (A) (A)
                 (A) (A) (A) (A) (A) (A) (A) (A) (A) (A) (A) (A)
                 (A) (A) (A) (A) (A) (A) (A) (A) (A) (A) (A) (A)
                 (A) (A) (A) (A) (A) (A) (A) (A) (A) (A) (A) (A)
                 (A) (A) (A) (A) (A) (A) (A) (A) (A) (A) (A) (A)
                 (A) (A) (A) (A) (A) (A)
       Virtual   (A) (A) (A) (A) (A) (A) (A) (A) (A) (A) (A) (A)
                 (A) (A) (A) (A) (A) (A) (A) (A) (A) (A) (A) (A)
                 (A) (A) (A) (A) (A) (A) (A) (A) (A) (A) (A) (A)
                 (A) (A) (A) (A) (A) (A) (A) (A) (A) (A) (A) (A)
                 (A) (A) (A) (A) (A) (A) (A) (A) (A) (A) (A) (A)
                 (A) (A) (A) (A) (A) (A) (A) (A) (A) (A) (A) (A)
                 (A) (A) (A) (A) (A) (A) (A) (A) (A) (A) (A) (A)
                 (A) (A) (A) (A) (A) (A) (A) (A) (A) (A) (A) (A)
                 (A) (A) (A) (A) (A) (A) (A) (A) (A) (A) (A) (A)
                 (A) (A) (A) (A) (A) (A) (A) (A) (A) (A) (A) (A)
                 (A) (A) (A) (A) (A) (A) (A) (A) (A) (A) (A) (A)
                 (A) (A) (A) (A) (A) (A) (A) (A) (A) (A) (A) (A)
                 (A) (A) (A) (A) (A) (A) (A) (A) (A) (A) (A) (A)
                 (A) (A) (A) (A) (A) (A) (A) (A) (A) (A) (A) (A)
                 (A) (A) (A) (A) (A) (A) (A) (A) (A) (A) (A) (A)
                 (A) (A) (A) (A) (A) (A) (A) (A) (A) (A) (A) (A)
                 (A) (A) (A) (A) (A) (A) (A) (A) (A) (A) (A) (A)
                 (A) (A) (A) (A) (A) (A) (A) (A) (A) (A) (A) (A)
                 (A) (A) (A) (A) (A) (A) (A) (A) (A) (A) (A) (A)
                 (A) (A) (A) (A) (A) (A) (A) (A) (A) (A) (A) (A)
                 (A) (A) (A) (A) (A) (A) (A) (A) (A) (A) (A) (A)
                 (A) (A) (A) (A) (A) (A) (A) (A) (A) (A) (A) (A)
                 (A)
 The electronic state is 1-A.
 Alpha  occ. eigenvalues --  -89.11328 -19.14433 -19.14144 -14.44588 -14.40111
 Alpha  occ. eigenvalues --  -14.38267 -14.36584 -10.26570 -10.25761 -10.24617
 Alpha  occ. eigenvalues --  -10.22422 -10.21666 -10.21241 -10.21014 -10.20929
 Alpha  occ. eigenvalues --  -10.20814 -10.20650 -10.20348 -10.20214 -10.20178
 Alpha  occ. eigenvalues --  -10.20041  -8.13866  -6.10409  -6.10272  -6.10126
 Alpha  occ. eigenvalues --   -1.11439  -1.10876  -0.99987  -0.95671  -0.92870
 Alpha  occ. eigenvalues --   -0.86930  -0.86756  -0.81181  -0.77474  -0.77093
 Alpha  occ. eigenvalues --   -0.76574  -0.75777  -0.68435  -0.67280  -0.64872
 Alpha  occ. eigenvalues --   -0.61983  -0.61677  -0.60869  -0.58592  -0.57060
 Alpha  occ. eigenvalues --   -0.54473  -0.53420  -0.51231  -0.50425  -0.49184
 Alpha  occ. eigenvalues --   -0.48800  -0.47936  -0.46463  -0.46104  -0.45355
 Alpha  occ. eigenvalues --   -0.45046  -0.44348  -0.43840  -0.43322  -0.39484
 Alpha  occ. eigenvalues --   -0.38364  -0.38120  -0.37804  -0.36996  -0.35973
 Alpha  occ. eigenvalues --   -0.35159  -0.34772  -0.33788  -0.31800  -0.31569
 Alpha  occ. eigenvalues --   -0.30722  -0.30078  -0.28411  -0.27221  -0.26745
 Alpha  occ. eigenvalues --   -0.26222  -0.25940  -0.23753
 Alpha virt. eigenvalues --   -0.04710  -0.02953  -0.02211  -0.01064   0.01447
 Alpha virt. eigenvalues --    0.02476   0.05637   0.07239   0.08093   0.09404
 Alpha virt. eigenvalues --    0.10185   0.10745   0.12480   0.12976   0.13712
 Alpha virt. eigenvalues --    0.14423   0.14656   0.14946   0.16381   0.17123
 Alpha virt. eigenvalues --    0.17526   0.17761   0.18757   0.19557   0.20463
 Alpha virt. eigenvalues --    0.21764   0.22633   0.25259   0.27867   0.28401
 Alpha virt. eigenvalues --    0.29455   0.30069   0.30365   0.30851   0.31752
 Alpha virt. eigenvalues --    0.32779   0.34797   0.35240   0.38134   0.40146
 Alpha virt. eigenvalues --    0.40648   0.42351   0.44386   0.47253   0.48459
 Alpha virt. eigenvalues --    0.48875   0.50325   0.51674   0.52271   0.52927
 Alpha virt. eigenvalues --    0.53541   0.54842   0.55474   0.55837   0.56501
 Alpha virt. eigenvalues --    0.56726   0.57070   0.57533   0.57672   0.58398
 Alpha virt. eigenvalues --    0.58564   0.59117   0.59623   0.60104   0.60158
 Alpha virt. eigenvalues --    0.60636   0.61093   0.61274   0.61388   0.62844
 Alpha virt. eigenvalues --    0.63332   0.63942   0.65324   0.67059   0.69140
 Alpha virt. eigenvalues --    0.70052   0.71395   0.72389   0.74249   0.76621
 Alpha virt. eigenvalues --    0.77237   0.78500   0.78820   0.79695   0.80871
 Alpha virt. eigenvalues --    0.81135   0.82156   0.82605   0.82710   0.83114
 Alpha virt. eigenvalues --    0.83719   0.83859   0.84129   0.85393   0.86613
 Alpha virt. eigenvalues --    0.87452   0.88704   0.89686   0.90296   0.91368
 Alpha virt. eigenvalues --    0.91915   0.92956   0.93465   0.94156   0.95079
 Alpha virt. eigenvalues --    0.96699   0.97870   0.99134   1.00111   1.01437
 Alpha virt. eigenvalues --    1.02445   1.04197   1.04872   1.05695   1.08438
 Alpha virt. eigenvalues --    1.09047   1.10526   1.12140   1.13168   1.13924
 Alpha virt. eigenvalues --    1.14428   1.15418   1.16291   1.16666   1.17607
 Alpha virt. eigenvalues --    1.20166   1.21382   1.21706   1.24015   1.25086
 Alpha virt. eigenvalues --    1.26096   1.28053   1.30344   1.32482   1.34907
 Alpha virt. eigenvalues --    1.36212   1.37814   1.40113   1.40796   1.41466
 Alpha virt. eigenvalues --    1.42932   1.43290   1.44225   1.45229   1.46506
 Alpha virt. eigenvalues --    1.46812   1.47381   1.47916   1.48989   1.49748
 Alpha virt. eigenvalues --    1.52561   1.53061   1.53382   1.56833   1.61008
 Alpha virt. eigenvalues --    1.62102   1.63181   1.66899   1.69843   1.76446
 Alpha virt. eigenvalues --    1.77555   1.78286   1.79248   1.79955   1.81058
 Alpha virt. eigenvalues --    1.81505   1.83301   1.84005   1.84835   1.86675
 Alpha virt. eigenvalues --    1.87177   1.87808   1.89317   1.90717   1.91848
 Alpha virt. eigenvalues --    1.93631   1.95346   1.95771   1.96700   1.98077
 Alpha virt. eigenvalues --    1.99193   2.02984   2.04738   2.06600   2.07260
 Alpha virt. eigenvalues --    2.08905   2.10034   2.10464   2.12114   2.12623
 Alpha virt. eigenvalues --    2.13022   2.13857   2.14124   2.14294   2.14934
 Alpha virt. eigenvalues --    2.16672   2.18468   2.19895   2.22317   2.23478
 Alpha virt. eigenvalues --    2.25581   2.27231   2.28441   2.29082   2.29677
 Alpha virt. eigenvalues --    2.30141   2.31925   2.32546   2.34791   2.38071
 Alpha virt. eigenvalues --    2.38851   2.48836   2.50806   2.52365   2.55848
 Alpha virt. eigenvalues --    2.57068   2.57228   2.58952   2.60191   2.62497
 Alpha virt. eigenvalues --    2.63985   2.64082   2.65691   2.66928   2.69500
 Alpha virt. eigenvalues --    2.70735   2.71322   2.73162   2.73482   2.74257
 Alpha virt. eigenvalues --    2.75254   2.77603   2.79733   2.82155   2.84585
 Alpha virt. eigenvalues --    2.87144   2.88981   3.01354   3.03715   3.07170
 Alpha virt. eigenvalues --    3.12873   3.25971   3.37734   3.41645   3.61484
 Alpha virt. eigenvalues --    3.78482   3.93170   4.00802   4.02552   4.06243
 Alpha virt. eigenvalues --    4.07752   4.08542   4.09748   4.11320   4.12890
 Alpha virt. eigenvalues --    4.15067   4.17868   4.19992   4.30841   4.32966
 Alpha virt. eigenvalues --    4.35501   4.38324   4.47674   4.66057   4.70381
          Condensed to atoms (all electrons):
               1          2          3          4          5          6
     1  O    8.208527   0.447754  -0.059597   0.013189  -0.001823  -0.000085
     2  S    0.447754  13.694473   0.095842  -0.004984  -0.004589   0.000002
     3  N   -0.059597   0.095842   7.449598   0.252705  -0.057638   0.006211
     4  C    0.013189  -0.004984   0.252705   4.625923   0.329532  -0.050494
     5  N   -0.001823  -0.004589  -0.057638   0.329532   6.885101   0.271188
     6  N   -0.000085   0.000002   0.006211  -0.050494   0.271188   6.776300
     7  C    0.000025  -0.001628  -0.085859   0.483821  -0.059750  -0.109063
     8  N   -0.000025   0.000103   0.003598  -0.051992  -0.072544   0.184597
     9  C    0.000000  -0.000019  -0.000104   0.005874   0.006151  -0.043691
    10  C    0.000000   0.000000   0.000004   0.000994  -0.000316   0.003234
    11  C    0.000000   0.000000   0.000000  -0.000009   0.000002  -0.000070
    12  C    0.000000   0.000000   0.000000   0.000000   0.000000   0.000016
    13  C    0.000000   0.000000   0.000000   0.000007  -0.000006   0.000396
    14  C    0.000000   0.000000   0.000000  -0.000428   0.000320  -0.000160
    15  C   -0.059116   0.195454  -0.053714  -0.006145   0.001252   0.000012
    16  C    0.000747  -0.017545   0.000562  -0.000015  -0.014046   0.000293
    17  C    0.000131   0.001689   0.000055  -0.000016   0.000162  -0.000002
    18  C   -0.000005  -0.000416   0.000004   0.000000   0.000000   0.000000
    19  C   -0.000064   0.003509  -0.000116  -0.000003  -0.000001   0.000000
    20  C   -0.001020  -0.031181   0.000112   0.000070   0.000007   0.000000
    21  O   -0.041556   0.444646  -0.051176   0.000697  -0.000026   0.000000
    22  H    0.000794  -0.010978   0.305605  -0.025476   0.002449  -0.000105
    23  H    0.000015   0.000089  -0.000609  -0.025382   0.003834   0.003697
    24  H    0.000000   0.000000   0.000001   0.000069  -0.000003  -0.000089
    25  H    0.000000   0.000000   0.000000   0.000000   0.000000   0.000001
    26  H    0.000000   0.000000   0.000000   0.000000   0.000000   0.000000
    27  H    0.000000   0.000000   0.000000   0.000000   0.000000  -0.000008
    28  H    0.000000   0.000000   0.000000   0.000074  -0.000417   0.016965
    29  H    0.000347  -0.001060  -0.001077  -0.001274   0.031503  -0.001151
    30  H    0.000001  -0.000052   0.000002   0.000003  -0.000002   0.000000
    31  H    0.000000   0.000006   0.000000   0.000000   0.000000   0.000000
    32  H    0.000000  -0.000066   0.000001   0.000000   0.000000   0.000000
    33  H    0.000002  -0.006571   0.000189  -0.000001   0.000000   0.000000
               7          8          9         10         11         12
     1  O    0.000025  -0.000025   0.000000   0.000000   0.000000   0.000000
     2  S   -0.001628   0.000103  -0.000019   0.000000   0.000000   0.000000
     3  N   -0.085859   0.003598  -0.000104   0.000004   0.000000   0.000000
     4  C    0.483821  -0.051992   0.005874   0.000994  -0.000009   0.000000
     5  N   -0.059750  -0.072544   0.006151  -0.000316   0.000002   0.000000
     6  N   -0.109063   0.184597  -0.043691   0.003234  -0.000070   0.000016
     7  C    5.117706   0.320964  -0.036848  -0.007459  -0.000039   0.000019
     8  N    0.320964   6.943391   0.198180  -0.051849   0.004661   0.000398
     9  C   -0.036848   0.198180   4.609127   0.528636  -0.006640  -0.038220
    10  C   -0.007459  -0.051849   0.528636   4.994776   0.530250  -0.039448
    11  C   -0.000039   0.004661  -0.006640   0.530250   4.843071   0.550257
    12  C    0.000019   0.000398  -0.038220  -0.039448   0.550257   4.849288
    13  C   -0.000082   0.004587  -0.009798  -0.042474  -0.022497   0.543414
    14  C    0.007860  -0.056201   0.519969  -0.073894  -0.041789  -0.037163
    15  C   -0.000108   0.000000   0.000000   0.000000   0.000000   0.000000
    16  C   -0.000125  -0.000016   0.000000   0.000000   0.000000   0.000000
    17  C    0.000000   0.000000   0.000000   0.000000   0.000000   0.000000
    18  C    0.000000   0.000000   0.000000   0.000000   0.000000   0.000000
    19  C    0.000000   0.000000   0.000000   0.000000   0.000000   0.000000
    20  C    0.000002   0.000000   0.000000   0.000000   0.000000   0.000000
    21  O    0.000034   0.000000   0.000000   0.000000   0.000000   0.000000
    22  H   -0.002682  -0.000012   0.000000   0.000000   0.000000   0.000000
    23  H    0.358324  -0.035093  -0.001866   0.002243   0.000181  -0.000001
    24  H    0.006334  -0.009865  -0.040954   0.347353  -0.038133   0.004523
    25  H   -0.000004  -0.000115   0.003570  -0.039521   0.359710  -0.040355
    26  H    0.000000   0.000004   0.000527   0.005030  -0.042465   0.362512
    27  H    0.000002  -0.000110   0.003451   0.000825   0.004572  -0.041410
    28  H    0.000254  -0.014349  -0.033374   0.005693   0.000157   0.004318
    29  H    0.000521   0.000116  -0.000002   0.000000   0.000000   0.000000
    30  H    0.000000   0.000000   0.000000   0.000000   0.000000   0.000000
    31  H    0.000000   0.000000   0.000000   0.000000   0.000000   0.000000
    32  H    0.000000   0.000000   0.000000   0.000000   0.000000   0.000000
    33  H    0.000000   0.000000   0.000000   0.000000   0.000000   0.000000
              13         14         15         16         17         18
     1  O    0.000000   0.000000  -0.059116   0.000747   0.000131  -0.000005
     2  S    0.000000   0.000000   0.195454  -0.017545   0.001689  -0.000416
     3  N    0.000000   0.000000  -0.053714   0.000562   0.000055   0.000004
     4  C    0.000007  -0.000428  -0.006145  -0.000015  -0.000016   0.000000
     5  N   -0.000006   0.000320   0.001252  -0.014046   0.000162   0.000000
     6  N    0.000396  -0.000160   0.000012   0.000293  -0.000002   0.000000
     7  C   -0.000082   0.007860  -0.000108  -0.000125   0.000000   0.000000
     8  N    0.004587  -0.056201   0.000000  -0.000016   0.000000   0.000000
     9  C   -0.009798   0.519969   0.000000   0.000000   0.000000   0.000000
    10  C   -0.042474  -0.073894   0.000000   0.000000   0.000000   0.000000
    11  C   -0.022497  -0.041789   0.000000   0.000000   0.000000   0.000000
    12  C    0.543414  -0.037163   0.000000   0.000000   0.000000   0.000000
    13  C    4.866711   0.517496   0.000000   0.000000   0.000000   0.000000
    14  C    0.517496   4.981546   0.000000   0.000000   0.000000   0.000000
    15  C    0.000000   0.000000   5.306094   0.475200  -0.023677  -0.039843
    16  C    0.000000   0.000000   0.475200   4.960045   0.521746  -0.030323
    17  C    0.000000   0.000000  -0.023677   0.521746   4.870123   0.540485
    18  C    0.000000   0.000000  -0.039843  -0.030323   0.540485   4.848340
    19  C    0.000000   0.000000  -0.030703  -0.037819  -0.028120   0.545741
    20  C    0.000000   0.000000   0.520568  -0.031859  -0.040834  -0.028799
    21  O    0.000000   0.000000  -0.063235   0.001330  -0.000045  -0.000006
    22  H    0.000000   0.000000   0.002497  -0.000007   0.000008   0.000000
    23  H   -0.000005  -0.000125  -0.000001   0.000001   0.000000   0.000000
    24  H    0.000260   0.005795   0.000000   0.000000   0.000000   0.000000
    25  H    0.004575   0.000786   0.000000   0.000000   0.000000   0.000000
    26  H   -0.042381   0.004690   0.000000   0.000000   0.000000   0.000000
    27  H    0.360612  -0.038152   0.000000   0.000000   0.000000   0.000000
    28  H   -0.039850   0.353856   0.000000   0.000000   0.000000   0.000000
    29  H    0.000000   0.000000  -0.046688   0.338233  -0.032295   0.003984
    30  H    0.000000   0.000000   0.004990  -0.040994   0.362920  -0.043322
    31  H    0.000000   0.000000   0.000434   0.005061  -0.042742   0.361192
    32  H    0.000000   0.000000   0.005109   0.000656   0.004462  -0.042703
    33  H    0.000000   0.000000  -0.042352   0.005091   0.000247   0.004224
              19         20         21         22         23         24
     1  O   -0.000064  -0.001020  -0.041556   0.000794   0.000015   0.000000
     2  S    0.003509  -0.031181   0.444646  -0.010978   0.000089   0.000000
     3  N   -0.000116   0.000112  -0.051176   0.305605  -0.000609   0.000001
     4  C   -0.000003   0.000070   0.000697  -0.025476  -0.025382   0.000069
     5  N   -0.000001   0.000007  -0.000026   0.002449   0.003834  -0.000003
     6  N    0.000000   0.000000   0.000000  -0.000105   0.003697  -0.000089
     7  C    0.000000   0.000002   0.000034  -0.002682   0.358324   0.006334
     8  N    0.000000   0.000000   0.000000  -0.000012  -0.035093  -0.009865
     9  C    0.000000   0.000000   0.000000   0.000000  -0.001866  -0.040954
    10  C    0.000000   0.000000   0.000000   0.000000   0.002243   0.347353
    11  C    0.000000   0.000000   0.000000   0.000000   0.000181  -0.038133
    12  C    0.000000   0.000000   0.000000   0.000000  -0.000001   0.004523
    13  C    0.000000   0.000000   0.000000   0.000000  -0.000005   0.000260
    14  C    0.000000   0.000000   0.000000   0.000000  -0.000125   0.005795
    15  C   -0.030703   0.520568  -0.063235   0.002497  -0.000001   0.000000
    16  C   -0.037819  -0.031859   0.001330  -0.000007   0.000001   0.000000
    17  C   -0.028120  -0.040834  -0.000045   0.000008   0.000000   0.000000
    18  C    0.545741  -0.028799  -0.000006   0.000000   0.000000   0.000000
    19  C    4.888702   0.499064   0.000675   0.000002   0.000000   0.000000
    20  C    0.499064   4.931621   0.002449   0.000017   0.000000   0.000000
    21  O    0.000675   0.002449   8.230324   0.005155  -0.000002   0.000000
    22  H    0.000002   0.000017   0.005155   0.356392   0.001097   0.000000
    23  H    0.000000   0.000000  -0.000002   0.001097   0.504418   0.002122
    24  H    0.000000   0.000000   0.000000   0.000000   0.002122   0.586336
    25  H    0.000000   0.000000   0.000000   0.000000  -0.000002  -0.005613
    26  H    0.000000   0.000000   0.000000   0.000000   0.000000  -0.000162
    27  H    0.000000   0.000000   0.000000   0.000000   0.000000   0.000015
    28  H    0.000000   0.000000   0.000000   0.000000  -0.000011  -0.000141
    29  H    0.000287   0.004624   0.000016  -0.000045  -0.000003   0.000000
    30  H    0.004438   0.000695   0.000000   0.000000   0.000000   0.000000
    31  H   -0.043404   0.004953   0.000000   0.000000   0.000000   0.000000
    32  H    0.363333  -0.043402   0.000003   0.000000   0.000000   0.000000
    33  H   -0.037602   0.359476   0.011445  -0.000010   0.000000   0.000000
              25         26         27         28         29         30
     1  O    0.000000   0.000000   0.000000   0.000000   0.000347   0.000001
     2  S    0.000000   0.000000   0.000000   0.000000  -0.001060  -0.000052
     3  N    0.000000   0.000000   0.000000   0.000000  -0.001077   0.000002
     4  C    0.000000   0.000000   0.000000   0.000074  -0.001274   0.000003
     5  N    0.000000   0.000000   0.000000  -0.000417   0.031503  -0.000002
     6  N    0.000001   0.000000  -0.000008   0.016965  -0.001151   0.000000
     7  C   -0.000004   0.000000   0.000002   0.000254   0.000521   0.000000
     8  N   -0.000115   0.000004  -0.000110  -0.014349   0.000116   0.000000
     9  C    0.003570   0.000527   0.003451  -0.033374  -0.000002   0.000000
    10  C   -0.039521   0.005030   0.000825   0.005693   0.000000   0.000000
    11  C    0.359710  -0.042465   0.004572   0.000157   0.000000   0.000000
    12  C   -0.040355   0.362512  -0.041410   0.004318   0.000000   0.000000
    13  C    0.004575  -0.042381   0.360612  -0.039850   0.000000   0.000000
    14  C    0.000786   0.004690  -0.038152   0.353856   0.000000   0.000000
    15  C    0.000000   0.000000   0.000000   0.000000  -0.046688   0.004990
    16  C    0.000000   0.000000   0.000000   0.000000   0.338233  -0.040994
    17  C    0.000000   0.000000   0.000000   0.000000  -0.032295   0.362920
    18  C    0.000000   0.000000   0.000000   0.000000   0.003984  -0.043322
    19  C    0.000000   0.000000   0.000000   0.000000   0.000287   0.004438
    20  C    0.000000   0.000000   0.000000   0.000000   0.004624   0.000695
    21  O    0.000000   0.000000   0.000000   0.000000   0.000016   0.000000
    22  H    0.000000   0.000000   0.000000   0.000000  -0.000045   0.000000
    23  H   -0.000002   0.000000   0.000000  -0.000011  -0.000003   0.000000
    24  H   -0.005613  -0.000162   0.000015  -0.000141   0.000000   0.000000
    25  H    0.579565  -0.005384  -0.000180   0.000013   0.000000   0.000000
    26  H   -0.005384   0.582287  -0.005352  -0.000137   0.000000   0.000000
    27  H   -0.000180  -0.005352   0.574333  -0.005018   0.000000   0.000000
    28  H    0.000013  -0.000137  -0.005018   0.530779   0.000000   0.000000
    29  H    0.000000   0.000000   0.000000   0.000000   0.498237  -0.004854
    30  H    0.000000   0.000000   0.000000   0.000000  -0.004854   0.576273
    31  H    0.000000   0.000000   0.000000   0.000000  -0.000133  -0.005490
    32  H    0.000000   0.000000   0.000000   0.000000   0.000013  -0.000175
    33  H    0.000000   0.000000   0.000000   0.000000  -0.000125   0.000014
              31         32         33
     1  O    0.000000   0.000000   0.000002
     2  S    0.000006  -0.000066  -0.006571
     3  N    0.000000   0.000001   0.000189
     4  C    0.000000   0.000000  -0.000001
     5  N    0.000000   0.000000   0.000000
     6  N    0.000000   0.000000   0.000000
     7  C    0.000000   0.000000   0.000000
     8  N    0.000000   0.000000   0.000000
     9  C    0.000000   0.000000   0.000000
    10  C    0.000000   0.000000   0.000000
    11  C    0.000000   0.000000   0.000000
    12  C    0.000000   0.000000   0.000000
    13  C    0.000000   0.000000   0.000000
    14  C    0.000000   0.000000   0.000000
    15  C    0.000434   0.005109  -0.042352
    16  C    0.005061   0.000656   0.005091
    17  C   -0.042742   0.004462   0.000247
    18  C    0.361192  -0.042703   0.004224
    19  C   -0.043404   0.363333  -0.037602
    20  C    0.004953  -0.043402   0.359476
    21  O    0.000000   0.000003   0.011445
    22  H    0.000000   0.000000  -0.000010
    23  H    0.000000   0.000000   0.000000
    24  H    0.000000   0.000000   0.000000
    25  H    0.000000   0.000000   0.000000
    26  H    0.000000   0.000000   0.000000
    27  H    0.000000   0.000000   0.000000
    28  H    0.000000   0.000000   0.000000
    29  H   -0.000133   0.000013  -0.000125
    30  H   -0.005490  -0.000175   0.000014
    31  H    0.585554  -0.005609  -0.000144
    32  H   -0.005609   0.581157  -0.005136
    33  H   -0.000144  -0.005136   0.530094
 Mulliken charges:
               1
     1  O   -0.508242
     2  S    1.195525
     3  N   -0.804599
     4  C    0.453262
     5  N   -0.320344
     6  N   -0.057996
     7  C    0.007782
     8  N   -0.368429
     9  C    0.336029
    10  C   -0.164077
    11  C   -0.141219
    12  C   -0.118149
    13  C   -0.140965
    14  C   -0.144406
    15  C   -0.146030
    16  C   -0.136217
    17  C   -0.134299
    18  C   -0.118553
    19  C   -0.127920
    20  C   -0.146564
    21  O   -0.540727
    22  H    0.365299
    23  H    0.187078
    24  H    0.142151
    25  H    0.142953
    26  H    0.140832
    27  H    0.146419
    28  H    0.181188
    29  H    0.210828
    30  H    0.145552
    31  H    0.140323
    32  H    0.142358
    33  H    0.181156
 Sum of Mulliken charges =   0.00000
 Mulliken charges with hydrogens summed into heavy atoms:
               1
     1  O   -0.508242
     2  S    1.195525
     3  N   -0.439300
     4  C    0.453262
     5  N   -0.320344
     6  N   -0.057996
     7  C    0.194860
     8  N   -0.368429
     9  C    0.336029
    10  C   -0.021926
    11  C    0.001734
    12  C    0.022683
    13  C    0.005454
    14  C    0.036783
    15  C   -0.146030
    16  C    0.074611
    17  C    0.011253
    18  C    0.021770
    19  C    0.014438
    20  C    0.034592
    21  O   -0.540727
 Electronic spatial extent (au):  <R**2>=           9264.3909
 Charge=              0.0000 electrons
 Dipole moment (field-independent basis, Debye):
    X=             -3.2607    Y=              0.1128    Z=             -3.1774  Tot=              4.5542
 Quadrupole moment (field-independent basis, Debye-Ang):
   XX=            -90.0283   YY=           -123.9271   ZZ=           -131.4080
   XY=             12.8559   XZ=             -4.6991   YZ=              8.7271
 Traceless Quadrupole moment (field-independent basis, Debye-Ang):
   XX=             25.0928   YY=             -8.8060   ZZ=            -16.2868
   XY=             12.8559   XZ=             -4.6991   YZ=              8.7271
 Octapole moment (field-independent basis, Debye-Ang**2):
  XXX=            -36.5127  YYY=              9.6470  ZZZ=             -1.3643  XYY=             -7.6971
  XXY=             32.3425  XXZ=            -11.9311  XZZ=             -9.2536  YZZ=             -7.6106
  YYZ=             -8.6856  XYZ=            -20.0078
 Hexadecapole moment (field-independent basis, Debye-Ang**3):
 XXXX=          -9068.0382 YYYY=          -1277.7142 ZZZZ=           -406.7862 XXXY=             72.7730
 XXXZ=           -113.8839 YYYX=             95.6855 YYYZ=             24.7336 ZZZX=              5.5493
 ZZZY=             15.1959 XXYY=          -1934.8051 XXZZ=          -1965.2547 YYZZ=           -271.1162
 XXYZ=             93.3239 YYXZ=            -27.6643 ZZXY=            -23.4521
 N-N= 1.702699864600D+03 E-N=-6.466440806931D+03  KE= 1.298265148897D+03
 No NMR shielding tensors so no spin-rotation constants.
 Leave Link  601 at Thu Aug  6 21:10:29 2020, MaxMem=    33554432 cpu:         0.3
 (Enter /prod/apps/gaussian/g09d1/l9999.exe)
 1\1\GINC-PIRINEUS20\SP\RB3LYP\6-31G(d)\C14H12N4O2S1\UBAFAR01\06-Aug-20
 20\0\\#p b3lyp/6-31G(d)\\SM45.n.8.pdb.xyz\\0,1\O,0,2.57,-3.904,1.532\S
 ,0,2.47,-3.104,0.309\N,0,1.891,-1.551,0.717\C,0,1.85,-1.123,2.051\N,0,
 2.988,-0.934,2.773\N,0,2.67,-0.501,3.962\C,0,0.767,-0.782,2.832\N,0,1.
 323,-0.385,4.008\C,0,0.674,0.094,5.181\C,0,-0.61,0.635,5.089\C,0,-1.24
 ,1.09,6.245\C,0,-0.59,1.018,7.478\C,0,0.698,0.483,7.552\C,0,1.335,0.01
 3,6.407\C,0,4.116,-2.804,-0.319\C,0,5.068,-2.185,0.494\C,0,6.356,-2.01
 5,-0.007\C,0,6.68,-2.464,-1.29\C,0,5.715,-3.082,-2.086\C,0,4.418,-3.25
 6,-1.602\O,0,1.628,-3.542,-0.811\H,0,1.072,-1.332,0.155\H,0,-0.294,-0.
 804,2.658\H,0,-1.104,0.711,4.127\H,0,-2.237,1.509,6.177\H,0,-1.083,1.3
 77,8.374\H,0,1.208,0.422,8.507\H,0,2.329,-0.414,6.447\H,0,4.791,-1.821
 ,1.478\H,0,7.108,-1.529,0.605\H,0,7.687,-2.329,-1.67\H,0,5.967,-3.427,
 -3.082\H,0,3.647,-3.727,-2.199\\Version=AM64L-G09RevD.01\State=1-A\HF=
 -1308.2453468\RMSD=3.340e-09\Dipole=-0.7402243,1.582632,0.3972541\Quad
 rupole=8.8251161,-15.448927,6.6238109,-8.7643586,-12.1604926,3.08577\P
 G=C01 [X(C14H12N4O2S1)]\\@


 GETTING A SIMPLE ANSWER FROM A PROFESSOR IS LIKE
 GETTING A THIMBLE OF WATER FROM A FIRE HYDRANT.
     -- PROF. LEN SHAPIRO, NDSU
 Job cpu time:       0 days  0 hours  5 minutes 15.0 seconds.
 File lengths (MBytes):  RWF=     66 Int=      0 D2E=      0 Chk=      5 Scr=      1
 Normal termination of Gaussian 09 at Thu Aug  6 21:10:29 2020.
 Initial command:
 /prod/apps/gaussian/g09d1/l1.exe "/tmp/ubafar01/1448546/Gau-5943.inp" -scrdir="/tmp/ubafar01/1448546/"
 Entering Link 1 = /prod/apps/gaussian/g09d1/l1.exe PID=      7775.
  
 Copyright (c) 1988,1990,1992,1993,1995,1998,2003,2009,2013,
            Gaussian, Inc.  All Rights Reserved.
  
 This is part of the Gaussian(R) 09 program.  It is based on
 the Gaussian(R) 03 system (copyright 2003, Gaussian, Inc.),
 the Gaussian(R) 98 system (copyright 1998, Gaussian, Inc.),
 the Gaussian(R) 94 system (copyright 1995, Gaussian, Inc.),
 the Gaussian 92(TM) system (copyright 1992, Gaussian, Inc.),
 the Gaussian 90(TM) system (copyright 1990, Gaussian, Inc.),
 the Gaussian 88(TM) system (copyright 1988, Gaussian, Inc.),
 the Gaussian 86(TM) system (copyright 1986, Carnegie Mellon
 University), and the Gaussian 82(TM) system (copyright 1983,
 Carnegie Mellon University). Gaussian is a federally registered
 trademark of Gaussian, Inc.
  
 This software contains proprietary and confidential information,
 including trade secrets, belonging to Gaussian, Inc.
  
 This software is provided under written license and may be
 used, copied, transmitted, or stored only in accord with that
 written license.
  
 The following legend is applicable only to US Government
 contracts under FAR:
  
                    RESTRICTED RIGHTS LEGEND
  
 Use, reproduction and disclosure by the US Government is
 subject to restrictions as set forth in subparagraphs (a)
 and (c) of the Commercial Computer Software - Restricted
 Rights clause in FAR 52.227-19.
  
 Gaussian, Inc.
 340 Quinnipiac St., Bldg. 40, Wallingford CT 06492
  
  
 ---------------------------------------------------------------
 Warning -- This program may not be used in any manner that
 competes with the business of Gaussian, Inc. or will provide
 assistance to any competitor of Gaussian, Inc.  The licensee
 of this program is prohibited from giving any competitor of
 Gaussian, Inc. access to this program.  By using this program,
 the user acknowledges that Gaussian, Inc. is engaged in the
 business of creating and licensing software in the field of
 computational chemistry and represents and warrants to the
 licensee that it is not a competitor of Gaussian, Inc. and that
 it will not use this program in any manner prohibited above.
 ---------------------------------------------------------------
  

 Cite this work as:
 Gaussian 09, Revision D.01,
 M. J. Frisch, G. W. Trucks, H. B. Schlegel, G. E. Scuseria, 
 M. A. Robb, J. R. Cheeseman, G. Scalmani, V. Barone, B. Mennucci, 
 G. A. Petersson, H. Nakatsuji, M. Caricato, X. Li, H. P. Hratchian, 
 A. F. Izmaylov, J. Bloino, G. Zheng, J. L. Sonnenberg, M. Hada, 
 M. Ehara, K. Toyota, R. Fukuda, J. Hasegawa, M. Ishida, T. Nakajima, 
 Y. Honda, O. Kitao, H. Nakai, T. Vreven, J. A. Montgomery, Jr., 
 J. E. Peralta, F. Ogliaro, M. Bearpark, J. J. Heyd, E. Brothers, 
 K. N. Kudin, V. N. Staroverov, T. Keith, R. Kobayashi, J. Normand, 
 K. Raghavachari, A. Rendell, J. C. Burant, S. S. Iyengar, J. Tomasi, 
 M. Cossi, N. Rega, J. M. Millam, M. Klene, J. E. Knox, J. B. Cross, 
 V. Bakken, C. Adamo, J. Jaramillo, R. Gomperts, R. E. Stratmann, 
 O. Yazyev, A. J. Austin, R. Cammi, C. Pomelli, J. W. Ochterski, 
 R. L. Martin, K. Morokuma, V. G. Zakrzewski, G. A. Voth, 
 P. Salvador, J. J. Dannenberg, S. Dapprich, A. D. Daniels, 
 O. Farkas, J. B. Foresman, J. V. Ortiz, J. Cioslowski, 
 and D. J. Fox, Gaussian, Inc., Wallingford CT, 2013.
 
 ******************************************
 Gaussian 09:  AM64L-G09RevD.01 24-Apr-2013
                 6-Aug-2020 
 ******************************************
 %nproc=1
 Will use up to    1 processors via shared memory.
 %Chk=SM45.n.8.pdb.xyz.mst.n.o.chk
 %subst l301 /dades/curu/work_g09D01_MST_AddSphPartition_ReadGammas/exe-dir/
 %subst l502 /dades/curu/work_g09D01_MST_AddSphPartition_ReadGammas/exe-dir/
 ----------------------------------------------------------------------
 #p b3lyp/6-31G(d) scrf=(iefpcm,read,solvent=n-Octanol) geom=allcheck g
 uess=read
 ----------------------------------------------------------------------
 1/29=7,38=1,40=2/1;
 2/12=2,40=1/2;
 3/5=1,6=6,7=1,11=2,14=-4,16=1,25=1,30=1,70=2203,72=25,74=-5,116=-2/1,2,3;
 4/5=1/1;
 5/5=2,38=6,53=25/2;
 6/7=2,8=2,9=2,10=2,28=1/1;
 99/5=1,9=1/99;
 Leave Link    1 at Thu Aug  6 21:10:29 2020, MaxMem=           0 cpu:         0.0
 (Enter /prod/apps/gaussian/g09d1/l101.exe)
 Structure from the checkpoint file:  "SM45.n.8.pdb.xyz.mst.n.o.chk"
 ----------------
 SM45.n.8.pdb.xyz
 ----------------
 Charge =  0 Multiplicity = 1
 Z-Matrix found in file.
 O,0,2.57,-3.904,1.532
 S,0,2.47,-3.104,0.309
 N,0,1.891,-1.551,0.717
 C,0,1.85,-1.123,2.051
 N,0,2.988,-0.934,2.773
 N,0,2.67,-0.501,3.962
 C,0,0.767,-0.782,2.832
 N,0,1.323,-0.385,4.008
 C,0,0.674,0.094,5.181
 C,0,-0.61,0.635,5.089
 C,0,-1.24,1.09,6.245
 C,0,-0.59,1.018,7.478
 C,0,0.698,0.483,7.552
 C,0,1.335,0.013,6.407
 C,0,4.116,-2.804,-0.319
 C,0,5.068,-2.185,0.494
 C,0,6.356,-2.015,-0.007
 C,0,6.68,-2.464,-1.29
 C,0,5.715,-3.082,-2.086
 C,0,4.418,-3.256,-1.602
 O,0,1.628,-3.542,-0.811
 H,0,1.072,-1.332,0.155
 H,0,-0.294,-0.804,2.658
 H,0,-1.104,0.711,4.127
 H,0,-2.237,1.509,6.177
 H,0,-1.083,1.377,8.374
 H,0,1.208,0.422,8.507
 H,0,2.329,-0.414,6.447
 H,0,4.791,-1.821,1.478
 H,0,7.108,-1.529,0.605
 H,0,7.687,-2.329,-1.67
 H,0,5.967,-3.427,-3.082
 H,0,3.647,-3.727,-2.199
 Recover connectivity data from disk.
 NAtoms=     33 NQM=       33 NQMF=       0 NMMI=      0 NMMIF=      0
                NMic=       0 NMicF=      0.
                    Isotopes and Nuclear Properties:
 (Nuclear quadrupole moments (NQMom) in fm**2, nuclear magnetic moments (NMagM)
  in nuclear magnetons)

  Atom         1           2           3           4           5           6           7           8           9          10
 IAtWgt=          16          32          14          12          14          14          12          14          12          12
 AtmWgt=  15.9949146  31.9720718  14.0030740  12.0000000  14.0030740  14.0030740  12.0000000  14.0030740  12.0000000  12.0000000
 NucSpn=           0           0           2           0           2           2           0           2           0           0
 AtZEff=  -5.6000000 -13.6000000  -4.5500000  -3.6000000  -4.5500000  -4.5500000  -3.6000000  -4.5500000  -3.6000000  -3.6000000
 NQMom=    0.0000000   0.0000000   2.0440000   0.0000000   2.0440000   2.0440000   0.0000000   2.0440000   0.0000000   0.0000000
 NMagM=    0.0000000   0.0000000   0.4037610   0.0000000   0.4037610   0.4037610   0.0000000   0.4037610   0.0000000   0.0000000
 AtZNuc=   8.0000000  16.0000000   7.0000000   6.0000000   7.0000000   7.0000000   6.0000000   7.0000000   6.0000000   6.0000000

  Atom        11          12          13          14          15          16          17          18          19          20
 IAtWgt=          12          12          12          12          12          12          12          12          12          12
 AtmWgt=  12.0000000  12.0000000  12.0000000  12.0000000  12.0000000  12.0000000  12.0000000  12.0000000  12.0000000  12.0000000
 NucSpn=           0           0           0           0           0           0           0           0           0           0
 AtZEff=  -3.6000000  -3.6000000  -3.6000000  -3.6000000  -3.6000000  -3.6000000  -3.6000000  -3.6000000  -3.6000000  -3.6000000
 NQMom=    0.0000000   0.0000000   0.0000000   0.0000000   0.0000000   0.0000000   0.0000000   0.0000000   0.0000000   0.0000000
 NMagM=    0.0000000   0.0000000   0.0000000   0.0000000   0.0000000   0.0000000   0.0000000   0.0000000   0.0000000   0.0000000
 AtZNuc=   6.0000000   6.0000000   6.0000000   6.0000000   6.0000000   6.0000000   6.0000000   6.0000000   6.0000000   6.0000000

  Atom        21          22          23          24          25          26          27          28          29          30
 IAtWgt=          16           1           1           1           1           1           1           1           1           1
 AtmWgt=  15.9949146   1.0078250   1.0078250   1.0078250   1.0078250   1.0078250   1.0078250   1.0078250   1.0078250   1.0078250
 NucSpn=           0           1           1           1           1           1           1           1           1           1
 AtZEff=  -5.6000000  -1.0000000  -1.0000000  -1.0000000  -1.0000000  -1.0000000  -1.0000000  -1.0000000  -1.0000000  -1.0000000
 NQMom=    0.0000000   0.0000000   0.0000000   0.0000000   0.0000000   0.0000000   0.0000000   0.0000000   0.0000000   0.0000000
 NMagM=    0.0000000   2.7928460   2.7928460   2.7928460   2.7928460   2.7928460   2.7928460   2.7928460   2.7928460   2.7928460
 AtZNuc=   8.0000000   1.0000000   1.0000000   1.0000000   1.0000000   1.0000000   1.0000000   1.0000000   1.0000000   1.0000000

  Atom        31          32          33
 IAtWgt=           1           1           1
 AtmWgt=   1.0078250   1.0078250   1.0078250
 NucSpn=           1           1           1
 AtZEff=  -1.0000000  -1.0000000  -1.0000000
 NQMom=    0.0000000   0.0000000   0.0000000
 NMagM=    2.7928460   2.7928460   2.7928460
 AtZNuc=   1.0000000   1.0000000   1.0000000
 Leave Link  101 at Thu Aug  6 21:10:29 2020, MaxMem=    33554432 cpu:         0.1
 (Enter /prod/apps/gaussian/g09d1/l202.exe)
                          Input orientation:                          
 ---------------------------------------------------------------------
 Center     Atomic      Atomic             Coordinates (Angstroms)
 Number     Number       Type             X           Y           Z
 ---------------------------------------------------------------------
      1          8           0        2.570000   -3.904000    1.532000
      2         16           0        2.470000   -3.104000    0.309000
      3          7           0        1.891000   -1.551000    0.717000
      4          6           0        1.850000   -1.123000    2.051000
      5          7           0        2.988000   -0.934000    2.773000
      6          7           0        2.670000   -0.501000    3.962000
      7          6           0        0.767000   -0.782000    2.832000
      8          7           0        1.323000   -0.385000    4.008000
      9          6           0        0.674000    0.094000    5.181000
     10          6           0       -0.610000    0.635000    5.089000
     11          6           0       -1.240000    1.090000    6.245000
     12          6           0       -0.590000    1.018000    7.478000
     13          6           0        0.698000    0.483000    7.552000
     14          6           0        1.335000    0.013000    6.407000
     15          6           0        4.116000   -2.804000   -0.319000
     16          6           0        5.068000   -2.185000    0.494000
     17          6           0        6.356000   -2.015000   -0.007000
     18          6           0        6.680000   -2.464000   -1.290000
     19          6           0        5.715000   -3.082000   -2.086000
     20          6           0        4.418000   -3.256000   -1.602000
     21          8           0        1.628000   -3.542000   -0.811000
     22          1           0        1.072000   -1.332000    0.155000
     23          1           0       -0.294000   -0.804000    2.658000
     24          1           0       -1.104000    0.711000    4.127000
     25          1           0       -2.237000    1.509000    6.177000
     26          1           0       -1.083000    1.377000    8.374000
     27          1           0        1.208000    0.422000    8.507000
     28          1           0        2.329000   -0.414000    6.447000
     29          1           0        4.791000   -1.821000    1.478000
     30          1           0        7.108000   -1.529000    0.605000
     31          1           0        7.687000   -2.329000   -1.670000
     32          1           0        5.967000   -3.427000   -3.082000
     33          1           0        3.647000   -3.727000   -2.199000
 ---------------------------------------------------------------------
                    Distance matrix (angstroms):
                    1          2          3          4          5
     1  O    0.000000
     2  S    1.464831   0.000000
     3  N    2.581061   1.706902   0.000000
     4  C    2.919199   2.709857   1.401578   0.000000
     5  N    3.245875   3.323931   2.410650   1.360900   0.000000
     6  N    4.182739   4.489991   3.498481   2.170531   1.304735
     7  C    3.832453   3.828501   2.515544   1.378090   2.226977
     8  N    4.479838   4.731931   3.537352   2.156901   2.144493
     9  C    5.735331   6.098295   4.910643   3.558225   3.494259
    10  C    6.585375   6.805507   5.490718   4.286211   4.557546
    11  C    7.852930   8.160259   6.880176   5.659956   5.833296
    12  C    8.340659   8.817542   7.646322   6.323750   6.224903
    13  C    7.680531   8.274515   7.230327   5.845284   5.485511
    14  C    6.374460   6.941867   5.927169   4.531055   4.103069
    15  C    2.650720   1.787093   2.755709   3.684755   3.785465
    16  C    3.205060   2.761954   3.247309   3.729292   3.329451
    17  C    4.502293   4.048058   4.547054   5.033395   4.498932
    18  C    5.189353   4.548681   5.272204   6.024074   5.699099
    19  C    4.863808   4.033179   4.982343   5.990883   5.971626
    20  C    3.695533   2.733080   3.830211   4.948608   5.155309
    21  O    2.551089   1.468063   2.523496   3.753916   4.636412
    22  H    3.279530   2.262323   1.017136   2.060044   3.268545
    23  H    4.368109   4.295055   3.016573   2.250988   3.286586
    24  H    6.444418   6.473394   5.070973   4.049623   4.613437
    25  H    8.601386   8.824344   7.497705   6.376117   6.697469
    26  H    9.383301   9.886728   8.720522   7.404919   7.299655
    27  H    8.319852   9.012909   8.064944   6.669267   6.155152
    28  H    6.032861   6.703061   5.858115   4.478497   3.768681
    29  H    3.045430   2.898222   3.010319   3.076526   2.390524
    30  H    5.205132   4.907065   5.218248   5.468301   4.693469
    31  H    6.238359   5.633308   6.316381   7.026439   6.615654
    32  H    5.749446   4.881825   5.879248   6.971786   7.026416
    33  H    3.887367   2.839634   4.039996   5.298351   5.740724
                    6          7          8          9         10
     6  N    0.000000
     7  C    2.230980   0.000000
     8  N    1.352768   1.360044   0.000000
     9  C    2.413297   2.508750   1.423577   0.000000
    10  C    3.649524   2.999678   2.438329   1.396353   0.000000
    11  C    4.799111   4.379612   3.707932   2.405724   1.392933
    12  C    5.029634   5.163987   4.203436   2.779871   2.419589
    13  C    4.212498   4.887063   3.701889   2.402819   2.792908
[...]
 Alpha virt. eigenvalues --    2.87014   2.89170   3.01205   3.03193   3.06863
 Alpha virt. eigenvalues --    3.12847   3.26018   3.37189   3.42082   3.60988
 Alpha virt. eigenvalues --    3.77420   3.92174   4.00340   4.01597   4.06093
 Alpha virt. eigenvalues --    4.07628   4.08413   4.10137   4.10804   4.12548
 Alpha virt. eigenvalues --    4.15071   4.17042   4.19848   4.31323   4.32394
 Alpha virt. eigenvalues --    4.34901   4.38668   4.47606   4.65481   4.70783
          Condensed to atoms (all electrons):
               1          2          3          4          5          6
     1  O    8.234418   0.446307  -0.060265   0.012817  -0.001808  -0.000083
     2  S    0.446307  13.672526   0.115193  -0.006908  -0.003991   0.000000
     3  N   -0.060265   0.115193   7.437001   0.253467  -0.058637   0.006273
     4  C    0.012817  -0.006908   0.253467   4.618784   0.337030  -0.054851
     5  N   -0.001808  -0.003991  -0.058637   0.337030   6.902935   0.265977
     6  N   -0.000083   0.000000   0.006273  -0.054851   0.265977   6.793564
     7  C    0.000053  -0.001707  -0.083136   0.493699  -0.060297  -0.110662
     8  N   -0.000025   0.000097   0.003447  -0.049959  -0.076388   0.195577
     9  C    0.000000  -0.000019  -0.000108   0.005491   0.006099  -0.043104
    10  C    0.000000   0.000000   0.000004   0.001018  -0.000310   0.003187
    11  C    0.000000   0.000000   0.000000  -0.000009   0.000002  -0.000070
    12  C    0.000000   0.000000   0.000000   0.000000   0.000000   0.000017
    13  C    0.000000   0.000000   0.000000   0.000007  -0.000006   0.000364
    14  C    0.000000   0.000000   0.000000  -0.000426   0.000341  -0.000741
    15  C   -0.059983   0.202643  -0.055433  -0.005955   0.001177   0.000012
    16  C    0.000925  -0.017774   0.000340  -0.000010  -0.014785   0.000305
    17  C    0.000130   0.001731   0.000060  -0.000015   0.000163  -0.000002
    18  C   -0.000005  -0.000426   0.000004   0.000000   0.000001   0.000000
    19  C   -0.000062   0.003464  -0.000117  -0.000003  -0.000002   0.000000
    20  C   -0.001029  -0.031062   0.000129   0.000068   0.000008   0.000000
    21  O   -0.041058   0.447030  -0.051476   0.000662  -0.000025   0.000000
    22  H    0.000676  -0.010923   0.306020  -0.022757   0.002219  -0.000092
    23  H    0.000014   0.000078  -0.000673  -0.023803   0.003694   0.003592
    24  H    0.000000   0.000000   0.000001   0.000094  -0.000004  -0.000086
    25  H    0.000000   0.000000   0.000000   0.000000   0.000000   0.000001
    26  H    0.000000   0.000000   0.000000   0.000000   0.000000   0.000000
    27  H    0.000000   0.000000   0.000000   0.000000   0.000000  -0.000008
    28  H    0.000000   0.000000   0.000000   0.000067  -0.000411   0.017136
    29  H    0.000326  -0.000952  -0.001134  -0.001212   0.033066  -0.001238
    30  H    0.000001  -0.000055   0.000002   0.000002  -0.000004   0.000000
    31  H    0.000000   0.000006   0.000000   0.000000   0.000000   0.000000
    32  H    0.000000  -0.000069   0.000001   0.000000   0.000000   0.000000
    33  H    0.000003  -0.006274   0.000177  -0.000001   0.000000   0.000000
               7          8          9         10         11         12
     1  O    0.000053  -0.000025   0.000000   0.000000   0.000000   0.000000
     2  S   -0.001707   0.000097  -0.000019   0.000000   0.000000   0.000000
     3  N   -0.083136   0.003447  -0.000108   0.000004   0.000000   0.000000
     4  C    0.493699  -0.049959   0.005491   0.001018  -0.000009   0.000000
     5  N   -0.060297  -0.076388   0.006099  -0.000310   0.000002   0.000000
     6  N   -0.110662   0.195577  -0.043104   0.003187  -0.000070   0.000017
     7  C    5.088752   0.328574  -0.035675  -0.006705  -0.000021   0.000019
     8  N    0.328574   6.925806   0.196140  -0.051754   0.004651   0.000365
     9  C   -0.035675   0.196140   4.622424   0.528565  -0.008246  -0.038281
    10  C   -0.006705  -0.051754   0.528565   4.994463   0.529644  -0.040251
    11  C   -0.000021   0.004651  -0.008246   0.529644   4.851050   0.547189
    12  C    0.000019   0.000365  -0.038281  -0.040251   0.547189   4.859619
    13  C   -0.000081   0.004574  -0.010395  -0.042607  -0.023518   0.541483
    14  C    0.007612  -0.057142   0.517549  -0.072350  -0.041610  -0.038283
    15  C   -0.000101   0.000000   0.000000   0.000000   0.000000   0.000000
    16  C   -0.000128  -0.000016   0.000000   0.000000   0.000000   0.000000
    17  C    0.000000   0.000000   0.000000   0.000000   0.000000   0.000000
    18  C    0.000000   0.000000   0.000000   0.000000   0.000000   0.000000
    19  C    0.000000   0.000000   0.000000   0.000000   0.000000   0.000000
    20  C    0.000002   0.000000   0.000000   0.000000   0.000000   0.000000
    21  O    0.000032   0.000000   0.000000   0.000000   0.000000   0.000000
    22  H   -0.002383  -0.000009   0.000001   0.000000   0.000000   0.000000
    23  H    0.360174  -0.033900  -0.001989   0.002243   0.000178  -0.000001
    24  H    0.006167  -0.009474  -0.040609   0.351114  -0.035394   0.004355
    25  H   -0.000004  -0.000111   0.003468  -0.038105   0.362014  -0.039631
    26  H    0.000000   0.000004   0.000508   0.004947  -0.041525   0.364550
    27  H    0.000001  -0.000106   0.003497   0.000763   0.004501  -0.040369
    28  H    0.000240  -0.014375  -0.036780   0.005667   0.000108   0.004425
    29  H    0.000522   0.000121  -0.000002   0.000000   0.000000   0.000000
    30  H    0.000000   0.000000   0.000000   0.000000   0.000000   0.000000
    31  H    0.000000   0.000000   0.000000   0.000000   0.000000   0.000000
    32  H    0.000000   0.000000   0.000000   0.000000   0.000000   0.000000
    33  H    0.000000   0.000000   0.000000   0.000000   0.000000   0.000000
              13         14         15         16         17         18
     1  O    0.000000   0.000000  -0.059983   0.000925   0.000130  -0.000005
     2  S    0.000000   0.000000   0.202643  -0.017774   0.001731  -0.000426
     3  N    0.000000   0.000000  -0.055433   0.000340   0.000060   0.000004
     4  C    0.000007  -0.000426  -0.005955  -0.000010  -0.000015   0.000000
     5  N   -0.000006   0.000341   0.001177  -0.014785   0.000163   0.000001
     6  N    0.000364  -0.000741   0.000012   0.000305  -0.000002   0.000000
     7  C   -0.000081   0.007612  -0.000101  -0.000128   0.000000   0.000000
     8  N    0.004574  -0.057142   0.000000  -0.000016   0.000000   0.000000
     9  C   -0.010395   0.517549   0.000000   0.000000   0.000000   0.000000
    10  C   -0.042607  -0.072350   0.000000   0.000000   0.000000   0.000000
    11  C   -0.023518  -0.041610   0.000000   0.000000   0.000000   0.000000
    12  C    0.541483  -0.038283   0.000000   0.000000   0.000000   0.000000
    13  C    4.873027   0.518858   0.000000   0.000000   0.000000   0.000000
    14  C    0.518858   4.989744   0.000000   0.000000   0.000000   0.000000
    15  C    0.000000   0.000000   5.317478   0.473670  -0.024267  -0.040019
    16  C    0.000000   0.000000   0.473670   4.972236   0.520817  -0.031246
    17  C    0.000000   0.000000  -0.024267   0.520817   4.876643   0.538397
    18  C    0.000000   0.000000  -0.040019  -0.031246   0.538397   4.854102
    19  C    0.000000   0.000000  -0.030646  -0.038037  -0.028888   0.543373
    20  C    0.000000   0.000000   0.514847  -0.031053  -0.041006  -0.029753
    21  O    0.000000   0.000000  -0.063252   0.001322  -0.000046  -0.000006
    22  H    0.000000   0.000000   0.002132  -0.000002   0.000008   0.000000
    23  H   -0.000004  -0.000118  -0.000001   0.000001   0.000000   0.000000
    24  H    0.000248   0.005435   0.000000   0.000000   0.000000   0.000000
    25  H    0.004468   0.000767   0.000000   0.000000   0.000000   0.000000
    26  H   -0.041655   0.004640   0.000000   0.000000   0.000000   0.000000
    27  H    0.362534  -0.038001   0.000000   0.000000   0.000000   0.000000
    28  H   -0.039052   0.354941   0.000000   0.000000   0.000000   0.000000
    29  H    0.000000   0.000000  -0.048843   0.337377  -0.032390   0.004076
    30  H    0.000000   0.000000   0.004936  -0.041050   0.365046  -0.041229
    31  H    0.000000   0.000000   0.000430   0.004929  -0.041434   0.363798
    32  H    0.000000   0.000000   0.005033   0.000629   0.004357  -0.041022
    33  H    0.000000   0.000000  -0.045427   0.005000   0.000223   0.004260
              19         20         21         22         23         24
     1  O   -0.000062  -0.001029  -0.041058   0.000676   0.000014   0.000000
     2  S    0.003464  -0.031062   0.447030  -0.010923   0.000078   0.000000
     3  N   -0.000117   0.000129  -0.051476   0.306020  -0.000673   0.000001
     4  C   -0.000003   0.000068   0.000662  -0.022757  -0.023803   0.000094
     5  N   -0.000002   0.000008  -0.000025   0.002219   0.003694  -0.000004
     6  N    0.000000   0.000000   0.000000  -0.000092   0.003592  -0.000086
     7  C    0.000000   0.000002   0.000032  -0.002383   0.360174   0.006167
     8  N    0.000000   0.000000   0.000000  -0.000009  -0.033900  -0.009474
     9  C    0.000000   0.000000   0.000000   0.000001  -0.001989  -0.040609
    10  C    0.000000   0.000000   0.000000   0.000000   0.002243   0.351114
    11  C    0.000000   0.000000   0.000000   0.000000   0.000178  -0.035394
    12  C    0.000000   0.000000   0.000000   0.000000  -0.000001   0.004355
    13  C    0.000000   0.000000   0.000000   0.000000  -0.000004   0.000248
    14  C    0.000000   0.000000   0.000000   0.000000  -0.000118   0.005435
    15  C   -0.030646   0.514847  -0.063252   0.002132  -0.000001   0.000000
    16  C   -0.038037  -0.031053   0.001322  -0.000002   0.000001   0.000000
    17  C   -0.028888  -0.041006  -0.000046   0.000008   0.000000   0.000000
    18  C    0.543373  -0.029753  -0.000006   0.000000   0.000000   0.000000
    19  C    4.890821   0.500395   0.000660   0.000002   0.000000   0.000000
    20  C    0.500395   4.937328   0.002181   0.000009   0.000000   0.000000
    21  O    0.000660   0.002181   8.240752   0.004350  -0.000002   0.000000
    22  H    0.000002   0.000009   0.004350   0.325478   0.000958   0.000000
    23  H    0.000000   0.000000  -0.000002   0.000958   0.473901   0.001827
    24  H    0.000000   0.000000   0.000000   0.000000   0.001827   0.559622
    25  H    0.000000   0.000000   0.000000   0.000000  -0.000002  -0.005265
    26  H    0.000000   0.000000   0.000000   0.000000   0.000000  -0.000152
    27  H    0.000000   0.000000   0.000000   0.000000   0.000000   0.000014
    28  H    0.000000   0.000000   0.000000   0.000000  -0.000010  -0.000135
    29  H    0.000235   0.004661   0.000015  -0.000041  -0.000003   0.000000
    30  H    0.004334   0.000664   0.000000   0.000000   0.000000   0.000000
    31  H   -0.041769   0.004839   0.000000   0.000000   0.000000   0.000000
    32  H    0.365766  -0.042370   0.000002   0.000000   0.000000   0.000000
    33  H   -0.035933   0.360854   0.011311  -0.000010   0.000000   0.000000
              25         26         27         28         29         30
     1  O    0.000000   0.000000   0.000000   0.000000   0.000326   0.000001
     2  S    0.000000   0.000000   0.000000   0.000000  -0.000952  -0.000055
     3  N    0.000000   0.000000   0.000000   0.000000  -0.001134   0.000002
     4  C    0.000000   0.000000   0.000000   0.000067  -0.001212   0.000002
     5  N    0.000000   0.000000   0.000000  -0.000411   0.033066  -0.000004
     6  N    0.000001   0.000000  -0.000008   0.017136  -0.001238   0.000000
     7  C   -0.000004   0.000000   0.000001   0.000240   0.000522   0.000000
     8  N   -0.000111   0.000004  -0.000106  -0.014375   0.000121   0.000000
     9  C    0.003468   0.000508   0.003497  -0.036780  -0.000002   0.000000
    10  C   -0.038105   0.004947   0.000763   0.005667   0.000000   0.000000
    11  C    0.362014  -0.041525   0.004501   0.000108   0.000000   0.000000
    12  C   -0.039631   0.364550  -0.040369   0.004425   0.000000   0.000000
    13  C    0.004468  -0.041655   0.362534  -0.039052   0.000000   0.000000
    14  C    0.000767   0.004640  -0.038001   0.354941   0.000000   0.000000
    15  C    0.000000   0.000000   0.000000   0.000000  -0.048843   0.004936
    16  C    0.000000   0.000000   0.000000   0.000000   0.337377  -0.041050
    17  C    0.000000   0.000000   0.000000   0.000000  -0.032390   0.365046
    18  C    0.000000   0.000000   0.000000   0.000000   0.004076  -0.041229
    19  C    0.000000   0.000000   0.000000   0.000000   0.000235   0.004334
    20  C    0.000000   0.000000   0.000000   0.000000   0.004661   0.000664
    21  O    0.000000   0.000000   0.000000   0.000000   0.000015   0.000000
    22  H    0.000000   0.000000   0.000000   0.000000  -0.000041   0.000000
    23  H   -0.000002   0.000000   0.000000  -0.000010  -0.000003   0.000000
    24  H   -0.005265  -0.000152   0.000014  -0.000135   0.000000   0.000000
    25  H    0.560583  -0.005150  -0.000170   0.000013   0.000000   0.000000
    26  H   -0.005150   0.565960  -0.005160  -0.000135   0.000000   0.000000
    27  H   -0.000170  -0.005160   0.560548  -0.005069   0.000000   0.000000
    28  H    0.000013  -0.000135  -0.005069   0.537168   0.000000   0.000000
    29  H    0.000000   0.000000   0.000000   0.000000   0.507052  -0.004853
    30  H    0.000000   0.000000   0.000000   0.000000  -0.004853   0.558650
    31  H    0.000000   0.000000   0.000000   0.000000  -0.000129  -0.005223
    32  H    0.000000   0.000000   0.000000   0.000000   0.000012  -0.000165
    33  H    0.000000   0.000000   0.000000   0.000000  -0.000124   0.000014
              31         32         33
     1  O    0.000000   0.000000   0.000003
     2  S    0.000006  -0.000069  -0.006274
     3  N    0.000000   0.000001   0.000177
     4  C    0.000000   0.000000  -0.000001
     5  N    0.000000   0.000000   0.000000
     6  N    0.000000   0.000000   0.000000
     7  C    0.000000   0.000000   0.000000
     8  N    0.000000   0.000000   0.000000
     9  C    0.000000   0.000000   0.000000
    10  C    0.000000   0.000000   0.000000
    11  C    0.000000   0.000000   0.000000
    12  C    0.000000   0.000000   0.000000
    13  C    0.000000   0.000000   0.000000
    14  C    0.000000   0.000000   0.000000
    15  C    0.000430   0.005033  -0.045427
    16  C    0.004929   0.000629   0.005000
    17  C   -0.041434   0.004357   0.000223
    18  C    0.363798  -0.041022   0.004260
    19  C   -0.041769   0.365766  -0.035933
    20  C    0.004839  -0.042370   0.360854
    21  O    0.000000   0.000002   0.011311
    22  H    0.000000   0.000000  -0.000010
    23  H    0.000000   0.000000   0.000000
    24  H    0.000000   0.000000   0.000000
    25  H    0.000000   0.000000   0.000000
    26  H    0.000000   0.000000   0.000000
    27  H    0.000000   0.000000   0.000000
    28  H    0.000000   0.000000   0.000000
    29  H   -0.000129   0.000012  -0.000124
    30  H   -0.005223  -0.000165   0.000014
    31  H    0.562429  -0.005298  -0.000139
    32  H   -0.005298   0.559575  -0.005079
    33  H   -0.000139  -0.005079   0.529700
 Mulliken charges:
               1
     1  O   -0.531353
     2  S    1.191088
     3  N   -0.811140
     4  C    0.442703
     5  N   -0.336046
     6  N   -0.075069
     7  C    0.015054
     8  N   -0.366093
     9  C    0.331468
    10  C   -0.169534
    11  C   -0.148943
    12  C   -0.125205
    13  C   -0.148245
    14  C   -0.151215
    15  C   -0.148428
    16  C   -0.143449
    17  C   -0.139528
    18  C   -0.124306
    19  C   -0.133592
    20  C   -0.149715
    21  O   -0.552453
    22  H    0.394364
    23  H    0.213847
    24  H    0.162244
    25  H    0.157125
    26  H    0.153170
    27  H    0.157026
    28  H    0.176204
    29  H    0.203459
    30  H    0.158929
    31  H    0.157561
    32  H    0.158628
    33  H    0.181444
 Sum of Mulliken charges =   0.00000
 Mulliken charges with hydrogens summed into heavy atoms:
               1
     1  O   -0.531353
     2  S    1.191088
     3  N   -0.416776
     4  C    0.442703
     5  N   -0.336046
     6  N   -0.075069
     7  C    0.228901
     8  N   -0.366093
     9  C    0.331468
    10  C   -0.007290
    11  C    0.008183
    12  C    0.027964
    13  C    0.008781
    14  C    0.024989
    15  C   -0.148428
    16  C    0.060009
    17  C    0.019401
    18  C    0.033255
    19  C    0.025036
    20  C    0.031729
    21  O   -0.552453
 Electronic spatial extent (au):  <R**2>=           9258.4910
 Charge=              0.0000 electrons
 Dipole moment (field-independent basis, Debye):
    X=             -3.6687    Y=             -0.1935    Z=             -3.9205  Tot=              5.3728
 Quadrupole moment (field-independent basis, Debye-Ang):
   XX=            -82.8939   YY=           -123.1015   ZZ=           -131.4324
   XY=             15.8400   XZ=             -5.1885   YZ=              9.5547
 Traceless Quadrupole moment (field-independent basis, Debye-Ang):
   XX=             29.5820   YY=            -10.6256   ZZ=            -18.9564
   XY=             15.8400   XZ=             -5.1885   YZ=              9.5547
 Octapole moment (field-independent basis, Debye-Ang**2):
  XXX=            -41.7769  YYY=             10.9721  ZZZ=             -3.8091  XYY=             -7.3025
  XXY=             37.1184  XXZ=            -18.7613  XZZ=            -11.0048  YZZ=             -7.8646
  YYZ=            -10.9371  XYZ=            -21.5208
 Hexadecapole moment (field-independent basis, Debye-Ang**3):
 XXXX=          -8680.3242 YYYY=          -1268.4060 ZZZZ=           -407.8970 XXXY=            134.6978
 XXXZ=           -126.1322 YYYX=            117.7713 YYYZ=             27.7531 ZZZX=              3.9908
 ZZZY=             18.0941 XXYY=          -1905.0610 XXZZ=          -1956.1215 YYZZ=           -269.6538
 XXYZ=             99.0203 YYXZ=            -30.4489 ZZXY=            -20.0982
 N-N= 1.702686502509D+03 E-N=-6.466948818332D+03  KE= 1.298274596141D+03
 No NMR shielding tensors so no spin-rotation constants.
 Leave Link  601 at Thu Aug  6 21:14:22 2020, MaxMem=    33554432 cpu:         0.3
 (Enter /prod/apps/gaussian/g09d1/l9999.exe)
 1\1\GINC-PIRINEUS20\SP\RB3LYP\6-31G(d)\C14H12N4O2S1\UBAFAR01\06-Aug-20
 20\0\\#p b3lyp/6-31G(d) scrf=(iefpcm,read,solvent=n-Octanol) geom=allc
 heck guess=read\\SM45.n.8.pdb.xyz\\0,1\O,0,2.57,-3.904,1.532\S,0,2.47,
 -3.104,0.309\N,0,1.891,-1.551,0.717\C,0,1.85,-1.123,2.051\N,0,2.988,-0
 .934,2.773\N,0,2.67,-0.501,3.962\C,0,0.767,-0.782,2.832\N,0,1.323,-0.3
 85,4.008\C,0,0.674,0.094,5.181\C,0,-0.61,0.635,5.089\C,0,-1.24,1.09,6.
 245\C,0,-0.59,1.018,7.478\C,0,0.698,0.483,7.552\C,0,1.335,0.013,6.407\
 C,0,4.116,-2.804,-0.319\C,0,5.068,-2.185,0.494\C,0,6.356,-2.015,-0.007
 \C,0,6.68,-2.464,-1.29\C,0,5.715,-3.082,-2.086\C,0,4.418,-3.256,-1.602
 \O,0,1.628,-3.542,-0.811\H,0,1.072,-1.332,0.155\H,0,-0.294,-0.804,2.65
 8\H,0,-1.104,0.711,4.127\H,0,-2.237,1.509,6.177\H,0,-1.083,1.377,8.374
 \H,0,1.208,0.422,8.507\H,0,2.329,-0.414,6.447\H,0,4.791,-1.821,1.478\H
 ,0,7.108,-1.529,0.605\H,0,7.687,-2.329,-1.67\H,0,5.967,-3.427,-3.082\H
 ,0,3.647,-3.727,-2.199\\Version=AM64L-G09RevD.01\State=1-A\HF=-1308.27
 09528\RMSD=6.976e-09\Dipole=-0.9554137,1.8564254,0.3303181\Quadrupole=
 10.6398125,-17.7420354,7.1022229,-10.2210303,-14.835763,3.5533438\PG=C
 01 [X(C14H12N4O2S1)]\\@


     ON THE SURVIVAL OF THE FITTEST -
 "STRONG REPRESENTATIVES FROM EACH PAST ERA THRIVE TODAY,
 SUCH AS PROGRAMMING IN THE THIRTY YEAR OLD LANGUAGE KNOWN
 AS FORTRAN, AND EVEN IN THE ANCIENT SCRIPT KNOWN AS DIRECT
 MACHINE CODE. SOME PEOPLE MIGHT LOOK ON SUCH RELICS AS LIVING
 FOSSILS; OTHERS WOULD POINT OUT THAT EVEN A VERY OLD SPECIES
 MIGHT STILL BE FILLING A PARTICULAR ECOLOGICAL NICHE."
     -- ALAN KAY, SCI.AM. SEPTEMBER 1984
 Job cpu time:       0 days  0 hours  3 minutes 52.9 seconds.
 File lengths (MBytes):  RWF=    197 Int=      0 D2E=      0 Chk=      7 Scr=      1
 Normal termination of Gaussian 09 at Thu Aug  6 21:14:22 2020.
