 Entering Gaussian System, Link 0=g09
 Initial command:
 /prod/apps/gaussian/g09d1/l1.exe "/tmp/ubafar01/1448548/Gau-177378.inp" -scrdir="/tmp/ubafar01/1448548/"
 Entering Link 1 = /prod/apps/gaussian/g09d1/l1.exe PID=    177379.
  
 Copyright (c) 1988,1990,1992,1993,1995,1998,2003,2009,2013,
            Gaussian, Inc.  All Rights Reserved.
  
 This is part of the Gaussian(R) 09 program.  It is based on
 the Gaussian(R) 03 system (copyright 2003, Gaussian, Inc.),
 the Gaussian(R) 98 system (copyright 1998, Gaussian, Inc.),
 the Gaussian(R) 94 system (copyright 1995, Gaussian, Inc.),
 the Gaussian 92(TM) system (copyright 1992, Gaussian, Inc.),
 the Gaussian 90(TM) system (copyright 1990, Gaussian, Inc.),
 the Gaussian 88(TM) system (copyright 1988, Gaussian, Inc.),
 the Gaussian 86(TM) system (copyright 1986, Carnegie Mellon
 University), and the Gaussian 82(TM) system (copyright 1983,
 Carnegie Mellon University). Gaussian is a federally registered
 trademark of Gaussian, Inc.
  
 This software contains proprietary and confidential information,
 including trade secrets, belonging to Gaussian, Inc.
  
 This software is provided under written license and may be
 used, copied, transmitted, or stored only in accord with that
 written license.
  
 The following legend is applicable only to US Government
 contracts under FAR:
  
                    RESTRICTED RIGHTS LEGEND
  
 Use, reproduction and disclosure by the US Government is
 subject to restrictions as set forth in subparagraphs (a)
 and (c) of the Commercial Computer Software - Restricted
 Rights clause in FAR 52.227-19.
  
 Gaussian, Inc.
 340 Quinnipiac St., Bldg. 40, Wallingford CT 06492
  
  
 ---------------------------------------------------------------
 Warning -- This program may not be used in any manner that
 competes with the business of Gaussian, Inc. or will provide
 assistance to any competitor of Gaussian, Inc.  The licensee
 of this program is prohibited from giving any competitor of
 Gaussian, Inc. access to this program.  By using this program,
 the user acknowledges that Gaussian, Inc. is engaged in the
 business of creating and licensing software in the field of
 computational chemistry and represents and warrants to the
 licensee that it is not a competitor of Gaussian, Inc. and that
 it will not use this program in any manner prohibited above.
 ---------------------------------------------------------------
  

 Cite this work as:
 Gaussian 09, Revision D.01,
 M. J. Frisch, G. W. Trucks, H. B. Schlegel, G. E. Scuseria, 
 M. A. Robb, J. R. Cheeseman, G. Scalmani, V. Barone, B. Mennucci, 
 G. A. Petersson, H. Nakatsuji, M. Caricato, X. Li, H. P. Hratchian, 
 A. F. Izmaylov, J. Bloino, G. Zheng, J. L. Sonnenberg, M. Hada, 
 M. Ehara, K. Toyota, R. Fukuda, J. Hasegawa, M. Ishida, T. Nakajima, 
 Y. Honda, O. Kitao, H. Nakai, T. Vreven, J. A. Montgomery, Jr., 
 J. E. Peralta, F. Ogliaro, M. Bearpark, J. J. Heyd, E. Brothers, 
 K. N. Kudin, V. N. Staroverov, T. Keith, R. Kobayashi, J. Normand, 
 K. Raghavachari, A. Rendell, J. C. Burant, S. S. Iyengar, J. Tomasi, 
 M. Cossi, N. Rega, J. M. Millam, M. Klene, J. E. Knox, J. B. Cross, 
 V. Bakken, C. Adamo, J. Jaramillo, R. Gomperts, R. E. Stratmann, 
 O. Yazyev, A. J. Austin, R. Cammi, C. Pomelli, J. W. Ochterski, 
 R. L. Martin, K. Morokuma, V. G. Zakrzewski, G. A. Voth, 
 P. Salvador, J. J. Dannenberg, S. Dapprich, A. D. Daniels, 
 O. Farkas, J. B. Foresman, J. V. Ortiz, J. Cioslowski, 
 and D. J. Fox, Gaussian, Inc., Wallingford CT, 2013.
 
 ******************************************
 Gaussian 09:  AM64L-G09RevD.01 24-Apr-2013
                 6-Aug-2020 
 ******************************************
 %nproc=1
 Will use up to    1 processors via shared memory.
 %Chk=SM45.n.9.pdb.xyz.mst.n.o.chk
 -----------------
 #p b3lyp/6-31G(d)
 -----------------
 1/38=1/1;
 2/12=2,17=6,18=5,40=1/2;
 3/5=1,6=6,7=1,11=2,16=1,25=1,30=1,74=-5/1,2,3;
 4//1;
 5/5=2,38=5/2;
 6/7=2,8=2,9=2,10=2,28=1/1;
 99/5=1,9=1/99;
 Leave Link    1 at Thu Aug  6 21:05:14 2020, MaxMem=           0 cpu:         0.0
 (Enter /prod/apps/gaussian/g09d1/l101.exe)
 ----------------
 SM45.n.9.pdb.xyz
 ----------------
 Symbolic Z-matrix:
 Charge =  0 Multiplicity = 1
 O                     3.695     1.533     0.991 
 S                     3.268     0.334     0.262 
 N                     2.977    -0.974     1.329 
 C                     2.581    -0.707     2.649 
 N                     3.403    -0.944     3.707 
 N                     2.768    -0.648     4.809 
 C                     1.375    -0.229     3.115 
 N                     1.54     -0.19      4.464 
 C                     0.619     0.238     5.463 
 C                     1.104     0.629     6.713 
 C                     0.202     1.046     7.689 
 C                    -1.168     1.083     7.418 
 C                    -1.637     0.692     6.164 
 C                    -0.749     0.26      5.182 
 C                     1.643     0.659    -0.397 
 C                     1.       -0.322    -1.155 
 C                    -0.252    -0.038    -1.693 
 C                    -0.841     1.211    -1.475 
 C                    -0.183     2.182    -0.72 
 C                     1.072     1.911    -0.174 
 O                     4.123    -0.25     -0.776 
 H                     3.78     -1.602     1.279 
 H                     0.475     0.09      2.62 
 H                     2.169     0.602     6.9 
 H                     0.574     1.35      8.661 
 H                    -1.864     1.414     8.18 
 H                    -2.699     0.712     5.948 
 H                    -1.116    -0.066     4.215 
 H                     1.471    -1.285    -1.314 
 H                    -0.766    -0.789    -2.283 
 H                    -1.816     1.427    -1.897 
 H                    -0.643     3.15     -0.556 
 H                     1.611     2.644     0.414 
 
 NAtoms=     33 NQM=       33 NQMF=       0 NMMI=      0 NMMIF=      0
                NMic=       0 NMicF=      0.
                    Isotopes and Nuclear Properties:
 (Nuclear quadrupole moments (NQMom) in fm**2, nuclear magnetic moments (NMagM)
  in nuclear magnetons)

  Atom         1           2           3           4           5           6           7           8           9          10
 IAtWgt=          16          32          14          12          14          14          12          14          12          12
 AtmWgt=  15.9949146  31.9720718  14.0030740  12.0000000  14.0030740  14.0030740  12.0000000  14.0030740  12.0000000  12.0000000
 NucSpn=           0           0           2           0           2           2           0           2           0           0
 AtZEff=   0.0000000   0.0000000   0.0000000   0.0000000   0.0000000   0.0000000   0.0000000   0.0000000   0.0000000   0.0000000
 NQMom=    0.0000000   0.0000000   2.0440000   0.0000000   2.0440000   2.0440000   0.0000000   2.0440000   0.0000000   0.0000000
 NMagM=    0.0000000   0.0000000   0.4037610   0.0000000   0.4037610   0.4037610   0.0000000   0.4037610   0.0000000   0.0000000
 AtZNuc=   8.0000000  16.0000000   7.0000000   6.0000000   7.0000000   7.0000000   6.0000000   7.0000000   6.0000000   6.0000000

  Atom        11          12          13          14          15          16          17          18          19          20
 IAtWgt=          12          12          12          12          12          12          12          12          12          12
 AtmWgt=  12.0000000  12.0000000  12.0000000  12.0000000  12.0000000  12.0000000  12.0000000  12.0000000  12.0000000  12.0000000
 NucSpn=           0           0           0           0           0           0           0           0           0           0
 AtZEff=   0.0000000   0.0000000   0.0000000   0.0000000   0.0000000   0.0000000   0.0000000   0.0000000   0.0000000   0.0000000
 NQMom=    0.0000000   0.0000000   0.0000000   0.0000000   0.0000000   0.0000000   0.0000000   0.0000000   0.0000000   0.0000000
 NMagM=    0.0000000   0.0000000   0.0000000   0.0000000   0.0000000   0.0000000   0.0000000   0.0000000   0.0000000   0.0000000
 AtZNuc=   6.0000000   6.0000000   6.0000000   6.0000000   6.0000000   6.0000000   6.0000000   6.0000000   6.0000000   6.0000000

  Atom        21          22          23          24          25          26          27          28          29          30
 IAtWgt=          16           1           1           1           1           1           1           1           1           1
 AtmWgt=  15.9949146   1.0078250   1.0078250   1.0078250   1.0078250   1.0078250   1.0078250   1.0078250   1.0078250   1.0078250
 NucSpn=           0           1           1           1           1           1           1           1           1           1
 AtZEff=   0.0000000   0.0000000   0.0000000   0.0000000   0.0000000   0.0000000   0.0000000   0.0000000   0.0000000   0.0000000
 NQMom=    0.0000000   0.0000000   0.0000000   0.0000000   0.0000000   0.0000000   0.0000000   0.0000000   0.0000000   0.0000000
 NMagM=    0.0000000   2.7928460   2.7928460   2.7928460   2.7928460   2.7928460   2.7928460   2.7928460   2.7928460   2.7928460
 AtZNuc=   8.0000000   1.0000000   1.0000000   1.0000000   1.0000000   1.0000000   1.0000000   1.0000000   1.0000000   1.0000000

  Atom        31          32          33
 IAtWgt=           1           1           1
 AtmWgt=   1.0078250   1.0078250   1.0078250
 NucSpn=           1           1           1
 AtZEff=   0.0000000   0.0000000   0.0000000
 NQMom=    0.0000000   0.0000000   0.0000000
 NMagM=    2.7928460   2.7928460   2.7928460
 AtZNuc=   1.0000000   1.0000000   1.0000000
 Leave Link  101 at Thu Aug  6 21:05:14 2020, MaxMem=    33554432 cpu:         0.1
 (Enter /prod/apps/gaussian/g09d1/l202.exe)
                          Input orientation:                          
 ---------------------------------------------------------------------
 Center     Atomic      Atomic             Coordinates (Angstroms)
 Number     Number       Type             X           Y           Z
 ---------------------------------------------------------------------
      1          8           0        3.695000    1.533000    0.991000
      2         16           0        3.268000    0.334000    0.262000
      3          7           0        2.977000   -0.974000    1.329000
      4          6           0        2.581000   -0.707000    2.649000
      5          7           0        3.403000   -0.944000    3.707000
      6          7           0        2.768000   -0.648000    4.809000
      7          6           0        1.375000   -0.229000    3.115000
      8          7           0        1.540000   -0.190000    4.464000
      9          6           0        0.619000    0.238000    5.463000
     10          6           0        1.104000    0.629000    6.713000
     11          6           0        0.202000    1.046000    7.689000
     12          6           0       -1.168000    1.083000    7.418000
     13          6           0       -1.637000    0.692000    6.164000
     14          6           0       -0.749000    0.260000    5.182000
     15          6           0        1.643000    0.659000   -0.397000
     16          6           0        1.000000   -0.322000   -1.155000
     17          6           0       -0.252000   -0.038000   -1.693000
     18          6           0       -0.841000    1.211000   -1.475000
     19          6           0       -0.183000    2.182000   -0.720000
     20          6           0        1.072000    1.911000   -0.174000
     21          8           0        4.123000   -0.250000   -0.776000
     22          1           0        3.780000   -1.602000    1.279000
     23          1           0        0.475000    0.090000    2.620000
     24          1           0        2.169000    0.602000    6.900000
     25          1           0        0.574000    1.350000    8.661000
     26          1           0       -1.864000    1.414000    8.180000
     27          1           0       -2.699000    0.712000    5.948000
     28          1           0       -1.116000   -0.066000    4.215000
     29          1           0        1.471000   -1.285000   -1.314000
     30          1           0       -0.766000   -0.789000   -2.283000
     31          1           0       -1.816000    1.427000   -1.897000
     32          1           0       -0.643000    3.150000   -0.556000
     33          1           0        1.611000    2.644000    0.414000
 ---------------------------------------------------------------------
                    Distance matrix (angstroms):
                    1          2          3          4          5
     1  O    0.000000
     2  S    1.466755   0.000000
     3  N    2.629604   1.712902   0.000000
     4  C    3.001260   2.693217   1.403747   0.000000
     5  N    3.687472   3.676892   2.416042   1.360594   0.000000
     6  N    4.493686   4.678625   3.501479   2.168882   1.305850
     7  C    3.605332   3.469874   2.512215   1.378432   2.230353
     8  N    4.435593   4.573550   3.536644   2.155271   2.147635
     9  C    5.580106   5.837535   4.911116   3.558239   3.497330
    10  C    6.346005   6.810677   5.921587   4.525762   4.098264
    11  C    7.569770   8.066451   7.227076   5.842452   5.482958
    12  C    8.072026   8.452658   7.647758   6.324750   6.226901
    13  C    7.476459   7.682499   6.887799   5.666035   5.840800
    14  C    6.239723   6.352021   5.500131   4.294191   4.567751
    15  C    2.626999   1.783404   2.724944   3.467552   4.744473
    16  C    3.912718   2.753552   3.240970   4.137415   5.458968
    17  C    5.025008   4.043613   4.520511   5.227467   6.583302
    18  C    5.173020   4.546447   5.216681   5.691765   7.036241
    19  C    4.288077   4.035942   4.913689   5.228401   6.498431
    20  C    2.894864   2.738511   3.769782   4.135255   5.352266
    21  O    2.546480   1.466126   2.503701   3.783813   4.593182
    22  H    3.149348   2.246003   1.020634   2.028676   2.543674
    23  H    3.886424   3.663407   3.009781   2.251952   3.289971
    24  H    6.173469   6.733697   5.845740   4.467015   3.756078
    25  H    8.282695   8.878800   8.058139   6.663591   6.148804
    26  H    9.088364   9.497292   8.722043   7.405986   7.301314
    27  H    8.131982   8.250974   7.509643   6.385559   6.708116
    28  H    6.008053   5.916559   5.089804   4.065839   4.631448
    29  H    4.266184   2.886892   3.057811   4.155906   5.390672
    30  H    6.000940   4.900134   5.204884   5.961020   7.299636
    31  H    6.222773   5.630540   6.256575   6.674854   8.016509
    32  H    4.881203   4.888241   5.802155   5.961766   7.162690
    33  H    2.431112   2.846902   3.974054   4.143106   5.189302
                    6          7          8          9         10
     6  N    0.000000
     7  C    2.232856   0.000000
     8  N    1.355276   1.359613   0.000000
     9  C    2.414728   2.510524   1.424579   0.000000
    10  C    2.832815   3.708802   2.432870   1.396641   0.000000
    11  C    4.212884   4.891117   3.703858   2.404543   1.392864
    12  C    5.029447   5.167592   4.204748   2.780183   2.421802
    13  C    4.799547   4.383695   3.709616   2.405629   2.796149
    14  C    3.651422   3.003829   2.440808   1.396735   2.431816
    15  C    5.484187   3.632425   4.935659   5.963675   7.130464
    16  C    6.229077   4.287444   5.646431   6.652570   7.925947
    17  C    7.195033   5.079417   6.414282   7.214094   8.540753
    18  C    7.481271   5.296447   6.550090   7.156408   8.435941
    19  C    6.876565   4.790356   5.955583   6.530837   7.701796
    20  C    5.852793   3.935598   5.113147   5.897449   7.005378
    21  O    5.760786   4.763594   5.842353   7.172258   8.122323
    22  H    3.794095   3.322657   4.141928   5.557281   6.454974
    23  H    3.254875   1.075540   2.147780   2.850489   4.175980
    24  H    2.508701   3.955657   2.637613   2.144753   1.081630
    25  H    4.862463   5.821766   4.573791   3.386115   2.143699
    26  H    6.088588   6.232559   5.288543   3.863982   3.402549
    27  H    5.747609   5.050628   4.580937   3.386595   3.880067
    28  H    3.972029   2.727939   2.670527   2.158737   3.413419
    29  H    6.291193   4.554162   5.881247   6.998083   8.260195
    30  H    7.924992   5.834028   7.155309   7.935583   9.297077
    31  H    8.383861   6.168060   7.371550   7.842993   9.126626
    32  H    7.405603   5.382026   6.412604   6.804465   7.889601
    33  H    5.611768   3.950345   4.943592   5.680255   6.632848
                   11         12         13         14         15
    11  C    0.000000
    12  C    1.397036   0.000000
    13  C    2.415132   1.394761   0.000000
    14  C    2.794145   2.419212   1.392656   0.000000
    15  C    8.222508   8.315992   7.335272   6.083264   0.000000
    16  C    8.984685   8.953802   7.845363   6.599643   1.396558
    17  C    9.455321   9.225292   8.011465   6.899380   2.399260
    18  C    9.224639   8.899930   7.697876   6.725215   2.763520
    19  C    8.494116   8.270736   7.191917   6.232820   2.399611
    20  C    7.958134   7.958747   6.999635   5.893096   1.394014
    21  O    9.418603   9.844451   9.067997   7.713251   2.668393
    22  H    7.803979   8.329421   7.646538   6.261972   3.533817
    23  H    5.165581   5.167814   4.169279   2.844454   3.284855
    24  H    2.165351   3.411049   3.877555   3.403412   7.316156
    25  H    1.084244   2.156595   3.399484   3.878385   9.147000
    26  H    2.155194   1.083799   2.153385   3.400433   9.296989
    27  H    3.399770   2.154647   1.083928   2.143259   7.688615
    28  H    3.878446   3.403251   2.155135   1.084460   5.422937
    29  H    9.386050   9.424413   8.335987   7.036579   2.156295
    30  H   10.185531   9.888144   8.619966   7.538363   3.384816
    31  H    9.803514   9.343846   8.096418   7.253456   3.847662
    32  H    8.551074   8.254259   7.224140   6.425572   3.384695
    33  H    7.580535   7.695166   6.886386   5.829827   2.144521
                   16         17         18         19         20
    16  C    0.000000
    17  C    1.391978   0.000000
    18  C    2.416975   1.398015   0.000000
    19  C    2.803343   2.424848   1.394930   0.000000
    20  C    2.440048   2.803380   2.417058   1.395200   0.000000
    21  O    3.146737   4.475093   5.221534   4.945644   3.786942
    22  H    3.910391   5.247466   6.070513   5.832669   4.667509
    23  H    3.833535   4.375715   4.444943   3.995626   3.388050
    24  H    8.191664   8.950446   8.920292   8.129742   7.277250
    25  H    9.966490  10.479224  10.235235   9.448197   8.866789
    26  H    9.917581  10.108560   9.711167   9.089862   8.868846
    27  H    8.074922   8.058237   7.668252   7.276907   7.289508
    28  H    5.777533   5.970908   5.838018   5.502565   5.287645
    29  H    1.083739   2.160412   3.406065   3.886984   3.416609
    30  H    2.146912   1.084572   2.158353   3.407301   3.887946
    31  H    3.396972   2.152658   1.084143   2.149894   3.397577
    32  H    3.887549   3.407197   2.154875   1.084214   2.149947
    33  H    3.410607   3.886302   3.410882   2.172058   1.083307
                   21         22         23         24         25
    21  O    0.000000
    22  H    2.483662   0.000000
    23  H    4.995630   3.947679   0.000000
    24  H    7.966492   6.248886   4.631434   0.000000
    25  H   10.208446   8.572436   6.171797   2.490913   0.000000
    26  H   10.900596   9.411418   6.175556   4.308461   2.485820
    27  H    9.626905   8.314541   4.640770   4.961434   4.298830
    28  H    7.238167   5.911870   2.258239   4.294959   4.962668
    29  H    2.897201   3.486491   4.284740   8.456818  10.356083
    30  H    5.144307   5.832232   5.133433   9.740462  11.231298
    31  H    6.272216   7.111753   5.238276   9.692681  10.825405
    32  H    5.858597   6.746233   4.549780   8.366097   9.469645
    33  H    4.012665   4.845751   3.560877   6.822707   8.412064
                   26         27         28         29         30
    26  H    0.000000
    27  H    2.484321   0.000000
    28  H    4.297805   2.472744   0.000000
    29  H   10.418391   8.608923   6.224819   0.000000
    30  H   10.748636   8.587133   6.547460   2.487799   0.000000
    31  H   10.077123   7.926849   6.330529   4.301070   2.482368
    32  H    8.990119   7.243825   5.773112   4.971196   4.302718
    33  H    8.596469   7.275567   5.406314   4.294488   4.970858
                   31         32         33
    31  H    0.000000
    32  H    2.478495   0.000000
    33  H    4.308844   2.505484   0.000000
 Stoichiometry    C14H12N4O2S
 Framework group  C1[X(C14H12N4O2S)]
 Deg. of freedom    93
 Full point group                 C1      NOp   1
 Largest Abelian subgroup         C1      NOp   1
 Largest concise Abelian subgroup C1      NOp   1
                         Standard orientation:                         
 ---------------------------------------------------------------------
 Center     Atomic      Atomic             Coordinates (Angstroms)
 Number     Number       Type             X           Y           Z
 ---------------------------------------------------------------------
      1          8           0        1.877083   -1.445065    1.712253
      2         16           0        2.489583   -1.260823    0.392303
      3          7           0        1.386747   -1.633009   -0.864385
      4          6           0        0.010387   -1.475749   -0.637654
      5          7           0       -0.827782   -2.543117   -0.540620
      6          7           0       -2.047540   -2.107691   -0.373766
      7          6           0       -0.723415   -0.315358   -0.514761
      8          7           0       -1.997495   -0.753943   -0.333347
      9          6           0       -3.183613    0.009628   -0.134583
     10          6           0       -4.287898   -0.593861    0.471191
     11          6           0       -5.447218    0.153813    0.663624
     12          6           0       -5.501252    1.492003    0.266085
     13          6           0       -4.389367    2.081581   -0.335137
     14          6           0       -3.227427    1.343529   -0.546479
     15          6           0        2.753306    0.488186    0.164385
     16          6           0        3.343520    0.946152   -1.015568
     17          6           0        3.576084    2.310801   -1.161345
     18          6           0        3.225048    3.194472   -0.136482
     19          6           0        2.641249    2.720199    1.038284
     20          6           0        2.401573    1.355038    1.197887
     21          8           0        3.698645   -2.003107    0.022560
     22          1           0        1.622755   -2.559175   -1.222447
     23          1           0       -0.451151    0.725146   -0.517949
     24          1           0       -4.222874   -1.628356    0.780244
     25          1           0       -6.307101   -0.310724    1.133083
     26          1           0       -6.404480    2.069819    0.423974
     27          1           0       -4.425472    3.117541   -0.651971
     28          1           0       -2.371206    1.795517   -1.034994
     29          1           0        3.609252    0.247220   -1.800023
     30          1           0        4.032329    2.683659   -2.071903
     31          1           0        3.409116    4.256266   -0.255130
     32          1           0        2.373193    3.409405    1.831165
     33          1           0        1.953104    0.953925    2.098741
 ---------------------------------------------------------------------
 Rotational constants (GHZ):      0.4924374      0.1654267      0.1352192
 Leave Link  202 at Thu Aug  6 21:05:14 2020, MaxMem=    33554432 cpu:         0.0
 (Enter /prod/apps/gaussian/g09d1/l301.exe)
 Standard basis: 6-31G(d) (6D, 7F)
 Ernie: Thresh=  0.10000D-02 Tol=  0.10000D-05 Strict=F.
 There are   343 symmetry adapted cartesian basis functions of A   symmetry.
 There are   343 symmetry adapted basis functions of A   symmetry.
   343 basis functions,   660 primitive gaussians,   343 cartesian basis functions
    78 alpha electrons       78 beta electrons
       nuclear repulsion energy      1731.9104669630 Hartrees.
 IExCor=  402 DFT=T Ex+Corr=B3LYP ExCW=0 ScaHFX=  0.200000
 ScaDFX=  0.800000  0.720000  1.000000  0.810000 ScalE2=  1.000000  1.000000
 IRadAn=      0 IRanWt=     -1 IRanGd=            0 ICorTp=0 IEmpDi=  4
 NAtoms=   33 NActive=   33 NUniq=   33 SFac= 1.00D+00 NAtFMM=   60 NAOKFM=F Big=F
 Integral buffers will be    131072 words long.
 Raffenetti 2 integral format.
 Two-electron integral symmetry is turned on.
 Leave Link  301 at Thu Aug  6 21:05:14 2020, MaxMem=    33554432 cpu:         0.0
 (Enter /prod/apps/gaussian/g09d1/l302.exe)
 NPDir=0 NMtPBC=     1 NCelOv=     1 NCel=       1 NClECP=     1 NCelD=      1
         NCelK=      1 NCelE2=     1 NClLst=     1 CellRange=     0.0.
 One-electron integrals computed using PRISM.
 NBasis=   343 RedAO= T EigKep=  4.65D-04  NBF=   343
 NBsUse=   343 1.00D-06 EigRej= -1.00D+00 NBFU=   343
 Precomputing XC quadrature grid using
 IXCGrd= 4 IRadAn=           0 IRanWt=          -1 IRanGd=           0 AccXCQ= 0.00D+00.
 Generated NRdTot=       0 NPtTot=           0 NUsed=           0 NTot=          32
 NSgBfM=   341   341   342   342   342 MxSgAt=    33 MxSgA2=    33.
 Leave Link  302 at Thu Aug  6 21:05:15 2020, MaxMem=    33554432 cpu:         1.2
 (Enter /prod/apps/gaussian/g09d1/l303.exe)
 DipDrv:  MaxL=1.
 Leave Link  303 at Thu Aug  6 21:05:15 2020, MaxMem=    33554432 cpu:         0.0
 (Enter /prod/apps/gaussian/g09d1/l401.exe)
 ExpMin= 1.17D-01 ExpMax= 2.19D+04 ExpMxC= 3.30D+03 IAcc=1 IRadAn=         1 AccDes= 0.00D+00
 Harris functional with IExCor=  402 and IRadAn=       1 diagonalized for initial guess.
 HarFok:  IExCor=  402 AccDes= 0.00D+00 IRadAn=         1 IDoV= 1 UseB2=F ITyADJ=14
 ICtDFT=  3500011 ScaDFX=  1.000000  1.000000  1.000000  1.000000
 FoFCou: FMM=F IPFlag=           0 FMFlag=      100000 FMFlg1=           0
         NFxFlg=           0 DoJE=T BraDBF=F KetDBF=T FulRan=T
         wScrn=  0.000000 ICntrl=     500 IOpCl=  0 I1Cent=   200000004 NGrid=           0
         NMat0=    1 NMatS0=      1 NMatT0=    0 NMatD0=    1 NMtDS0=    0 NMtDT0=    0
 Petite list used in FoFCou.
 Harris En= -1308.25320505830    
 JPrj=0 DoOrth=F DoCkMO=F.
 Leave Link  401 at Thu Aug  6 21:05:19 2020, MaxMem=    33554432 cpu:         3.5
 (Enter /prod/apps/gaussian/g09d1/l502.exe)
 Closed shell SCF:
 Using DIIS extrapolation, IDIIS=  1040.
 Integral symmetry usage will be decided dynamically.
 IVT=      376131 IEndB=      376131 NGot=    33554432 MDV=    33312934
 LenX=    33312934 LenY=    33194844
 Requested convergence on RMS density matrix=1.00D-08 within 128 cycles.
 Requested convergence on MAX density matrix=1.00D-06.
 Requested convergence on             energy=1.00D-06.
 No special actions if energy rises.
 Fock matrices will be formed incrementally for  20 cycles.
 Integral accuracy reduced to 1.0D-05 until final iterations.

 Cycle   1  Pass 0  IDiag  1:
 FoFJK:  IHMeth= 1 ICntrl=       0 DoSepK=F KAlg= 0 I1Cent=   0 FoldK=F
 IRaf= 710000000 NMat=   1 IRICut=       1 DoRegI=T DoRafI=F ISym2E= 0.
 FoFCou: FMM=F IPFlag=           0 FMFlag=      100000 FMFlg1=           0
         NFxFlg=           0 DoJE=F BraDBF=F KetDBF=F FulRan=T
         wScrn=  0.000000 ICntrl=       0 IOpCl=  0 I1Cent=           0 NGrid=           0
         NMat0=    1 NMatS0=      1 NMatT0=    0 NMatD0=    1 NMtDS0=    0 NMtDT0=    0
 Symmetry not used in FoFCou.
 E= -1307.65171138755    
 DIIS: error= 2.95D-02 at cycle   1 NSaved=   1.
 NSaved= 1 IEnMin= 1 EnMin= -1307.65171138755     IErMin= 1 ErrMin= 2.95D-02
 ErrMax= 2.95D-02  0.00D+00 EMaxC= 1.00D-01 BMatC= 6.69D-01 BMatP= 6.69D-01
 IDIUse=3 WtCom= 7.05D-01 WtEn= 2.95D-01
 Coeff-Com:  0.100D+01
 Coeff-En:   0.100D+01
 Coeff:      0.100D+01
 Gap=     0.262 Goal=   None    Shift=    0.000
 GapD=    0.262 DampG=1.000 DampE=0.500 DampFc=0.5000 IDamp=-1.
 Damping current iteration by 5.00D-01
 RMSDP=6.28D-03 MaxDP=5.89D-01              OVMax= 2.49D-01

 Cycle   2  Pass 0  IDiag  1:
 RMSU=  3.13D-03    CP:  9.90D-01
 E= -1307.77578022559     Delta-E=       -0.124068838034 Rises=F Damp=T
 DIIS: error= 1.47D-02 at cycle   2 NSaved=   2.
 NSaved= 2 IEnMin= 2 EnMin= -1307.77578022559     IErMin= 2 ErrMin= 1.47D-02
 ErrMax= 1.47D-02  0.00D+00 EMaxC= 1.00D-01 BMatC= 1.27D-01 BMatP= 6.69D-01
 IDIUse=3 WtCom= 8.53D-01 WtEn= 1.47D-01
 Coeff-Com:  0.251D+00 0.749D+00
 Coeff-En:   0.394D+00 0.606D+00
 Coeff:      0.272D+00 0.728D+00
 Gap=     0.234 Goal=   None    Shift=    0.000
 RMSDP=1.96D-03 MaxDP=1.36D-01 DE=-1.24D-01 OVMax= 1.84D-01

 Cycle   3  Pass 0  IDiag  1:
 RMSU=  1.61D-03    CP:  9.79D-01  6.51D-01
 E= -1308.18273045931     Delta-E=       -0.406950233724 Rises=F Damp=F
 DIIS: error= 8.84D-03 at cycle   3 NSaved=   3.
 NSaved= 3 IEnMin= 3 EnMin= -1308.18273045931     IErMin= 3 ErrMin= 8.84D-03
 ErrMax= 8.84D-03  0.00D+00 EMaxC= 1.00D-01 BMatC= 6.76D-02 BMatP= 1.27D-01
 IDIUse=3 WtCom= 9.12D-01 WtEn= 8.84D-02
 Coeff-Com:  0.807D-01 0.419D+00 0.500D+00
 Coeff-En:   0.000D+00 0.000D+00 0.100D+01
 Coeff:      0.736D-01 0.382D+00 0.544D+00
 Gap=     0.193 Goal=   None    Shift=    0.000
 RMSDP=1.14D-03 MaxDP=4.42D-02 DE=-4.07D-01 OVMax= 5.66D-02

 Cycle   4  Pass 0  IDiag  1:
 RMSU=  7.38D-04    CP:  9.84D-01  7.48D-01  4.96D-01
 E= -1308.23446030426     Delta-E=       -0.051729844949 Rises=F Damp=F
 DIIS: error= 3.70D-03 at cycle   4 NSaved=   4.
 NSaved= 4 IEnMin= 4 EnMin= -1308.23446030426     IErMin= 4 ErrMin= 3.70D-03
 ErrMax= 3.70D-03  0.00D+00 EMaxC= 1.00D-01 BMatC= 1.27D-02 BMatP= 6.76D-02
 IDIUse=3 WtCom= 9.63D-01 WtEn= 3.70D-02
 Coeff-Com:  0.103D-01 0.101D+00 0.319D+00 0.570D+00
 Coeff-En:   0.000D+00 0.000D+00 0.174D+00 0.826D+00
 Coeff:      0.988D-02 0.969D-01 0.314D+00 0.579D+00
 Gap=     0.192 Goal=   None    Shift=    0.000
 RMSDP=4.25D-04 MaxDP=1.77D-02 DE=-5.17D-02 OVMax= 2.83D-02

 Cycle   5  Pass 0  IDiag  1:
 RMSU=  2.18D-04    CP:  9.84D-01  7.26D-01  6.22D-01  6.00D-01
 E= -1308.24514481475     Delta-E=       -0.010684510487 Rises=F Damp=F
 DIIS: error= 1.25D-03 at cycle   5 NSaved=   5.
 NSaved= 5 IEnMin= 5 EnMin= -1308.24514481475     IErMin= 5 ErrMin= 1.25D-03
 ErrMax= 1.25D-03  0.00D+00 EMaxC= 1.00D-01 BMatC= 1.23D-03 BMatP= 1.27D-02
 IDIUse=3 WtCom= 9.88D-01 WtEn= 1.25D-02
 Coeff-Com: -0.843D-03 0.245D-01 0.138D+00 0.337D+00 0.502D+00
 Coeff-En:   0.000D+00 0.000D+00 0.000D+00 0.382D-01 0.962D+00
 Coeff:     -0.833D-03 0.242D-01 0.136D+00 0.333D+00 0.507D+00
 Gap=     0.191 Goal=   None    Shift=    0.000
 RMSDP=1.43D-04 MaxDP=7.94D-03 DE=-1.07D-02 OVMax= 1.37D-02

 Cycle   6  Pass 0  IDiag  1:
 RMSU=  7.50D-05    CP:  9.83D-01  7.31D-01  6.23D-01  6.60D-01  4.90D-01
 E= -1308.24620810925     Delta-E=       -0.001063294505 Rises=F Damp=F
 DIIS: error= 6.79D-04 at cycle   6 NSaved=   6.
 NSaved= 6 IEnMin= 6 EnMin= -1308.24620810925     IErMin= 6 ErrMin= 6.79D-04
 ErrMax= 6.79D-04  0.00D+00 EMaxC= 1.00D-01 BMatC= 1.83D-04 BMatP= 1.23D-03
 IDIUse=3 WtCom= 9.93D-01 WtEn= 6.79D-03
 Coeff-Com: -0.165D-02 0.460D-02 0.495D-01 0.142D+00 0.322D+00 0.484D+00
 Coeff-En:   0.000D+00 0.000D+00 0.000D+00 0.000D+00 0.116D+00 0.884D+00
 Coeff:     -0.163D-02 0.457D-02 0.492D-01 0.141D+00 0.320D+00 0.486D+00
 Gap=     0.190 Goal=   None    Shift=    0.000
 RMSDP=4.72D-05 MaxDP=3.26D-03 DE=-1.06D-03 OVMax= 4.44D-03

 Cycle   7  Pass 0  IDiag  1:
 RMSU=  2.59D-05    CP:  9.83D-01  7.30D-01  6.25D-01  6.58D-01  5.86D-01
                    CP:  5.60D-01
 E= -1308.24637178312     Delta-E=       -0.000163673868 Rises=F Damp=F
 DIIS: error= 2.57D-04 at cycle   7 NSaved=   7.
 NSaved= 7 IEnMin= 7 EnMin= -1308.24637178312     IErMin= 7 ErrMin= 2.57D-04
 ErrMax= 2.57D-04  0.00D+00 EMaxC= 1.00D-01 BMatC= 1.46D-05 BMatP= 1.83D-04
 IDIUse=3 WtCom= 9.97D-01 WtEn= 2.57D-03
 EnCoef did     3 forward-backward iterations
 Coeff-Com: -0.919D-03 0.483D-03 0.170D-01 0.540D-01 0.147D+00 0.294D+00
 Coeff-Com:  0.489D+00
 Coeff-En:   0.000D+00 0.000D+00 0.000D+00 0.000D+00 0.000D+00 0.882D-03
 Coeff-En:   0.999D+00
 Coeff:     -0.917D-03 0.482D-03 0.169D-01 0.538D-01 0.146D+00 0.293D+00
 Coeff:      0.490D+00
 Gap=     0.190 Goal=   None    Shift=    0.000
 RMSDP=1.21D-05 MaxDP=8.57D-04 DE=-1.64D-04 OVMax= 8.65D-04

 Cycle   8  Pass 0  IDiag  1:
 RMSU=  7.28D-06    CP:  9.83D-01  7.30D-01  6.25D-01  6.60D-01  5.84D-01
                    CP:  5.87D-01  6.43D-01
 E= -1308.24638367326     Delta-E=       -0.000011890138 Rises=F Damp=F
 DIIS: error= 5.78D-05 at cycle   8 NSaved=   8.
 NSaved= 8 IEnMin= 8 EnMin= -1308.24638367326     IErMin= 8 ErrMin= 5.78D-05
 ErrMax= 5.78D-05  0.00D+00 EMaxC= 1.00D-01 BMatC= 1.11D-06 BMatP= 1.46D-05
 IDIUse=1 WtCom= 1.00D+00 WtEn= 0.00D+00
 Coeff-Com: -0.341D-03-0.258D-03 0.407D-02 0.149D-01 0.483D-01 0.116D+00
 Coeff-Com:  0.274D+00 0.544D+00
 Coeff:     -0.341D-03-0.258D-03 0.407D-02 0.149D-01 0.483D-01 0.116D+00
 Coeff:      0.274D+00 0.544D+00
 Gap=     0.190 Goal=   None    Shift=    0.000
 RMSDP=4.04D-06 MaxDP=1.86D-04 DE=-1.19D-05 OVMax= 2.79D-04

 Initial convergence to 1.0D-05 achieved.  Increase integral accuracy.
 Cycle   9  Pass 1  IDiag  1:
 E= -1308.24629877680     Delta-E=        0.000084896455 Rises=F Damp=F
 DIIS: error= 3.79D-05 at cycle   1 NSaved=   1.
 NSaved= 1 IEnMin= 1 EnMin= -1308.24629877680     IErMin= 1 ErrMin= 3.79D-05
 ErrMax= 3.79D-05  0.00D+00 EMaxC= 1.00D-01 BMatC= 6.85D-07 BMatP= 6.85D-07
 IDIUse=1 WtCom= 1.00D+00 WtEn= 0.00D+00
 Coeff-Com:  0.100D+01
 Coeff:      0.100D+01
 Gap=     0.190 Goal=   None    Shift=    0.000
 RMSDP=4.04D-06 MaxDP=1.86D-04 DE= 8.49D-05 OVMax= 2.33D-04

 Cycle  10  Pass 1  IDiag  1:
 RMSU=  2.79D-05    CP:  1.00D+00
 E= -1308.24629910077     Delta-E=       -0.000000323962 Rises=F Damp=F
 DIIS: error= 3.74D-05 at cycle   2 NSaved=   2.
 NSaved= 2 IEnMin= 2 EnMin= -1308.24629910077     IErMin= 2 ErrMin= 3.74D-05
 ErrMax= 3.74D-05  0.00D+00 EMaxC= 1.00D-01 BMatC= 4.37D-07 BMatP= 6.85D-07
 IDIUse=1 WtCom= 1.00D+00 WtEn= 0.00D+00
 Coeff-Com:  0.419D+00 0.581D+00
 Coeff:      0.419D+00 0.581D+00
 Gap=     0.190 Goal=   None    Shift=    0.000
 RMSDP=3.44D-06 MaxDP=1.71D-04 DE=-3.24D-07 OVMax= 2.37D-04

 Cycle  11  Pass 1  IDiag  1:
 RMSU=  3.44D-06    CP:  1.00D+00  9.96D-01
 E= -1308.24629921446     Delta-E=       -0.000000113690 Rises=F Damp=F
 DIIS: error= 3.57D-05 at cycle   3 NSaved=   3.
 NSaved= 3 IEnMin= 3 EnMin= -1308.24629921446     IErMin= 3 ErrMin= 3.57D-05
 ErrMax= 3.57D-05  0.00D+00 EMaxC= 1.00D-01 BMatC= 3.18D-07 BMatP= 4.37D-07
 IDIUse=1 WtCom= 1.00D+00 WtEn= 0.00D+00
 Coeff-Com:  0.113D-01 0.457D+00 0.531D+00
 Coeff:      0.113D-01 0.457D+00 0.531D+00
 Gap=     0.190 Goal=   None    Shift=    0.000
 RMSDP=1.72D-06 MaxDP=9.06D-05 DE=-1.14D-07 OVMax= 1.27D-04

 Cycle  12  Pass 1  IDiag  1:
 RMSU=  6.18D-07    CP:  1.00D+00  1.01D+00  5.42D-01
 E= -1308.24629949709     Delta-E=       -0.000000282633 Rises=F Damp=F
 DIIS: error= 4.80D-06 at cycle   4 NSaved=   4.
 NSaved= 4 IEnMin= 4 EnMin= -1308.24629949709     IErMin= 4 ErrMin= 4.80D-06
 ErrMax= 4.80D-06  0.00D+00 EMaxC= 1.00D-01 BMatC= 1.30D-08 BMatP= 3.18D-07
 IDIUse=1 WtCom= 1.00D+00 WtEn= 0.00D+00
 Coeff-Com: -0.545D-02 0.270D+00 0.335D+00 0.400D+00
 Coeff:     -0.545D-02 0.270D+00 0.335D+00 0.400D+00
 Gap=     0.190 Goal=   None    Shift=    0.000
 RMSDP=3.85D-07 MaxDP=1.58D-05 DE=-2.83D-07 OVMax= 2.76D-05

 Cycle  13  Pass 1  IDiag  1:
 RMSU=  1.73D-07    CP:  1.00D+00  1.01D+00  5.54D-01  4.47D-01
 E= -1308.24629950952     Delta-E=       -0.000000012435 Rises=F Damp=F
 DIIS: error= 1.08D-06 at cycle   5 NSaved=   5.
 NSaved= 5 IEnMin= 5 EnMin= -1308.24629950952     IErMin= 5 ErrMin= 1.08D-06
 ErrMax= 1.08D-06  0.00D+00 EMaxC= 1.00D-01 BMatC= 5.28D-10 BMatP= 1.30D-08
 IDIUse=1 WtCom= 1.00D+00 WtEn= 0.00D+00
 Coeff-Com: -0.391D-02 0.127D+00 0.160D+00 0.234D+00 0.482D+00
 Coeff:     -0.391D-02 0.127D+00 0.160D+00 0.234D+00 0.482D+00
 Gap=     0.190 Goal=   None    Shift=    0.000
 RMSDP=8.52D-08 MaxDP=3.01D-06 DE=-1.24D-08 OVMax= 6.85D-06

 Cycle  14  Pass 1  IDiag  1:
 RMSU=  5.81D-08    CP:  1.00D+00  1.01D+00  5.54D-01  4.78D-01  6.58D-01
 E= -1308.24629951003     Delta-E=       -0.000000000506 Rises=F Damp=F
 DIIS: error= 1.72D-07 at cycle   6 NSaved=   6.
 NSaved= 6 IEnMin= 6 EnMin= -1308.24629951003     IErMin= 6 ErrMin= 1.72D-07
 ErrMax= 1.72D-07  0.00D+00 EMaxC= 1.00D-01 BMatC= 2.44D-11 BMatP= 5.28D-10
 IDIUse=1 WtCom= 1.00D+00 WtEn= 0.00D+00
 Coeff-Com: -0.140D-02 0.386D-01 0.488D-01 0.799D-01 0.232D+00 0.603D+00
 Coeff:     -0.140D-02 0.386D-01 0.488D-01 0.799D-01 0.232D+00 0.603D+00
 Gap=     0.190 Goal=   None    Shift=    0.000
 RMSDP=2.07D-08 MaxDP=8.81D-07 DE=-5.06D-10 OVMax= 1.76D-06

 Cycle  15  Pass 1  IDiag  1:
 RMSU=  1.69D-08    CP:  1.00D+00  1.01D+00  5.53D-01  4.77D-01  7.04D-01
                    CP:  8.47D-01
 E= -1308.24629951013     Delta-E=       -0.000000000099 Rises=F Damp=F
 DIIS: error= 7.32D-08 at cycle   7 NSaved=   7.
 NSaved= 7 IEnMin= 7 EnMin= -1308.24629951013     IErMin= 7 ErrMin= 7.32D-08
 ErrMax= 7.32D-08  0.00D+00 EMaxC= 1.00D-01 BMatC= 6.37D-12 BMatP= 2.44D-11
 IDIUse=1 WtCom= 1.00D+00 WtEn= 0.00D+00
 Coeff-Com: -0.261D-03 0.396D-02 0.501D-02 0.125D-01 0.661D-01 0.371D+00
 Coeff-Com:  0.542D+00
 Coeff:     -0.261D-03 0.396D-02 0.501D-02 0.125D-01 0.661D-01 0.371D+00
 Coeff:      0.542D+00
 Gap=     0.190 Goal=   None    Shift=    0.000
 RMSDP=9.36D-09 MaxDP=5.45D-07 DE=-9.91D-11 OVMax= 5.90D-07

 SCF Done:  E(RB3LYP) =  -1308.24629951     A.U. after   15 cycles
            NFock= 15  Conv=0.94D-08     -V/T= 2.0077
 KE= 1.298272311215D+03 PE=-6.524247306532D+03 EE= 2.185818228843D+03
 Leave Link  502 at Thu Aug  6 21:09:54 2020, MaxMem=    33554432 cpu:       274.9
 (Enter /prod/apps/gaussian/g09d1/l601.exe)
 Copying SCF densities to generalized density rwf, IOpCl= 0 IROHF=0.

 **********************************************************************

            Population analysis using the SCF density.

 **********************************************************************

 Orbital symmetries:
       Occupied  (A) (A) (A) (A) (A) (A) (A) (A) (A) (A) (A) (A)
                 (A) (A) (A) (A) (A) (A) (A) (A) (A) (A) (A) (A)
                 (A) (A) (A) (A) (A) (A) (A) (A) (A) (A) (A) (A)
                 (A) (A) (A) (A) (A) (A) (A) (A) (A) (A) (A) (A)
                 (A) (A) (A) (A) (A) (A) (A) (A) (A) (A) (A) (A)
                 (A) (A) (A) (A) (A) (A) (A) (A) (A) (A) (A) (A)
                 (A) (A) (A) (A) (A) (A)
       Virtual   (A) (A) (A) (A) (A) (A) (A) (A) (A) (A) (A) (A)
                 (A) (A) (A) (A) (A) (A) (A) (A) (A) (A) (A) (A)
                 (A) (A) (A) (A) (A) (A) (A) (A) (A) (A) (A) (A)
                 (A) (A) (A) (A) (A) (A) (A) (A) (A) (A) (A) (A)
                 (A) (A) (A) (A) (A) (A) (A) (A) (A) (A) (A) (A)
                 (A) (A) (A) (A) (A) (A) (A) (A) (A) (A) (A) (A)
                 (A) (A) (A) (A) (A) (A) (A) (A) (A) (A) (A) (A)
                 (A) (A) (A) (A) (A) (A) (A) (A) (A) (A) (A) (A)
                 (A) (A) (A) (A) (A) (A) (A) (A) (A) (A) (A) (A)
                 (A) (A) (A) (A) (A) (A) (A) (A) (A) (A) (A) (A)
                 (A) (A) (A) (A) (A) (A) (A) (A) (A) (A) (A) (A)
                 (A) (A) (A) (A) (A) (A) (A) (A) (A) (A) (A) (A)
                 (A) (A) (A) (A) (A) (A) (A) (A) (A) (A) (A) (A)
                 (A) (A) (A) (A) (A) (A) (A) (A) (A) (A) (A) (A)
                 (A) (A) (A) (A) (A) (A) (A) (A) (A) (A) (A) (A)
                 (A) (A) (A) (A) (A) (A) (A) (A) (A) (A) (A) (A)
                 (A) (A) (A) (A) (A) (A) (A) (A) (A) (A) (A) (A)
                 (A) (A) (A) (A) (A) (A) (A) (A) (A) (A) (A) (A)
                 (A) (A) (A) (A) (A) (A) (A) (A) (A) (A) (A) (A)
                 (A) (A) (A) (A) (A) (A) (A) (A) (A) (A) (A) (A)
                 (A) (A) (A) (A) (A) (A) (A) (A) (A) (A) (A) (A)
                 (A) (A) (A) (A) (A) (A) (A) (A) (A) (A) (A) (A)
                 (A)
 The electronic state is 1-A.
 Alpha  occ. eigenvalues --  -89.11673 -19.14778 -19.14609 -14.44339 -14.39779
 Alpha  occ. eigenvalues --  -14.38135 -14.36233 -10.26040 -10.25680 -10.24357
 Alpha  occ. eigenvalues --  -10.23793 -10.22328 -10.22159 -10.21983 -10.21780
 Alpha  occ. eigenvalues --  -10.21740 -10.21598 -10.21184 -10.20962 -10.20866
 Alpha  occ. eigenvalues --  -10.20767  -8.14248  -6.10760  -6.10645  -6.10542
 Alpha  occ. eigenvalues --   -1.11500  -1.10800  -1.00364  -0.95624  -0.92612
 Alpha  occ. eigenvalues --   -0.88550  -0.86639  -0.80892  -0.78864  -0.77475
 Alpha  occ. eigenvalues --   -0.76957  -0.76458  -0.69156  -0.66650  -0.64965
 Alpha  occ. eigenvalues --   -0.63424  -0.61787  -0.60590  -0.59873  -0.57323
 Alpha  occ. eigenvalues --   -0.55381  -0.52331  -0.51950  -0.50387  -0.49105
 Alpha  occ. eigenvalues --   -0.48833  -0.48136  -0.47873  -0.46721  -0.46045
 Alpha  occ. eigenvalues --   -0.45139  -0.44996  -0.44283  -0.44018  -0.39838
 Alpha  occ. eigenvalues --   -0.39321  -0.38946  -0.38166  -0.37332  -0.37075
 Alpha  occ. eigenvalues --   -0.35990  -0.34485  -0.33925  -0.32226  -0.31727
 Alpha  occ. eigenvalues --   -0.31261  -0.30233  -0.28052  -0.28023  -0.27750
 Alpha  occ. eigenvalues --   -0.27165  -0.26129  -0.23887
 Alpha virt. eigenvalues --   -0.04892  -0.04456  -0.02722  -0.02137   0.01569
 Alpha virt. eigenvalues --    0.02324   0.05940   0.07356   0.08046   0.09332
 Alpha virt. eigenvalues --    0.09938   0.10440   0.11690   0.12679   0.12914
 Alpha virt. eigenvalues --    0.13750   0.14472   0.14929   0.15074   0.15724
 Alpha virt. eigenvalues --    0.16823   0.17263   0.17725   0.18422   0.18922
 Alpha virt. eigenvalues --    0.21480   0.22531   0.24830   0.26451   0.27946
 Alpha virt. eigenvalues --    0.28393   0.28718   0.29727   0.30135   0.30964
 Alpha virt. eigenvalues --    0.32820   0.34483   0.35559   0.36150   0.37712
 Alpha virt. eigenvalues --    0.40832   0.42321   0.43574   0.47430   0.47910
 Alpha virt. eigenvalues --    0.49608   0.50602   0.51152   0.51650   0.52171
 Alpha virt. eigenvalues --    0.53109   0.54018   0.54721   0.55395   0.55906
 Alpha virt. eigenvalues --    0.56627   0.56830   0.57361   0.57663   0.57786
 Alpha virt. eigenvalues --    0.58002   0.58543   0.58682   0.59432   0.59647
 Alpha virt. eigenvalues --    0.60103   0.60835   0.61205   0.61912   0.62001
 Alpha virt. eigenvalues --    0.62624   0.64284   0.65202   0.67874   0.68607
 Alpha virt. eigenvalues --    0.69845   0.70627   0.71210   0.74177   0.74221
 Alpha virt. eigenvalues --    0.76669   0.77015   0.78200   0.79278   0.80675
 Alpha virt. eigenvalues --    0.81264   0.81874   0.82027   0.82631   0.82903
 Alpha virt. eigenvalues --    0.83152   0.83442   0.84460   0.84588   0.85702
 Alpha virt. eigenvalues --    0.86181   0.87972   0.88770   0.89580   0.90058
 Alpha virt. eigenvalues --    0.90233   0.92550   0.92621   0.93595   0.93920
 Alpha virt. eigenvalues --    0.94595   0.97103   0.97761   0.98188   0.99575
 Alpha virt. eigenvalues --    1.01565   1.02606   1.04351   1.05401   1.06103
 Alpha virt. eigenvalues --    1.07685   1.10215   1.10851   1.11676   1.12248
 Alpha virt. eigenvalues --    1.13335   1.14894   1.15676   1.16661   1.17343
 Alpha virt. eigenvalues --    1.17856   1.19609   1.21271   1.23528   1.24242
 Alpha virt. eigenvalues --    1.24911   1.26350   1.30082   1.30736   1.32641
 Alpha virt. eigenvalues --    1.36608   1.37495   1.39254   1.40675   1.41001
 Alpha virt. eigenvalues --    1.41197   1.41462   1.43030   1.43429   1.44807
 Alpha virt. eigenvalues --    1.45666   1.46444   1.47097   1.47949   1.49004
 Alpha virt. eigenvalues --    1.52173   1.52824   1.53947   1.55957   1.59263
 Alpha virt. eigenvalues --    1.62176   1.65459   1.68337   1.72337   1.75340
 Alpha virt. eigenvalues --    1.76304   1.76757   1.78947   1.79737   1.80420
 Alpha virt. eigenvalues --    1.82341   1.82573   1.84069   1.84562   1.85267
 Alpha virt. eigenvalues --    1.86675   1.87182   1.89494   1.89953   1.90686
 Alpha virt. eigenvalues --    1.93512   1.95183   1.95797   1.96398   1.96821
 Alpha virt. eigenvalues --    1.98461   2.04259   2.05002   2.06408   2.07041
 Alpha virt. eigenvalues --    2.08277   2.09448   2.10720   2.11196   2.12260
 Alpha virt. eigenvalues --    2.12377   2.12639   2.13329   2.13880   2.14722
 Alpha virt. eigenvalues --    2.15774   2.18358   2.19824   2.22346   2.22673
 Alpha virt. eigenvalues --    2.24598   2.26908   2.27645   2.28469   2.29371
 Alpha virt. eigenvalues --    2.29934   2.31121   2.32125   2.32699   2.36727
 Alpha virt. eigenvalues --    2.41137   2.49143   2.50786   2.52065   2.53557
 Alpha virt. eigenvalues --    2.56341   2.56987   2.57472   2.58876   2.62286
 Alpha virt. eigenvalues --    2.62416   2.64130   2.64738   2.66534   2.68762
 Alpha virt. eigenvalues --    2.69430   2.71148   2.71675   2.72931   2.73655
 Alpha virt. eigenvalues --    2.74052   2.75666   2.77245   2.79659   2.84087
 Alpha virt. eigenvalues --    2.85740   2.87935   2.99577   3.01843   3.07161
 Alpha virt. eigenvalues --    3.13277   3.25702   3.36191   3.41608   3.61989
 Alpha virt. eigenvalues --    3.78556   3.94964   3.97141   4.03597   4.06346
 Alpha virt. eigenvalues --    4.06948   4.07755   4.09690   4.11487   4.13244
 Alpha virt. eigenvalues --    4.15148   4.17752   4.24894   4.30879   4.31189
 Alpha virt. eigenvalues --    4.34772   4.38687   4.47486   4.64392   4.70393
          Condensed to atoms (all electrons):
               1          2          3          4          5          6
     1  O    8.214794   0.429468  -0.056628   0.010806  -0.000404   0.000003
     2  S    0.429468  13.708696   0.098691  -0.007772  -0.002705   0.000175
     3  N   -0.056628   0.098691   7.437586   0.250106  -0.071707   0.007015
     4  C    0.010806  -0.007772   0.250106   4.657752   0.375648  -0.070116
     5  N   -0.000404  -0.002705  -0.071707   0.375648   6.850749   0.301444
     6  N    0.000003   0.000175   0.007015  -0.070116   0.301444   6.746431
     7  C   -0.000783  -0.003024  -0.063271   0.480191  -0.068353  -0.097665
     8  N   -0.000062  -0.000119   0.002636  -0.047129  -0.086000   0.203545
     9  C   -0.000001  -0.000023  -0.000093   0.006528   0.007331  -0.044845
    10  C    0.000000   0.000000   0.000000  -0.000482   0.000306  -0.000144
    11  C    0.000000   0.000000   0.000000   0.000006  -0.000006   0.000365
    12  C    0.000000   0.000000   0.000000   0.000000   0.000000   0.000017
    13  C    0.000000   0.000000   0.000000  -0.000009   0.000002  -0.000068
    14  C    0.000000  -0.000001   0.000003   0.000903  -0.000372   0.002994
    15  C   -0.059194   0.179421  -0.051914  -0.009020  -0.000005   0.000005
    16  C    0.001823  -0.019952   0.000771   0.000206   0.000001   0.000000
    17  C   -0.000047   0.002261  -0.000026  -0.000020   0.000000   0.000000
    18  C   -0.000005  -0.000360   0.000013   0.000005   0.000000   0.000000
    19  C    0.000696   0.003748  -0.000123   0.000032   0.000000   0.000000
    20  C    0.002477  -0.032216   0.000073   0.000068   0.000005   0.000000
    21  O   -0.041901   0.453294  -0.051554   0.001394   0.000012   0.000000
    22  H   -0.000164  -0.011242   0.295503  -0.030462   0.005162  -0.000095
    23  H   -0.000028   0.000431  -0.000200  -0.027364   0.004214   0.003453
    24  H    0.000000   0.000000   0.000000   0.000054  -0.000374   0.016730
    25  H    0.000000   0.000000   0.000000   0.000000   0.000000  -0.000008
    26  H    0.000000   0.000000   0.000000   0.000000   0.000000   0.000000
    27  H    0.000000   0.000000   0.000000   0.000000   0.000000   0.000001
    28  H    0.000000  -0.000003  -0.000002   0.000079  -0.000007  -0.000093
    29  H    0.000065  -0.001087   0.003140   0.000178   0.000001   0.000000
    30  H    0.000000  -0.000054   0.000000   0.000000   0.000000   0.000000
    31  H    0.000000   0.000008   0.000000   0.000000   0.000000   0.000000
    32  H    0.000003  -0.000075   0.000001   0.000000   0.000000   0.000000
    33  H    0.012894  -0.007069   0.000263  -0.000045   0.000000   0.000000
               7          8          9         10         11         12
     1  O   -0.000783  -0.000062  -0.000001   0.000000   0.000000   0.000000
     2  S   -0.003024  -0.000119  -0.000023   0.000000   0.000000   0.000000
     3  N   -0.063271   0.002636  -0.000093   0.000000   0.000000   0.000000
     4  C    0.480191  -0.047129   0.006528  -0.000482   0.000006   0.000000
     5  N   -0.068353  -0.086000   0.007331   0.000306  -0.000006   0.000000
     6  N   -0.097665   0.203545  -0.044845  -0.000144   0.000365   0.000017
     7  C    5.064561   0.324788  -0.038574   0.007968  -0.000085   0.000019
     8  N    0.324788   6.924383   0.203357  -0.057027   0.004629   0.000392
     9  C   -0.038574   0.203357   4.606073   0.520340  -0.009584  -0.038052
    10  C    0.007968  -0.057027   0.520340   4.982769   0.516728  -0.037159
    11  C   -0.000085   0.004629  -0.009584   0.516728   4.868060   0.543225
    12  C    0.000019   0.000392  -0.038052  -0.037159   0.543225   4.849182
    13  C   -0.000039   0.004651  -0.006919  -0.041561  -0.022648   0.550760
    14  C   -0.007756  -0.051315   0.528920  -0.075140  -0.042324  -0.039507
    15  C    0.003293   0.000049  -0.000001   0.000000   0.000000   0.000000
    16  C    0.000219   0.000003   0.000000   0.000000   0.000000   0.000000
    17  C    0.000002   0.000000   0.000000   0.000000   0.000000   0.000000
    18  C   -0.000021   0.000000   0.000000   0.000000   0.000000   0.000000
    19  C   -0.000169  -0.000001   0.000000   0.000000   0.000000   0.000000
    20  C   -0.000332   0.000003  -0.000001   0.000000   0.000000   0.000000
    21  O   -0.000050   0.000000   0.000000   0.000000   0.000000   0.000000
    22  H    0.004974   0.000089  -0.000002   0.000000   0.000000   0.000000
    23  H    0.357015  -0.035755  -0.001668  -0.000102  -0.000005  -0.000001
    24  H    0.000294  -0.014157  -0.033158   0.354355  -0.040022   0.004311
    25  H    0.000002  -0.000110   0.003443  -0.038116   0.360577  -0.041432
    26  H    0.000000   0.000003   0.000521   0.004704  -0.042498   0.362423
    27  H   -0.000004  -0.000114   0.003565   0.000785   0.004589  -0.040514
    28  H    0.006127  -0.009938  -0.040063   0.005678   0.000264   0.004505
    29  H   -0.000022   0.000000   0.000000   0.000000   0.000000   0.000000
    30  H    0.000000   0.000000   0.000000   0.000000   0.000000   0.000000
    31  H    0.000000   0.000000   0.000000   0.000000   0.000000   0.000000
    32  H   -0.000003   0.000000   0.000000   0.000000   0.000000   0.000000
    33  H   -0.000085   0.000000   0.000000   0.000000   0.000000   0.000000
              13         14         15         16         17         18
     1  O    0.000000   0.000000  -0.059194   0.001823  -0.000047  -0.000005
     2  S    0.000000  -0.000001   0.179421  -0.019952   0.002261  -0.000360
     3  N    0.000000   0.000003  -0.051914   0.000771  -0.000026   0.000013
     4  C   -0.000009   0.000903  -0.009020   0.000206  -0.000020   0.000005
     5  N    0.000002  -0.000372  -0.000005   0.000001   0.000000   0.000000
     6  N   -0.000068   0.002994   0.000005   0.000000   0.000000   0.000000
     7  C   -0.000039  -0.007756   0.003293   0.000219   0.000002  -0.000021
     8  N    0.004651  -0.051315   0.000049   0.000003   0.000000   0.000000
     9  C   -0.006919   0.528920  -0.000001   0.000000   0.000000   0.000000
    10  C   -0.041561  -0.075140   0.000000   0.000000   0.000000   0.000000
    11  C   -0.022648  -0.042324   0.000000   0.000000   0.000000   0.000000
    12  C    0.550760  -0.039507   0.000000   0.000000   0.000000   0.000000
    13  C    4.844361   0.529709   0.000000   0.000000   0.000000   0.000000
    14  C    0.529709   4.996359   0.000001   0.000000   0.000000   0.000000
    15  C    0.000000   0.000001   5.331321   0.468355  -0.025217  -0.038798
    16  C    0.000000   0.000000   0.468355   4.922128   0.517233  -0.029964
    17  C    0.000000   0.000000  -0.025217   0.517233   4.877515   0.540166
    18  C    0.000000   0.000000  -0.038798  -0.029964   0.540166   4.845550
    19  C    0.000000   0.000000  -0.032099  -0.037059  -0.029287   0.545277
    20  C    0.000000   0.000001   0.520688  -0.036810  -0.039494  -0.029458
    21  O    0.000000   0.000000  -0.059673   0.001558   0.000207  -0.000005
    22  H    0.000000   0.000000   0.002812  -0.000032   0.000004   0.000000
    23  H    0.000185   0.002203   0.001229  -0.000028  -0.000014   0.000040
    24  H    0.000159   0.005635   0.000000   0.000000   0.000000   0.000000
    25  H    0.004576   0.000819   0.000000   0.000000   0.000000   0.000000
    26  H   -0.042617   0.005049   0.000000   0.000000   0.000000   0.000000
    27  H    0.359520  -0.039716   0.000000   0.000000   0.000000   0.000000
    28  H   -0.038549   0.347929  -0.000002   0.000000   0.000000   0.000000
    29  H    0.000000   0.000000  -0.047727   0.363664  -0.037745   0.004243
    30  H    0.000000   0.000000   0.004844  -0.041405   0.363255  -0.041794
    31  H    0.000000   0.000000   0.000473   0.004927  -0.042337   0.362287
    32  H    0.000000   0.000000   0.004798   0.000707   0.004387  -0.042109
    33  H    0.000000   0.000000  -0.039530   0.005021   0.000249   0.004052
              19         20         21         22         23         24
     1  O    0.000696   0.002477  -0.041901  -0.000164  -0.000028   0.000000
     2  S    0.003748  -0.032216   0.453294  -0.011242   0.000431   0.000000
     3  N   -0.000123   0.000073  -0.051554   0.295503  -0.000200   0.000000
     4  C    0.000032   0.000068   0.001394  -0.030462  -0.027364   0.000054
     5  N    0.000000   0.000005   0.000012   0.005162   0.004214  -0.000374
     6  N    0.000000   0.000000   0.000000  -0.000095   0.003453   0.016730
     7  C   -0.000169  -0.000332  -0.000050   0.004974   0.357015   0.000294
     8  N   -0.000001   0.000003   0.000000   0.000089  -0.035755  -0.014157
     9  C    0.000000  -0.000001   0.000000  -0.000002  -0.001668  -0.033158
    10  C    0.000000   0.000000   0.000000   0.000000  -0.000102   0.354355
    11  C    0.000000   0.000000   0.000000   0.000000  -0.000005  -0.040022
    12  C    0.000000   0.000000   0.000000   0.000000  -0.000001   0.004311
    13  C    0.000000   0.000000   0.000000   0.000000   0.000185   0.000159
    14  C    0.000000   0.000001   0.000000   0.000000   0.002203   0.005635
    15  C   -0.032099   0.520688  -0.059673   0.002812   0.001229   0.000000
    16  C   -0.037059  -0.036810   0.001558  -0.000032  -0.000028   0.000000
    17  C   -0.029287  -0.039494   0.000207   0.000004  -0.000014   0.000000
    18  C    0.545277  -0.029458  -0.000005   0.000000   0.000040   0.000000
    19  C    4.893815   0.495696  -0.000045   0.000002   0.000301   0.000000
    20  C    0.495696   4.936911  -0.000157  -0.000039   0.002095   0.000000
    21  O   -0.000045  -0.000157   8.224900   0.004885   0.000001   0.000000
    22  H    0.000002  -0.000039   0.004885   0.354693  -0.000106   0.000000
    23  H    0.000301   0.002095   0.000001  -0.000106   0.502587  -0.000011
    24  H    0.000000   0.000000   0.000000   0.000000  -0.000011   0.529514
    25  H    0.000000   0.000000   0.000000   0.000000   0.000000  -0.004980
    26  H    0.000000   0.000000   0.000000   0.000000   0.000000  -0.000137
    27  H    0.000000   0.000000   0.000000   0.000000  -0.000002   0.000013
    28  H   -0.000001  -0.000004   0.000000   0.000000   0.002052  -0.000140
    29  H    0.000347   0.004667   0.002580  -0.000173   0.000006   0.000000
    30  H    0.004434   0.000633   0.000001   0.000000   0.000000   0.000000
    31  H   -0.042482   0.004842   0.000000   0.000000   0.000000   0.000000
    32  H    0.364154  -0.042388   0.000000   0.000000   0.000004   0.000000
    33  H   -0.037256   0.359174   0.000047  -0.000005   0.000018   0.000000
              25         26         27         28         29         30
     1  O    0.000000   0.000000   0.000000   0.000000   0.000065   0.000000
     2  S    0.000000   0.000000   0.000000  -0.000003  -0.001087  -0.000054
     3  N    0.000000   0.000000   0.000000  -0.000002   0.003140   0.000000
     4  C    0.000000   0.000000   0.000000   0.000079   0.000178   0.000000
     5  N    0.000000   0.000000   0.000000  -0.000007   0.000001   0.000000
     6  N   -0.000008   0.000000   0.000001  -0.000093   0.000000   0.000000
     7  C    0.000002   0.000000  -0.000004   0.006127  -0.000022   0.000000
     8  N   -0.000110   0.000003  -0.000114  -0.009938   0.000000   0.000000
     9  C    0.003443   0.000521   0.003565  -0.040063   0.000000   0.000000
    10  C   -0.038116   0.004704   0.000785   0.005678   0.000000   0.000000
    11  C    0.360577  -0.042498   0.004589   0.000264   0.000000   0.000000
    12  C   -0.041432   0.362423  -0.040514   0.004505   0.000000   0.000000
    13  C    0.004576  -0.042617   0.359520  -0.038549   0.000000   0.000000
    14  C    0.000819   0.005049  -0.039716   0.347929   0.000000   0.000000
    15  C    0.000000   0.000000   0.000000  -0.000002  -0.047727   0.004844
    16  C    0.000000   0.000000   0.000000   0.000000   0.363664  -0.041405
    17  C    0.000000   0.000000   0.000000   0.000000  -0.037745   0.363255
    18  C    0.000000   0.000000   0.000000   0.000000   0.004243  -0.041794
    19  C    0.000000   0.000000   0.000000  -0.000001   0.000347   0.004434
    20  C    0.000000   0.000000   0.000000  -0.000004   0.004667   0.000633
    21  O    0.000000   0.000000   0.000000   0.000000   0.002580   0.000001
    22  H    0.000000   0.000000   0.000000   0.000000  -0.000173   0.000000
    23  H    0.000000   0.000000  -0.000002   0.002052   0.000006   0.000000
    24  H   -0.004980  -0.000137   0.000013  -0.000140   0.000000   0.000000
    25  H    0.574474  -0.005359  -0.000180   0.000015   0.000000   0.000000
    26  H   -0.005359   0.583466  -0.005437  -0.000162   0.000000   0.000000
    27  H   -0.000180  -0.005437   0.581571  -0.005603   0.000000   0.000000
    28  H    0.000015  -0.000162  -0.005603   0.583896   0.000000   0.000000
    29  H    0.000000   0.000000   0.000000   0.000000   0.537109  -0.005313
    30  H    0.000000   0.000000   0.000000   0.000000  -0.005313   0.571469
    31  H    0.000000   0.000000   0.000000   0.000000  -0.000150  -0.005387
    32  H    0.000000   0.000000   0.000000   0.000000   0.000015  -0.000169
    33  H    0.000000   0.000000   0.000000   0.000000  -0.000145   0.000014
              31         32         33
     1  O    0.000000   0.000003   0.012894
     2  S    0.000008  -0.000075  -0.007069
     3  N    0.000000   0.000001   0.000263
     4  C    0.000000   0.000000  -0.000045
     5  N    0.000000   0.000000   0.000000
     6  N    0.000000   0.000000   0.000000
     7  C    0.000000  -0.000003  -0.000085
     8  N    0.000000   0.000000   0.000000
     9  C    0.000000   0.000000   0.000000
    10  C    0.000000   0.000000   0.000000
    11  C    0.000000   0.000000   0.000000
    12  C    0.000000   0.000000   0.000000
    13  C    0.000000   0.000000   0.000000
    14  C    0.000000   0.000000   0.000000
    15  C    0.000473   0.004798  -0.039530
    16  C    0.004927   0.000707   0.005021
    17  C   -0.042337   0.004387   0.000249
    18  C    0.362287  -0.042109   0.004052
    19  C   -0.042482   0.364154  -0.037256
    20  C    0.004842  -0.042388   0.359174
    21  O    0.000000   0.000000   0.000047
    22  H    0.000000   0.000000  -0.000005
    23  H    0.000000   0.000004   0.000018
    24  H    0.000000   0.000000   0.000000
    25  H    0.000000   0.000000   0.000000
    26  H    0.000000   0.000000   0.000000
    27  H    0.000000   0.000000   0.000000
    28  H    0.000000   0.000000   0.000000
    29  H   -0.000150   0.000015  -0.000145
    30  H   -0.005387  -0.000169   0.000014
    31  H    0.576737  -0.005520  -0.000140
    32  H   -0.005520   0.571885  -0.004807
    33  H   -0.000140  -0.004807   0.516299
 Mulliken charges:
               1
     1  O   -0.513812
     2  S    1.209511
     3  N   -0.800283
     4  C    0.408463
     5  N   -0.314942
     6  N   -0.069144
     7  C    0.030785
     8  N   -0.366799
     9  C    0.332906
    10  C   -0.143902
    11  C   -0.141272
    12  C   -0.118169
    13  C   -0.141511
    14  C   -0.164394
    15  C   -0.154111
    16  C   -0.121367
    17  C   -0.131092
    18  C   -0.119118
    19  C   -0.129981
    20  C   -0.146435
    21  O   -0.535494
    22  H    0.374197
    23  H    0.189449
    24  H    0.181917
    25  H    0.146281
    26  H    0.140045
    27  H    0.141526
    28  H    0.144021
    29  H    0.176346
    30  H    0.149472
    31  H    0.146741
    32  H    0.149115
    33  H    0.191050
 Sum of Mulliken charges =   0.00000
 Mulliken charges with hydrogens summed into heavy atoms:
               1
     1  O   -0.513812
     2  S    1.209511
     3  N   -0.426085
     4  C    0.408463
     5  N   -0.314942
     6  N   -0.069144
     7  C    0.220233
     8  N   -0.366799
     9  C    0.332906
    10  C    0.038015
    11  C    0.005009
    12  C    0.021876
    13  C    0.000015
    14  C   -0.020373
    15  C   -0.154111
    16  C    0.054979
    17  C    0.018380
    18  C    0.027622
    19  C    0.019134
    20  C    0.044615
    21  O   -0.535494
 Electronic spatial extent (au):  <R**2>=           7723.0077
 Charge=              0.0000 electrons
 Dipole moment (field-independent basis, Debye):
    X=             -2.3826    Y=              7.3941    Z=             -1.7929  Tot=              7.9726
 Quadrupole moment (field-independent basis, Debye-Ang):
   XX=           -119.2431   YY=           -124.8431   ZZ=           -126.1516
   XY=              6.2405   XZ=            -10.2297   YZ=              2.0634
 Traceless Quadrupole moment (field-independent basis, Debye-Ang):
   XX=              4.1695   YY=             -1.4305   ZZ=             -2.7390
   XY=              6.2405   XZ=            -10.2297   YZ=              2.0634
 Octapole moment (field-independent basis, Debye-Ang**2):
  XXX=           -117.8513  YYY=             47.7454  ZZZ=             -2.3196  XYY=             16.8422
  XXY=             66.8708  XXZ=              2.8439  XZZ=             21.7068  YZZ=              2.6671
  YYZ=             -7.2458  XYZ=             15.3958
 Hexadecapole moment (field-independent basis, Debye-Ang**3):
 XXXX=          -7121.5685 YYYY=          -2209.9368 ZZZZ=           -561.8495 XXXY=             26.0883
 XXXZ=           -244.3145 YYYX=             -6.7028 YYYZ=              1.2026 ZZZX=            -16.8235
 ZZZY=             12.6801 XXYY=          -1561.0993 XXZZ=          -1341.7719 YYZZ=           -459.0802
 XXYZ=            -50.0650 YYXZ=            -30.5839 ZZXY=             25.8577
 N-N= 1.731910466963D+03 E-N=-6.524247345717D+03  KE= 1.298272311215D+03
 No NMR shielding tensors so no spin-rotation constants.
 Leave Link  601 at Thu Aug  6 21:09:54 2020, MaxMem=    33554432 cpu:         0.3
 (Enter /prod/apps/gaussian/g09d1/l9999.exe)
 1\1\GINC-PIRINEUS21\SP\RB3LYP\6-31G(d)\C14H12N4O2S1\UBAFAR01\06-Aug-20
 20\0\\#p b3lyp/6-31G(d)\\SM45.n.9.pdb.xyz\\0,1\O,0,3.695,1.533,0.991\S
 ,0,3.268,0.334,0.262\N,0,2.977,-0.974,1.329\C,0,2.581,-0.707,2.649\N,0
 ,3.403,-0.944,3.707\N,0,2.768,-0.648,4.809\C,0,1.375,-0.229,3.115\N,0,
 1.54,-0.19,4.464\C,0,0.619,0.238,5.463\C,0,1.104,0.629,6.713\C,0,0.202
 ,1.046,7.689\C,0,-1.168,1.083,7.418\C,0,-1.637,0.692,6.164\C,0,-0.749,
 0.26,5.182\C,0,1.643,0.659,-0.397\C,0,1.,-0.322,-1.155\C,0,-0.252,-0.0
 38,-1.693\C,0,-0.841,1.211,-1.475\C,0,-0.183,2.182,-0.72\C,0,1.072,1.9
 11,-0.174\O,0,4.123,-0.25,-0.776\H,0,3.78,-1.602,1.279\H,0,0.475,0.09,
 2.62\H,0,2.169,0.602,6.9\H,0,0.574,1.35,8.661\H,0,-1.864,1.414,8.18\H,
 0,-2.699,0.712,5.948\H,0,-1.116,-0.066,4.215\H,0,1.471,-1.285,-1.314\H
 ,0,-0.766,-0.789,-2.283\H,0,-1.816,1.427,-1.897\H,0,-0.643,3.15,-0.556
 \H,0,1.611,2.644,0.414\\Version=AM64L-G09RevD.01\State=1-A\HF=-1308.24
 62995\RMSD=9.359e-09\Dipole=-3.1202963,0.2330375,0.2195862\Quadrupole=
 -4.8392166,-1.0159443,5.8551609,-2.8161775,4.8853018,5.2919001\PG=C01 
 [X(C14H12N4O2S1)]\\@


0EVERYBODY IS IGNORANT, ONLY ON DIFFERENT SUBJECTS.
0          WILL ROGERS
 Job cpu time:       0 days  0 hours  4 minutes 40.2 seconds.
 File lengths (MBytes):  RWF=     66 Int=      0 D2E=      0 Chk=      5 Scr=      1
 Normal termination of Gaussian 09 at Thu Aug  6 21:09:54 2020.
 Initial command:
 /prod/apps/gaussian/g09d1/l1.exe "/tmp/ubafar01/1448548/Gau-177378.inp" -scrdir="/tmp/ubafar01/1448548/"
 Entering Link 1 = /prod/apps/gaussian/g09d1/l1.exe PID=    177438.
  
 Copyright (c) 1988,1990,1992,1993,1995,1998,2003,2009,2013,
            Gaussian, Inc.  All Rights Reserved.
  
 This is part of the Gaussian(R) 09 program.  It is based on
 the Gaussian(R) 03 system (copyright 2003, Gaussian, Inc.),
 the Gaussian(R) 98 system (copyright 1998, Gaussian, Inc.),
 the Gaussian(R) 94 system (copyright 1995, Gaussian, Inc.),
 the Gaussian 92(TM) system (copyright 1992, Gaussian, Inc.),
 the Gaussian 90(TM) system (copyright 1990, Gaussian, Inc.),
 the Gaussian 88(TM) system (copyright 1988, Gaussian, Inc.),
 the Gaussian 86(TM) system (copyright 1986, Carnegie Mellon
 University), and the Gaussian 82(TM) system (copyright 1983,
 Carnegie Mellon University). Gaussian is a federally registered
 trademark of Gaussian, Inc.
  
 This software contains proprietary and confidential information,
 including trade secrets, belonging to Gaussian, Inc.
  
 This software is provided under written license and may be
 used, copied, transmitted, or stored only in accord with that
 written license.
  
 The following legend is applicable only to US Government
 contracts under FAR:
  
                    RESTRICTED RIGHTS LEGEND
  
 Use, reproduction and disclosure by the US Government is
 subject to restrictions as set forth in subparagraphs (a)
 and (c) of the Commercial Computer Software - Restricted
 Rights clause in FAR 52.227-19.
  
 Gaussian, Inc.
 340 Quinnipiac St., Bldg. 40, Wallingford CT 06492
  
  
 ---------------------------------------------------------------
 Warning -- This program may not be used in any manner that
 competes with the business of Gaussian, Inc. or will provide
 assistance to any competitor of Gaussian, Inc.  The licensee
 of this program is prohibited from giving any competitor of
 Gaussian, Inc. access to this program.  By using this program,
 the user acknowledges that Gaussian, Inc. is engaged in the
 business of creating and licensing software in the field of
 computational chemistry and represents and warrants to the
 licensee that it is not a competitor of Gaussian, Inc. and that
 it will not use this program in any manner prohibited above.
 ---------------------------------------------------------------
  

 Cite this work as:
 Gaussian 09, Revision D.01,
 M. J. Frisch, G. W. Trucks, H. B. Schlegel, G. E. Scuseria, 
 M. A. Robb, J. R. Cheeseman, G. Scalmani, V. Barone, B. Mennucci, 
 G. A. Petersson, H. Nakatsuji, M. Caricato, X. Li, H. P. Hratchian, 
 A. F. Izmaylov, J. Bloino, G. Zheng, J. L. Sonnenberg, M. Hada, 
 M. Ehara, K. Toyota, R. Fukuda, J. Hasegawa, M. Ishida, T. Nakajima, 
 Y. Honda, O. Kitao, H. Nakai, T. Vreven, J. A. Montgomery, Jr., 
 J. E. Peralta, F. Ogliaro, M. Bearpark, J. J. Heyd, E. Brothers, 
 K. N. Kudin, V. N. Staroverov, T. Keith, R. Kobayashi, J. Normand, 
 K. Raghavachari, A. Rendell, J. C. Burant, S. S. Iyengar, J. Tomasi, 
 M. Cossi, N. Rega, J. M. Millam, M. Klene, J. E. Knox, J. B. Cross, 
 V. Bakken, C. Adamo, J. Jaramillo, R. Gomperts, R. E. Stratmann, 
 O. Yazyev, A. J. Austin, R. Cammi, C. Pomelli, J. W. Ochterski, 
 R. L. Martin, K. Morokuma, V. G. Zakrzewski, G. A. Voth, 
 P. Salvador, J. J. Dannenberg, S. Dapprich, A. D. Daniels, 
 O. Farkas, J. B. Foresman, J. V. Ortiz, J. Cioslowski, 
 and D. J. Fox, Gaussian, Inc., Wallingford CT, 2013.
 
 ******************************************
 Gaussian 09:  AM64L-G09RevD.01 24-Apr-2013
                 6-Aug-2020 
 ******************************************
 %nproc=1
 Will use up to    1 processors via shared memory.
 %Chk=SM45.n.9.pdb.xyz.mst.n.o.chk
 %subst l301 /dades/curu/work_g09D01_MST_AddSphPartition_ReadGammas/exe-dir/
 %subst l502 /dades/curu/work_g09D01_MST_AddSphPartition_ReadGammas/exe-dir/
 ----------------------------------------------------------------------
 #p b3lyp/6-31G(d) scrf=(iefpcm,read,solvent=n-Octanol) geom=allcheck g
 uess=read
 ----------------------------------------------------------------------
 1/29=7,38=1,40=2/1;
 2/12=2,40=1/2;
 3/5=1,6=6,7=1,11=2,14=-4,16=1,25=1,30=1,70=2203,72=25,74=-5,116=-2/1,2,3;
 4/5=1/1;
 5/5=2,38=6,53=25/2;
 6/7=2,8=2,9=2,10=2,28=1/1;
 99/5=1,9=1/99;
 Leave Link    1 at Thu Aug  6 21:09:54 2020, MaxMem=           0 cpu:         0.0
 (Enter /prod/apps/gaussian/g09d1/l101.exe)
 Structure from the checkpoint file:  "SM45.n.9.pdb.xyz.mst.n.o.chk"
 ----------------
 SM45.n.9.pdb.xyz
 ----------------
 Charge =  0 Multiplicity = 1
 Z-Matrix found in file.
 O,0,3.695,1.533,0.991
 S,0,3.268,0.334,0.262
 N,0,2.977,-0.974,1.329
 C,0,2.581,-0.707,2.649
 N,0,3.403,-0.944,3.707
 N,0,2.768,-0.648,4.809
 C,0,1.375,-0.229,3.115
 N,0,1.54,-0.19,4.464
 C,0,0.619,0.238,5.463
 C,0,1.104,0.629,6.713
 C,0,0.202,1.046,7.689
 C,0,-1.168,1.083,7.418
 C,0,-1.637,0.692,6.164
 C,0,-0.749,0.26,5.182
 C,0,1.643,0.659,-0.397
 C,0,1.,-0.322,-1.155
 C,0,-0.252,-0.038,-1.693
 C,0,-0.841,1.211,-1.475
 C,0,-0.183,2.182,-0.72
 C,0,1.072,1.911,-0.174
 O,0,4.123,-0.25,-0.776
 H,0,3.78,-1.602,1.279
 H,0,0.475,0.09,2.62
 H,0,2.169,0.602,6.9
 H,0,0.574,1.35,8.661
 H,0,-1.864,1.414,8.18
 H,0,-2.699,0.712,5.948
 H,0,-1.116,-0.066,4.215
 H,0,1.471,-1.285,-1.314
 H,0,-0.766,-0.789,-2.283
 H,0,-1.816,1.427,-1.897
 H,0,-0.643,3.15,-0.556
 H,0,1.611,2.644,0.414
 Recover connectivity data from disk.
 NAtoms=     33 NQM=       33 NQMF=       0 NMMI=      0 NMMIF=      0
                NMic=       0 NMicF=      0.
                    Isotopes and Nuclear Properties:
 (Nuclear quadrupole moments (NQMom) in fm**2, nuclear magnetic moments (NMagM)
  in nuclear magnetons)

  Atom         1           2           3           4           5           6           7           8           9          10
 IAtWgt=          16          32          14          12          14          14          12          14          12          12
 AtmWgt=  15.9949146  31.9720718  14.0030740  12.0000000  14.0030740  14.0030740  12.0000000  14.0030740  12.0000000  12.0000000
 NucSpn=           0           0           2           0           2           2           0           2           0           0
 AtZEff=  -5.6000000 -13.6000000  -4.5500000  -3.6000000  -4.5500000  -4.5500000  -3.6000000  -4.5500000  -3.6000000  -3.6000000
 NQMom=    0.0000000   0.0000000   2.0440000   0.0000000   2.0440000   2.0440000   0.0000000   2.0440000   0.0000000   0.0000000
 NMagM=    0.0000000   0.0000000   0.4037610   0.0000000   0.4037610   0.4037610   0.0000000   0.4037610   0.0000000   0.0000000
 AtZNuc=   8.0000000  16.0000000   7.0000000   6.0000000   7.0000000   7.0000000   6.0000000   7.0000000   6.0000000   6.0000000

  Atom        11          12          13          14          15          16          17          18          19          20
 IAtWgt=          12          12          12          12          12          12          12          12          12          12
 AtmWgt=  12.0000000  12.0000000  12.0000000  12.0000000  12.0000000  12.0000000  12.0000000  12.0000000  12.0000000  12.0000000
 NucSpn=           0           0           0           0           0           0           0           0           0           0
 AtZEff=  -3.6000000  -3.6000000  -3.6000000  -3.6000000  -3.6000000  -3.6000000  -3.6000000  -3.6000000  -3.6000000  -3.6000000
 NQMom=    0.0000000   0.0000000   0.0000000   0.0000000   0.0000000   0.0000000   0.0000000   0.0000000   0.0000000   0.0000000
 NMagM=    0.0000000   0.0000000   0.0000000   0.0000000   0.0000000   0.0000000   0.0000000   0.0000000   0.0000000   0.0000000
 AtZNuc=   6.0000000   6.0000000   6.0000000   6.0000000   6.0000000   6.0000000   6.0000000   6.0000000   6.0000000   6.0000000

  Atom        21          22          23          24          25          26          27          28          29          30
 IAtWgt=          16           1           1           1           1           1           1           1           1           1
 AtmWgt=  15.9949146   1.0078250   1.0078250   1.0078250   1.0078250   1.0078250   1.0078250   1.0078250   1.0078250   1.0078250
 NucSpn=           0           1           1           1           1           1           1           1           1           1
 AtZEff=  -5.6000000  -1.0000000  -1.0000000  -1.0000000  -1.0000000  -1.0000000  -1.0000000  -1.0000000  -1.0000000  -1.0000000
 NQMom=    0.0000000   0.0000000   0.0000000   0.0000000   0.0000000   0.0000000   0.0000000   0.0000000   0.0000000   0.0000000
 NMagM=    0.0000000   2.7928460   2.7928460   2.7928460   2.7928460   2.7928460   2.7928460   2.7928460   2.7928460   2.7928460
 AtZNuc=   8.0000000   1.0000000   1.0000000   1.0000000   1.0000000   1.0000000   1.0000000   1.0000000   1.0000000   1.0000000

  Atom        31          32          33
 IAtWgt=           1           1           1
 AtmWgt=   1.0078250   1.0078250   1.0078250
 NucSpn=           1           1           1
 AtZEff=  -1.0000000  -1.0000000  -1.0000000
 NQMom=    0.0000000   0.0000000   0.0000000
 NMagM=    2.7928460   2.7928460   2.7928460
 AtZNuc=   1.0000000   1.0000000   1.0000000
 Leave Link  101 at Thu Aug  6 21:09:54 2020, MaxMem=    33554432 cpu:         0.0
 (Enter /prod/apps/gaussian/g09d1/l202.exe)
                          Input orientation:                          
 ---------------------------------------------------------------------
 Center     Atomic      Atomic             Coordinates (Angstroms)
 Number     Number       Type             X           Y           Z
 ---------------------------------------------------------------------
      1          8           0        3.695000    1.533000    0.991000
      2         16           0        3.268000    0.334000    0.262000
      3          7           0        2.977000   -0.974000    1.329000
      4          6           0        2.581000   -0.707000    2.649000
      5          7           0        3.403000   -0.944000    3.707000
      6          7           0        2.768000   -0.648000    4.809000
      7          6           0        1.375000   -0.229000    3.115000
      8          7           0        1.540000   -0.190000    4.464000
      9          6           0        0.619000    0.238000    5.463000
     10          6           0        1.104000    0.629000    6.713000
     11          6           0        0.202000    1.046000    7.689000
     12          6           0       -1.168000    1.083000    7.418000
     13          6           0       -1.637000    0.692000    6.164000
     14          6           0       -0.749000    0.260000    5.182000
     15          6           0        1.643000    0.659000   -0.397000
     16          6           0        1.000000   -0.322000   -1.155000
     17          6           0       -0.252000   -0.038000   -1.693000
     18          6           0       -0.841000    1.211000   -1.475000
     19          6           0       -0.183000    2.182000   -0.720000
     20          6           0        1.072000    1.911000   -0.174000
     21          8           0        4.123000   -0.250000   -0.776000
     22          1           0        3.780000   -1.602000    1.279000
     23          1           0        0.475000    0.090000    2.620000
     24          1           0        2.169000    0.602000    6.900000
     25          1           0        0.574000    1.350000    8.661000
     26          1           0       -1.864000    1.414000    8.180000
     27          1           0       -2.699000    0.712000    5.948000
     28          1           0       -1.116000   -0.066000    4.215000
     29          1           0        1.471000   -1.285000   -1.314000
     30          1           0       -0.766000   -0.789000   -2.283000
     31          1           0       -1.816000    1.427000   -1.897000
     32          1           0       -0.643000    3.150000   -0.556000
     33          1           0        1.611000    2.644000    0.414000
 ---------------------------------------------------------------------
                    Distance matrix (angstroms):
                    1          2          3          4          5
     1  O    0.000000
     2  S    1.466755   0.000000
     3  N    2.629604   1.712902   0.000000
     4  C    3.001260   2.693217   1.403747   0.000000
     5  N    3.687472   3.676892   2.416042   1.360594   0.000000
     6  N    4.493686   4.678625   3.501479   2.168882   1.305850
     7  C    3.605332   3.469874   2.512215   1.378432   2.230353
     8  N    4.435593   4.573550   3.536644   2.155271   2.147635
     9  C    5.580106   5.837535   4.911116   3.558239   3.497330
    10  C    6.346005   6.810677   5.921587   4.525762   4.098264
    11  C    7.569770   8.066451   7.227076   5.842452   5.482958
    12  C    8.072026   8.452658   7.647758   6.324750   6.226901
    13  C    7.476459   7.682499   6.887799   5.666035   5.840800
    14  C    6.239723   6.352021   5.500131   4.294191   4.567751
    15  C    2.626999   1.783404   2.724944   3.467552   4.744473
    16  C    3.912718   2.753552   3.240970   4.137415   5.458968
    17  C    5.025008   4.043613   4.520511   5.227467   6.583302
    18  C    5.173020   4.546447   5.216681   5.691765   7.036241
    19  C    4.288077   4.035942   4.913689   5.228401   6.498431
    20  C    2.894864   2.738511   3.769782   4.135255   5.352266
    21  O    2.546480   1.466126   2.503701   3.783813   4.593182
    22  H    3.149348   2.246003   1.020634   2.028676   2.543674
    23  H    3.886424   3.663407   3.009781   2.251952   3.289971
    24  H    6.173469   6.733697   5.845740   4.467015   3.756078
    25  H    8.282695   8.878800   8.058139   6.663591   6.148804
    26  H    9.088364   9.497292   8.722043   7.405986   7.301314
    27  H    8.131982   8.250974   7.509643   6.385559   6.708116
    28  H    6.008053   5.916559   5.089804   4.065839   4.631448
    29  H    4.266184   2.886892   3.057811   4.155906   5.390672
    30  H    6.000940   4.900134   5.204884   5.961020   7.299636
    31  H    6.222773   5.630540   6.256575   6.674854   8.016509
    32  H    4.881203   4.888241   5.802155   5.961766   7.162690
    33  H    2.431112   2.846902   3.974054   4.143106   5.189302
                    6          7          8          9         10
     6  N    0.000000
     7  C    2.232856   0.000000
     8  N    1.355276   1.359613   0.000000
     9  C    2.414728   2.510524   1.424579   0.000000
    10  C    2.832815   3.708802   2.432870   1.396641   0.000000
    11  C    4.212884   4.891117   3.703858   2.404543   1.392864
    12  C    5.029447   5.167592   4.204748   2.780183   2.421802
    13  C    4.799547   4.383695   3.709616   2.405629   2.796149
    14  C    3.651422   3.003829   2.440808   1.396735   2.431816
    15  C    5.484187   3.632425   4.935659   5.963675   7.130464
    16  C    6.229077   4.287444   5.646431   6.652570   7.925947
    17  C    7.195033   5.079417   6.414282   7.214094   8.540753
    18  C    7.481271   5.296447   6.550090   7.156408   8.435941
    19  C    6.876565   4.790356   5.955583   6.530837   7.701796
    20  C    5.852793   3.935598   5.113147   5.897449   7.005378
    21  O    5.760786   4.763594   5.842353   7.172258   8.122323
    22  H    3.794095   3.322657   4.141928   5.557281   6.454974
    23  H    3.254875   1.075540   2.147780   2.850489   4.175980
    24  H    2.508701   3.955657   2.637613   2.144753   1.081630
    25  H    4.862463   5.821766   4.573791   3.386115   2.143699
[...]
 Alpha virt. eigenvalues --    2.56235   2.57028   2.57679   2.58486   2.62139
 Alpha virt. eigenvalues --    2.62777   2.64239   2.64952   2.66579   2.68812
 Alpha virt. eigenvalues --    2.69739   2.71155   2.71902   2.72496   2.73920
 Alpha virt. eigenvalues --    2.74307   2.75516   2.76990   2.79222   2.82984
 Alpha virt. eigenvalues --    2.85383   2.87992   2.99319   3.02072   3.06581
 Alpha virt. eigenvalues --    3.12928   3.25495   3.36577   3.41876   3.61220
 Alpha virt. eigenvalues --    3.77557   3.94037   3.96438   4.02845   4.06556
 Alpha virt. eigenvalues --    4.07203   4.07966   4.10001   4.11530   4.13074
 Alpha virt. eigenvalues --    4.15316   4.17148   4.24537   4.31217   4.31535
 Alpha virt. eigenvalues --    4.34987   4.38831   4.47059   4.64742   4.70623
          Condensed to atoms (all electrons):
               1          2          3          4          5          6
     1  O    8.235088   0.428811  -0.056731   0.010776  -0.000393   0.000001
     2  S    0.428811  13.695749   0.109450  -0.009603  -0.002792   0.000196
     3  N   -0.056731   0.109450   7.422240   0.254842  -0.070516   0.006945
     4  C    0.010776  -0.009603   0.254842   4.641457   0.384027  -0.076290
     5  N   -0.000393  -0.002792  -0.070516   0.384027   6.873924   0.297145
     6  N    0.000001   0.000196   0.006945  -0.076290   0.297145   6.756673
     7  C   -0.000788  -0.002504  -0.061086   0.493077  -0.069814  -0.097521
     8  N   -0.000062  -0.000113   0.002556  -0.043401  -0.090893   0.218850
     9  C   -0.000001  -0.000024  -0.000098   0.005792   0.007353  -0.044629
    10  C    0.000000   0.000000   0.000000  -0.000475   0.000327  -0.000775
    11  C    0.000000   0.000000   0.000000   0.000006  -0.000006   0.000328
    12  C    0.000000   0.000000   0.000000   0.000000   0.000000   0.000018
    13  C    0.000000   0.000000   0.000000  -0.000010   0.000002  -0.000067
    14  C    0.000000  -0.000001   0.000003   0.000949  -0.000375   0.002975
    15  C   -0.060184   0.192313  -0.054101  -0.009166  -0.000005   0.000006
    16  C    0.001740  -0.020427   0.000685   0.000170   0.000000   0.000000
    17  C   -0.000047   0.002204  -0.000017  -0.000018   0.000000   0.000000
    18  C   -0.000005  -0.000359   0.000013   0.000005   0.000000   0.000000
    19  C    0.000660   0.003708  -0.000122   0.000030   0.000000   0.000000
    20  C    0.002286  -0.032942   0.000092   0.000053   0.000006   0.000000
    21  O   -0.041377   0.453286  -0.051763   0.001348   0.000012   0.000000
    22  H   -0.000205  -0.009990   0.295263  -0.029227   0.004650  -0.000074
    23  H   -0.000027   0.000414  -0.000301  -0.027439   0.004234   0.003480
    24  H    0.000000   0.000000   0.000000   0.000049  -0.000367   0.016750
    25  H    0.000000   0.000000   0.000000   0.000000   0.000000  -0.000008
    26  H    0.000000   0.000000   0.000000   0.000000   0.000000   0.000000
    27  H    0.000000   0.000000   0.000000   0.000000   0.000000   0.000001
    28  H    0.000000  -0.000003  -0.000002   0.000099  -0.000008  -0.000093
    29  H    0.000061  -0.000880   0.002955   0.000161   0.000001   0.000000
    30  H    0.000000  -0.000062   0.000000   0.000000   0.000000   0.000000
    31  H    0.000000   0.000008   0.000000   0.000000   0.000000   0.000000
    32  H    0.000003  -0.000081   0.000001   0.000000   0.000000   0.000000
    33  H    0.012190  -0.007160   0.000244  -0.000050   0.000000   0.000000
               7          8          9         10         11         12
     1  O   -0.000788  -0.000062  -0.000001   0.000000   0.000000   0.000000
     2  S   -0.002504  -0.000113  -0.000024   0.000000   0.000000   0.000000
     3  N   -0.061086   0.002556  -0.000098   0.000000   0.000000   0.000000
     4  C    0.493077  -0.043401   0.005792  -0.000475   0.000006   0.000000
     5  N   -0.069814  -0.090893   0.007353   0.000327  -0.000006   0.000000
     6  N   -0.097521   0.218850  -0.044629  -0.000775   0.000328   0.000018
     7  C    5.034173   0.331236  -0.036794   0.007830  -0.000085   0.000020
     8  N    0.331236   6.902469   0.201338  -0.057801   0.004616   0.000358
     9  C   -0.036794   0.201338   4.620634   0.518005  -0.010113  -0.038149
    10  C    0.007830  -0.057801   0.518005   4.989272   0.518384  -0.038231
    11  C   -0.000085   0.004616  -0.010113   0.518384   4.873291   0.541156
    12  C    0.000020   0.000358  -0.038149  -0.038231   0.541156   4.858290
    13  C   -0.000036   0.004638  -0.008393  -0.041378  -0.023626   0.547891
    14  C   -0.007385  -0.051201   0.528045  -0.073339  -0.042441  -0.040359
    15  C    0.003368   0.000049  -0.000001   0.000000   0.000000   0.000000
    16  C    0.000229   0.000003   0.000000   0.000000   0.000000   0.000000
    17  C    0.000000   0.000000   0.000000   0.000000   0.000000   0.000000
    18  C   -0.000022   0.000000   0.000000   0.000000   0.000000   0.000000
    19  C   -0.000165  -0.000001   0.000000   0.000000   0.000000   0.000000
    20  C   -0.000303   0.000003  -0.000001   0.000000   0.000000   0.000000
    21  O   -0.000049   0.000000   0.000000   0.000000   0.000000   0.000000
    22  H    0.004673   0.000082  -0.000001   0.000000   0.000000   0.000000
    23  H    0.358142  -0.034742  -0.001806  -0.000099  -0.000004  -0.000002
    24  H    0.000277  -0.014128  -0.036733   0.355545  -0.039069   0.004414
    25  H    0.000001  -0.000106   0.003485  -0.037916   0.362574  -0.040224
    26  H    0.000000   0.000003   0.000509   0.004638  -0.041655   0.364593
    27  H   -0.000003  -0.000110   0.003463   0.000765   0.004464  -0.039470
    28  H    0.005894  -0.009598  -0.040877   0.005342   0.000253   0.004370
    29  H   -0.000020   0.000000   0.000000   0.000000   0.000000   0.000000
    30  H    0.000000   0.000000   0.000000   0.000000   0.000000   0.000000
    31  H    0.000000   0.000000   0.000000   0.000000   0.000000   0.000000
    32  H   -0.000003   0.000000   0.000000   0.000000   0.000000   0.000000
    33  H   -0.000081   0.000000   0.000000   0.000000   0.000000   0.000000
              13         14         15         16         17         18
     1  O    0.000000   0.000000  -0.060184   0.001740  -0.000047  -0.000005
     2  S    0.000000  -0.000001   0.192313  -0.020427   0.002204  -0.000359
     3  N    0.000000   0.000003  -0.054101   0.000685  -0.000017   0.000013
     4  C   -0.000010   0.000949  -0.009166   0.000170  -0.000018   0.000005
     5  N    0.000002  -0.000375  -0.000005   0.000000   0.000000   0.000000
     6  N   -0.000067   0.002975   0.000006   0.000000   0.000000   0.000000
     7  C   -0.000036  -0.007385   0.003368   0.000229   0.000000  -0.000022
     8  N    0.004638  -0.051201   0.000049   0.000003   0.000000   0.000000
     9  C   -0.008393   0.528045  -0.000001   0.000000   0.000000   0.000000
    10  C   -0.041378  -0.073339   0.000000   0.000000   0.000000   0.000000
    11  C   -0.023626  -0.042441   0.000000   0.000000   0.000000   0.000000
    12  C    0.547891  -0.040359   0.000000   0.000000   0.000000   0.000000
    13  C    4.849665   0.529833   0.000000   0.000000   0.000000   0.000000
    14  C    0.529833   4.996213   0.000001   0.000000   0.000000   0.000000
    15  C    0.000000   0.000001   5.341014   0.466339  -0.026424  -0.038913
    16  C    0.000000   0.000000   0.466339   4.924809   0.520539  -0.030724
    17  C    0.000000   0.000000  -0.026424   0.520539   4.874620   0.537883
    18  C    0.000000   0.000000  -0.038913  -0.030724   0.537883   4.848498
    19  C    0.000000   0.000000  -0.032103  -0.037479  -0.029574   0.543103
    20  C    0.000000   0.000001   0.515516  -0.034631  -0.039327  -0.030350
    21  O    0.000000   0.000000  -0.060723   0.001652   0.000205  -0.000005
    22  H    0.000000   0.000000   0.002644  -0.000040   0.000003   0.000000
    23  H    0.000181   0.002359   0.001179  -0.000043  -0.000011   0.000043
    24  H    0.000111   0.005590   0.000000   0.000000   0.000000   0.000000
    25  H    0.004493   0.000761   0.000000   0.000000   0.000000   0.000000
    26  H   -0.041457   0.004954   0.000000   0.000000   0.000000   0.000000
    27  H    0.361987  -0.038156   0.000000   0.000000   0.000000   0.000000
    28  H   -0.035626   0.351083  -0.000002   0.000000   0.000000   0.000000
    29  H    0.000000   0.000000  -0.050413   0.364932  -0.035105   0.004220
    30  H    0.000000   0.000000   0.004795  -0.040617   0.365511  -0.040115
    31  H    0.000000   0.000000   0.000474   0.004839  -0.040997   0.364475
    32  H    0.000000   0.000000   0.004770   0.000671   0.004269  -0.040352
    33  H    0.000000   0.000000  -0.043347   0.004852   0.000232   0.004119
              19         20         21         22         23         24
     1  O    0.000660   0.002286  -0.041377  -0.000205  -0.000027   0.000000
     2  S    0.003708  -0.032942   0.453286  -0.009990   0.000414   0.000000
     3  N   -0.000122   0.000092  -0.051763   0.295263  -0.000301   0.000000
     4  C    0.000030   0.000053   0.001348  -0.029227  -0.027439   0.000049
     5  N    0.000000   0.000006   0.000012   0.004650   0.004234  -0.000367
     6  N    0.000000   0.000000   0.000000  -0.000074   0.003480   0.016750
     7  C   -0.000165  -0.000303  -0.000049   0.004673   0.358142   0.000277
     8  N   -0.000001   0.000003   0.000000   0.000082  -0.034742  -0.014128
     9  C    0.000000  -0.000001   0.000000  -0.000001  -0.001806  -0.036733
    10  C    0.000000   0.000000   0.000000   0.000000  -0.000099   0.355545
    11  C    0.000000   0.000000   0.000000   0.000000  -0.000004  -0.039069
    12  C    0.000000   0.000000   0.000000   0.000000  -0.000002   0.004414
    13  C    0.000000   0.000000   0.000000   0.000000   0.000181   0.000111
    14  C    0.000000   0.000001   0.000000   0.000000   0.002359   0.005590
    15  C   -0.032103   0.515516  -0.060723   0.002644   0.001179   0.000000
    16  C   -0.037479  -0.034631   0.001652  -0.000040  -0.000043   0.000000
    17  C   -0.029574  -0.039327   0.000205   0.000003  -0.000011   0.000000
    18  C    0.543103  -0.030350  -0.000005   0.000000   0.000043   0.000000
    19  C    4.888164   0.501063  -0.000044   0.000002   0.000297   0.000000
    20  C    0.501063   4.935050  -0.000200  -0.000037   0.002028   0.000000
    21  O   -0.000044  -0.000200   8.244895   0.004391   0.000001   0.000000
    22  H    0.000002  -0.000037   0.004391   0.337514  -0.000098   0.000000
    23  H    0.000297   0.002028   0.000001  -0.000098   0.487312  -0.000011
    24  H    0.000000   0.000000   0.000000   0.000000  -0.000011   0.535932
    25  H    0.000000   0.000000   0.000000   0.000000   0.000000  -0.005026
    26  H    0.000000   0.000000   0.000000   0.000000   0.000000  -0.000135
    27  H    0.000000   0.000000   0.000000   0.000000  -0.000002   0.000013
    28  H   -0.000001  -0.000004   0.000000   0.000000   0.001903  -0.000136
    29  H    0.000330   0.004427   0.002369  -0.000161   0.000006   0.000000
    30  H    0.004298   0.000617   0.000001   0.000000   0.000000   0.000000
    31  H   -0.041037   0.004765   0.000000   0.000000   0.000000   0.000000
    32  H    0.366337  -0.041560   0.000000   0.000000   0.000004   0.000000
    33  H   -0.035380   0.361117   0.000042  -0.000004   0.000019   0.000000
              25         26         27         28         29         30
     1  O    0.000000   0.000000   0.000000   0.000000   0.000061   0.000000
     2  S    0.000000   0.000000   0.000000  -0.000003  -0.000880  -0.000062
     3  N    0.000000   0.000000   0.000000  -0.000002   0.002955   0.000000
     4  C    0.000000   0.000000   0.000000   0.000099   0.000161   0.000000
     5  N    0.000000   0.000000   0.000000  -0.000008   0.000001   0.000000
     6  N   -0.000008   0.000000   0.000001  -0.000093   0.000000   0.000000
     7  C    0.000001   0.000000  -0.000003   0.005894  -0.000020   0.000000
     8  N   -0.000106   0.000003  -0.000110  -0.009598   0.000000   0.000000
     9  C    0.003485   0.000509   0.003463  -0.040877   0.000000   0.000000
    10  C   -0.037916   0.004638   0.000765   0.005342   0.000000   0.000000
    11  C    0.362574  -0.041655   0.004464   0.000253   0.000000   0.000000
    12  C   -0.040224   0.364593  -0.039470   0.004370   0.000000   0.000000
    13  C    0.004493  -0.041457   0.361987  -0.035626   0.000000   0.000000
    14  C    0.000761   0.004954  -0.038156   0.351083   0.000000   0.000000
    15  C    0.000000   0.000000   0.000000  -0.000002  -0.050413   0.004795
    16  C    0.000000   0.000000   0.000000   0.000000   0.364932  -0.040617
    17  C    0.000000   0.000000   0.000000   0.000000  -0.035105   0.365511
    18  C    0.000000   0.000000   0.000000   0.000000   0.004220  -0.040115
    19  C    0.000000   0.000000   0.000000  -0.000001   0.000330   0.004298
    20  C    0.000000   0.000000   0.000000  -0.000004   0.004427   0.000617
    21  O    0.000000   0.000000   0.000000   0.000000   0.002369   0.000001
    22  H    0.000000   0.000000   0.000000   0.000000  -0.000161   0.000000
    23  H    0.000000   0.000000  -0.000002   0.001903   0.000006   0.000000
    24  H   -0.005026  -0.000135   0.000013  -0.000136   0.000000   0.000000
    25  H    0.559472  -0.005145  -0.000170   0.000014   0.000000   0.000000
    26  H   -0.005145   0.565227  -0.005167  -0.000153   0.000000   0.000000
    27  H   -0.000170  -0.005167   0.560165  -0.005299   0.000000   0.000000
    28  H    0.000014  -0.000153  -0.005299   0.562850   0.000000   0.000000
    29  H    0.000000   0.000000   0.000000   0.000000   0.532371  -0.005233
    30  H    0.000000   0.000000   0.000000   0.000000  -0.005233   0.551314
    31  H    0.000000   0.000000   0.000000   0.000000  -0.000145  -0.005115
    32  H    0.000000   0.000000   0.000000   0.000000   0.000014  -0.000159
    33  H    0.000000   0.000000   0.000000   0.000000  -0.000143   0.000013
              31         32         33
     1  O    0.000000   0.000003   0.012190
     2  S    0.000008  -0.000081  -0.007160
     3  N    0.000000   0.000001   0.000244
     4  C    0.000000   0.000000  -0.000050
     5  N    0.000000   0.000000   0.000000
     6  N    0.000000   0.000000   0.000000
     7  C    0.000000  -0.000003  -0.000081
     8  N    0.000000   0.000000   0.000000
     9  C    0.000000   0.000000   0.000000
    10  C    0.000000   0.000000   0.000000
    11  C    0.000000   0.000000   0.000000
    12  C    0.000000   0.000000   0.000000
    13  C    0.000000   0.000000   0.000000
    14  C    0.000000   0.000000   0.000000
    15  C    0.000474   0.004770  -0.043347
    16  C    0.004839   0.000671   0.004852
    17  C   -0.040997   0.004269   0.000232
    18  C    0.364475  -0.040352   0.004119
    19  C   -0.041037   0.366337  -0.035380
    20  C    0.004765  -0.041560   0.361117
    21  O    0.000000   0.000000   0.000042
    22  H    0.000000   0.000000  -0.000004
    23  H    0.000000   0.000004   0.000019
    24  H    0.000000   0.000000   0.000000
    25  H    0.000000   0.000000   0.000000
    26  H    0.000000   0.000000   0.000000
    27  H    0.000000   0.000000   0.000000
    28  H    0.000000   0.000000   0.000000
    29  H   -0.000145   0.000014  -0.000143
    30  H   -0.005115  -0.000159   0.000013
    31  H    0.554787  -0.005244  -0.000136
    32  H   -0.005244   0.551842  -0.004831
    33  H   -0.000136  -0.004831   0.519720
 Mulliken charges:
               1
     1  O   -0.531797
     2  S    1.200800
     3  N   -0.800552
     4  C    0.402837
     5  N   -0.336511
     6  N   -0.083910
     7  C    0.037739
     8  N   -0.364047
     9  C    0.328997
    10  C   -0.150093
    11  C   -0.148075
    12  C   -0.124676
    13  C   -0.148207
    14  C   -0.169512
    15  C   -0.157084
    16  C   -0.127499
    17  C   -0.133946
    18  C   -0.121515
    19  C   -0.132087
    20  C   -0.147669
    21  O   -0.554041
    22  H    0.390617
    23  H    0.202980
    24  H    0.176924
    25  H    0.157792
    26  H    0.153786
    27  H    0.157521
    28  H    0.159992
    29  H    0.180254
    30  H    0.164753
    31  H    0.163326
    32  H    0.164320
    33  H    0.188582
 Sum of Mulliken charges =   0.00000
 Mulliken charges with hydrogens summed into heavy atoms:
               1
     1  O   -0.531797
     2  S    1.200800
     3  N   -0.409936
     4  C    0.402837
     5  N   -0.336511
     6  N   -0.083910
     7  C    0.240720
     8  N   -0.364047
     9  C    0.328997
    10  C    0.026831
    11  C    0.009718
    12  C    0.029110
    13  C    0.009313
    14  C   -0.009520
    15  C   -0.157084
    16  C    0.052755
    17  C    0.030806
    18  C    0.041811
    19  C    0.032233
    20  C    0.040914
    21  O   -0.554041
 Electronic spatial extent (au):  <R**2>=           7720.3612
 Charge=              0.0000 electrons
 Dipole moment (field-independent basis, Debye):
    X=             -2.7212    Y=              9.0460    Z=             -2.2029  Tot=              9.6999
 Quadrupole moment (field-independent basis, Debye-Ang):
   XX=           -117.2670   YY=           -123.5586   ZZ=           -125.8525
   XY=              6.8495   XZ=            -11.3396   YZ=              2.2212
 Traceless Quadrupole moment (field-independent basis, Debye-Ang):
   XX=              4.9591   YY=             -1.3326   ZZ=             -3.6265
   XY=              6.8495   XZ=            -11.3396   YZ=              2.2212
 Octapole moment (field-independent basis, Debye-Ang**2):
  XXX=           -136.6822  YYY=             64.5209  ZZZ=             -4.0385  XYY=             19.9434
  XXY=             84.8799  XXZ=              0.8026  XZZ=             21.9359  YZZ=              5.2484
  YYZ=             -8.5280  XYZ=             16.4218
 Hexadecapole moment (field-independent basis, Debye-Ang**3):
 XXXX=          -7011.3295 YYYY=          -2180.5562 ZZZZ=           -560.2858 XXXY=             21.9107
 XXXZ=           -266.7411 YYYX=              7.8930 YYYZ=              1.4842 ZZZX=            -21.4951
 ZZZY=             13.7441 XXYY=          -1530.6572 XXZZ=          -1334.5906 YYZZ=           -454.6913
 XXYZ=            -53.2072 YYXZ=            -34.3416 ZZXY=             30.0547
 N-N= 1.731897134454D+03 E-N=-6.524626777235D+03  KE= 1.298280565123D+03
 No NMR shielding tensors so no spin-rotation constants.
 Leave Link  601 at Thu Aug  6 21:13:45 2020, MaxMem=    33554432 cpu:         0.3
 (Enter /prod/apps/gaussian/g09d1/l9999.exe)
 1\1\GINC-PIRINEUS21\SP\RB3LYP\6-31G(d)\C14H12N4O2S1\UBAFAR01\06-Aug-20
 20\0\\#p b3lyp/6-31G(d) scrf=(iefpcm,read,solvent=n-Octanol) geom=allc
 heck guess=read\\SM45.n.9.pdb.xyz\\0,1\O,0,3.695,1.533,0.991\S,0,3.268
 ,0.334,0.262\N,0,2.977,-0.974,1.329\C,0,2.581,-0.707,2.649\N,0,3.403,-
 0.944,3.707\N,0,2.768,-0.648,4.809\C,0,1.375,-0.229,3.115\N,0,1.54,-0.
 19,4.464\C,0,0.619,0.238,5.463\C,0,1.104,0.629,6.713\C,0,0.202,1.046,7
 .689\C,0,-1.168,1.083,7.418\C,0,-1.637,0.692,6.164\C,0,-0.749,0.26,5.1
 82\C,0,1.643,0.659,-0.397\C,0,1.,-0.322,-1.155\C,0,-0.252,-0.038,-1.69
 3\C,0,-0.841,1.211,-1.475\C,0,-0.183,2.182,-0.72\C,0,1.072,1.911,-0.17
 4\O,0,4.123,-0.25,-0.776\H,0,3.78,-1.602,1.279\H,0,0.475,0.09,2.62\H,0
 ,2.169,0.602,6.9\H,0,0.574,1.35,8.661\H,0,-1.864,1.414,8.18\H,0,-2.699
 ,0.712,5.948\H,0,-1.116,-0.066,4.215\H,0,1.471,-1.285,-1.314\H,0,-0.76
 6,-0.789,-2.283\H,0,-1.816,1.427,-1.897\H,0,-0.643,3.15,-0.556\H,0,1.6
 11,2.644,0.414\\Version=AM64L-G09RevD.01\State=1-A\HF=-1308.2713197\RM
 SD=6.657e-09\Dipole=-3.8008812,0.2813895,0.1942621\Quadrupole=-5.18077
 71,-1.5336911,6.7144682,-3.2669004,5.3515117,5.8489232\PG=C01 [X(C14H1
 2N4O2S1)]\\@


 AND ALL THIS SCIENCE I DON'T UNDERSTAND
 IT'S JUST MY JOB FIVE DAYS A WEEK

                           -- ELTON JOHN, "ROCKET MAN"
 Job cpu time:       0 days  0 hours  3 minutes 50.8 seconds.
 File lengths (MBytes):  RWF=    259 Int=      0 D2E=      0 Chk=      7 Scr=      1
 Normal termination of Gaussian 09 at Thu Aug  6 21:13:45 2020.
