 Entering Gaussian System, Link 0=g09
 Initial command:
 /prod/apps/gaussian/g09d1/l1.exe "/tmp/ubafar01/1448542/Gau-111016.inp" -scrdir="/tmp/ubafar01/1448542/"
 Entering Link 1 = /prod/apps/gaussian/g09d1/l1.exe PID=    111018.
  
 Copyright (c) 1988,1990,1992,1993,1995,1998,2003,2009,2013,
            Gaussian, Inc.  All Rights Reserved.
  
 This is part of the Gaussian(R) 09 program.  It is based on
 the Gaussian(R) 03 system (copyright 2003, Gaussian, Inc.),
 the Gaussian(R) 98 system (copyright 1998, Gaussian, Inc.),
 the Gaussian(R) 94 system (copyright 1995, Gaussian, Inc.),
 the Gaussian 92(TM) system (copyright 1992, Gaussian, Inc.),
 the Gaussian 90(TM) system (copyright 1990, Gaussian, Inc.),
 the Gaussian 88(TM) system (copyright 1988, Gaussian, Inc.),
 the Gaussian 86(TM) system (copyright 1986, Carnegie Mellon
 University), and the Gaussian 82(TM) system (copyright 1983,
 Carnegie Mellon University). Gaussian is a federally registered
 trademark of Gaussian, Inc.
  
 This software contains proprietary and confidential information,
 including trade secrets, belonging to Gaussian, Inc.
  
 This software is provided under written license and may be
 used, copied, transmitted, or stored only in accord with that
 written license.
  
 The following legend is applicable only to US Government
 contracts under FAR:
  
                    RESTRICTED RIGHTS LEGEND
  
 Use, reproduction and disclosure by the US Government is
 subject to restrictions as set forth in subparagraphs (a)
 and (c) of the Commercial Computer Software - Restricted
 Rights clause in FAR 52.227-19.
  
 Gaussian, Inc.
 340 Quinnipiac St., Bldg. 40, Wallingford CT 06492
  
  
 ---------------------------------------------------------------
 Warning -- This program may not be used in any manner that
 competes with the business of Gaussian, Inc. or will provide
 assistance to any competitor of Gaussian, Inc.  The licensee
 of this program is prohibited from giving any competitor of
 Gaussian, Inc. access to this program.  By using this program,
 the user acknowledges that Gaussian, Inc. is engaged in the
 business of creating and licensing software in the field of
 computational chemistry and represents and warrants to the
 licensee that it is not a competitor of Gaussian, Inc. and that
 it will not use this program in any manner prohibited above.
 ---------------------------------------------------------------
  

 Cite this work as:
 Gaussian 09, Revision D.01,
 M. J. Frisch, G. W. Trucks, H. B. Schlegel, G. E. Scuseria, 
 M. A. Robb, J. R. Cheeseman, G. Scalmani, V. Barone, B. Mennucci, 
 G. A. Petersson, H. Nakatsuji, M. Caricato, X. Li, H. P. Hratchian, 
 A. F. Izmaylov, J. Bloino, G. Zheng, J. L. Sonnenberg, M. Hada, 
 M. Ehara, K. Toyota, R. Fukuda, J. Hasegawa, M. Ishida, T. Nakajima, 
 Y. Honda, O. Kitao, H. Nakai, T. Vreven, J. A. Montgomery, Jr., 
 J. E. Peralta, F. Ogliaro, M. Bearpark, J. J. Heyd, E. Brothers, 
 K. N. Kudin, V. N. Staroverov, T. Keith, R. Kobayashi, J. Normand, 
 K. Raghavachari, A. Rendell, J. C. Burant, S. S. Iyengar, J. Tomasi, 
 M. Cossi, N. Rega, J. M. Millam, M. Klene, J. E. Knox, J. B. Cross, 
 V. Bakken, C. Adamo, J. Jaramillo, R. Gomperts, R. E. Stratmann, 
 O. Yazyev, A. J. Austin, R. Cammi, C. Pomelli, J. W. Ochterski, 
 R. L. Martin, K. Morokuma, V. G. Zakrzewski, G. A. Voth, 
 P. Salvador, J. J. Dannenberg, S. Dapprich, A. D. Daniels, 
 O. Farkas, J. B. Foresman, J. V. Ortiz, J. Cioslowski, 
 and D. J. Fox, Gaussian, Inc., Wallingford CT, 2013.
 
 ******************************************
 Gaussian 09:  AM64L-G09RevD.01 24-Apr-2013
                 6-Aug-2020 
 ******************************************
 %nproc=1
 Will use up to    1 processors via shared memory.
 %Chk=SM45.n.6.pdb.xyz.mst.n.o.chk
 -----------------
 #p b3lyp/6-31G(d)
 -----------------
 1/38=1/1;
 2/12=2,17=6,18=5,40=1/2;
 3/5=1,6=6,7=1,11=2,16=1,25=1,30=1,74=-5/1,2,3;
 4//1;
 5/5=2,38=5/2;
 6/7=2,8=2,9=2,10=2,28=1/1;
 99/5=1,9=1/99;
 Leave Link    1 at Thu Aug  6 21:05:14 2020, MaxMem=           0 cpu:         0.0
 (Enter /prod/apps/gaussian/g09d1/l101.exe)
 ----------------
 SM45.n.6.pdb.xyz
 ----------------
 Symbolic Z-matrix:
 Charge =  0 Multiplicity = 1
 O                     3.074    -2.658    -0.344 
 S                     2.955    -2.557     1.113 
 N                     2.48     -0.942     1.378 
 C                     2.247    -0.475     2.684 
 N                     3.265    -0.034     3.479 
 N                     2.771     0.364     4.615 
 C                     1.058    -0.337     3.371 
 N                     1.421     0.198     4.562 
 C                     0.598     0.564     5.663 
 C                     1.159     0.633     6.94 
 C                     0.351     0.994     8.015 
 C                    -1.004     1.269     7.822 
 C                    -1.551     1.193     6.541 
 C                    -0.752     0.847     5.453 
 C                     1.6      -3.601     1.632 
 C                     0.598    -3.913     0.712 
 C                    -0.471    -4.704     1.125 
 C                    -0.529    -5.171     2.441 
 C                     0.484    -4.855     3.348 
 C                     1.561    -4.065     2.948 
 O                     4.086    -2.816     2.002 
 H                     1.8      -0.652     0.68 
 H                     0.04     -0.576     3.118 
 H                     2.209     0.408     7.071 
 H                     0.782     1.05      9.009 
 H                    -1.629     1.544     8.664 
 H                    -2.601     1.412     6.381 
 H                    -1.17      0.812     4.454 
 H                     0.674    -3.555    -0.308 
 H                    -1.253    -4.962     0.42 
 H                    -1.363    -5.788     2.757 
 H                     0.44     -5.228     4.365 
 H                     2.368    -3.824     3.628 
 
 NAtoms=     33 NQM=       33 NQMF=       0 NMMI=      0 NMMIF=      0
                NMic=       0 NMicF=      0.
                    Isotopes and Nuclear Properties:
 (Nuclear quadrupole moments (NQMom) in fm**2, nuclear magnetic moments (NMagM)
  in nuclear magnetons)

  Atom         1           2           3           4           5           6           7           8           9          10
 IAtWgt=          16          32          14          12          14          14          12          14          12          12
 AtmWgt=  15.9949146  31.9720718  14.0030740  12.0000000  14.0030740  14.0030740  12.0000000  14.0030740  12.0000000  12.0000000
 NucSpn=           0           0           2           0           2           2           0           2           0           0
 AtZEff=   0.0000000   0.0000000   0.0000000   0.0000000   0.0000000   0.0000000   0.0000000   0.0000000   0.0000000   0.0000000
 NQMom=    0.0000000   0.0000000   2.0440000   0.0000000   2.0440000   2.0440000   0.0000000   2.0440000   0.0000000   0.0000000
 NMagM=    0.0000000   0.0000000   0.4037610   0.0000000   0.4037610   0.4037610   0.0000000   0.4037610   0.0000000   0.0000000
 AtZNuc=   8.0000000  16.0000000   7.0000000   6.0000000   7.0000000   7.0000000   6.0000000   7.0000000   6.0000000   6.0000000

  Atom        11          12          13          14          15          16          17          18          19          20
 IAtWgt=          12          12          12          12          12          12          12          12          12          12
 AtmWgt=  12.0000000  12.0000000  12.0000000  12.0000000  12.0000000  12.0000000  12.0000000  12.0000000  12.0000000  12.0000000
 NucSpn=           0           0           0           0           0           0           0           0           0           0
 AtZEff=   0.0000000   0.0000000   0.0000000   0.0000000   0.0000000   0.0000000   0.0000000   0.0000000   0.0000000   0.0000000
 NQMom=    0.0000000   0.0000000   0.0000000   0.0000000   0.0000000   0.0000000   0.0000000   0.0000000   0.0000000   0.0000000
 NMagM=    0.0000000   0.0000000   0.0000000   0.0000000   0.0000000   0.0000000   0.0000000   0.0000000   0.0000000   0.0000000
 AtZNuc=   6.0000000   6.0000000   6.0000000   6.0000000   6.0000000   6.0000000   6.0000000   6.0000000   6.0000000   6.0000000

  Atom        21          22          23          24          25          26          27          28          29          30
 IAtWgt=          16           1           1           1           1           1           1           1           1           1
 AtmWgt=  15.9949146   1.0078250   1.0078250   1.0078250   1.0078250   1.0078250   1.0078250   1.0078250   1.0078250   1.0078250
 NucSpn=           0           1           1           1           1           1           1           1           1           1
 AtZEff=   0.0000000   0.0000000   0.0000000   0.0000000   0.0000000   0.0000000   0.0000000   0.0000000   0.0000000   0.0000000
 NQMom=    0.0000000   0.0000000   0.0000000   0.0000000   0.0000000   0.0000000   0.0000000   0.0000000   0.0000000   0.0000000
 NMagM=    0.0000000   2.7928460   2.7928460   2.7928460   2.7928460   2.7928460   2.7928460   2.7928460   2.7928460   2.7928460
 AtZNuc=   8.0000000   1.0000000   1.0000000   1.0000000   1.0000000   1.0000000   1.0000000   1.0000000   1.0000000   1.0000000

  Atom        31          32          33
 IAtWgt=           1           1           1
 AtmWgt=   1.0078250   1.0078250   1.0078250
 NucSpn=           1           1           1
 AtZEff=   0.0000000   0.0000000   0.0000000
 NQMom=    0.0000000   0.0000000   0.0000000
 NMagM=    2.7928460   2.7928460   2.7928460
 AtZNuc=   1.0000000   1.0000000   1.0000000
 Leave Link  101 at Thu Aug  6 21:05:14 2020, MaxMem=    33554432 cpu:         0.1
 (Enter /prod/apps/gaussian/g09d1/l202.exe)
                          Input orientation:                          
 ---------------------------------------------------------------------
 Center     Atomic      Atomic             Coordinates (Angstroms)
 Number     Number       Type             X           Y           Z
 ---------------------------------------------------------------------
      1          8           0        3.074000   -2.658000   -0.344000
      2         16           0        2.955000   -2.557000    1.113000
      3          7           0        2.480000   -0.942000    1.378000
      4          6           0        2.247000   -0.475000    2.684000
      5          7           0        3.265000   -0.034000    3.479000
      6          7           0        2.771000    0.364000    4.615000
      7          6           0        1.058000   -0.337000    3.371000
      8          7           0        1.421000    0.198000    4.562000
      9          6           0        0.598000    0.564000    5.663000
     10          6           0        1.159000    0.633000    6.940000
     11          6           0        0.351000    0.994000    8.015000
     12          6           0       -1.004000    1.269000    7.822000
     13          6           0       -1.551000    1.193000    6.541000
     14          6           0       -0.752000    0.847000    5.453000
     15          6           0        1.600000   -3.601000    1.632000
     16          6           0        0.598000   -3.913000    0.712000
     17          6           0       -0.471000   -4.704000    1.125000
     18          6           0       -0.529000   -5.171000    2.441000
     19          6           0        0.484000   -4.855000    3.348000
     20          6           0        1.561000   -4.065000    2.948000
     21          8           0        4.086000   -2.816000    2.002000
     22          1           0        1.800000   -0.652000    0.680000
     23          1           0        0.040000   -0.576000    3.118000
     24          1           0        2.209000    0.408000    7.071000
     25          1           0        0.782000    1.050000    9.009000
     26          1           0       -1.629000    1.544000    8.664000
     27          1           0       -2.601000    1.412000    6.381000
     28          1           0       -1.170000    0.812000    4.454000
     29          1           0        0.674000   -3.555000   -0.308000
     30          1           0       -1.253000   -4.962000    0.420000
     31          1           0       -1.363000   -5.788000    2.757000
     32          1           0        0.440000   -5.228000    4.365000
     33          1           0        2.368000   -3.824000    3.628000
 ---------------------------------------------------------------------
                    Distance matrix (angstroms):
                    1          2          3          4          5
     1  O    0.000000
     2  S    1.465336   0.000000
     3  N    2.502554   1.704135   0.000000
     4  C    3.823376   2.702597   1.406419   0.000000
     5  N    4.640817   3.472691   2.419688   1.364855   0.000000
     6  N    5.815150   4.564001   3.502640   2.169622   1.301129
     7  C    4.822087   3.691283   2.521935   1.380121   2.230319
     8  N    5.912527   4.673198   3.543859   2.159187   2.151058
     9  C    7.252304   5.999882   4.916420   3.559939   3.498621
    10  C    8.219158   6.881544   5.929714   4.530446   4.105928
    11  C    9.519701   8.187064   7.233983   5.845711   5.488486
    12  C    9.936547   8.678862   7.651922   6.325313   6.227666
    13  C    9.144619   7.989350   6.889394   5.664228   5.837399
    14  C    7.780007   6.645650   5.500179   4.290576   4.561702
    15  C    2.639413   1.787546   2.812329   3.361129   4.348232
    16  C    2.969973   2.748633   3.579430   4.292765   5.460386
    17  C    4.348690   4.043171   4.788011   5.263311   6.427123
    18  C    5.201250   4.553552   5.297970   5.460553   6.469981
    19  C    5.016550   4.047452   4.814196   4.767962   5.567150
    20  C    3.886654   2.754002   3.614221   3.664477   4.408462
    21  O    2.559848   1.461699   2.545680   3.054067   3.255011
    22  H    2.587603   2.269480   1.016712   2.060862   3.219091
    23  H    5.052259   4.054826   3.019132   2.251534   3.290093
    24  H    8.070366   6.696679   5.857149   4.475143   3.770008
    25  H   10.318970   8.948698   8.067430   6.669143   6.158023
    26  H   10.996321   9.739038   8.726389   7.406763   7.302434
    27  H    9.695161   8.624032   7.509187   6.382138   6.702423
    28  H    7.285138   6.287135   5.085351   4.057728   4.619044
    29  H    2.562402   2.866741   3.596109   4.573051   5.783778
    30  H    4.961355   4.896074   5.568972   6.124448   7.352210
    31  H    6.253005   5.638016   6.336719   6.423815   7.419446
    32  H    5.976415   4.902547   5.608348   5.355560   5.978566
    33  H    4.199378   2.876644   3.658001   3.481606   3.897552
                    6          7          8          9         10
     6  N    0.000000
     7  C    2.230091   0.000000
     8  N    1.361200   1.355166   0.000000
     9  C    2.420792   2.505327   1.422493   0.000000
    10  C    2.841924   3.699846   2.431615   1.396500   0.000000
    11  C    4.220581   4.882432   3.701584   2.403708   1.392412
    12  C    5.035325   5.161635   4.201817   2.779336   2.420948
    13  C    4.803790   4.381402   3.706649   2.405146   2.795872
    14  C    3.653363   3.002113   2.436598   1.395238   2.430820
    15  C    5.098113   3.737858   4.800973   5.882193   6.804124
    16  C    6.184502   4.479917   5.692113   6.675023   7.731030
    17  C    6.955235   5.143252   6.278713   7.034773   8.059447
    18  C    6.800919   5.172139   6.093218   6.673952   7.535036
    19  C    5.837261   4.554375   5.280585   5.893877   6.593651
    20  C    4.884571   3.785488   4.560457   5.452177   6.178096
    21  O    4.320809   4.145888   4.768650   6.082225   6.696773
    22  H    4.178435   2.809140   3.992000   5.268183   6.422593
    23  H    3.253148   1.075850   2.142749   2.843939   4.161914
    24  H    2.519864   3.945862   2.638205   2.145255   1.081798
    25  H    4.871751   5.812658   4.572749   3.386114   2.144010
    26  H    6.094818   6.226876   5.285889   3.863409   3.402211
    27  H    5.751125   5.050483   4.578105   3.386477   3.880325
    28  H    3.969648   2.730764   2.664947   2.156156   3.411228
    29  H    6.632639   4.902858   6.193538   7.254294   8.384991
    30  H    7.883963   5.953129   7.136669   7.839128   8.923686
    31  H    7.641284   5.995968   6.844040   7.255223   8.067665
    32  H    6.063541   5.029099   5.517485   5.937763   6.441965
    33  H    4.321565   3.733807   4.236231   5.150599   5.682946
                   11         12         13         14         15
    11  C    0.000000
    12  C    1.396030   0.000000
    13  C    2.414515   1.394972   0.000000
    14  C    2.793217   2.419452   1.393507   0.000000
    15  C    7.963461   8.295409   7.550465   6.317962   0.000000
    16  C    8.801901   8.942686   8.041559   6.852531   1.395617
    17  C    8.978585   8.989473   8.079237   7.044441   2.400562
    18  C    8.357697   8.405616   7.639043   6.733364   2.766229
    19  C    7.483941   7.728790   7.135459   6.202542   2.400547
    20  C    7.261685   7.667246   7.088071   5.979359   1.395949
    21  O    8.038812   8.744583   8.273474   6.980918   2.633120
    22  H    7.655791   7.909540   6.998896   5.616158   3.105303
    23  H    5.151915   5.159610   4.168641   2.846826   3.713815
    24  H    2.164878   3.410087   3.877464   3.402670   6.784223
    25  H    1.084865   2.155627   3.399171   3.878080   8.759056
    26  H    2.155018   1.084073   2.153233   3.400803   9.292281
    27  H    3.399851   2.155769   1.084463   2.144577   8.082795
    28  H    3.876504   3.402915   2.155433   1.083490   5.925466
    29  H    9.490525   9.601227   8.625713   7.389195   2.150161
    30  H    9.784211   9.678686   8.685590   7.702374   3.385391
    31  H    8.750993   8.693926   7.942818   7.187834   3.850709
    32  H    7.214132   7.499800   7.065996   6.285717   3.385560
    33  H    6.821084   7.409364   7.001030   5.906206   2.150249
                   16         17         18         19         20
    16  C    0.000000
    17  C    1.392484   0.000000
    18  C    2.417051   1.397608   0.000000
    19  C    2.801581   2.424161   1.395949   0.000000
    20  C    2.439297   2.803689   2.418343   1.394284   0.000000
    21  O    3.877325   5.009982   5.199709   4.352429   2.971623
    22  H    3.475622   4.666280   5.380216   5.149300   4.104816
    23  H    4.151598   4.612326   4.679328   4.308118   3.809916
    24  H    7.855141   8.286728   7.749760   6.673494   6.117742
    25  H    9.669821   9.840527   9.141017   8.185643   7.969052
    26  H    9.898115   9.859766   9.221006   8.583229   8.620304
    27  H    8.409922   8.340737   7.946866   7.615222   7.687995
    28  H    6.281243   6.480517   6.345025   6.006150   5.788914
    29  H    1.083670   2.164420   3.408176   3.884898   3.412976
    30  H    2.147526   1.084026   2.156919   3.406142   3.887671
    31  H    3.397524   2.152706   1.084482   2.152017   3.399263
    32  H    3.885691   3.406185   2.154991   1.084137   2.148744
    33  H    3.412313   3.885786   3.408223   2.165829   1.082465
                   21         22         23         24         25
    21  O    0.000000
    22  H    3.414144   0.000000
    23  H    4.757433   3.007860   0.000000
    24  H    6.293812   6.491207   4.615087   0.000000
    25  H    8.657969   8.561855   6.156161   2.490851   0.000000
    26  H    9.800667   8.962406   6.167502   4.307945   2.485152
    27  H    9.042544   7.492016   4.644803   4.961876   4.299083
    28  H    6.841069   5.020684   2.274981   4.292965   4.961348
    29  H    4.186164   3.266715   4.584089   8.515353  10.393468
    30  H    5.967660   5.288148   5.309242   9.222697  10.679714
    31  H    6.252552   6.379420   5.409591   8.352257   9.510351
    32  H    4.969389   6.030639   4.832816   6.497407   7.816456
    33  H    2.571277   4.367483   4.028547   5.457962   7.431449
                   26         27         28         29         30
    26  H    0.000000
    27  H    2.484813   0.000000
    28  H    4.297744   2.474084   0.000000
    29  H   10.573571   8.952063   6.719202   0.000000
    30  H   10.508708   8.830544   7.044084   2.494587   0.000000
    31  H    9.419216   8.155122   6.817408   4.304635   2.481118
    32  H    8.283849   7.576380   6.251529   4.968965   4.301166
    33  H    8.375723   7.725650   5.890010   4.293494   4.969703
                   31         32         33
    31  H    0.000000
    32  H    2.479934   0.000000
    33  H    4.305380   2.496311   0.000000
 Stoichiometry    C14H12N4O2S
 Framework group  C1[X(C14H12N4O2S)]
 Deg. of freedom    93
 Full point group                 C1      NOp   1
 Largest Abelian subgroup         C1      NOp   1
 Largest concise Abelian subgroup C1      NOp   1
                         Standard orientation:                         
 ---------------------------------------------------------------------
 Center     Atomic      Atomic             Coordinates (Angstroms)
 Number     Number       Type             X           Y           Z
 ---------------------------------------------------------------------
      1          8           0       -3.956067   -1.484226   -0.769519
      2         16           0       -2.768636   -1.159797    0.025443
      3          7           0       -1.466144   -1.650212   -0.957962
      4          6           0       -0.140725   -1.473457   -0.522034
      5          7           0        0.471499   -2.380002    0.294170
      6          7           0        1.692259   -1.989295    0.517842
      7          6           0        0.757631   -0.468796   -0.819267
      8          7           0        1.888899   -0.828690   -0.165672
      9          6           0        3.146120   -0.164315   -0.127112
     10          6           0        4.008539   -0.399268    0.945847
     11          6           0        5.239401    0.250875    0.979054
     12          6           0        5.600751    1.136282   -0.037990
     13          6           0        4.727554    1.363279   -1.101920
     14          6           0        3.498306    0.709191   -1.156501
     15          6           0       -2.675553    0.618436    0.182110
     16          6           0       -3.307193    1.413992   -0.774900
     17          6           0       -3.211195    2.798970   -0.667042
     18          6           0       -2.491283    3.371018    0.385477
     19          6           0       -1.869736    2.561847    1.338156
     20          6           0       -1.958565    1.173624    1.243415
     21          8           0       -2.540599   -1.738558    1.348167
     22          1           0       -1.644409   -1.411071   -1.929938
     23          1           0        0.676272    0.429335   -1.405949
     24          1           0        3.707312   -1.082245    1.728848
     25          1           0        5.913513    0.071208    1.809853
     26          1           0        6.558135    1.643660   -0.003387
     27          1           0        5.003307    2.043963   -1.899848
     28          1           0        2.829980    0.865527   -1.994862
     29          1           0       -3.875359    0.948118   -1.571448
     30          1           0       -3.703208    3.430690   -1.397771
     31          1           0       -2.420991    4.450245    0.465659
     32          1           0       -1.320974    3.010174    2.158654
     33          1           0       -1.501974    0.526742    1.981520
 ---------------------------------------------------------------------
 Rotational constants (GHZ):      0.5052818      0.1661686      0.1394641
 Leave Link  202 at Thu Aug  6 21:05:14 2020, MaxMem=    33554432 cpu:         0.0
 (Enter /prod/apps/gaussian/g09d1/l301.exe)
 Standard basis: 6-31G(d) (6D, 7F)
 Ernie: Thresh=  0.10000D-02 Tol=  0.10000D-05 Strict=F.
 There are   343 symmetry adapted cartesian basis functions of A   symmetry.
 There are   343 symmetry adapted basis functions of A   symmetry.
   343 basis functions,   660 primitive gaussians,   343 cartesian basis functions
    78 alpha electrons       78 beta electrons
       nuclear repulsion energy      1739.0071226958 Hartrees.
 IExCor=  402 DFT=T Ex+Corr=B3LYP ExCW=0 ScaHFX=  0.200000
 ScaDFX=  0.800000  0.720000  1.000000  0.810000 ScalE2=  1.000000  1.000000
 IRadAn=      0 IRanWt=     -1 IRanGd=            0 ICorTp=0 IEmpDi=  4
 NAtoms=   33 NActive=   33 NUniq=   33 SFac= 1.00D+00 NAtFMM=   60 NAOKFM=F Big=F
 Integral buffers will be    131072 words long.
 Raffenetti 2 integral format.
 Two-electron integral symmetry is turned on.
 Leave Link  301 at Thu Aug  6 21:05:14 2020, MaxMem=    33554432 cpu:         0.0
 (Enter /prod/apps/gaussian/g09d1/l302.exe)
 NPDir=0 NMtPBC=     1 NCelOv=     1 NCel=       1 NClECP=     1 NCelD=      1
         NCelK=      1 NCelE2=     1 NClLst=     1 CellRange=     0.0.
 One-electron integrals computed using PRISM.
 NBasis=   343 RedAO= T EigKep=  4.65D-04  NBF=   343
 NBsUse=   343 1.00D-06 EigRej= -1.00D+00 NBFU=   343
 Precomputing XC quadrature grid using
 IXCGrd= 4 IRadAn=           0 IRanWt=          -1 IRanGd=           0 AccXCQ= 0.00D+00.
 Generated NRdTot=       0 NPtTot=           0 NUsed=           0 NTot=          32
 NSgBfM=   341   341   341   341   341 MxSgAt=    33 MxSgA2=    33.
 Leave Link  302 at Thu Aug  6 21:05:15 2020, MaxMem=    33554432 cpu:         1.3
 (Enter /prod/apps/gaussian/g09d1/l303.exe)
 DipDrv:  MaxL=1.
 Leave Link  303 at Thu Aug  6 21:05:15 2020, MaxMem=    33554432 cpu:         0.0
 (Enter /prod/apps/gaussian/g09d1/l401.exe)
 ExpMin= 1.17D-01 ExpMax= 2.19D+04 ExpMxC= 3.30D+03 IAcc=1 IRadAn=         1 AccDes= 0.00D+00
 Harris functional with IExCor=  402 and IRadAn=       1 diagonalized for initial guess.
 HarFok:  IExCor=  402 AccDes= 0.00D+00 IRadAn=         1 IDoV= 1 UseB2=F ITyADJ=14
 ICtDFT=  3500011 ScaDFX=  1.000000  1.000000  1.000000  1.000000
 FoFCou: FMM=F IPFlag=           0 FMFlag=      100000 FMFlg1=           0
         NFxFlg=           0 DoJE=T BraDBF=F KetDBF=T FulRan=T
         wScrn=  0.000000 ICntrl=     500 IOpCl=  0 I1Cent=   200000004 NGrid=           0
         NMat0=    1 NMatS0=      1 NMatT0=    0 NMatD0=    1 NMtDS0=    0 NMtDT0=    0
 Petite list used in FoFCou.
 Harris En= -1308.25407528616    
 JPrj=0 DoOrth=F DoCkMO=F.
 Leave Link  401 at Thu Aug  6 21:05:19 2020, MaxMem=    33554432 cpu:         3.6
 (Enter /prod/apps/gaussian/g09d1/l502.exe)
 Closed shell SCF:
 Using DIIS extrapolation, IDIIS=  1040.
 Integral symmetry usage will be decided dynamically.
 IVT=      376131 IEndB=      376131 NGot=    33554432 MDV=    33312934
 LenX=    33312934 LenY=    33194844
 Requested convergence on RMS density matrix=1.00D-08 within 128 cycles.
 Requested convergence on MAX density matrix=1.00D-06.
 Requested convergence on             energy=1.00D-06.
 No special actions if energy rises.
 Fock matrices will be formed incrementally for  20 cycles.
 Integral accuracy reduced to 1.0D-05 until final iterations.

 Cycle   1  Pass 0  IDiag  1:
 FoFJK:  IHMeth= 1 ICntrl=       0 DoSepK=F KAlg= 0 I1Cent=   0 FoldK=F
 IRaf= 720000000 NMat=   1 IRICut=       1 DoRegI=T DoRafI=F ISym2E= 0.
 FoFCou: FMM=F IPFlag=           0 FMFlag=      100000 FMFlg1=           0
         NFxFlg=           0 DoJE=F BraDBF=F KetDBF=F FulRan=T
         wScrn=  0.000000 ICntrl=       0 IOpCl=  0 I1Cent=           0 NGrid=           0
         NMat0=    1 NMatS0=      1 NMatT0=    0 NMatD0=    1 NMtDS0=    0 NMtDT0=    0
 Symmetry not used in FoFCou.
 E= -1307.64164003222    
 DIIS: error= 3.04D-02 at cycle   1 NSaved=   1.
 NSaved= 1 IEnMin= 1 EnMin= -1307.64164003222     IErMin= 1 ErrMin= 3.04D-02
 ErrMax= 3.04D-02  0.00D+00 EMaxC= 1.00D-01 BMatC= 6.73D-01 BMatP= 6.73D-01
 IDIUse=3 WtCom= 6.96D-01 WtEn= 3.04D-01
 Coeff-Com:  0.100D+01
 Coeff-En:   0.100D+01
 Coeff:      0.100D+01
 Gap=     0.271 Goal=   None    Shift=    0.000
 GapD=    0.271 DampG=1.000 DampE=0.500 DampFc=0.5000 IDamp=-1.
 Damping current iteration by 5.00D-01
 RMSDP=6.43D-03 MaxDP=5.89D-01              OVMax= 2.38D-01

 Cycle   2  Pass 0  IDiag  1:
 RMSU=  3.21D-03    CP:  9.92D-01
 E= -1307.75816871001     Delta-E=       -0.116528677795 Rises=F Damp=T
 DIIS: error= 1.51D-02 at cycle   2 NSaved=   2.
 NSaved= 2 IEnMin= 2 EnMin= -1307.75816871001     IErMin= 2 ErrMin= 1.51D-02
 ErrMax= 1.51D-02  0.00D+00 EMaxC= 1.00D-01 BMatC= 1.35D-01 BMatP= 6.73D-01
 IDIUse=3 WtCom= 8.49D-01 WtEn= 1.51D-01
 Coeff-Com:  0.258D+00 0.742D+00
 Coeff-En:   0.403D+00 0.597D+00
 Coeff:      0.280D+00 0.720D+00
 Gap=     0.235 Goal=   None    Shift=    0.000
 RMSDP=2.02D-03 MaxDP=1.41D-01 DE=-1.17D-01 OVMax= 2.11D-01

 Cycle   3  Pass 0  IDiag  1:
 RMSU=  1.64D-03    CP:  9.80D-01  6.37D-01
 E= -1308.17604537856     Delta-E=       -0.417876668548 Rises=F Damp=F
 DIIS: error= 9.72D-03 at cycle   3 NSaved=   3.
 NSaved= 3 IEnMin= 3 EnMin= -1308.17604537856     IErMin= 3 ErrMin= 9.72D-03
 ErrMax= 9.72D-03  0.00D+00 EMaxC= 1.00D-01 BMatC= 6.82D-02 BMatP= 1.35D-01
 IDIUse=3 WtCom= 9.03D-01 WtEn= 9.72D-02
 Coeff-Com:  0.822D-01 0.414D+00 0.504D+00
 Coeff-En:   0.000D+00 0.000D+00 0.100D+01
 Coeff:      0.742D-01 0.373D+00 0.552D+00
 Gap=     0.200 Goal=   None    Shift=    0.000
 RMSDP=1.14D-03 MaxDP=5.00D-02 DE=-4.18D-01 OVMax= 6.08D-02

 Cycle   4  Pass 0  IDiag  1:
 RMSU=  7.29D-04    CP:  9.86D-01  7.37D-01  5.09D-01
 E= -1308.22885086341     Delta-E=       -0.052805484845 Rises=F Damp=F
 DIIS: error= 4.59D-03 at cycle   4 NSaved=   4.
 NSaved= 4 IEnMin= 4 EnMin= -1308.22885086341     IErMin= 4 ErrMin= 4.59D-03
 ErrMax= 4.59D-03  0.00D+00 EMaxC= 1.00D-01 BMatC= 1.24D-02 BMatP= 6.82D-02
 IDIUse=3 WtCom= 9.54D-01 WtEn= 4.59D-02
 Coeff-Com:  0.108D-01 0.948D-01 0.317D+00 0.577D+00
 Coeff-En:   0.000D+00 0.000D+00 0.168D+00 0.832D+00
 Coeff:      0.103D-01 0.905D-01 0.310D+00 0.589D+00
 Gap=     0.198 Goal=   None    Shift=    0.000
 RMSDP=4.20D-04 MaxDP=1.91D-02 DE=-5.28D-02 OVMax= 2.73D-02

 Cycle   5  Pass 0  IDiag  1:
 RMSU=  2.17D-04    CP:  9.85D-01  7.13D-01  6.32D-01  6.05D-01
 E= -1308.23940595141     Delta-E=       -0.010555088002 Rises=F Damp=F
 DIIS: error= 1.68D-03 at cycle   5 NSaved=   5.
 NSaved= 5 IEnMin= 5 EnMin= -1308.23940595141     IErMin= 5 ErrMin= 1.68D-03
 ErrMax= 1.68D-03  0.00D+00 EMaxC= 1.00D-01 BMatC= 1.22D-03 BMatP= 1.24D-02
 IDIUse=3 WtCom= 9.83D-01 WtEn= 1.68D-02
 Coeff-Com: -0.492D-03 0.231D-01 0.136D+00 0.342D+00 0.499D+00
 Coeff-En:   0.000D+00 0.000D+00 0.000D+00 0.393D-01 0.961D+00
 Coeff:     -0.484D-03 0.227D-01 0.134D+00 0.337D+00 0.507D+00
 Gap=     0.196 Goal=   None    Shift=    0.000
 RMSDP=1.40D-04 MaxDP=5.53D-03 DE=-1.06D-02 OVMax= 1.07D-02

 Cycle   6  Pass 0  IDiag  1:
 RMSU=  7.40D-05    CP:  9.85D-01  7.18D-01  6.33D-01  6.64D-01  4.97D-01
 E= -1308.24047084262     Delta-E=       -0.001064891216 Rises=F Damp=F
 DIIS: error= 4.49D-04 at cycle   6 NSaved=   6.
 NSaved= 6 IEnMin= 6 EnMin= -1308.24047084262     IErMin= 6 ErrMin= 4.49D-04
 ErrMax= 4.49D-04  0.00D+00 EMaxC= 1.00D-01 BMatC= 1.72D-04 BMatP= 1.22D-03
 IDIUse=3 WtCom= 9.96D-01 WtEn= 4.49D-03
 Coeff-Com: -0.152D-02 0.395D-02 0.472D-01 0.141D+00 0.318D+00 0.491D+00
 Coeff-En:   0.000D+00 0.000D+00 0.000D+00 0.000D+00 0.100D+00 0.900D+00
 Coeff:     -0.151D-02 0.393D-02 0.469D-01 0.140D+00 0.318D+00 0.493D+00
 Gap=     0.196 Goal=   None    Shift=    0.000
 RMSDP=4.53D-05 MaxDP=2.05D-03 DE=-1.06D-03 OVMax= 3.07D-03

 Cycle   7  Pass 0  IDiag  1:
 RMSU=  2.47D-05    CP:  9.84D-01  7.17D-01  6.34D-01  6.63D-01  5.90D-01
                    CP:  5.69D-01
 E= -1308.24061904337     Delta-E=       -0.000148200748 Rises=F Damp=F
 DIIS: error= 1.16D-04 at cycle   7 NSaved=   7.
 NSaved= 7 IEnMin= 7 EnMin= -1308.24061904337     IErMin= 7 ErrMin= 1.16D-04
 ErrMax= 1.16D-04  0.00D+00 EMaxC= 1.00D-01 BMatC= 1.28D-05 BMatP= 1.72D-04
 IDIUse=3 WtCom= 9.99D-01 WtEn= 1.16D-03
 Coeff-Com: -0.861D-03 0.273D-03 0.160D-01 0.534D-01 0.145D+00 0.293D+00
 Coeff-Com:  0.493D+00
 Coeff-En:   0.000D+00 0.000D+00 0.000D+00 0.000D+00 0.000D+00 0.000D+00
 Coeff-En:   0.100D+01
 Coeff:     -0.860D-03 0.273D-03 0.160D-01 0.534D-01 0.145D+00 0.293D+00
 Coeff:      0.493D+00
 Gap=     0.196 Goal=   None    Shift=    0.000
 RMSDP=1.18D-05 MaxDP=5.08D-04 DE=-1.48D-04 OVMax= 7.17D-04

 Cycle   8  Pass 0  IDiag  1:
 RMSU=  7.24D-06    CP:  9.85D-01  7.17D-01  6.34D-01  6.65D-01  5.88D-01
                    CP:  5.95D-01  6.37D-01
 E= -1308.24062933501     Delta-E=       -0.000010291637 Rises=F Damp=F
 DIIS: error= 4.64D-05 at cycle   8 NSaved=   8.
 NSaved= 8 IEnMin= 8 EnMin= -1308.24062933501     IErMin= 8 ErrMin= 4.64D-05
 ErrMax= 4.64D-05  0.00D+00 EMaxC= 1.00D-01 BMatC= 1.06D-06 BMatP= 1.28D-05
 IDIUse=1 WtCom= 1.00D+00 WtEn= 0.00D+00
 Coeff-Com: -0.317D-03-0.317D-03 0.368D-02 0.144D-01 0.471D-01 0.113D+00
 Coeff-Com:  0.277D+00 0.546D+00
 Coeff:     -0.317D-03-0.317D-03 0.368D-02 0.144D-01 0.471D-01 0.113D+00
 Coeff:      0.277D+00 0.546D+00
 Gap=     0.196 Goal=   None    Shift=    0.000
 RMSDP=4.13D-06 MaxDP=1.56D-04 DE=-1.03D-05 OVMax= 3.12D-04

 Initial convergence to 1.0D-05 achieved.  Increase integral accuracy.
 Cycle   9  Pass 1  IDiag  1:
 E= -1308.24044853006     Delta-E=        0.000180804955 Rises=F Damp=F
 DIIS: error= 8.25D-05 at cycle   1 NSaved=   1.
 NSaved= 1 IEnMin= 1 EnMin= -1308.24044853006     IErMin= 1 ErrMin= 8.25D-05
 ErrMax= 8.25D-05  0.00D+00 EMaxC= 1.00D-01 BMatC= 7.95D-07 BMatP= 7.95D-07
 IDIUse=1 WtCom= 1.00D+00 WtEn= 0.00D+00
 Coeff-Com:  0.100D+01
 Coeff:      0.100D+01
 Gap=     0.196 Goal=   None    Shift=    0.000
 RMSDP=4.13D-06 MaxDP=1.56D-04 DE= 1.81D-04 OVMax= 2.94D-04

 Cycle  10  Pass 1  IDiag  1:
 RMSU=  3.92D-05    CP:  1.00D+00
 E= -1308.24044907056     Delta-E=       -0.000000540500 Rises=F Damp=F
 DIIS: error= 3.32D-05 at cycle   2 NSaved=   2.
 NSaved= 2 IEnMin= 2 EnMin= -1308.24044907056     IErMin= 2 ErrMin= 3.32D-05
 ErrMax= 3.32D-05  0.00D+00 EMaxC= 1.00D-01 BMatC= 3.54D-07 BMatP= 7.95D-07
 IDIUse=1 WtCom= 1.00D+00 WtEn= 0.00D+00
 Coeff-Com:  0.352D+00 0.648D+00
 Coeff:      0.352D+00 0.648D+00
 Gap=     0.196 Goal=   None    Shift=    0.000
 RMSDP=3.70D-06 MaxDP=1.30D-04 DE=-5.41D-07 OVMax= 3.18D-04

 Cycle  11  Pass 1  IDiag  1:
 RMSU=  3.70D-06    CP:  1.00D+00  1.00D+00
 E= -1308.24044908229     Delta-E=       -0.000000011731 Rises=F Damp=F
 DIIS: error= 3.17D-05 at cycle   3 NSaved=   3.
 NSaved= 3 IEnMin= 3 EnMin= -1308.24044908229     IErMin= 3 ErrMin= 3.17D-05
 ErrMax= 3.17D-05  0.00D+00 EMaxC= 1.00D-01 BMatC= 3.55D-07 BMatP= 3.54D-07
 IDIUse=1 WtCom= 1.00D+00 WtEn= 0.00D+00
 Coeff-Com:  0.670D-02 0.499D+00 0.495D+00
 Coeff:      0.670D-02 0.499D+00 0.495D+00
 Gap=     0.196 Goal=   None    Shift=    0.000
 RMSDP=1.85D-06 MaxDP=6.82D-05 DE=-1.17D-08 OVMax= 1.51D-04

 Cycle  12  Pass 1  IDiag  1:
 RMSU=  5.52D-07    CP:  1.00D+00  1.01D+00  5.31D-01
 E= -1308.24044941948     Delta-E=       -0.000000337195 Rises=F Damp=F
 DIIS: error= 3.79D-06 at cycle   4 NSaved=   4.
 NSaved= 4 IEnMin= 4 EnMin= -1308.24044941948     IErMin= 4 ErrMin= 3.79D-06
 ErrMax= 3.79D-06  0.00D+00 EMaxC= 1.00D-01 BMatC= 8.93D-09 BMatP= 3.54D-07
 IDIUse=1 WtCom= 1.00D+00 WtEn= 0.00D+00
 Coeff-Com: -0.508D-02 0.288D+00 0.298D+00 0.419D+00
 Coeff:     -0.508D-02 0.288D+00 0.298D+00 0.419D+00
 Gap=     0.196 Goal=   None    Shift=    0.000
 RMSDP=3.15D-07 MaxDP=1.77D-05 DE=-3.37D-07 OVMax= 1.94D-05

 Cycle  13  Pass 1  IDiag  1:
 RMSU=  1.78D-07    CP:  1.00D+00  1.01D+00  5.33D-01  5.30D-01
 E= -1308.24044942666     Delta-E=       -0.000000007174 Rises=F Damp=F
 DIIS: error= 8.25D-07 at cycle   5 NSaved=   5.
 NSaved= 5 IEnMin= 5 EnMin= -1308.24044942666     IErMin= 5 ErrMin= 8.25D-07
 ErrMax= 8.25D-07  0.00D+00 EMaxC= 1.00D-01 BMatC= 4.39D-10 BMatP= 8.93D-09
 IDIUse=1 WtCom= 1.00D+00 WtEn= 0.00D+00
 Coeff-Com: -0.326D-02 0.132D+00 0.136D+00 0.242D+00 0.493D+00
 Coeff:     -0.326D-02 0.132D+00 0.136D+00 0.242D+00 0.493D+00
 Gap=     0.196 Goal=   None    Shift=    0.000
 RMSDP=7.99D-08 MaxDP=3.84D-06 DE=-7.17D-09 OVMax= 4.88D-06

 Cycle  14  Pass 1  IDiag  1:
 RMSU=  5.91D-08    CP:  1.00D+00  1.01D+00  5.31D-01  5.48D-01  7.10D-01
 E= -1308.24044942702     Delta-E=       -0.000000000367 Rises=F Damp=F
 DIIS: error= 3.19D-07 at cycle   6 NSaved=   6.
 NSaved= 6 IEnMin= 6 EnMin= -1308.24044942702     IErMin= 6 ErrMin= 3.19D-07
 ErrMax= 3.19D-07  0.00D+00 EMaxC= 1.00D-01 BMatC= 3.06D-11 BMatP= 4.39D-10
 IDIUse=1 WtCom= 1.00D+00 WtEn= 0.00D+00
 Coeff-Com: -0.111D-02 0.368D-01 0.372D-01 0.782D-01 0.254D+00 0.595D+00
 Coeff:     -0.111D-02 0.368D-01 0.372D-01 0.782D-01 0.254D+00 0.595D+00
 Gap=     0.196 Goal=   None    Shift=    0.000
 RMSDP=2.25D-08 MaxDP=1.04D-06 DE=-3.67D-10 OVMax= 1.85D-06

 Cycle  15  Pass 1  IDiag  1:
 RMSU=  1.62D-08    CP:  1.00D+00  1.01D+00  5.29D-01  5.52D-01  7.55D-01
                    CP:  7.88D-01
 E= -1308.24044942706     Delta-E=       -0.000000000035 Rises=F Damp=F
 DIIS: error= 9.45D-08 at cycle   7 NSaved=   7.
 NSaved= 7 IEnMin= 7 EnMin= -1308.24044942706     IErMin= 7 ErrMin= 9.45D-08
 ErrMax= 9.45D-08  0.00D+00 EMaxC= 1.00D-01 BMatC= 5.93D-12 BMatP= 3.06D-11
 IDIUse=1 WtCom= 1.00D+00 WtEn= 0.00D+00
 Coeff-Com: -0.250D-03 0.520D-02 0.480D-02 0.150D-01 0.891D-01 0.358D+00
 Coeff-Com:  0.528D+00
 Coeff:     -0.250D-03 0.520D-02 0.480D-02 0.150D-01 0.891D-01 0.358D+00
 Coeff:      0.528D+00
 Gap=     0.196 Goal=   None    Shift=    0.000
 RMSDP=9.17D-09 MaxDP=5.77D-07 DE=-3.55D-11 OVMax= 5.03D-07

 SCF Done:  E(RB3LYP) =  -1308.24044943     A.U. after   15 cycles
            NFock= 15  Conv=0.92D-08     -V/T= 2.0077
 KE= 1.298277698871D+03 PE=-6.538408827777D+03 EE= 2.192883556782D+03
 Leave Link  502 at Thu Aug  6 21:09:59 2020, MaxMem=    33554432 cpu:       280.3
 (Enter /prod/apps/gaussian/g09d1/l601.exe)
 Copying SCF densities to generalized density rwf, IOpCl= 0 IROHF=0.

 **********************************************************************

            Population analysis using the SCF density.

 **********************************************************************

 Orbital symmetries:
       Occupied  (A) (A) (A) (A) (A) (A) (A) (A) (A) (A) (A) (A)
                 (A) (A) (A) (A) (A) (A) (A) (A) (A) (A) (A) (A)
                 (A) (A) (A) (A) (A) (A) (A) (A) (A) (A) (A) (A)
                 (A) (A) (A) (A) (A) (A) (A) (A) (A) (A) (A) (A)
                 (A) (A) (A) (A) (A) (A) (A) (A) (A) (A) (A) (A)
                 (A) (A) (A) (A) (A) (A) (A) (A) (A) (A) (A) (A)
                 (A) (A) (A) (A) (A) (A)
       Virtual   (A) (A) (A) (A) (A) (A) (A) (A) (A) (A) (A) (A)
                 (A) (A) (A) (A) (A) (A) (A) (A) (A) (A) (A) (A)
                 (A) (A) (A) (A) (A) (A) (A) (A) (A) (A) (A) (A)
                 (A) (A) (A) (A) (A) (A) (A) (A) (A) (A) (A) (A)
                 (A) (A) (A) (A) (A) (A) (A) (A) (A) (A) (A) (A)
                 (A) (A) (A) (A) (A) (A) (A) (A) (A) (A) (A) (A)
                 (A) (A) (A) (A) (A) (A) (A) (A) (A) (A) (A) (A)
                 (A) (A) (A) (A) (A) (A) (A) (A) (A) (A) (A) (A)
                 (A) (A) (A) (A) (A) (A) (A) (A) (A) (A) (A) (A)
                 (A) (A) (A) (A) (A) (A) (A) (A) (A) (A) (A) (A)
                 (A) (A) (A) (A) (A) (A) (A) (A) (A) (A) (A) (A)
                 (A) (A) (A) (A) (A) (A) (A) (A) (A) (A) (A) (A)
                 (A) (A) (A) (A) (A) (A) (A) (A) (A) (A) (A) (A)
                 (A) (A) (A) (A) (A) (A) (A) (A) (A) (A) (A) (A)
                 (A) (A) (A) (A) (A) (A) (A) (A) (A) (A) (A) (A)
                 (A) (A) (A) (A) (A) (A) (A) (A) (A) (A) (A) (A)
                 (A) (A) (A) (A) (A) (A) (A) (A) (A) (A) (A) (A)
                 (A) (A) (A) (A) (A) (A) (A) (A) (A) (A) (A) (A)
                 (A) (A) (A) (A) (A) (A) (A) (A) (A) (A) (A) (A)
                 (A) (A) (A) (A) (A) (A) (A) (A) (A) (A) (A) (A)
                 (A) (A) (A) (A) (A) (A) (A) (A) (A) (A) (A) (A)
                 (A) (A) (A) (A) (A) (A) (A) (A) (A) (A) (A) (A)
                 (A)
 The electronic state is 1-A.
 Alpha  occ. eigenvalues --  -89.11327 -19.14260 -19.14172 -14.44583 -14.40017
 Alpha  occ. eigenvalues --  -14.38250 -14.36336 -10.26276 -10.25978 -10.25072
 Alpha  occ. eigenvalues --  -10.23540 -10.22086 -10.21978 -10.21911 -10.21824
 Alpha  occ. eigenvalues --  -10.21658 -10.21588 -10.21506 -10.21259 -10.21170
 Alpha  occ. eigenvalues --  -10.21055  -8.13854  -6.10364  -6.10253  -6.10163
 Alpha  occ. eigenvalues --   -1.11326  -1.10860  -1.00089  -0.95570  -0.93009
 Alpha  occ. eigenvalues --   -0.88334  -0.86994  -0.81123  -0.78537  -0.77309
 Alpha  occ. eigenvalues --   -0.77290  -0.76729  -0.68540  -0.67124  -0.65164
 Alpha  occ. eigenvalues --   -0.63244  -0.62081  -0.61354  -0.59293  -0.57440
 Alpha  occ. eigenvalues --   -0.55838  -0.53357  -0.51997  -0.50640  -0.49408
 Alpha  occ. eigenvalues --   -0.49078  -0.48039  -0.47899  -0.46574  -0.46256
 Alpha  occ. eigenvalues --   -0.45559  -0.44855  -0.44579  -0.43607  -0.39621
 Alpha  occ. eigenvalues --   -0.39458  -0.38953  -0.38491  -0.37232  -0.37153
 Alpha  occ. eigenvalues --   -0.35104  -0.33851  -0.33300  -0.31911  -0.31535
 Alpha  occ. eigenvalues --   -0.31031  -0.30175  -0.27985  -0.27872  -0.27535
 Alpha  occ. eigenvalues --   -0.27113  -0.26918  -0.24632
 Alpha virt. eigenvalues --   -0.05048  -0.04344  -0.02686  -0.02472   0.01339
 Alpha virt. eigenvalues --    0.01948   0.05510   0.06996   0.07905   0.09347
 Alpha virt. eigenvalues --    0.09515   0.10733   0.11736   0.12833   0.13117
 Alpha virt. eigenvalues --    0.13436   0.14227   0.14606   0.15165   0.16079
 Alpha virt. eigenvalues --    0.17190   0.17362   0.17484   0.18307   0.19017
 Alpha virt. eigenvalues --    0.20794   0.22413   0.24440   0.26511   0.28064
 Alpha virt. eigenvalues --    0.28147   0.29058   0.29785   0.30042   0.30885
 Alpha virt. eigenvalues --    0.32381   0.34237   0.35708   0.36641   0.37679
 Alpha virt. eigenvalues --    0.40670   0.42460   0.43090   0.47322   0.47648
 Alpha virt. eigenvalues --    0.48882   0.49728   0.50852   0.51339   0.51658
 Alpha virt. eigenvalues --    0.52499   0.54049   0.54500   0.55263   0.55921
 Alpha virt. eigenvalues --    0.56548   0.56732   0.56908   0.57039   0.57390
 Alpha virt. eigenvalues --    0.57833   0.58620   0.58874   0.59281   0.59491
 Alpha virt. eigenvalues --    0.59834   0.60489   0.61003   0.62148   0.62331
 Alpha virt. eigenvalues --    0.62999   0.64144   0.64939   0.67500   0.69231
 Alpha virt. eigenvalues --    0.69908   0.70770   0.71849   0.73458   0.74752
 Alpha virt. eigenvalues --    0.76460   0.78052   0.78356   0.78800   0.79521
 Alpha virt. eigenvalues --    0.81377   0.81593   0.82058   0.82361   0.82545
 Alpha virt. eigenvalues --    0.83061   0.83260   0.84350   0.85025   0.85928
 Alpha virt. eigenvalues --    0.86437   0.87835   0.88249   0.88865   0.89688
 Alpha virt. eigenvalues --    0.90454   0.91722   0.92301   0.92519   0.93631
 Alpha virt. eigenvalues --    0.94594   0.96946   0.97982   0.98173   0.99322
 Alpha virt. eigenvalues --    1.02663   1.03047   1.04602   1.05366   1.05808
 Alpha virt. eigenvalues --    1.07317   1.08431   1.10146   1.12507   1.13422
 Alpha virt. eigenvalues --    1.13882   1.14916   1.15228   1.16776   1.16992
 Alpha virt. eigenvalues --    1.18173   1.19305   1.19813   1.23029   1.23558
 Alpha virt. eigenvalues --    1.24338   1.25291   1.27223   1.30977   1.33108
 Alpha virt. eigenvalues --    1.35802   1.37356   1.39329   1.40346   1.40811
 Alpha virt. eigenvalues --    1.41943   1.42161   1.43099   1.44962   1.45248
 Alpha virt. eigenvalues --    1.45734   1.46636   1.46910   1.48228   1.48753
 Alpha virt. eigenvalues --    1.49939   1.51715   1.53991   1.57185   1.58508
 Alpha virt. eigenvalues --    1.61941   1.68274   1.68498   1.71774   1.74535
 Alpha virt. eigenvalues --    1.76257   1.77613   1.78825   1.79049   1.79980
 Alpha virt. eigenvalues --    1.81443   1.83474   1.84095   1.85579   1.85833
 Alpha virt. eigenvalues --    1.87146   1.87253   1.90327   1.90463   1.92170
 Alpha virt. eigenvalues --    1.93238   1.95056   1.95440   1.95834   1.97219
 Alpha virt. eigenvalues --    1.98882   2.02405   2.04268   2.05754   2.06732
 Alpha virt. eigenvalues --    2.08580   2.09043   2.09474   2.10341   2.11878
 Alpha virt. eigenvalues --    2.12441   2.12845   2.13591   2.13744   2.14363
 Alpha virt. eigenvalues --    2.15123   2.17834   2.19146   2.19938   2.22627
 Alpha virt. eigenvalues --    2.25014   2.26603   2.27807   2.27865   2.28210
 Alpha virt. eigenvalues --    2.30278   2.30604   2.31626   2.36184   2.37032
 Alpha virt. eigenvalues --    2.38816   2.48523   2.50430   2.51931   2.54567
 Alpha virt. eigenvalues --    2.56659   2.56861   2.57425   2.60020   2.62347
 Alpha virt. eigenvalues --    2.62515   2.63668   2.64824   2.66373   2.68764
 Alpha virt. eigenvalues --    2.69601   2.70985   2.72158   2.72743   2.73109
 Alpha virt. eigenvalues --    2.74684   2.75969   2.76656   2.78934   2.84018
 Alpha virt. eigenvalues --    2.87245   2.88881   3.00004   3.01663   3.06781
 Alpha virt. eigenvalues --    3.12921   3.25317   3.36297   3.41383   3.61254
 Alpha virt. eigenvalues --    3.77963   3.93901   3.98189   4.04363   4.06517
 Alpha virt. eigenvalues --    4.06646   4.08607   4.09443   4.09591   4.11618
 Alpha virt. eigenvalues --    4.14243   4.18845   4.22473   4.30539   4.30769
 Alpha virt. eigenvalues --    4.34108   4.38638   4.52729   4.64757   4.70238
          Condensed to atoms (all electrons):
               1          2          3          4          5          6
     1  O    8.227601   0.438603  -0.052272   0.001608  -0.000016   0.000000
     2  S    0.438603  13.705492   0.115456  -0.021519   0.001687   0.000028
     3  N   -0.052272   0.115456   7.373952   0.264676  -0.057963   0.005821
     4  C    0.001608  -0.021519   0.264676   4.741455   0.345574  -0.060053
     5  N   -0.000016   0.001687  -0.057963   0.345574   6.824096   0.291379
     6  N    0.000000   0.000028   0.005821  -0.060053   0.291379   6.773019
     7  C   -0.000034  -0.005249  -0.086029   0.470323  -0.074383  -0.102148
     8  N    0.000000   0.000365   0.003692  -0.055873  -0.076154   0.177410
     9  C    0.000000  -0.000017  -0.000104   0.006575   0.005945  -0.042581
    10  C    0.000000   0.000000   0.000001  -0.000380   0.000323   0.000365
    11  C    0.000000   0.000000   0.000000   0.000006  -0.000005   0.000365
    12  C    0.000000   0.000000   0.000000   0.000000   0.000000   0.000017
    13  C    0.000000   0.000000   0.000000  -0.000008   0.000002  -0.000069
    14  C    0.000000   0.000000   0.000003   0.000817  -0.000313   0.003013
    15  C   -0.058147   0.173079  -0.060086  -0.001873  -0.000085   0.000005
    16  C    0.002795  -0.021801  -0.001674   0.000029  -0.000007   0.000000
    17  C    0.000567   0.003024  -0.000125  -0.000023   0.000000   0.000000
    18  C   -0.000006  -0.000300   0.000004   0.000006   0.000000   0.000000
    19  C   -0.000043   0.002691  -0.000105   0.000086   0.000002   0.000000
    20  C    0.001584  -0.022680  -0.002831   0.000519  -0.000061  -0.000015
    21  O   -0.039744   0.436164  -0.051977   0.002797   0.000409   0.000005
    22  H    0.002434  -0.004207   0.299594  -0.033312   0.001892  -0.000089
    23  H   -0.000001   0.000182  -0.000137  -0.026652   0.003918   0.003531
    24  H    0.000000   0.000000   0.000000   0.000071  -0.000371   0.016558
    25  H    0.000000   0.000000   0.000000   0.000000   0.000000  -0.000008
    26  H    0.000000   0.000000   0.000000   0.000000   0.000000   0.000000
    27  H    0.000000   0.000000   0.000000   0.000000   0.000000   0.000001
    28  H    0.000000   0.000000   0.000001   0.000052  -0.000002  -0.000085
    29  H    0.009492  -0.001682   0.000072  -0.000001   0.000000   0.000000
    30  H    0.000002  -0.000049   0.000002   0.000000   0.000000   0.000000
    31  H    0.000000   0.000006   0.000000   0.000000   0.000000   0.000000
    32  H    0.000000  -0.000046   0.000002  -0.000002   0.000000   0.000000
    33  H    0.000073  -0.002962  -0.000020   0.000399   0.000083   0.000033
               7          8          9         10         11         12
     1  O   -0.000034   0.000000   0.000000   0.000000   0.000000   0.000000
     2  S   -0.005249   0.000365  -0.000017   0.000000   0.000000   0.000000
     3  N   -0.086029   0.003692  -0.000104   0.000001   0.000000   0.000000
     4  C    0.470323  -0.055873   0.006575  -0.000380   0.000006   0.000000
     5  N   -0.074383  -0.076154   0.005945   0.000323  -0.000005   0.000000
     6  N   -0.102148   0.177410  -0.042581   0.000365   0.000365   0.000017
     7  C    5.119911   0.320606  -0.036130   0.007723  -0.000088   0.000021
     8  N    0.320606   6.960385   0.195969  -0.056645   0.004591   0.000400
     9  C   -0.036130   0.195969   4.611871   0.519264  -0.009739  -0.038183
    10  C    0.007723  -0.056645   0.519264   4.982548   0.517637  -0.037297
    11  C   -0.000088   0.004591  -0.009739   0.517637   4.866397   0.543568
    12  C    0.000021   0.000400  -0.038183  -0.037297   0.543568   4.848990
    13  C   -0.000048   0.004698  -0.007033  -0.041759  -0.022647   0.550710
    14  C   -0.008007  -0.051969   0.530085  -0.074021  -0.042493  -0.039616
    15  C    0.001807  -0.000026  -0.000002   0.000000   0.000000   0.000000
    16  C    0.000241   0.000000   0.000000   0.000000   0.000000   0.000000
    17  C    0.000004   0.000000   0.000000   0.000000   0.000000   0.000000
    18  C   -0.000028   0.000000   0.000000   0.000000   0.000000   0.000000
    19  C   -0.000059  -0.000012   0.000001   0.000000   0.000000   0.000000
    20  C    0.002706  -0.000172   0.000003   0.000000   0.000000   0.000000
    21  O   -0.000259   0.000003   0.000000   0.000000   0.000000   0.000000
    22  H   -0.001671   0.000006   0.000002   0.000000   0.000000   0.000000
    23  H    0.358862  -0.035300  -0.001486  -0.000120  -0.000005  -0.000001
    24  H    0.000268  -0.014054  -0.033509   0.354466  -0.039702   0.004316
    25  H    0.000002  -0.000109   0.003440  -0.038038   0.360655  -0.041340
    26  H    0.000000   0.000004   0.000525   0.004701  -0.042363   0.362531
    27  H   -0.000004  -0.000115   0.003581   0.000778   0.004580  -0.040296
    28  H    0.006167  -0.009875  -0.041017   0.005799   0.000253   0.004541
    29  H    0.000005   0.000000   0.000000   0.000000   0.000000   0.000000
    30  H    0.000000   0.000000   0.000000   0.000000   0.000000   0.000000
    31  H    0.000000   0.000000   0.000000   0.000000   0.000000   0.000000
    32  H   -0.000007   0.000001   0.000000   0.000000   0.000000   0.000000
    33  H    0.000049  -0.000013   0.000000   0.000000   0.000000   0.000000
              13         14         15         16         17         18
     1  O    0.000000   0.000000  -0.058147   0.002795   0.000567  -0.000006
     2  S    0.000000   0.000000   0.173079  -0.021801   0.003024  -0.000300
     3  N    0.000000   0.000003  -0.060086  -0.001674  -0.000125   0.000004
     4  C   -0.000008   0.000817  -0.001873   0.000029  -0.000023   0.000006
     5  N    0.000002  -0.000313  -0.000085  -0.000007   0.000000   0.000000
     6  N   -0.000069   0.003013   0.000005   0.000000   0.000000   0.000000
     7  C   -0.000048  -0.008007   0.001807   0.000241   0.000004  -0.000028
     8  N    0.004698  -0.051969  -0.000026   0.000000   0.000000   0.000000
     9  C   -0.007033   0.530085  -0.000002   0.000000   0.000000   0.000000
    10  C   -0.041759  -0.074021   0.000000   0.000000   0.000000   0.000000
    11  C   -0.022647  -0.042493   0.000000   0.000000   0.000000   0.000000
    12  C    0.550710  -0.039616   0.000000   0.000000   0.000000   0.000000
    13  C    4.843992   0.529819   0.000000   0.000000   0.000000   0.000000
    14  C    0.529819   4.995582   0.000000   0.000000   0.000000   0.000000
    15  C    0.000000   0.000000   5.356853   0.479660  -0.028256  -0.038040
    16  C    0.000000   0.000000   0.479660   4.965365   0.502642  -0.030143
    17  C    0.000000   0.000000  -0.028256   0.502642   4.886057   0.543157
    18  C    0.000000   0.000000  -0.038040  -0.030143   0.543157   4.846139
    19  C    0.000000   0.000000  -0.029122  -0.037120  -0.030211   0.544505
    20  C    0.000000   0.000000   0.490723  -0.041078  -0.036522  -0.030574
    21  O    0.000000   0.000000  -0.056727   0.001780  -0.000047  -0.000004
    22  H    0.000000   0.000000   0.000092   0.000361   0.000029   0.000000
    23  H    0.000174   0.002322   0.000352   0.000084   0.000021   0.000012
    24  H    0.000163   0.005630   0.000000   0.000000   0.000000   0.000000
    25  H    0.004569   0.000824   0.000000   0.000000   0.000000   0.000000
    26  H   -0.042511   0.005034   0.000000   0.000000   0.000000   0.000000
    27  H    0.359536  -0.039620   0.000000   0.000000   0.000000   0.000000
    28  H   -0.038283   0.347491   0.000000   0.000000   0.000000   0.000000
    29  H    0.000000   0.000000  -0.047058   0.360463  -0.037074   0.004124
    30  H    0.000000   0.000000   0.004835  -0.042301   0.363235  -0.042014
    31  H    0.000000   0.000000   0.000444   0.004925  -0.042630   0.362223
    32  H    0.000000   0.000000   0.004807   0.000674   0.004447  -0.042262
    33  H    0.000000   0.000000  -0.042916   0.004785   0.000304   0.004068
              19         20         21         22         23         24
     1  O   -0.000043   0.001584  -0.039744   0.002434  -0.000001   0.000000
     2  S    0.002691  -0.022680   0.436164  -0.004207   0.000182   0.000000
     3  N   -0.000105  -0.002831  -0.051977   0.299594  -0.000137   0.000000
     4  C    0.000086   0.000519   0.002797  -0.033312  -0.026652   0.000071
     5  N    0.000002  -0.000061   0.000409   0.001892   0.003918  -0.000371
     6  N    0.000000  -0.000015   0.000005  -0.000089   0.003531   0.016558
     7  C   -0.000059   0.002706  -0.000259  -0.001671   0.358862   0.000268
     8  N   -0.000012  -0.000172   0.000003   0.000006  -0.035300  -0.014054
     9  C    0.000001   0.000003   0.000000   0.000002  -0.001486  -0.033509
    10  C    0.000000   0.000000   0.000000   0.000000  -0.000120   0.354466
    11  C    0.000000   0.000000   0.000000   0.000000  -0.000005  -0.039702
    12  C    0.000000   0.000000   0.000000   0.000000  -0.000001   0.004316
    13  C    0.000000   0.000000   0.000000   0.000000   0.000174   0.000163
    14  C    0.000000   0.000000   0.000000   0.000000   0.002322   0.005630
    15  C   -0.029122   0.490723  -0.056727   0.000092   0.000352   0.000000
    16  C   -0.037120  -0.041078   0.001780   0.000361   0.000084   0.000000
    17  C   -0.030211  -0.036522  -0.000047   0.000029   0.000021   0.000000
    18  C    0.544505  -0.030574  -0.000004   0.000000   0.000012   0.000000
    19  C    4.886164   0.502774   0.000512   0.000000   0.000057   0.000000
    20  C    0.502774   4.945023   0.002802   0.000101   0.000194   0.000000
    21  O    0.000512   0.002802   8.209841   0.001765   0.000000   0.000000
    22  H    0.000000   0.000101   0.001765   0.375331   0.000690   0.000000
    23  H    0.000057   0.000194   0.000000   0.000690   0.505903  -0.000011
    24  H    0.000000   0.000000   0.000000   0.000000  -0.000011   0.529126
    25  H    0.000000   0.000000   0.000000   0.000000   0.000000  -0.004969
    26  H    0.000000   0.000000   0.000000   0.000000   0.000000  -0.000137
    27  H    0.000000   0.000000   0.000000   0.000000  -0.000002   0.000013
    28  H    0.000000   0.000000   0.000000   0.000000   0.002159  -0.000141
    29  H    0.000326   0.004711   0.000092   0.000106  -0.000002   0.000000
    30  H    0.004453   0.000652   0.000000   0.000000   0.000000   0.000000
    31  H   -0.042438   0.004896   0.000000   0.000000   0.000000   0.000000
    32  H    0.363468  -0.041691   0.000002   0.000000   0.000000   0.000000
    33  H   -0.036324   0.360468   0.009495  -0.000009  -0.000010   0.000000
              25         26         27         28         29         30
     1  O    0.000000   0.000000   0.000000   0.000000   0.009492   0.000002
     2  S    0.000000   0.000000   0.000000   0.000000  -0.001682  -0.000049
     3  N    0.000000   0.000000   0.000000   0.000001   0.000072   0.000002
     4  C    0.000000   0.000000   0.000000   0.000052  -0.000001   0.000000
     5  N    0.000000   0.000000   0.000000  -0.000002   0.000000   0.000000
     6  N   -0.000008   0.000000   0.000001  -0.000085   0.000000   0.000000
     7  C    0.000002   0.000000  -0.000004   0.006167   0.000005   0.000000
     8  N   -0.000109   0.000004  -0.000115  -0.009875   0.000000   0.000000
     9  C    0.003440   0.000525   0.003581  -0.041017   0.000000   0.000000
    10  C   -0.038038   0.004701   0.000778   0.005799   0.000000   0.000000
    11  C    0.360655  -0.042363   0.004580   0.000253   0.000000   0.000000
    12  C   -0.041340   0.362531  -0.040296   0.004541   0.000000   0.000000
    13  C    0.004569  -0.042511   0.359536  -0.038283   0.000000   0.000000
    14  C    0.000824   0.005034  -0.039620   0.347491   0.000000   0.000000
    15  C    0.000000   0.000000   0.000000   0.000000  -0.047058   0.004835
    16  C    0.000000   0.000000   0.000000   0.000000   0.360463  -0.042301
    17  C    0.000000   0.000000   0.000000   0.000000  -0.037074   0.363235
    18  C    0.000000   0.000000   0.000000   0.000000   0.004124  -0.042014
    19  C    0.000000   0.000000   0.000000   0.000000   0.000326   0.004453
    20  C    0.000000   0.000000   0.000000   0.000000   0.004711   0.000652
    21  O    0.000000   0.000000   0.000000   0.000000   0.000092   0.000000
    22  H    0.000000   0.000000   0.000000   0.000000   0.000106   0.000000
    23  H    0.000000   0.000000  -0.000002   0.002159  -0.000002   0.000000
    24  H   -0.004969  -0.000137   0.000013  -0.000141   0.000000   0.000000
    25  H    0.573253  -0.005362  -0.000179   0.000015   0.000000   0.000000
    26  H   -0.005362   0.582024  -0.005401  -0.000162   0.000000   0.000000
    27  H   -0.000179  -0.005401   0.580164  -0.005619   0.000000   0.000000
    28  H    0.000015  -0.000162  -0.005619   0.587400   0.000000   0.000000
    29  H    0.000000   0.000000   0.000000   0.000000   0.532759  -0.005116
    30  H    0.000000   0.000000   0.000000   0.000000  -0.005116   0.574753
    31  H    0.000000   0.000000   0.000000   0.000000  -0.000147  -0.005458
    32  H    0.000000   0.000000   0.000000   0.000000   0.000015  -0.000169
    33  H    0.000000   0.000000   0.000000   0.000000  -0.000150   0.000014
              31         32         33
     1  O    0.000000   0.000000   0.000073
     2  S    0.000006  -0.000046  -0.002962
     3  N    0.000000   0.000002  -0.000020
     4  C    0.000000  -0.000002   0.000399
     5  N    0.000000   0.000000   0.000083
     6  N    0.000000   0.000000   0.000033
     7  C    0.000000  -0.000007   0.000049
     8  N    0.000000   0.000001  -0.000013
     9  C    0.000000   0.000000   0.000000
    10  C    0.000000   0.000000   0.000000
    11  C    0.000000   0.000000   0.000000
    12  C    0.000000   0.000000   0.000000
    13  C    0.000000   0.000000   0.000000
    14  C    0.000000   0.000000   0.000000
    15  C    0.000444   0.004807  -0.042916
    16  C    0.004925   0.000674   0.004785
    17  C   -0.042630   0.004447   0.000304
    18  C    0.362223  -0.042262   0.004068
    19  C   -0.042438   0.363468  -0.036324
    20  C    0.004896  -0.041691   0.360468
    21  O    0.000000   0.000002   0.009495
    22  H    0.000000   0.000000  -0.000009
    23  H    0.000000   0.000000  -0.000010
    24  H    0.000000   0.000000   0.000000
    25  H    0.000000   0.000000   0.000000
    26  H    0.000000   0.000000   0.000000
    27  H    0.000000   0.000000   0.000000
    28  H    0.000000   0.000000   0.000000
    29  H   -0.000147   0.000015  -0.000150
    30  H   -0.005458  -0.000169   0.000014
    31  H    0.578225  -0.005491  -0.000143
    32  H   -0.005491   0.572262  -0.004959
    33  H   -0.000143  -0.004959   0.518789
 Mulliken charges:
               1
     1  O   -0.534496
     2  S    1.203734
     3  N   -0.749952
     4  C    0.364703
     5  N   -0.265951
     6  N   -0.066503
     7  C    0.025451
     8  N   -0.367811
     9  C    0.332541
    10  C   -0.145343
    11  C   -0.141009
    12  C   -0.118361
    13  C   -0.141304
    14  C   -0.164581
    15  C   -0.150319
    16  C   -0.149683
    17  C   -0.128601
    18  C   -0.120867
    19  C   -0.129607
    20  C   -0.141533
    21  O   -0.516912
    22  H    0.356884
    23  H    0.185262
    24  H    0.182285
    25  H    0.147249
    26  H    0.141117
    27  H    0.142584
    28  H    0.141308
    29  H    0.179067
    30  H    0.147163
    31  H    0.145588
    32  H    0.148951
    33  H    0.188945
 Sum of Mulliken charges =   0.00000
 Mulliken charges with hydrogens summed into heavy atoms:
               1
     1  O   -0.534496
     2  S    1.203734
     3  N   -0.393068
     4  C    0.364703
     5  N   -0.265951
     6  N   -0.066503
     7  C    0.210712
     8  N   -0.367811
     9  C    0.332541
    10  C    0.036942
    11  C    0.006241
    12  C    0.022757
    13  C    0.001279
    14  C   -0.023272
    15  C   -0.150319
    16  C    0.029384
    17  C    0.018562
    18  C    0.024721
    19  C    0.019344
    20  C    0.047412
    21  O   -0.516912
 Electronic spatial extent (au):  <R**2>=           7572.1268
 Charge=              0.0000 electrons
 Dipole moment (field-independent basis, Debye):
    X=              4.6589    Y=              8.2369    Z=             -3.1384  Tot=              9.9700
 Quadrupole moment (field-independent basis, Debye-Ang):
   XX=           -124.8612   YY=           -133.2107   ZZ=           -118.1512
   XY=             -8.8596   XZ=              5.3943   YZ=              2.5875
 Traceless Quadrupole moment (field-independent basis, Debye-Ang):
   XX=              0.5465   YY=             -7.8030   ZZ=              7.2565
   XY=             -8.8596   XZ=              5.3943   YZ=              2.5875
 Octapole moment (field-independent basis, Debye-Ang**2):
  XXX=            134.2171  YYY=             55.3935  ZZZ=             -9.8986  XYY=            -12.9550
  XXY=             74.7438  XXZ=              2.0967  XZZ=              1.5071  YZZ=              5.1635
  YYZ=            -11.4292  XYZ=             -7.0428
 Hexadecapole moment (field-independent basis, Debye-Ang**3):
 XXXX=          -7044.0779 YYYY=          -2090.4408 ZZZZ=           -638.9866 XXXY=             60.8723
 XXXZ=            140.8591 YYYX=            -58.7799 YYYZ=             20.7498 ZZZX=             41.1463
 ZZZY=              5.2091 XXYY=          -1586.9721 XXZZ=          -1283.6524 YYZZ=           -458.0593
 XXYZ=            -96.6133 YYXZ=             -1.0797 ZZXY=              2.0602
 N-N= 1.739007122696D+03 E-N=-6.538408863517D+03  KE= 1.298277698871D+03
 No NMR shielding tensors so no spin-rotation constants.
 Leave Link  601 at Thu Aug  6 21:10:00 2020, MaxMem=    33554432 cpu:         0.3
 (Enter /prod/apps/gaussian/g09d1/l9999.exe)
 1\1\GINC-PIRINEUS9\SP\RB3LYP\6-31G(d)\C14H12N4O2S1\UBAFAR01\06-Aug-202
 0\0\\#p b3lyp/6-31G(d)\\SM45.n.6.pdb.xyz\\0,1\O,0,3.074,-2.658,-0.344\
 S,0,2.955,-2.557,1.113\N,0,2.48,-0.942,1.378\C,0,2.247,-0.475,2.684\N,
 0,3.265,-0.034,3.479\N,0,2.771,0.364,4.615\C,0,1.058,-0.337,3.371\N,0,
 1.421,0.198,4.562\C,0,0.598,0.564,5.663\C,0,1.159,0.633,6.94\C,0,0.351
 ,0.994,8.015\C,0,-1.004,1.269,7.822\C,0,-1.551,1.193,6.541\C,0,-0.752,
 0.847,5.453\C,0,1.6,-3.601,1.632\C,0,0.598,-3.913,0.712\C,0,-0.471,-4.
 704,1.125\C,0,-0.529,-5.171,2.441\C,0,0.484,-4.855,3.348\C,0,1.561,-4.
 065,2.948\O,0,4.086,-2.816,2.002\H,0,1.8,-0.652,0.68\H,0,0.04,-0.576,3
 .118\H,0,2.209,0.408,7.071\H,0,0.782,1.05,9.009\H,0,-1.629,1.544,8.664
 \H,0,-2.601,1.412,6.381\H,0,-1.17,0.812,4.454\H,0,0.674,-3.555,-0.308\
 H,0,-1.253,-4.962,0.42\H,0,-1.363,-5.788,2.757\H,0,0.44,-5.228,4.365\H
 ,0,2.368,-3.824,3.628\\Version=AM64L-G09RevD.01\State=1-A\HF=-1308.240
 4494\RMSD=9.166e-09\Dipole=-3.7205035,-0.0518994,1.2414598\Quadrupole=
 -7.448954,2.9955868,4.4533672,0.0651028,7.2446597,-0.0156703\PG=C01 [X
 (C14H12N4O2S1)]\\@


 ONE BIG VICE IN A MAN IS APT TO KEEP OUT MANY SMALLER ONES.

                           -- BRET HARTE
 Job cpu time:       0 days  0 hours  4 minutes 45.8 seconds.
 File lengths (MBytes):  RWF=     66 Int=      0 D2E=      0 Chk=      5 Scr=      1
 Normal termination of Gaussian 09 at Thu Aug  6 21:10:00 2020.
 Initial command:
 /prod/apps/gaussian/g09d1/l1.exe "/tmp/ubafar01/1448542/Gau-111016.inp" -scrdir="/tmp/ubafar01/1448542/"
 Entering Link 1 = /prod/apps/gaussian/g09d1/l1.exe PID=    111976.
  
 Copyright (c) 1988,1990,1992,1993,1995,1998,2003,2009,2013,
            Gaussian, Inc.  All Rights Reserved.
  
 This is part of the Gaussian(R) 09 program.  It is based on
 the Gaussian(R) 03 system (copyright 2003, Gaussian, Inc.),
 the Gaussian(R) 98 system (copyright 1998, Gaussian, Inc.),
 the Gaussian(R) 94 system (copyright 1995, Gaussian, Inc.),
 the Gaussian 92(TM) system (copyright 1992, Gaussian, Inc.),
 the Gaussian 90(TM) system (copyright 1990, Gaussian, Inc.),
 the Gaussian 88(TM) system (copyright 1988, Gaussian, Inc.),
 the Gaussian 86(TM) system (copyright 1986, Carnegie Mellon
 University), and the Gaussian 82(TM) system (copyright 1983,
 Carnegie Mellon University). Gaussian is a federally registered
 trademark of Gaussian, Inc.
  
 This software contains proprietary and confidential information,
 including trade secrets, belonging to Gaussian, Inc.
  
 This software is provided under written license and may be
 used, copied, transmitted, or stored only in accord with that
 written license.
  
 The following legend is applicable only to US Government
 contracts under FAR:
  
                    RESTRICTED RIGHTS LEGEND
  
 Use, reproduction and disclosure by the US Government is
 subject to restrictions as set forth in subparagraphs (a)
 and (c) of the Commercial Computer Software - Restricted
 Rights clause in FAR 52.227-19.
  
 Gaussian, Inc.
 340 Quinnipiac St., Bldg. 40, Wallingford CT 06492
  
  
 ---------------------------------------------------------------
 Warning -- This program may not be used in any manner that
 competes with the business of Gaussian, Inc. or will provide
 assistance to any competitor of Gaussian, Inc.  The licensee
 of this program is prohibited from giving any competitor of
 Gaussian, Inc. access to this program.  By using this program,
 the user acknowledges that Gaussian, Inc. is engaged in the
 business of creating and licensing software in the field of
 computational chemistry and represents and warrants to the
 licensee that it is not a competitor of Gaussian, Inc. and that
 it will not use this program in any manner prohibited above.
 ---------------------------------------------------------------
  

 Cite this work as:
 Gaussian 09, Revision D.01,
 M. J. Frisch, G. W. Trucks, H. B. Schlegel, G. E. Scuseria, 
 M. A. Robb, J. R. Cheeseman, G. Scalmani, V. Barone, B. Mennucci, 
 G. A. Petersson, H. Nakatsuji, M. Caricato, X. Li, H. P. Hratchian, 
 A. F. Izmaylov, J. Bloino, G. Zheng, J. L. Sonnenberg, M. Hada, 
 M. Ehara, K. Toyota, R. Fukuda, J. Hasegawa, M. Ishida, T. Nakajima, 
 Y. Honda, O. Kitao, H. Nakai, T. Vreven, J. A. Montgomery, Jr., 
 J. E. Peralta, F. Ogliaro, M. Bearpark, J. J. Heyd, E. Brothers, 
 K. N. Kudin, V. N. Staroverov, T. Keith, R. Kobayashi, J. Normand, 
 K. Raghavachari, A. Rendell, J. C. Burant, S. S. Iyengar, J. Tomasi, 
 M. Cossi, N. Rega, J. M. Millam, M. Klene, J. E. Knox, J. B. Cross, 
 V. Bakken, C. Adamo, J. Jaramillo, R. Gomperts, R. E. Stratmann, 
 O. Yazyev, A. J. Austin, R. Cammi, C. Pomelli, J. W. Ochterski, 
 R. L. Martin, K. Morokuma, V. G. Zakrzewski, G. A. Voth, 
 P. Salvador, J. J. Dannenberg, S. Dapprich, A. D. Daniels, 
 O. Farkas, J. B. Foresman, J. V. Ortiz, J. Cioslowski, 
 and D. J. Fox, Gaussian, Inc., Wallingford CT, 2013.
 
 ******************************************
 Gaussian 09:  AM64L-G09RevD.01 24-Apr-2013
                 6-Aug-2020 
 ******************************************
 %nproc=1
 Will use up to    1 processors via shared memory.
 %Chk=SM45.n.6.pdb.xyz.mst.n.o.chk
 %subst l301 /dades/curu/work_g09D01_MST_AddSphPartition_ReadGammas/exe-dir/
 %subst l502 /dades/curu/work_g09D01_MST_AddSphPartition_ReadGammas/exe-dir/
 ----------------------------------------------------------------------
 #p b3lyp/6-31G(d) scrf=(iefpcm,read,solvent=n-Octanol) geom=allcheck g
 uess=read
 ----------------------------------------------------------------------
 1/29=7,38=1,40=2/1;
 2/12=2,40=1/2;
 3/5=1,6=6,7=1,11=2,14=-4,16=1,25=1,30=1,70=2203,72=25,74=-5,116=-2/1,2,3;
 4/5=1/1;
 5/5=2,38=6,53=25/2;
 6/7=2,8=2,9=2,10=2,28=1/1;
 99/5=1,9=1/99;
 Leave Link    1 at Thu Aug  6 21:10:00 2020, MaxMem=           0 cpu:         0.0
 (Enter /prod/apps/gaussian/g09d1/l101.exe)
 Structure from the checkpoint file:  "SM45.n.6.pdb.xyz.mst.n.o.chk"
 ----------------
 SM45.n.6.pdb.xyz
 ----------------
 Charge =  0 Multiplicity = 1
 Z-Matrix found in file.
 O,0,3.074,-2.658,-0.344
 S,0,2.955,-2.557,1.113
 N,0,2.48,-0.942,1.378
 C,0,2.247,-0.475,2.684
 N,0,3.265,-0.034,3.479
 N,0,2.771,0.364,4.615
 C,0,1.058,-0.337,3.371
 N,0,1.421,0.198,4.562
 C,0,0.598,0.564,5.663
 C,0,1.159,0.633,6.94
 C,0,0.351,0.994,8.015
 C,0,-1.004,1.269,7.822
 C,0,-1.551,1.193,6.541
 C,0,-0.752,0.847,5.453
 C,0,1.6,-3.601,1.632
 C,0,0.598,-3.913,0.712
 C,0,-0.471,-4.704,1.125
 C,0,-0.529,-5.171,2.441
 C,0,0.484,-4.855,3.348
 C,0,1.561,-4.065,2.948
 O,0,4.086,-2.816,2.002
 H,0,1.8,-0.652,0.68
 H,0,0.04,-0.576,3.118
 H,0,2.209,0.408,7.071
 H,0,0.782,1.05,9.009
 H,0,-1.629,1.544,8.664
 H,0,-2.601,1.412,6.381
 H,0,-1.17,0.812,4.454
 H,0,0.674,-3.555,-0.308
 H,0,-1.253,-4.962,0.42
 H,0,-1.363,-5.788,2.757
 H,0,0.44,-5.228,4.365
 H,0,2.368,-3.824,3.628
 Recover connectivity data from disk.
 NAtoms=     33 NQM=       33 NQMF=       0 NMMI=      0 NMMIF=      0
                NMic=       0 NMicF=      0.
                    Isotopes and Nuclear Properties:
 (Nuclear quadrupole moments (NQMom) in fm**2, nuclear magnetic moments (NMagM)
  in nuclear magnetons)

  Atom         1           2           3           4           5           6           7           8           9          10
 IAtWgt=          16          32          14          12          14          14          12          14          12          12
 AtmWgt=  15.9949146  31.9720718  14.0030740  12.0000000  14.0030740  14.0030740  12.0000000  14.0030740  12.0000000  12.0000000
 NucSpn=           0           0           2           0           2           2           0           2           0           0
 AtZEff=  -5.6000000 -13.6000000  -4.5500000  -3.6000000  -4.5500000  -4.5500000  -3.6000000  -4.5500000  -3.6000000  -3.6000000
 NQMom=    0.0000000   0.0000000   2.0440000   0.0000000   2.0440000   2.0440000   0.0000000   2.0440000   0.0000000   0.0000000
 NMagM=    0.0000000   0.0000000   0.4037610   0.0000000   0.4037610   0.4037610   0.0000000   0.4037610   0.0000000   0.0000000
 AtZNuc=   8.0000000  16.0000000   7.0000000   6.0000000   7.0000000   7.0000000   6.0000000   7.0000000   6.0000000   6.0000000

  Atom        11          12          13          14          15          16          17          18          19          20
 IAtWgt=          12          12          12          12          12          12          12          12          12          12
 AtmWgt=  12.0000000  12.0000000  12.0000000  12.0000000  12.0000000  12.0000000  12.0000000  12.0000000  12.0000000  12.0000000
 NucSpn=           0           0           0           0           0           0           0           0           0           0
 AtZEff=  -3.6000000  -3.6000000  -3.6000000  -3.6000000  -3.6000000  -3.6000000  -3.6000000  -3.6000000  -3.6000000  -3.6000000
 NQMom=    0.0000000   0.0000000   0.0000000   0.0000000   0.0000000   0.0000000   0.0000000   0.0000000   0.0000000   0.0000000
 NMagM=    0.0000000   0.0000000   0.0000000   0.0000000   0.0000000   0.0000000   0.0000000   0.0000000   0.0000000   0.0000000
 AtZNuc=   6.0000000   6.0000000   6.0000000   6.0000000   6.0000000   6.0000000   6.0000000   6.0000000   6.0000000   6.0000000

  Atom        21          22          23          24          25          26          27          28          29          30
 IAtWgt=          16           1           1           1           1           1           1           1           1           1
 AtmWgt=  15.9949146   1.0078250   1.0078250   1.0078250   1.0078250   1.0078250   1.0078250   1.0078250   1.0078250   1.0078250
 NucSpn=           0           1           1           1           1           1           1           1           1           1
 AtZEff=  -5.6000000  -1.0000000  -1.0000000  -1.0000000  -1.0000000  -1.0000000  -1.0000000  -1.0000000  -1.0000000  -1.0000000
 NQMom=    0.0000000   0.0000000   0.0000000   0.0000000   0.0000000   0.0000000   0.0000000   0.0000000   0.0000000   0.0000000
 NMagM=    0.0000000   2.7928460   2.7928460   2.7928460   2.7928460   2.7928460   2.7928460   2.7928460   2.7928460   2.7928460
 AtZNuc=   8.0000000   1.0000000   1.0000000   1.0000000   1.0000000   1.0000000   1.0000000   1.0000000   1.0000000   1.0000000

  Atom        31          32          33
 IAtWgt=           1           1           1
 AtmWgt=   1.0078250   1.0078250   1.0078250
 NucSpn=           1           1           1
 AtZEff=  -1.0000000  -1.0000000  -1.0000000
 NQMom=    0.0000000   0.0000000   0.0000000
 NMagM=    2.7928460   2.7928460   2.7928460
 AtZNuc=   1.0000000   1.0000000   1.0000000
 Leave Link  101 at Thu Aug  6 21:10:00 2020, MaxMem=    33554432 cpu:         0.1
 (Enter /prod/apps/gaussian/g09d1/l202.exe)
                          Input orientation:                          
 ---------------------------------------------------------------------
 Center     Atomic      Atomic             Coordinates (Angstroms)
 Number     Number       Type             X           Y           Z
 ---------------------------------------------------------------------
      1          8           0        3.074000   -2.658000   -0.344000
      2         16           0        2.955000   -2.557000    1.113000
      3          7           0        2.480000   -0.942000    1.378000
      4          6           0        2.247000   -0.475000    2.684000
      5          7           0        3.265000   -0.034000    3.479000
      6          7           0        2.771000    0.364000    4.615000
      7          6           0        1.058000   -0.337000    3.371000
      8          7           0        1.421000    0.198000    4.562000
      9          6           0        0.598000    0.564000    5.663000
     10          6           0        1.159000    0.633000    6.940000
     11          6           0        0.351000    0.994000    8.015000
     12          6           0       -1.004000    1.269000    7.822000
     13          6           0       -1.551000    1.193000    6.541000
     14          6           0       -0.752000    0.847000    5.453000
     15          6           0        1.600000   -3.601000    1.632000
     16          6           0        0.598000   -3.913000    0.712000
     17          6           0       -0.471000   -4.704000    1.125000
     18          6           0       -0.529000   -5.171000    2.441000
     19          6           0        0.484000   -4.855000    3.348000
     20          6           0        1.561000   -4.065000    2.948000
     21          8           0        4.086000   -2.816000    2.002000
     22          1           0        1.800000   -0.652000    0.680000
     23          1           0        0.040000   -0.576000    3.118000
     24          1           0        2.209000    0.408000    7.071000
     25          1           0        0.782000    1.050000    9.009000
     26          1           0       -1.629000    1.544000    8.664000
     27          1           0       -2.601000    1.412000    6.381000
     28          1           0       -1.170000    0.812000    4.454000
     29          1           0        0.674000   -3.555000   -0.308000
     30          1           0       -1.253000   -4.962000    0.420000
     31          1           0       -1.363000   -5.788000    2.757000
     32          1           0        0.440000   -5.228000    4.365000
     33          1           0        2.368000   -3.824000    3.628000
 ---------------------------------------------------------------------
                    Distance matrix (angstroms):
                    1          2          3          4          5
     1  O    0.000000
     2  S    1.465336   0.000000
     3  N    2.502554   1.704135   0.000000
     4  C    3.823376   2.702597   1.406419   0.000000
     5  N    4.640817   3.472691   2.419688   1.364855   0.000000
     6  N    5.815150   4.564001   3.502640   2.169622   1.301129
     7  C    4.822087   3.691283   2.521935   1.380121   2.230319
     8  N    5.912527   4.673198   3.543859   2.159187   2.151058
     9  C    7.252304   5.999882   4.916420   3.559939   3.498621
    10  C    8.219158   6.881544   5.929714   4.530446   4.105928
    11  C    9.519701   8.187064   7.233983   5.845711   5.488486
    12  C    9.936547   8.678862   7.651922   6.325313   6.227666
    13  C    9.144619   7.989350   6.889394   5.664228   5.837399
    14  C    7.780007   6.645650   5.500179   4.290576   4.561702
    15  C    2.639413   1.787546   2.812329   3.361129   4.348232
    16  C    2.969973   2.748633   3.579430   4.292765   5.460386
    17  C    4.348690   4.043171   4.788011   5.263311   6.427123
    18  C    5.201250   4.553552   5.297970   5.460553   6.469981
    19  C    5.016550   4.047452   4.814196   4.767962   5.567150
    20  C    3.886654   2.754002   3.614221   3.664477   4.408462
    21  O    2.559848   1.461699   2.545680   3.054067   3.255011
    22  H    2.587603   2.269480   1.016712   2.060862   3.219091
    23  H    5.052259   4.054826   3.019132   2.251534   3.290093
    24  H    8.070366   6.696679   5.857149   4.475143   3.770008
    25  H   10.318970   8.948698   8.067430   6.669143   6.158023
    26  H   10.996321   9.739038   8.726389   7.406763   7.302434
    27  H    9.695161   8.624032   7.509187   6.382138   6.702423
    28  H    7.285138   6.287135   5.085351   4.057728   4.619044
    29  H    2.562402   2.866741   3.596109   4.573051   5.783778
    30  H    4.961355   4.896074   5.568972   6.124448   7.352210
    31  H    6.253005   5.638016   6.336719   6.423815   7.419446
    32  H    5.976415   4.902547   5.608348   5.355560   5.978566
    33  H    4.199378   2.876644   3.658001   3.481606   3.897552
                    6          7          8          9         10
     6  N    0.000000
     7  C    2.230091   0.000000
     8  N    1.361200   1.355166   0.000000
     9  C    2.420792   2.505327   1.422493   0.000000
    10  C    2.841924   3.699846   2.431615   1.396500   0.000000
    11  C    4.220581   4.882432   3.701584   2.403708   1.392412
    12  C    5.035325   5.161635   4.201817   2.779336   2.420948
    13  C    4.803790   4.381402   3.706649   2.405146   2.795872
    14  C    3.653363   3.002113   2.436598   1.395238   2.430820
    15  C    5.098113   3.737858   4.800973   5.882193   6.804124
    16  C    6.184502   4.479917   5.692113   6.675023   7.731030
    17  C    6.955235   5.143252   6.278713   7.034773   8.059447
    18  C    6.800919   5.172139   6.093218   6.673952   7.535036
    19  C    5.837261   4.554375   5.280585   5.893877   6.593651
    20  C    4.884571   3.785488   4.560457   5.452177   6.178096
    21  O    4.320809   4.145888   4.768650   6.082225   6.696773
    22  H    4.178435   2.809140   3.992000   5.268183   6.422593
    23  H    3.253148   1.075850   2.142749   2.843939   4.161914
    24  H    2.519864   3.945862   2.638205   2.145255   1.081798
    25  H    4.871751   5.812658   4.572749   3.386114   2.144010
[...]
 Alpha virt. eigenvalues --    2.56583   2.57130   2.57755   2.59776   2.62433
 Alpha virt. eigenvalues --    2.62832   2.64007   2.65011   2.66668   2.69026
 Alpha virt. eigenvalues --    2.69930   2.71282   2.72180   2.72517   2.73638
 Alpha virt. eigenvalues --    2.74721   2.75648   2.76547   2.78413   2.83318
 Alpha virt. eigenvalues --    2.87058   2.88777   2.99886   3.01813   3.06312
 Alpha virt. eigenvalues --    3.12803   3.25340   3.36634   3.41924   3.60632
 Alpha virt. eigenvalues --    3.76753   3.93087   3.97315   4.03401   4.06767
 Alpha virt. eigenvalues --    4.07099   4.08594   4.09866   4.10024   4.11449
 Alpha virt. eigenvalues --    4.14537   4.18607   4.22281   4.30997   4.31269
 Alpha virt. eigenvalues --    4.34326   4.39085   4.52423   4.65060   4.70734
          Condensed to atoms (all electrons):
               1          2          3          4          5          6
     1  O    8.245602   0.440290  -0.052417   0.001562  -0.000015   0.000000
     2  S    0.440290  13.689708   0.131899  -0.022685   0.001906   0.000061
     3  N   -0.052417   0.131899   7.373237   0.264191  -0.057260   0.005668
     4  C    0.001562  -0.022685   0.264191   4.703458   0.360076  -0.071199
     5  N   -0.000015   0.001906  -0.057260   0.360076   6.849708   0.296608
     6  N    0.000000   0.000061   0.005668  -0.071199   0.296608   6.770223
     7  C   -0.000034  -0.004791  -0.080372   0.493617  -0.076000  -0.099959
     8  N    0.000000   0.000326   0.003554  -0.048056  -0.084821   0.201133
     9  C    0.000000  -0.000017  -0.000114   0.005437   0.006236  -0.043033
    10  C    0.000000   0.000000   0.000001  -0.000386   0.000353  -0.000266
    11  C    0.000000   0.000000   0.000000   0.000006  -0.000005   0.000326
    12  C    0.000000   0.000000   0.000000   0.000000   0.000000   0.000017
    13  C    0.000000   0.000000   0.000000  -0.000009   0.000002  -0.000068
    14  C    0.000000   0.000000   0.000004   0.000895  -0.000326   0.002986
    15  C   -0.059242   0.187344  -0.062585  -0.002392  -0.000114   0.000006
    16  C    0.002647  -0.023520  -0.001558   0.000013  -0.000006   0.000000
    17  C    0.000540   0.002971  -0.000115  -0.000021   0.000000   0.000000
    18  C   -0.000006  -0.000319   0.000004   0.000006   0.000000   0.000000
    19  C   -0.000043   0.002598  -0.000099   0.000081   0.000002   0.000000
    20  C    0.001506  -0.023835  -0.002799   0.000608  -0.000059  -0.000015
    21  O   -0.039022   0.435720  -0.053045   0.002800   0.000462   0.000009
    22  H    0.001984  -0.005151   0.301427  -0.029112   0.001652  -0.000074
    23  H   -0.000001   0.000168  -0.000345  -0.025619   0.003908   0.003462
    24  H    0.000000   0.000000   0.000000   0.000058  -0.000353   0.016501
    25  H    0.000000   0.000000   0.000000   0.000000   0.000000  -0.000008
    26  H    0.000000   0.000000   0.000000   0.000000   0.000000   0.000000
    27  H    0.000000   0.000000   0.000000   0.000000   0.000000   0.000001
    28  H    0.000000   0.000000   0.000001   0.000074  -0.000005  -0.000087
    29  H    0.008844  -0.002364   0.000046   0.000002   0.000000   0.000000
    30  H    0.000002  -0.000055   0.000001   0.000000   0.000000   0.000000
    31  H    0.000000   0.000006   0.000000   0.000000   0.000000   0.000000
    32  H    0.000000  -0.000053   0.000002  -0.000002   0.000000   0.000000
    33  H    0.000068  -0.003220  -0.000039   0.000383   0.000085   0.000033
               7          8          9         10         11         12
     1  O   -0.000034   0.000000   0.000000   0.000000   0.000000   0.000000
     2  S   -0.004791   0.000326  -0.000017   0.000000   0.000000   0.000000
     3  N   -0.080372   0.003554  -0.000114   0.000001   0.000000   0.000000
     4  C    0.493617  -0.048056   0.005437  -0.000386   0.000006   0.000000
     5  N   -0.076000  -0.084821   0.006236   0.000353  -0.000005   0.000000
     6  N   -0.099959   0.201133  -0.043033  -0.000266   0.000326   0.000017
     7  C    5.066392   0.327046  -0.034016   0.007529  -0.000087   0.000021
     8  N    0.327046   6.928552   0.195264  -0.057507   0.004581   0.000367
     9  C   -0.034016   0.195264   4.625097   0.517228  -0.010186  -0.038186
    10  C    0.007529  -0.057507   0.517228   4.987651   0.519530  -0.038333
    11  C   -0.000087   0.004581  -0.010186   0.519530   4.871376   0.541581
    12  C    0.000021   0.000367  -0.038186  -0.038333   0.541581   4.858147
    13  C   -0.000026   0.004667  -0.008652  -0.041504  -0.023572   0.547791
    14  C   -0.007323  -0.051841   0.529467  -0.072356  -0.042626  -0.040399
    15  C    0.001916  -0.000026  -0.000002   0.000000   0.000000   0.000000
    16  C    0.000236   0.000000   0.000000   0.000000   0.000000   0.000000
    17  C    0.000003   0.000000   0.000000   0.000000   0.000000   0.000000
    18  C   -0.000028   0.000000   0.000000   0.000000   0.000000   0.000000
    19  C   -0.000060  -0.000011   0.000001   0.000000   0.000000   0.000000
    20  C    0.002621  -0.000171   0.000003   0.000000   0.000000   0.000000
    21  O   -0.000259   0.000003   0.000000   0.000000   0.000000   0.000000
    22  H   -0.001426   0.000007   0.000002   0.000000   0.000000   0.000000
    23  H    0.360819  -0.034421  -0.001637  -0.000113  -0.000004  -0.000001
    24  H    0.000254  -0.014000  -0.037113   0.355646  -0.038839   0.004423
    25  H    0.000001  -0.000106   0.003488  -0.037888   0.362539  -0.040247
    26  H    0.000000   0.000004   0.000512   0.004646  -0.041617   0.364558
    27  H   -0.000004  -0.000111   0.003462   0.000763   0.004460  -0.039478
    28  H    0.005956  -0.009474  -0.041217   0.005400   0.000247   0.004367
    29  H    0.000005   0.000000   0.000000   0.000000   0.000000   0.000000
    30  H    0.000000   0.000000   0.000000   0.000000   0.000000   0.000000
    31  H    0.000000   0.000000   0.000000   0.000000   0.000000   0.000000
    32  H   -0.000006   0.000001   0.000000   0.000000   0.000000   0.000000
    33  H    0.000050  -0.000013   0.000000   0.000000   0.000000   0.000000
              13         14         15         16         17         18
     1  O    0.000000   0.000000  -0.059242   0.002647   0.000540  -0.000006
     2  S    0.000000   0.000000   0.187344  -0.023520   0.002971  -0.000319
     3  N    0.000000   0.000004  -0.062585  -0.001558  -0.000115   0.000004
     4  C   -0.000009   0.000895  -0.002392   0.000013  -0.000021   0.000006
     5  N    0.000002  -0.000326  -0.000114  -0.000006   0.000000   0.000000
     6  N   -0.000068   0.002986   0.000006   0.000000   0.000000   0.000000
     7  C   -0.000026  -0.007323   0.001916   0.000236   0.000003  -0.000028
     8  N    0.004667  -0.051841  -0.000026   0.000000   0.000000   0.000000
     9  C   -0.008652   0.529467  -0.000002   0.000000   0.000000   0.000000
    10  C   -0.041504  -0.072356   0.000000   0.000000   0.000000   0.000000
    11  C   -0.023572  -0.042626   0.000000   0.000000   0.000000   0.000000
    12  C    0.547791  -0.040399   0.000000   0.000000   0.000000   0.000000
    13  C    4.849658   0.529735   0.000000   0.000000   0.000000   0.000000
    14  C    0.529735   4.994819   0.000000   0.000000   0.000000   0.000000
    15  C    0.000000   0.000000   5.361743   0.480359  -0.028574  -0.038377
    16  C    0.000000   0.000000   0.480359   4.953441   0.508251  -0.030753
    17  C    0.000000   0.000000  -0.028574   0.508251   4.881150   0.540553
    18  C    0.000000   0.000000  -0.038377  -0.030753   0.540553   4.848990
    19  C    0.000000   0.000000  -0.029479  -0.037311  -0.030475   0.542659
    20  C    0.000000   0.000000   0.487158  -0.038261  -0.036914  -0.031375
    21  O    0.000000   0.000000  -0.058352   0.001656  -0.000047  -0.000004
    22  H    0.000000   0.000000  -0.000111   0.000342   0.000026   0.000000
    23  H    0.000172   0.002386   0.000320   0.000071   0.000021   0.000013
    24  H    0.000116   0.005585   0.000000   0.000000   0.000000   0.000000
    25  H    0.004491   0.000765   0.000000   0.000000   0.000000   0.000000
    26  H   -0.041484   0.004950   0.000000   0.000000   0.000000   0.000000
    27  H    0.361902  -0.038047   0.000000   0.000000   0.000000   0.000000
    28  H   -0.035142   0.351270   0.000000   0.000000   0.000000   0.000000
    29  H    0.000000   0.000000  -0.049141   0.362341  -0.034701   0.004155
    30  H    0.000000   0.000000   0.004792  -0.041247   0.365605  -0.040429
    31  H    0.000000   0.000000   0.000457   0.004816  -0.041132   0.364359
    32  H    0.000000   0.000000   0.004777   0.000642   0.004319  -0.040332
    33  H    0.000000   0.000000  -0.046662   0.004612   0.000287   0.004143
              19         20         21         22         23         24
     1  O   -0.000043   0.001506  -0.039022   0.001984  -0.000001   0.000000
     2  S    0.002598  -0.023835   0.435720  -0.005151   0.000168   0.000000
     3  N   -0.000099  -0.002799  -0.053045   0.301427  -0.000345   0.000000
     4  C    0.000081   0.000608   0.002800  -0.029112  -0.025619   0.000058
     5  N    0.000002  -0.000059   0.000462   0.001652   0.003908  -0.000353
     6  N    0.000000  -0.000015   0.000009  -0.000074   0.003462   0.016501
     7  C   -0.000060   0.002621  -0.000259  -0.001426   0.360819   0.000254
     8  N   -0.000011  -0.000171   0.000003   0.000007  -0.034421  -0.014000
     9  C    0.000001   0.000003   0.000000   0.000002  -0.001637  -0.037113
    10  C    0.000000   0.000000   0.000000   0.000000  -0.000113   0.355646
    11  C    0.000000   0.000000   0.000000   0.000000  -0.000004  -0.038839
    12  C    0.000000   0.000000   0.000000   0.000000  -0.000001   0.004423
    13  C    0.000000   0.000000   0.000000   0.000000   0.000172   0.000116
    14  C    0.000000   0.000000   0.000000   0.000000   0.002386   0.005585
    15  C   -0.029479   0.487158  -0.058352  -0.000111   0.000320   0.000000
    16  C   -0.037311  -0.038261   0.001656   0.000342   0.000071   0.000000
    17  C   -0.030475  -0.036914  -0.000047   0.000026   0.000021   0.000000
    18  C    0.542659  -0.031375  -0.000004   0.000000   0.000013   0.000000
    19  C    4.881360   0.508110   0.000490   0.000000   0.000058   0.000000
    20  C    0.508110   4.944736   0.002876   0.000083   0.000188   0.000000
    21  O    0.000490   0.002876   8.237732   0.001551   0.000000   0.000000
    22  H    0.000000   0.000083   0.001551   0.338334   0.000602   0.000000
    23  H    0.000058   0.000188   0.000000   0.000602   0.478785  -0.000011
    24  H    0.000000   0.000000   0.000000   0.000000  -0.000011   0.536164
    25  H    0.000000   0.000000   0.000000   0.000000   0.000000  -0.005028
    26  H    0.000000   0.000000   0.000000   0.000000   0.000000  -0.000135
    27  H    0.000000   0.000000   0.000000   0.000000  -0.000001   0.000013
    28  H    0.000000   0.000000   0.000000   0.000000   0.001852  -0.000136
    29  H    0.000306   0.004541   0.000085   0.000095  -0.000002   0.000000
    30  H    0.004323   0.000633   0.000000   0.000000   0.000000   0.000000
    31  H   -0.041058   0.004805   0.000000   0.000000   0.000000   0.000000
    32  H    0.365580  -0.041206   0.000002   0.000000   0.000000   0.000000
    33  H   -0.034580   0.361865   0.009038  -0.000007  -0.000010   0.000000
              25         26         27         28         29         30
     1  O    0.000000   0.000000   0.000000   0.000000   0.008844   0.000002
     2  S    0.000000   0.000000   0.000000   0.000000  -0.002364  -0.000055
     3  N    0.000000   0.000000   0.000000   0.000001   0.000046   0.000001
     4  C    0.000000   0.000000   0.000000   0.000074   0.000002   0.000000
     5  N    0.000000   0.000000   0.000000  -0.000005   0.000000   0.000000
     6  N   -0.000008   0.000000   0.000001  -0.000087   0.000000   0.000000
     7  C    0.000001   0.000000  -0.000004   0.005956   0.000005   0.000000
     8  N   -0.000106   0.000004  -0.000111  -0.009474   0.000000   0.000000
     9  C    0.003488   0.000512   0.003462  -0.041217   0.000000   0.000000
    10  C   -0.037888   0.004646   0.000763   0.005400   0.000000   0.000000
    11  C    0.362539  -0.041617   0.004460   0.000247   0.000000   0.000000
    12  C   -0.040247   0.364558  -0.039478   0.004367   0.000000   0.000000
    13  C    0.004491  -0.041484   0.361902  -0.035142   0.000000   0.000000
    14  C    0.000765   0.004950  -0.038047   0.351270   0.000000   0.000000
    15  C    0.000000   0.000000   0.000000   0.000000  -0.049141   0.004792
    16  C    0.000000   0.000000   0.000000   0.000000   0.362341  -0.041247
    17  C    0.000000   0.000000   0.000000   0.000000  -0.034701   0.365605
    18  C    0.000000   0.000000   0.000000   0.000000   0.004155  -0.040429
    19  C    0.000000   0.000000   0.000000   0.000000   0.000306   0.004323
    20  C    0.000000   0.000000   0.000000   0.000000   0.004541   0.000633
    21  O    0.000000   0.000000   0.000000   0.000000   0.000085   0.000000
    22  H    0.000000   0.000000   0.000000   0.000000   0.000095   0.000000
    23  H    0.000000   0.000000  -0.000001   0.001852  -0.000002   0.000000
    24  H   -0.005028  -0.000135   0.000013  -0.000136   0.000000   0.000000
    25  H    0.559366  -0.005164  -0.000170   0.000014   0.000000   0.000000
    26  H   -0.005164   0.565134  -0.005151  -0.000153   0.000000   0.000000
    27  H   -0.000170  -0.005151   0.559990  -0.005267   0.000000   0.000000
    28  H    0.000014  -0.000153  -0.005267   0.561009   0.000000   0.000000
    29  H    0.000000   0.000000   0.000000   0.000000   0.529148  -0.005079
    30  H    0.000000   0.000000   0.000000   0.000000  -0.005079   0.553836
    31  H    0.000000   0.000000   0.000000   0.000000  -0.000142  -0.005173
    32  H    0.000000   0.000000   0.000000   0.000000   0.000014  -0.000161
    33  H    0.000000   0.000000   0.000000   0.000000  -0.000149   0.000014
              31         32         33
     1  O    0.000000   0.000000   0.000068
     2  S    0.000006  -0.000053  -0.003220
     3  N    0.000000   0.000002  -0.000039
     4  C    0.000000  -0.000002   0.000383
     5  N    0.000000   0.000000   0.000085
     6  N    0.000000   0.000000   0.000033
     7  C    0.000000  -0.000006   0.000050
     8  N    0.000000   0.000001  -0.000013
     9  C    0.000000   0.000000   0.000000
    10  C    0.000000   0.000000   0.000000
    11  C    0.000000   0.000000   0.000000
    12  C    0.000000   0.000000   0.000000
    13  C    0.000000   0.000000   0.000000
    14  C    0.000000   0.000000   0.000000
    15  C    0.000457   0.004777  -0.046662
    16  C    0.004816   0.000642   0.004612
    17  C   -0.041132   0.004319   0.000287
    18  C    0.364359  -0.040332   0.004143
    19  C   -0.041058   0.365580  -0.034580
    20  C    0.004805  -0.041206   0.361865
    21  O    0.000000   0.000002   0.009038
    22  H    0.000000   0.000000  -0.000007
    23  H    0.000000   0.000000  -0.000010
    24  H    0.000000   0.000000   0.000000
    25  H    0.000000   0.000000   0.000000
    26  H    0.000000   0.000000   0.000000
    27  H    0.000000   0.000000   0.000000
    28  H    0.000000   0.000000   0.000000
    29  H   -0.000142   0.000014  -0.000149
    30  H   -0.005173  -0.000161   0.000014
    31  H    0.556263  -0.005216  -0.000140
    32  H   -0.005216   0.553362  -0.005002
    33  H   -0.000140  -0.005002   0.525035
 Mulliken charges:
               1
     1  O   -0.552265
     2  S    1.193014
     3  N   -0.769288
     4  C    0.366216
     5  N   -0.302035
     6  N   -0.082326
     7  C    0.037927
     8  N   -0.364947
     9  C    0.327974
    10  C   -0.150396
    11  C   -0.147710
    12  C   -0.124628
    13  C   -0.148080
    14  C   -0.169943
    15  C   -0.153816
    16  C   -0.146771
    17  C   -0.131748
    18  C   -0.123260
    19  C   -0.132452
    20  C   -0.145096
    21  O   -0.541694
    22  H    0.389775
    23  H    0.209337
    24  H    0.176855
    25  H    0.157946
    26  H    0.153900
    27  H    0.157638
    28  H    0.161293
    29  H    0.181997
    30  H    0.162938
    31  H    0.162155
    32  H    0.163280
    33  H    0.184211
 Sum of Mulliken charges =   0.00000
 Mulliken charges with hydrogens summed into heavy atoms:
               1
     1  O   -0.552265
     2  S    1.193014
     3  N   -0.379513
     4  C    0.366216
     5  N   -0.302035
     6  N   -0.082326
     7  C    0.247264
     8  N   -0.364947
     9  C    0.327974
    10  C    0.026459
    11  C    0.010236
    12  C    0.029271
    13  C    0.009558
    14  C   -0.008650
    15  C   -0.153816
    16  C    0.035225
    17  C    0.031190
    18  C    0.038895
    19  C    0.030828
    20  C    0.039115
    21  O   -0.541694
 Electronic spatial extent (au):  <R**2>=           7570.3430
 Charge=              0.0000 electrons
 Dipole moment (field-independent basis, Debye):
    X=              5.4182    Y=             10.1264    Z=             -4.0605  Tot=             12.1815
 Quadrupole moment (field-independent basis, Debye-Ang):
   XX=           -123.7542   YY=           -133.0017   ZZ=           -117.0679
   XY=            -10.1669   XZ=              5.6367   YZ=              3.1820
 Traceless Quadrupole moment (field-independent basis, Debye-Ang):
   XX=              0.8537   YY=             -8.3938   ZZ=              7.5400
   XY=            -10.1669   XZ=              5.6367   YZ=              3.1820
 Octapole moment (field-independent basis, Debye-Ang**2):
  XXX=            159.7454  YYY=             73.9266  ZZZ=            -13.4856  XYY=            -14.9056
  XXY=             91.4377  XXZ=             -2.9774  XZZ=              3.2541  YZZ=              8.0162
  YYZ=            -13.6120  XYZ=             -7.9978
 Hexadecapole moment (field-independent basis, Debye-Ang**3):
 XXXX=          -6956.6822 YYYY=          -2067.5839 ZZZZ=           -631.5208 XXXY=             63.3951
 XXXZ=            143.3534 YYYX=            -82.9090 YYYZ=             25.3671 ZZZX=             42.1467
 ZZZY=              7.5637 XXYY=          -1571.9202 XXZZ=          -1272.6933 YYZZ=           -453.8236
 XXYZ=           -102.6156 YYXZ=             -1.2811 ZZXY=              0.8399
 N-N= 1.738993754487D+03 E-N=-6.538784726397D+03  KE= 1.298276166463D+03
 No NMR shielding tensors so no spin-rotation constants.
 Leave Link  601 at Thu Aug  6 21:13:37 2020, MaxMem=    33554432 cpu:         0.3
 (Enter /prod/apps/gaussian/g09d1/l9999.exe)
 1\1\GINC-PIRINEUS9\SP\RB3LYP\6-31G(d)\C14H12N4O2S1\UBAFAR01\06-Aug-202
 0\0\\#p b3lyp/6-31G(d) scrf=(iefpcm,read,solvent=n-Octanol) geom=allch
 eck guess=read\\SM45.n.6.pdb.xyz\\0,1\O,0,3.074,-2.658,-0.344\S,0,2.95
 5,-2.557,1.113\N,0,2.48,-0.942,1.378\C,0,2.247,-0.475,2.684\N,0,3.265,
 -0.034,3.479\N,0,2.771,0.364,4.615\C,0,1.058,-0.337,3.371\N,0,1.421,0.
 198,4.562\C,0,0.598,0.564,5.663\C,0,1.159,0.633,6.94\C,0,0.351,0.994,8
 .015\C,0,-1.004,1.269,7.822\C,0,-1.551,1.193,6.541\C,0,-0.752,0.847,5.
 453\C,0,1.6,-3.601,1.632\C,0,0.598,-3.913,0.712\C,0,-0.471,-4.704,1.12
 5\C,0,-0.529,-5.171,2.441\C,0,0.484,-4.855,3.348\C,0,1.561,-4.065,2.94
 8\O,0,4.086,-2.816,2.002\H,0,1.8,-0.652,0.68\H,0,0.04,-0.576,3.118\H,0
 ,2.209,0.408,7.071\H,0,0.782,1.05,9.009\H,0,-1.629,1.544,8.664\H,0,-2.
 601,1.412,6.381\H,0,-1.17,0.812,4.454\H,0,0.674,-3.555,-0.308\H,0,-1.2
 53,-4.962,0.42\H,0,-1.363,-5.788,2.757\H,0,0.44,-5.228,4.365\H,0,2.368
 ,-3.824,3.628\\Version=AM64L-G09RevD.01\State=1-A\HF=-1308.2698073\RMS
 D=8.605e-09\Dipole=-4.5872235,-0.0942251,1.3846631\Quadrupole=-8.47457
 95,3.833922,4.6406575,0.2409765,7.8468138,0.153822\PG=C01 [X(C14H12N4O
 2S1)]\\@


 THERE IS MUCH PLEASURE TO BE GAINED FROM USELESS KNOWLEDGE

                                       -- BERTRAND RUSSELL
 Job cpu time:       0 days  0 hours  3 minutes 37.1 seconds.
 File lengths (MBytes):  RWF=    248 Int=      0 D2E=      0 Chk=      7 Scr=      1
 Normal termination of Gaussian 09 at Thu Aug  6 21:13:37 2020.
