 Entering Gaussian System, Link 0=g09
 Initial command:
 /prod/apps/gaussian/g09d1/l1.exe "/tmp/ubafar01/1448559/Gau-180914.inp" -scrdir="/tmp/ubafar01/1448559/"
 Entering Link 1 = /prod/apps/gaussian/g09d1/l1.exe PID=    180915.
  
 Copyright (c) 1988,1990,1992,1993,1995,1998,2003,2009,2013,
            Gaussian, Inc.  All Rights Reserved.
  
 This is part of the Gaussian(R) 09 program.  It is based on
 the Gaussian(R) 03 system (copyright 2003, Gaussian, Inc.),
 the Gaussian(R) 98 system (copyright 1998, Gaussian, Inc.),
 the Gaussian(R) 94 system (copyright 1995, Gaussian, Inc.),
 the Gaussian 92(TM) system (copyright 1992, Gaussian, Inc.),
 the Gaussian 90(TM) system (copyright 1990, Gaussian, Inc.),
 the Gaussian 88(TM) system (copyright 1988, Gaussian, Inc.),
 the Gaussian 86(TM) system (copyright 1986, Carnegie Mellon
 University), and the Gaussian 82(TM) system (copyright 1983,
 Carnegie Mellon University). Gaussian is a federally registered
 trademark of Gaussian, Inc.
  
 This software contains proprietary and confidential information,
 including trade secrets, belonging to Gaussian, Inc.
  
 This software is provided under written license and may be
 used, copied, transmitted, or stored only in accord with that
 written license.
  
 The following legend is applicable only to US Government
 contracts under FAR:
  
                    RESTRICTED RIGHTS LEGEND
  
 Use, reproduction and disclosure by the US Government is
 subject to restrictions as set forth in subparagraphs (a)
 and (c) of the Commercial Computer Software - Restricted
 Rights clause in FAR 52.227-19.
  
 Gaussian, Inc.
 340 Quinnipiac St., Bldg. 40, Wallingford CT 06492
  
  
 ---------------------------------------------------------------
 Warning -- This program may not be used in any manner that
 competes with the business of Gaussian, Inc. or will provide
 assistance to any competitor of Gaussian, Inc.  The licensee
 of this program is prohibited from giving any competitor of
 Gaussian, Inc. access to this program.  By using this program,
 the user acknowledges that Gaussian, Inc. is engaged in the
 business of creating and licensing software in the field of
 computational chemistry and represents and warrants to the
 licensee that it is not a competitor of Gaussian, Inc. and that
 it will not use this program in any manner prohibited above.
 ---------------------------------------------------------------
  

 Cite this work as:
 Gaussian 09, Revision D.01,
 M. J. Frisch, G. W. Trucks, H. B. Schlegel, G. E. Scuseria, 
 M. A. Robb, J. R. Cheeseman, G. Scalmani, V. Barone, B. Mennucci, 
 G. A. Petersson, H. Nakatsuji, M. Caricato, X. Li, H. P. Hratchian, 
 A. F. Izmaylov, J. Bloino, G. Zheng, J. L. Sonnenberg, M. Hada, 
 M. Ehara, K. Toyota, R. Fukuda, J. Hasegawa, M. Ishida, T. Nakajima, 
 Y. Honda, O. Kitao, H. Nakai, T. Vreven, J. A. Montgomery, Jr., 
 J. E. Peralta, F. Ogliaro, M. Bearpark, J. J. Heyd, E. Brothers, 
 K. N. Kudin, V. N. Staroverov, T. Keith, R. Kobayashi, J. Normand, 
 K. Raghavachari, A. Rendell, J. C. Burant, S. S. Iyengar, J. Tomasi, 
 M. Cossi, N. Rega, J. M. Millam, M. Klene, J. E. Knox, J. B. Cross, 
 V. Bakken, C. Adamo, J. Jaramillo, R. Gomperts, R. E. Stratmann, 
 O. Yazyev, A. J. Austin, R. Cammi, C. Pomelli, J. W. Ochterski, 
 R. L. Martin, K. Morokuma, V. G. Zakrzewski, G. A. Voth, 
 P. Salvador, J. J. Dannenberg, S. Dapprich, A. D. Daniels, 
 O. Farkas, J. B. Foresman, J. V. Ortiz, J. Cioslowski, 
 and D. J. Fox, Gaussian, Inc., Wallingford CT, 2013.
 
 ******************************************
 Gaussian 09:  AM64L-G09RevD.01 24-Apr-2013
                 6-Aug-2020 
 ******************************************
 %nproc=1
 Will use up to    1 processors via shared memory.
 %Chk=SM46.n.4.pdb.xyz.mst.n.w.chk
 -----------------
 #p b3lyp/6-31G(d)
 -----------------
 1/38=1/1;
 2/12=2,17=6,18=5,40=1/2;
 3/5=1,6=6,7=1,11=2,16=1,25=1,30=1,74=-5/1,2,3;
 4//1;
 5/5=2,38=5/2;
 6/7=2,8=2,9=2,10=2,28=1/1;
 99/5=1,9=1/99;
 Leave Link    1 at Thu Aug  6 21:11:43 2020, MaxMem=           0 cpu:         0.0
 (Enter /prod/apps/gaussian/g09d1/l101.exe)
 ----------------
 SM46.n.4.pdb.xyz
 ----------------
 Symbolic Z-matrix:
 Charge =  0 Multiplicity = 1
 O                     4.003     0.679     0.818 
 S                     3.615    -0.017    -0.409 
 N                     3.192     1.245    -1.471 
 C                     2.735     0.949    -2.767 
 N                     3.454     1.263    -3.88 
 N                     2.767     0.915    -4.937 
 C                     1.545     0.368    -3.153 
 N                     1.614     0.354    -4.509 
 C                     0.658    -0.141    -5.442 
 C                     1.094    -0.584    -6.692 
 C                     0.157    -1.063    -7.606 
 C                    -1.198    -1.111    -7.27 
 C                    -1.617    -0.67     -6.014 
 C                    -0.694    -0.175    -5.095 
 N                     4.955    -0.87     -0.921 
 C                     4.771    -1.818    -2.03 
 C                     6.217    -0.12     -0.964 
 O                     2.488    -0.948    -0.43 
 H                     3.906     1.976    -1.457 
 H                     0.718    -0.034    -2.596 
 H                     2.149    -0.552    -6.932 
 H                     0.491    -1.407    -8.578 
 H                    -1.922    -1.491    -7.982 
 H                    -2.668    -0.699    -5.748 
 H                    -1.021     0.191    -4.129 
 H                     3.819    -2.331    -1.913 
 H                     5.579    -2.55     -1.968 
 H                     4.813    -1.327    -3.008 
 H                     6.301     0.502    -0.074 
 H                     6.3       0.503    -1.863 
 H                     7.031    -0.848    -0.963 
 
 NAtoms=     31 NQM=       31 NQMF=       0 NMMI=      0 NMMIF=      0
                NMic=       0 NMicF=      0.
                    Isotopes and Nuclear Properties:
 (Nuclear quadrupole moments (NQMom) in fm**2, nuclear magnetic moments (NMagM)
  in nuclear magnetons)

  Atom         1           2           3           4           5           6           7           8           9          10
 IAtWgt=          16          32          14          12          14          14          12          14          12          12
 AtmWgt=  15.9949146  31.9720718  14.0030740  12.0000000  14.0030740  14.0030740  12.0000000  14.0030740  12.0000000  12.0000000
 NucSpn=           0           0           2           0           2           2           0           2           0           0
 AtZEff=   0.0000000   0.0000000   0.0000000   0.0000000   0.0000000   0.0000000   0.0000000   0.0000000   0.0000000   0.0000000
 NQMom=    0.0000000   0.0000000   2.0440000   0.0000000   2.0440000   2.0440000   0.0000000   2.0440000   0.0000000   0.0000000
 NMagM=    0.0000000   0.0000000   0.4037610   0.0000000   0.4037610   0.4037610   0.0000000   0.4037610   0.0000000   0.0000000
 AtZNuc=   8.0000000  16.0000000   7.0000000   6.0000000   7.0000000   7.0000000   6.0000000   7.0000000   6.0000000   6.0000000

  Atom        11          12          13          14          15          16          17          18          19          20
 IAtWgt=          12          12          12          12          14          12          12          16           1           1
 AtmWgt=  12.0000000  12.0000000  12.0000000  12.0000000  14.0030740  12.0000000  12.0000000  15.9949146   1.0078250   1.0078250
 NucSpn=           0           0           0           0           2           0           0           0           1           1
 AtZEff=   0.0000000   0.0000000   0.0000000   0.0000000   0.0000000   0.0000000   0.0000000   0.0000000   0.0000000   0.0000000
 NQMom=    0.0000000   0.0000000   0.0000000   0.0000000   2.0440000   0.0000000   0.0000000   0.0000000   0.0000000   0.0000000
 NMagM=    0.0000000   0.0000000   0.0000000   0.0000000   0.4037610   0.0000000   0.0000000   0.0000000   2.7928460   2.7928460
 AtZNuc=   6.0000000   6.0000000   6.0000000   6.0000000   7.0000000   6.0000000   6.0000000   8.0000000   1.0000000   1.0000000

  Atom        21          22          23          24          25          26          27          28          29          30
 IAtWgt=           1           1           1           1           1           1           1           1           1           1
 AtmWgt=   1.0078250   1.0078250   1.0078250   1.0078250   1.0078250   1.0078250   1.0078250   1.0078250   1.0078250   1.0078250
 NucSpn=           1           1           1           1           1           1           1           1           1           1
 AtZEff=   0.0000000   0.0000000   0.0000000   0.0000000   0.0000000   0.0000000   0.0000000   0.0000000   0.0000000   0.0000000
 NQMom=    0.0000000   0.0000000   0.0000000   0.0000000   0.0000000   0.0000000   0.0000000   0.0000000   0.0000000   0.0000000
 NMagM=    2.7928460   2.7928460   2.7928460   2.7928460   2.7928460   2.7928460   2.7928460   2.7928460   2.7928460   2.7928460
 AtZNuc=   1.0000000   1.0000000   1.0000000   1.0000000   1.0000000   1.0000000   1.0000000   1.0000000   1.0000000   1.0000000

  Atom        31
 IAtWgt=           1
 AtmWgt=   1.0078250
 NucSpn=           1
 AtZEff=   0.0000000
 NQMom=    0.0000000
 NMagM=    2.7928460
 AtZNuc=   1.0000000
 Leave Link  101 at Thu Aug  6 21:11:44 2020, MaxMem=    33554432 cpu:         0.1
 (Enter /prod/apps/gaussian/g09d1/l202.exe)
                          Input orientation:                          
 ---------------------------------------------------------------------
 Center     Atomic      Atomic             Coordinates (Angstroms)
 Number     Number       Type             X           Y           Z
 ---------------------------------------------------------------------
      1          8           0        4.003000    0.679000    0.818000
      2         16           0        3.615000   -0.017000   -0.409000
      3          7           0        3.192000    1.245000   -1.471000
      4          6           0        2.735000    0.949000   -2.767000
      5          7           0        3.454000    1.263000   -3.880000
      6          7           0        2.767000    0.915000   -4.937000
      7          6           0        1.545000    0.368000   -3.153000
      8          7           0        1.614000    0.354000   -4.509000
      9          6           0        0.658000   -0.141000   -5.442000
     10          6           0        1.094000   -0.584000   -6.692000
     11          6           0        0.157000   -1.063000   -7.606000
     12          6           0       -1.198000   -1.111000   -7.270000
     13          6           0       -1.617000   -0.670000   -6.014000
     14          6           0       -0.694000   -0.175000   -5.095000
     15          7           0        4.955000   -0.870000   -0.921000
     16          6           0        4.771000   -1.818000   -2.030000
     17          6           0        6.217000   -0.120000   -0.964000
     18          8           0        2.488000   -0.948000   -0.430000
     19          1           0        3.906000    1.976000   -1.457000
     20          1           0        0.718000   -0.034000   -2.596000
     21          1           0        2.149000   -0.552000   -6.932000
     22          1           0        0.491000   -1.407000   -8.578000
     23          1           0       -1.922000   -1.491000   -7.982000
     24          1           0       -2.668000   -0.699000   -5.748000
     25          1           0       -1.021000    0.191000   -4.129000
     26          1           0        3.819000   -2.331000   -1.913000
     27          1           0        5.579000   -2.550000   -1.968000
     28          1           0        4.813000   -1.327000   -3.008000
     29          1           0        6.301000    0.502000   -0.074000
     30          1           0        6.300000    0.503000   -1.863000
     31          1           0        7.031000   -0.848000   -0.963000
 ---------------------------------------------------------------------
                    Distance matrix (angstroms):
                    1          2          3          4          5
     1  O    0.000000
     2  S    1.463041   0.000000
     3  N    2.493511   1.702767   0.000000
     4  C    3.812211   2.695871   1.405731   0.000000
     5  N    4.765885   3.702994   2.423272   1.361736   0.000000
     6  N    5.890961   4.700054   3.507518   2.170502   1.307793
     7  C    4.680526   3.458708   2.512143   1.379368   2.230210
     8  N    5.847211   4.577296   3.537430   2.155280   2.146514
     9  C    7.144860   5.838691   4.910295   3.557760   3.496952
    10  C    8.152150   6.793601   5.916560   4.522012   4.109544
    11  C    9.422848   8.052868   7.223317   5.840389   5.492136
    12  C    9.781117   8.451930   7.645341   6.323693   6.226482
    13  C    8.948767   7.695210   6.887130   5.666046   5.831422
    14  C    7.599651   6.367970   5.500070   4.294299   4.555214
    15  N    2.515915   1.668938   2.807827   3.412459   3.944410
    16  C    3.864704   2.684693   3.491087   3.513510   3.827473
    17  C    2.952240   2.662525   3.357216   4.064221   4.248519
    18  O    2.549482   1.461961   2.527557   3.020130   4.210009
    19  H    2.620543   2.270470   1.021936   2.035208   2.565853
    20  H    4.791137   3.629858   3.003688   2.250293   3.288854
    21  H    8.063199   6.707079   5.842908   4.465828   3.783114
    22  H   10.245504   8.855735   8.052202   6.659879   6.162749
    23  H   10.828413   9.496387   8.719622   7.405233   7.301527
    24  H    9.461156   8.273218   7.510757   6.387071   6.694606
    25  H    7.067640   5.947618   5.091684   4.066589   4.608341
    26  H    4.068454   2.767350   3.657358   3.558479   4.113289
    27  H    4.546649   3.564248   4.510743   4.579273   4.765536
    28  H    4.395272   3.147397   3.406640   3.091333   3.052108
    29  H    2.471396   2.756117   3.488487   4.490926   4.813540
    30  H    3.534819   3.097376   3.219300   3.704775   3.570099
    31  H    3.830467   3.559007   4.401890   4.993920   5.075445
                    6          7          8          9         10
     6  N    0.000000
     7  C    2.230504   0.000000
     8  N    1.351782   1.357827   0.000000
     9  C    2.412062   2.507064   1.424588   0.000000
    10  C    2.850606   3.692455   2.432228   1.396010   0.000000
    11  C    4.224706   4.878885   3.704342   2.404991   1.393846
    12  C    5.026807   5.163446   4.204366   2.779788   2.421792
    13  C    4.784518   4.388737   3.708499   2.404714   2.795818
    14  C    3.632022   3.013193   2.439283   1.396234   2.432002
    15  N    4.909361   4.259409   5.053138   6.279737   6.949357
    16  C    4.464970   4.055466   4.563954   5.600968   6.064431
    17  C    5.362691   5.182417   5.829177   7.138306   7.698728
    18  O    4.884840   3.167938   4.370048   5.396322   6.425603
    19  H    3.812275   3.322108   4.147150   5.559804   6.470407
    20  H    3.252581   1.075073   2.147773   2.848643   4.149830
    21  H    2.552261   3.935995   2.641589   2.147580   1.082427
    22  H    4.881469   5.804495   4.573731   3.386021   2.144279
    23  H    6.086672   6.228580   5.288577   3.864001   3.403381
    24  H    5.727298   5.061806   4.580333   3.386337   3.880336
    25  H    3.940303   2.751047   2.667245   2.157136   3.412158
    26  H    4.559364   3.740759   4.337103   5.219374   5.772043
    27  H    5.359900   5.117822   5.532732   6.487542   6.804157
    28  H    3.596348   3.684274   3.913101   4.959332   5.287236
    29  H    6.025653   5.667251   6.454386   7.814878   8.490593
    30  H    4.701203   4.928727   5.383504   6.712387   7.183540
    31  H    6.089544   6.030833   6.585044   7.821536   8.254641
                   11         12         13         14         15
    11  C    0.000000
    12  C    1.396863   0.000000
    13  C    2.415779   1.395557   0.000000
    14  C    2.796045   2.420896   1.393383   0.000000
    15  N    8.230873   8.844619   8.316840   7.058081   0.000000
    16  C    7.276730   7.974109   7.615557   6.477646   1.470524
    17  C    9.040410   9.784168   9.336839   8.051715   1.468670
    18  O    7.545977   7.771664   6.936091   5.699551   2.516596
    19  H    7.816695   8.328947   7.633551   6.246747   3.080164
    20  H    5.145256   5.165003   4.188012   2.873783   4.632137
    21  H    2.164131   3.410152   3.878067   3.405781   6.641301
    22  H    1.083825   2.156664   3.400137   3.879863   8.879488
    23  H    2.155644   1.084214   2.154087   3.402148   9.876056
    24  H    3.400777   2.155720   1.084527   2.144216   9.024372
    25  H    3.879398   3.404763   2.156331   1.083532   6.865097
    26  H    6.886822   7.440171   7.009081   5.927953   2.099781
    27  H    7.962179   8.724085   8.466814   7.400627   2.075569
    28  H    6.549018   7.371799   7.128295   6.000810   2.141164
    29  H    9.845252  10.517566   9.967543   8.637059   2.100359
    30  H    8.553996   9.384064   9.015854   7.734439   2.140448
    31  H    9.561775  10.371300  10.016596   8.786466   2.076541
                   16         17         18         19         20
    16  C    0.000000
    17  C    2.471938   0.000000
    18  O    2.920443   3.856965   0.000000
    19  H    3.933318   3.158637   3.408112   0.000000
    20  H    4.464283   5.736708   2.942763   3.937101   0.000000
    21  H    5.701512   7.235487   6.522863   6.281199   4.595322
    22  H    7.833494   9.613347   8.401702   8.591598   6.141741
    23  H    8.962672  10.833988   8.762172   9.410701   6.172637
    24  H    8.391329  10.107676   7.411306   8.293719   4.673577
    25  H    6.479903   7.905858   5.224271   5.882273   2.329128
    26  H    1.087733   3.396988   2.425601   4.331946   3.919043
    27  H    1.092031   2.705542   3.806065   4.852291   5.509443
    28  H    1.095139   2.757898   3.492184   3.760061   4.314003
    29  H    3.398417   1.089055   4.094900   3.133910   6.149607
    30  H    2.784380   1.096913   4.323220   2.840035   5.655474
    31  H    2.680856   1.092054   4.575253   4.240830   6.571397
                   21         22         23         24         25
    21  H    0.000000
    22  H    2.487831   0.000000
    23  H    4.307814   2.486934   0.000000
    24  H    4.962555   4.299935   2.484861   0.000000
    25  H    4.296249   4.963199   4.299597   2.475049   0.000000
    26  H    5.580690   7.506769   8.396275   7.710501   5.890394
    27  H    6.355958   8.419400   9.672367   9.258921   7.466124
    28  H    4.805757   7.050602   8.374234   7.991705   6.131600
    29  H    8.085925  10.474655  11.581288  10.680807   8.375645
    30  H    6.636158   9.082060  10.441239   9.846982   7.670016
    31  H    7.716897  10.053472  11.394561  10.816147   8.714229
                   26         27         28         29         30
    26  H    0.000000
    27  H    1.774426   0.000000
    28  H    1.787478   1.778788   0.000000
    29  H    4.191436   3.663772   3.764006   0.000000
    30  H    3.766884   3.138738   2.621277   1.789001   0.000000
    31  H    3.663159   2.452577   3.054667   1.773618   1.780326
                   31
    31  H    0.000000
 Stoichiometry    C10H13N5O2S
 Framework group  C1[X(C10H13N5O2S)]
 Deg. of freedom    87
 Full point group                 C1      NOp   1
 Largest Abelian subgroup         C1      NOp   1
 Largest concise Abelian subgroup C1      NOp   1
                         Standard orientation:                         
 ---------------------------------------------------------------------
 Center     Atomic      Atomic             Coordinates (Angstroms)
 Number     Number       Type             X           Y           Z
 ---------------------------------------------------------------------
      1          8           0       -4.137974   -1.305182   -0.395345
      2         16           0       -2.896650   -0.774444    0.168499
      3          7           0       -1.883020   -0.594750   -1.187850
      4          6           0       -0.569594   -0.120835   -1.025372
      5          7           0       -0.169455    1.089020   -1.505441
      6          7           0        1.104217    1.242385   -1.251353
      7          6           0        0.508879   -0.746162   -0.435018
      8          7           0        1.523828    0.143112   -0.585891
      9          6           0        2.877569    0.026993   -0.157696
     10          6           0        3.607630    1.186181    0.110896
     11          6           0        4.933729    1.071390    0.524526
     12          6           0        5.519290   -0.187180    0.680554
     13          6           0        4.774081   -1.336564    0.413800
     14          6           0        3.451821   -1.237589   -0.014394
     15          7           0       -3.280034    0.682927    0.885743
     16          6           0       -2.242287    1.328906    1.703199
     17          6           0       -4.079383    1.609060    0.073147
     18          8           0       -2.120376   -1.535324    1.146145
     19          1           0       -2.384079   -0.129155   -1.947135
     20          1           0        0.614924   -1.688409    0.071645
     21          1           0        3.135199    2.153423   -0.002689
     22          1           0        5.504531    1.968792    0.733164
     23          1           0        6.549049   -0.271205    1.009274
     24          1           0        5.223564   -2.317013    0.527300
     25          1           0        2.879975   -2.128336   -0.245915
     26          1           0       -1.708472    0.572281    2.273919
     27          1           0       -2.749032    2.004417    2.395607
     28          1           0       -1.536363    1.907342    1.097880
     29          1           0       -4.863951    1.056719   -0.442035
     30          1           0       -3.468747    2.155927   -0.655742
     31          1           0       -4.542560    2.326309    0.754030
 ---------------------------------------------------------------------
 Rotational constants (GHZ):      1.0148084      0.1773244      0.1706308
 Leave Link  202 at Thu Aug  6 21:11:44 2020, MaxMem=    33554432 cpu:         0.0
 (Enter /prod/apps/gaussian/g09d1/l301.exe)
 Standard basis: 6-31G(d) (6D, 7F)
 Ernie: Thresh=  0.10000D-02 Tol=  0.10000D-05 Strict=F.
 There are   300 symmetry adapted cartesian basis functions of A   symmetry.
 There are   300 symmetry adapted basis functions of A   symmetry.
   300 basis functions,   580 primitive gaussians,   300 cartesian basis functions
    70 alpha electrons       70 beta electrons
       nuclear repulsion energy      1475.5084820066 Hartrees.
 IExCor=  402 DFT=T Ex+Corr=B3LYP ExCW=0 ScaHFX=  0.200000
 ScaDFX=  0.800000  0.720000  1.000000  0.810000 ScalE2=  1.000000  1.000000
 IRadAn=      0 IRanWt=     -1 IRanGd=            0 ICorTp=0 IEmpDi=  4
 NAtoms=   31 NActive=   31 NUniq=   31 SFac= 1.00D+00 NAtFMM=   60 NAOKFM=F Big=F
 Integral buffers will be    131072 words long.
 Raffenetti 2 integral format.
 Two-electron integral symmetry is turned on.
 Leave Link  301 at Thu Aug  6 21:11:44 2020, MaxMem=    33554432 cpu:         0.0
 (Enter /prod/apps/gaussian/g09d1/l302.exe)
 NPDir=0 NMtPBC=     1 NCelOv=     1 NCel=       1 NClECP=     1 NCelD=      1
         NCelK=      1 NCelE2=     1 NClLst=     1 CellRange=     0.0.
 One-electron integrals computed using PRISM.
 NBasis=   300 RedAO= T EigKep=  4.68D-04  NBF=   300
 NBsUse=   300 1.00D-06 EigRej= -1.00D+00 NBFU=   300
 Precomputing XC quadrature grid using
 IXCGrd= 4 IRadAn=           0 IRanWt=          -1 IRanGd=           0 AccXCQ= 0.00D+00.
 Generated NRdTot=       0 NPtTot=           0 NUsed=           0 NTot=          32
 NSgBfM=   298   298   298   298   298 MxSgAt=    31 MxSgA2=    31.
 Leave Link  302 at Thu Aug  6 21:11:45 2020, MaxMem=    33554432 cpu:         1.1
 (Enter /prod/apps/gaussian/g09d1/l303.exe)
 DipDrv:  MaxL=1.
 Leave Link  303 at Thu Aug  6 21:11:45 2020, MaxMem=    33554432 cpu:         0.0
 (Enter /prod/apps/gaussian/g09d1/l401.exe)
 ExpMin= 1.17D-01 ExpMax= 2.19D+04 ExpMxC= 3.30D+03 IAcc=1 IRadAn=         1 AccDes= 0.00D+00
 Harris functional with IExCor=  402 and IRadAn=       1 diagonalized for initial guess.
 HarFok:  IExCor=  402 AccDes= 0.00D+00 IRadAn=         1 IDoV= 1 UseB2=F ITyADJ=14
 ICtDFT=  3500011 ScaDFX=  1.000000  1.000000  1.000000  1.000000
 FoFCou: FMM=F IPFlag=           0 FMFlag=      100000 FMFlg1=           0
         NFxFlg=           0 DoJE=T BraDBF=F KetDBF=T FulRan=T
         wScrn=  0.000000 ICntrl=     500 IOpCl=  0 I1Cent=   200000004 NGrid=           0
         NMat0=    1 NMatS0=      1 NMatT0=    0 NMatD0=    1 NMtDS0=    0 NMtDT0=    0
 Petite list used in FoFCou.
 Harris En= -1211.17177753473    
 JPrj=0 DoOrth=F DoCkMO=F.
 Leave Link  401 at Thu Aug  6 21:11:48 2020, MaxMem=    33554432 cpu:         3.1
 (Enter /prod/apps/gaussian/g09d1/l502.exe)
 Closed shell SCF:
 Using DIIS extrapolation, IDIIS=  1040.
 Integral symmetry usage will be decided dynamically.
 IVT=      292611 IEndB=      292611 NGot=    33554432 MDV=    33368762
 LenX=    33368762 LenY=    33278321
 Requested convergence on RMS density matrix=1.00D-08 within 128 cycles.
 Requested convergence on MAX density matrix=1.00D-06.
 Requested convergence on             energy=1.00D-06.
 No special actions if energy rises.
 Fock matrices will be formed incrementally for  20 cycles.
 Integral accuracy reduced to 1.0D-05 until final iterations.

 Cycle   1  Pass 0  IDiag  1:
 FoFJK:  IHMeth= 1 ICntrl=       0 DoSepK=F KAlg= 0 I1Cent=   0 FoldK=F
 IRaf= 750000000 NMat=   1 IRICut=       1 DoRegI=T DoRafI=F ISym2E= 0.
 FoFCou: FMM=F IPFlag=           0 FMFlag=      100000 FMFlg1=           0
         NFxFlg=           0 DoJE=F BraDBF=F KetDBF=F FulRan=T
         wScrn=  0.000000 ICntrl=       0 IOpCl=  0 I1Cent=           0 NGrid=           0
         NMat0=    1 NMatS0=      1 NMatT0=    0 NMatD0=    1 NMtDS0=    0 NMtDT0=    0
 Symmetry not used in FoFCou.
 E= -1210.61473697583    
 DIIS: error= 3.34D-02 at cycle   1 NSaved=   1.
 NSaved= 1 IEnMin= 1 EnMin= -1210.61473697583     IErMin= 1 ErrMin= 3.34D-02
 ErrMax= 3.34D-02  0.00D+00 EMaxC= 1.00D-01 BMatC= 6.42D-01 BMatP= 6.42D-01
 IDIUse=3 WtCom= 6.66D-01 WtEn= 3.34D-01
 Coeff-Com:  0.100D+01
 Coeff-En:   0.100D+01
 Coeff:      0.100D+01
 Gap=     0.309 Goal=   None    Shift=    0.000
 GapD=    0.309 DampG=1.000 DampE=0.500 DampFc=0.5000 IDamp=-1.
 Damping current iteration by 5.00D-01
 RMSDP=6.73D-03 MaxDP=6.14D-01              OVMax= 2.35D-01

 Cycle   2  Pass 0  IDiag  1:
 RMSU=  3.36D-03    CP:  9.93D-01
 E= -1210.72751716866     Delta-E=       -0.112780192825 Rises=F Damp=T
 DIIS: error= 1.58D-02 at cycle   2 NSaved=   2.
 NSaved= 2 IEnMin= 2 EnMin= -1210.72751716866     IErMin= 2 ErrMin= 1.58D-02
 ErrMax= 1.58D-02  0.00D+00 EMaxC= 1.00D-01 BMatC= 1.17D-01 BMatP= 6.42D-01
 IDIUse=3 WtCom= 8.42D-01 WtEn= 1.58D-01
 Coeff-Com:  0.251D+00 0.749D+00
 Coeff-En:   0.398D+00 0.602D+00
 Coeff:      0.274D+00 0.726D+00
 Gap=     0.232 Goal=   None    Shift=    0.000
 RMSDP=1.98D-03 MaxDP=1.44D-01 DE=-1.13D-01 OVMax= 2.05D-01

 Cycle   3  Pass 0  IDiag  1:
 RMSU=  1.61D-03    CP:  9.83D-01  6.62D-01
 E= -1211.11950701375     Delta-E=       -0.391989845096 Rises=F Damp=F
 DIIS: error= 9.69D-03 at cycle   3 NSaved=   3.
 NSaved= 3 IEnMin= 3 EnMin= -1211.11950701375     IErMin= 3 ErrMin= 9.69D-03
 ErrMax= 9.69D-03  0.00D+00 EMaxC= 1.00D-01 BMatC= 5.25D-02 BMatP= 1.17D-01
 IDIUse=3 WtCom= 9.03D-01 WtEn= 9.69D-02
 Coeff-Com:  0.850D-01 0.403D+00 0.512D+00
 Coeff-En:   0.000D+00 0.000D+00 0.100D+01
 Coeff:      0.767D-01 0.364D+00 0.559D+00
 Gap=     0.196 Goal=   None    Shift=    0.000
 RMSDP=1.05D-03 MaxDP=3.23D-02 DE=-3.92D-01 OVMax= 5.05D-02

 Cycle   4  Pass 0  IDiag  1:
 RMSU=  6.71D-04    CP:  9.88D-01  7.34D-01  5.28D-01
 E= -1211.15943180919     Delta-E=       -0.039924795442 Rises=F Damp=F
 DIIS: error= 3.61D-03 at cycle   4 NSaved=   4.
 NSaved= 4 IEnMin= 4 EnMin= -1211.15943180919     IErMin= 4 ErrMin= 3.61D-03
 ErrMax= 3.61D-03  0.00D+00 EMaxC= 1.00D-01 BMatC= 8.78D-03 BMatP= 5.25D-02
 IDIUse=3 WtCom= 9.64D-01 WtEn= 3.61D-02
 Coeff-Com:  0.850D-02 0.841D-01 0.306D+00 0.601D+00
 Coeff-En:   0.000D+00 0.000D+00 0.137D+00 0.863D+00
 Coeff:      0.819D-02 0.811D-01 0.300D+00 0.610D+00
 Gap=     0.189 Goal=   None    Shift=    0.000
 RMSDP=3.47D-04 MaxDP=1.19D-02 DE=-3.99D-02 OVMax= 1.50D-02

 Cycle   5  Pass 0  IDiag  1:
 RMSU=  1.76D-04    CP:  9.88D-01  7.25D-01  6.36D-01  6.41D-01
 E= -1211.16661948966     Delta-E=       -0.007187680462 Rises=F Damp=F
 DIIS: error= 8.24D-04 at cycle   5 NSaved=   5.
 NSaved= 5 IEnMin= 5 EnMin= -1211.16661948966     IErMin= 5 ErrMin= 8.24D-04
 ErrMax= 8.24D-04  0.00D+00 EMaxC= 1.00D-01 BMatC= 5.70D-04 BMatP= 8.78D-03
 IDIUse=3 WtCom= 9.92D-01 WtEn= 8.24D-03
 Coeff-Com: -0.146D-02 0.173D-01 0.113D+00 0.309D+00 0.562D+00
 Coeff-En:   0.000D+00 0.000D+00 0.000D+00 0.000D+00 0.100D+01
 Coeff:     -0.145D-02 0.172D-01 0.112D+00 0.306D+00 0.566D+00
 Gap=     0.190 Goal=   None    Shift=    0.000
 RMSDP=9.60D-05 MaxDP=4.74D-03 DE=-7.19D-03 OVMax= 5.22D-03

 Cycle   6  Pass 0  IDiag  1:
 RMSU=  5.14D-05    CP:  9.87D-01  7.26D-01  6.38D-01  6.88D-01  5.80D-01
 E= -1211.16708909472     Delta-E=       -0.000469605067 Rises=F Damp=F
 DIIS: error= 3.06D-04 at cycle   6 NSaved=   6.
 NSaved= 6 IEnMin= 6 EnMin= -1211.16708909472     IErMin= 6 ErrMin= 3.06D-04
 ErrMax= 3.06D-04  0.00D+00 EMaxC= 1.00D-01 BMatC= 4.62D-05 BMatP= 5.70D-04
 IDIUse=3 WtCom= 9.97D-01 WtEn= 3.06D-03
 Coeff-Com: -0.150D-02 0.249D-02 0.347D-01 0.113D+00 0.297D+00 0.555D+00
 Coeff-En:   0.000D+00 0.000D+00 0.000D+00 0.000D+00 0.000D+00 0.100D+01
 Coeff:     -0.150D-02 0.248D-02 0.346D-01 0.113D+00 0.296D+00 0.556D+00
 Gap=     0.190 Goal=   None    Shift=    0.000
 RMSDP=2.56D-05 MaxDP=1.27D-03 DE=-4.70D-04 OVMax= 1.56D-03

 Cycle   7  Pass 0  IDiag  1:
 RMSU=  1.86D-05    CP:  9.87D-01  7.26D-01  6.38D-01  6.88D-01  6.28D-01
                    CP:  6.98D-01
 E= -1211.16712241702     Delta-E=       -0.000033322299 Rises=F Damp=F
 DIIS: error= 9.79D-05 at cycle   7 NSaved=   7.
 NSaved= 7 IEnMin= 7 EnMin= -1211.16712241702     IErMin= 7 ErrMin= 9.79D-05
 ErrMax= 9.79D-05  0.00D+00 EMaxC= 1.00D-01 BMatC= 6.39D-06 BMatP= 4.62D-05
 IDIUse=1 WtCom= 1.00D+00 WtEn= 0.00D+00
 Coeff-Com: -0.794D-03 0.344D-03 0.123D-01 0.442D-01 0.138D+00 0.343D+00
 Coeff-Com:  0.462D+00
 Coeff:     -0.794D-03 0.344D-03 0.123D-01 0.442D-01 0.138D+00 0.343D+00
 Coeff:      0.462D+00
 Gap=     0.190 Goal=   None    Shift=    0.000
 RMSDP=1.09D-05 MaxDP=4.13D-04 DE=-3.33D-05 OVMax= 7.03D-04

 Cycle   8  Pass 0  IDiag  1:
 RMSU=  5.45D-06    CP:  9.87D-01  7.26D-01  6.38D-01  6.90D-01  6.27D-01
                    CP:  7.05D-01  5.02D-01
 E= -1211.16712791382     Delta-E=       -0.000005496797 Rises=F Damp=F
 DIIS: error= 3.77D-05 at cycle   8 NSaved=   8.
 NSaved= 8 IEnMin= 8 EnMin= -1211.16712791382     IErMin= 8 ErrMin= 3.77D-05
 ErrMax= 3.77D-05  0.00D+00 EMaxC= 1.00D-01 BMatC= 7.45D-07 BMatP= 6.39D-06
 IDIUse=1 WtCom= 1.00D+00 WtEn= 0.00D+00
 Coeff-Com: -0.312D-03-0.225D-03 0.294D-02 0.125D-01 0.480D-01 0.140D+00
 Coeff-Com:  0.290D+00 0.507D+00
 Coeff:     -0.312D-03-0.225D-03 0.294D-02 0.125D-01 0.480D-01 0.140D+00
 Coeff:      0.290D+00 0.507D+00
 Gap=     0.190 Goal=   None    Shift=    0.000
 RMSDP=3.59D-06 MaxDP=1.60D-04 DE=-5.50D-06 OVMax= 2.68D-04

 Initial convergence to 1.0D-05 achieved.  Increase integral accuracy.
 Cycle   9  Pass 1  IDiag  1:
 E= -1211.16691855345     Delta-E=        0.000209360366 Rises=F Damp=F
 DIIS: error= 4.79D-05 at cycle   1 NSaved=   1.
 NSaved= 1 IEnMin= 1 EnMin= -1211.16691855345     IErMin= 1 ErrMin= 4.79D-05
 ErrMax= 4.79D-05  0.00D+00 EMaxC= 1.00D-01 BMatC= 6.14D-07 BMatP= 6.14D-07
 IDIUse=1 WtCom= 1.00D+00 WtEn= 0.00D+00
 Coeff-Com:  0.100D+01
 Coeff:      0.100D+01
 Gap=     0.190 Goal=   None    Shift=    0.000
 RMSDP=3.59D-06 MaxDP=1.60D-04 DE= 2.09D-04 OVMax= 1.95D-04

 Cycle  10  Pass 1  IDiag  1:
 RMSU=  2.99D-05    CP:  1.00D+00
 E= -1211.16691899146     Delta-E=       -0.000000438007 Rises=F Damp=F
 DIIS: error= 2.41D-05 at cycle   2 NSaved=   2.
 NSaved= 2 IEnMin= 2 EnMin= -1211.16691899146     IErMin= 2 ErrMin= 2.41D-05
 ErrMax= 2.41D-05  0.00D+00 EMaxC= 1.00D-01 BMatC= 3.17D-07 BMatP= 6.14D-07
 IDIUse=1 WtCom= 1.00D+00 WtEn= 0.00D+00
 Coeff-Com:  0.376D+00 0.624D+00
 Coeff:      0.376D+00 0.624D+00
 Gap=     0.190 Goal=   None    Shift=    0.000
 RMSDP=3.65D-06 MaxDP=1.64D-04 DE=-4.38D-07 OVMax= 2.40D-04

 Cycle  11  Pass 1  IDiag  1:
 RMSU=  3.65D-06    CP:  1.00D+00  9.97D-01
 E= -1211.16691899538     Delta-E=       -0.000000003915 Rises=F Damp=F
 DIIS: error= 2.55D-05 at cycle   3 NSaved=   3.
 NSaved= 3 IEnMin= 3 EnMin= -1211.16691899538     IErMin= 2 ErrMin= 2.41D-05
 ErrMax= 2.55D-05  0.00D+00 EMaxC= 1.00D-01 BMatC= 3.14D-07 BMatP= 3.17D-07
 IDIUse=1 WtCom= 1.00D+00 WtEn= 0.00D+00
 Coeff-Com:  0.803D-02 0.497D+00 0.495D+00
 Coeff:      0.803D-02 0.497D+00 0.495D+00
 Gap=     0.190 Goal=   None    Shift=    0.000
 RMSDP=1.98D-06 MaxDP=8.99D-05 DE=-3.92D-09 OVMax= 1.47D-04

 Cycle  12  Pass 1  IDiag  1:
 RMSU=  7.24D-07    CP:  1.00D+00  1.01D+00  5.03D-01
 E= -1211.16691927836     Delta-E=       -0.000000282987 Rises=F Damp=F
 DIIS: error= 5.09D-06 at cycle   4 NSaved=   4.
 NSaved= 4 IEnMin= 4 EnMin= -1211.16691927836     IErMin= 4 ErrMin= 5.09D-06
 ErrMax= 5.09D-06  0.00D+00 EMaxC= 1.00D-01 BMatC= 1.30D-08 BMatP= 3.14D-07
 IDIUse=1 WtCom= 1.00D+00 WtEn= 0.00D+00
 Coeff-Com: -0.906D-02 0.290D+00 0.311D+00 0.408D+00
 Coeff:     -0.906D-02 0.290D+00 0.311D+00 0.408D+00
 Gap=     0.190 Goal=   None    Shift=    0.000
 RMSDP=3.99D-07 MaxDP=2.03D-05 DE=-2.83D-07 OVMax= 2.63D-05

 Cycle  13  Pass 1  IDiag  1:
 RMSU=  2.00D-07    CP:  1.00D+00  1.01D+00  5.23D-01  5.36D-01
 E= -1211.16691928978     Delta-E=       -0.000000011414 Rises=F Damp=F
 DIIS: error= 8.27D-07 at cycle   5 NSaved=   5.
 NSaved= 5 IEnMin= 5 EnMin= -1211.16691928978     IErMin= 5 ErrMin= 8.27D-07
 ErrMax= 8.27D-07  0.00D+00 EMaxC= 1.00D-01 BMatC= 3.29D-10 BMatP= 1.30D-08
 IDIUse=1 WtCom= 1.00D+00 WtEn= 0.00D+00
 Coeff-Com: -0.499D-02 0.119D+00 0.129D+00 0.205D+00 0.553D+00
 Coeff:     -0.499D-02 0.119D+00 0.129D+00 0.205D+00 0.553D+00
 Gap=     0.190 Goal=   None    Shift=    0.000
 RMSDP=8.78D-08 MaxDP=3.02D-06 DE=-1.14D-08 OVMax= 5.85D-06

 Cycle  14  Pass 1  IDiag  1:
 RMSU=  7.51D-08    CP:  1.00D+00  1.01D+00  5.21D-01  5.49D-01  7.83D-01
 E= -1211.16691929001     Delta-E=       -0.000000000236 Rises=F Damp=F
 DIIS: error= 3.70D-07 at cycle   6 NSaved=   6.
 NSaved= 6 IEnMin= 6 EnMin= -1211.16691929001     IErMin= 6 ErrMin= 3.70D-07
 ErrMax= 3.70D-07  0.00D+00 EMaxC= 1.00D-01 BMatC= 4.32D-11 BMatP= 3.29D-10
 IDIUse=1 WtCom= 1.00D+00 WtEn= 0.00D+00
 Coeff-Com: -0.156D-02 0.310D-01 0.334D-01 0.610D-01 0.302D+00 0.574D+00
 Coeff:     -0.156D-02 0.310D-01 0.334D-01 0.610D-01 0.302D+00 0.574D+00
 Gap=     0.190 Goal=   None    Shift=    0.000
 RMSDP=2.85D-08 MaxDP=9.35D-07 DE=-2.36D-10 OVMax= 2.12D-06

 Cycle  15  Pass 1  IDiag  1:
 RMSU=  2.10D-08    CP:  1.00D+00  1.01D+00  5.20D-01  5.47D-01  8.41D-01
                    CP:  8.00D-01
 E= -1211.16691929007     Delta-E=       -0.000000000057 Rises=F Damp=F
 DIIS: error= 9.24D-08 at cycle   7 NSaved=   7.
 NSaved= 7 IEnMin= 7 EnMin= -1211.16691929007     IErMin= 7 ErrMin= 9.24D-08
 ErrMax= 9.24D-08  0.00D+00 EMaxC= 1.00D-01 BMatC= 6.15D-12 BMatP= 4.32D-11
 IDIUse=1 WtCom= 1.00D+00 WtEn= 0.00D+00
 Coeff-Com: -0.302D-03 0.254D-02 0.258D-02 0.808D-02 0.102D+00 0.332D+00
 Coeff-Com:  0.553D+00
 Coeff:     -0.302D-03 0.254D-02 0.258D-02 0.808D-02 0.102D+00 0.332D+00
 Coeff:      0.553D+00
 Gap=     0.190 Goal=   None    Shift=    0.000
 RMSDP=9.51D-09 MaxDP=4.47D-07 DE=-5.73D-11 OVMax= 5.01D-07

 SCF Done:  E(RB3LYP) =  -1211.16691929     A.U. after   15 cycles
            NFock= 15  Conv=0.95D-08     -V/T= 2.0075
 KE= 1.202108028388D+03 PE=-5.787256614216D+03 EE= 1.898473184531D+03
 Leave Link  502 at Thu Aug  6 21:15:24 2020, MaxMem=    33554432 cpu:       216.1
 (Enter /prod/apps/gaussian/g09d1/l601.exe)
 Copying SCF densities to generalized density rwf, IOpCl= 0 IROHF=0.

 **********************************************************************

            Population analysis using the SCF density.

 **********************************************************************

 Orbital symmetries:
       Occupied  (A) (A) (A) (A) (A) (A) (A) (A) (A) (A) (A) (A)
                 (A) (A) (A) (A) (A) (A) (A) (A) (A) (A) (A) (A)
                 (A) (A) (A) (A) (A) (A) (A) (A) (A) (A) (A) (A)
                 (A) (A) (A) (A) (A) (A) (A) (A) (A) (A) (A) (A)
                 (A) (A) (A) (A) (A) (A) (A) (A) (A) (A) (A) (A)
                 (A) (A) (A) (A) (A) (A) (A) (A) (A) (A)
       Virtual   (A) (A) (A) (A) (A) (A) (A) (A) (A) (A) (A) (A)
                 (A) (A) (A) (A) (A) (A) (A) (A) (A) (A) (A) (A)
                 (A) (A) (A) (A) (A) (A) (A) (A) (A) (A) (A) (A)
                 (A) (A) (A) (A) (A) (A) (A) (A) (A) (A) (A) (A)
                 (A) (A) (A) (A) (A) (A) (A) (A) (A) (A) (A) (A)
                 (A) (A) (A) (A) (A) (A) (A) (A) (A) (A) (A) (A)
                 (A) (A) (A) (A) (A) (A) (A) (A) (A) (A) (A) (A)
                 (A) (A) (A) (A) (A) (A) (A) (A) (A) (A) (A) (A)
                 (A) (A) (A) (A) (A) (A) (A) (A) (A) (A) (A) (A)
                 (A) (A) (A) (A) (A) (A) (A) (A) (A) (A) (A) (A)
                 (A) (A) (A) (A) (A) (A) (A) (A) (A) (A) (A) (A)
                 (A) (A) (A) (A) (A) (A) (A) (A) (A) (A) (A) (A)
                 (A) (A) (A) (A) (A) (A) (A) (A) (A) (A) (A) (A)
                 (A) (A) (A) (A) (A) (A) (A) (A) (A) (A) (A) (A)
                 (A) (A) (A) (A) (A) (A) (A) (A) (A) (A) (A) (A)
                 (A) (A) (A) (A) (A) (A) (A) (A) (A) (A) (A) (A)
                 (A) (A) (A) (A) (A) (A) (A) (A) (A) (A) (A) (A)
                 (A) (A) (A) (A) (A) (A) (A) (A) (A) (A) (A) (A)
                 (A) (A) (A) (A) (A) (A) (A) (A) (A) (A) (A) (A)
                 (A) (A)
 The electronic state is 1-A.
 Alpha  occ. eigenvalues --  -89.12945 -19.14558 -19.14215 -14.44699 -14.40146
 Alpha  occ. eigenvalues --  -14.38514 -14.38064 -14.36774 -10.26350 -10.25858
 Alpha  occ. eigenvalues --  -10.24473 -10.23001 -10.22677 -10.21735 -10.21333
 Alpha  occ. eigenvalues --  -10.21238 -10.21177 -10.20999  -8.15190  -6.11705
 Alpha  occ. eigenvalues --   -6.11592  -6.11572  -1.12316  -1.11318  -1.00461
 Alpha  occ. eigenvalues --   -0.95960  -0.94416  -0.92789  -0.86861  -0.81055
 Alpha  occ. eigenvalues --   -0.77205  -0.76773  -0.73395  -0.71303  -0.67246
 Alpha  occ. eigenvalues --   -0.65693  -0.62393  -0.60746  -0.59835  -0.57336
 Alpha  occ. eigenvalues --   -0.54885  -0.52517  -0.50638  -0.50432  -0.49193
 Alpha  occ. eigenvalues --   -0.48644  -0.48258  -0.47016  -0.46194  -0.45207
 Alpha  occ. eigenvalues --   -0.44420  -0.43439  -0.42300  -0.41725  -0.39544
 Alpha  occ. eigenvalues --   -0.39500  -0.38348  -0.37240  -0.35764  -0.35096
 Alpha  occ. eigenvalues --   -0.34304  -0.32237  -0.31882  -0.31545  -0.30291
 Alpha  occ. eigenvalues --   -0.28532  -0.27775  -0.27278  -0.26133  -0.23720
 Alpha virt. eigenvalues --   -0.04725  -0.02347   0.00955   0.01748   0.05563
 Alpha virt. eigenvalues --    0.07443   0.08469   0.09308   0.09763   0.10567
 Alpha virt. eigenvalues --    0.11056   0.12801   0.13590   0.13722   0.14117
 Alpha virt. eigenvalues --    0.14811   0.15525   0.15926   0.17277   0.17405
 Alpha virt. eigenvalues --    0.17866   0.18454   0.19444   0.19882   0.21450
 Alpha virt. eigenvalues --    0.21855   0.22705   0.25458   0.28269   0.29514
 Alpha virt. eigenvalues --    0.30310   0.32268   0.33284   0.35444   0.36008
 Alpha virt. eigenvalues --    0.38588   0.40965   0.42635   0.45462   0.47235
 Alpha virt. eigenvalues --    0.48218   0.48527   0.49607   0.50455   0.51659
 Alpha virt. eigenvalues --    0.53035   0.54685   0.54958   0.55999   0.56532
 Alpha virt. eigenvalues --    0.57262   0.57552   0.58448   0.59225   0.59448
 Alpha virt. eigenvalues --    0.60030   0.61202   0.62202   0.63186   0.63754
 Alpha virt. eigenvalues --    0.64687   0.65099   0.66494   0.68249   0.69256
 Alpha virt. eigenvalues --    0.70866   0.71284   0.73024   0.74121   0.75739
 Alpha virt. eigenvalues --    0.76313   0.78855   0.79222   0.81072   0.81276
 Alpha virt. eigenvalues --    0.81734   0.82431   0.82617   0.83744   0.84387
 Alpha virt. eigenvalues --    0.84570   0.86086   0.86422   0.87338   0.88986
 Alpha virt. eigenvalues --    0.89098   0.90511   0.91436   0.91947   0.92518
 Alpha virt. eigenvalues --    0.93684   0.94754   0.95860   0.96838   0.98078
 Alpha virt. eigenvalues --    0.98894   1.00208   1.01763   1.03620   1.04805
 Alpha virt. eigenvalues --    1.05293   1.06168   1.06685   1.09741   1.11118
 Alpha virt. eigenvalues --    1.13083   1.13808   1.14866   1.15374   1.16859
 Alpha virt. eigenvalues --    1.18050   1.18487   1.21189   1.23360   1.24505
 Alpha virt. eigenvalues --    1.24915   1.28827   1.31923   1.35065   1.36580
 Alpha virt. eigenvalues --    1.38310   1.39988   1.40700   1.40839   1.42592
 Alpha virt. eigenvalues --    1.43444   1.44751   1.45186   1.46880   1.48811
 Alpha virt. eigenvalues --    1.50973   1.53502   1.54417   1.57826   1.59293
 Alpha virt. eigenvalues --    1.63752   1.66075   1.70063   1.72172   1.76610
 Alpha virt. eigenvalues --    1.78796   1.79054   1.79290   1.80420   1.81984
 Alpha virt. eigenvalues --    1.84017   1.84520   1.86832   1.87142   1.88384
 Alpha virt. eigenvalues --    1.89753   1.90270   1.93259   1.94452   1.95407
 Alpha virt. eigenvalues --    1.96570   1.97050   1.98727   1.99782   2.04104
 Alpha virt. eigenvalues --    2.05279   2.06165   2.07315   2.08626   2.09548
 Alpha virt. eigenvalues --    2.10515   2.10840   2.12274   2.13838   2.14943
 Alpha virt. eigenvalues --    2.16457   2.18650   2.19761   2.20797   2.22930
 Alpha virt. eigenvalues --    2.24030   2.24533   2.27890   2.28189   2.30175
 Alpha virt. eigenvalues --    2.31384   2.32634   2.34919   2.37077   2.40565
 Alpha virt. eigenvalues --    2.41949   2.47643   2.48101   2.50549   2.52837
 Alpha virt. eigenvalues --    2.56663   2.57201   2.58202   2.59587   2.63348
 Alpha virt. eigenvalues --    2.63891   2.66316   2.68932   2.70394   2.71774
 Alpha virt. eigenvalues --    2.73018   2.76128   2.76543   2.79065   2.83994
 Alpha virt. eigenvalues --    2.87345   2.88236   2.99601   3.06196   3.13124
 Alpha virt. eigenvalues --    3.24798   3.41241   3.61961   3.73246   3.93123
 Alpha virt. eigenvalues --    3.99426   4.01368   4.04400   4.06743   4.09395
 Alpha virt. eigenvalues --    4.10917   4.11939   4.16158   4.22814   4.29254
 Alpha virt. eigenvalues --    4.30669   4.30985   4.38960   4.49107   4.70010
          Condensed to atoms (all electrons):
               1          2          3          4          5          6
     1  O    8.220081   0.453760  -0.054075   0.001949  -0.000005   0.000000
     2  S    0.453760  13.605935   0.123876  -0.021155  -0.003285   0.000352
     3  N   -0.054075   0.123876   7.365135   0.253444  -0.073116   0.006729
     4  C    0.001949  -0.021155   0.253444   4.711483   0.365531  -0.075258
     5  N   -0.000005  -0.003285  -0.073116   0.365531   6.882971   0.302090
     6  N    0.000000   0.000352   0.006729  -0.075258   0.302090   6.752761
     7  C   -0.000036  -0.000281  -0.063309   0.490480  -0.072885  -0.094616
     8  N    0.000000  -0.000104   0.002747  -0.043414  -0.088228   0.205769
     9  C    0.000000  -0.000020  -0.000095   0.006516   0.007230  -0.044447
    10  C    0.000000   0.000000   0.000000  -0.000526   0.000290   0.000746
    11  C    0.000000   0.000000   0.000000   0.000006  -0.000005   0.000309
    12  C    0.000000   0.000000   0.000000   0.000000   0.000000   0.000018
    13  C    0.000000   0.000000   0.000000  -0.000008   0.000002  -0.000072
    14  C    0.000000   0.000000   0.000003   0.000903  -0.000372   0.002731
    15  N   -0.052277   0.148292  -0.059729   0.002950   0.000377  -0.000026
    16  C    0.001707  -0.015482  -0.000104   0.000910  -0.001148  -0.000106
    17  C   -0.007381  -0.013506   0.000447  -0.000085  -0.000215   0.000001
    18  O   -0.041757   0.434516  -0.052787  -0.003307   0.000074   0.000005
    19  H    0.001734  -0.007047   0.291826  -0.034596   0.004746  -0.000055
    20  H    0.000001   0.000952  -0.000140  -0.024528   0.004196   0.003294
    21  H    0.000000   0.000000   0.000000   0.000037  -0.000369   0.015015
    22  H    0.000000   0.000000   0.000000   0.000000   0.000000  -0.000008
    23  H    0.000000   0.000000   0.000000   0.000000   0.000000   0.000000
    24  H    0.000000   0.000000   0.000000   0.000000   0.000000   0.000001
    25  H    0.000000  -0.000002  -0.000002   0.000014  -0.000008  -0.000087
    26  H    0.000045  -0.001786  -0.000279   0.000141   0.000025  -0.000013
    27  H   -0.000044   0.001967  -0.000180   0.000117   0.000032  -0.000004
    28  H   -0.000051  -0.008249   0.001646   0.000562   0.002822   0.000620
    29  H    0.011532   0.000432  -0.000732  -0.000027   0.000008   0.000000
    30  H   -0.000153  -0.008628   0.003829  -0.000049   0.001062   0.000009
    31  H    0.000091   0.002461  -0.000124   0.000000   0.000003   0.000000
               7          8          9         10         11         12
     1  O   -0.000036   0.000000   0.000000   0.000000   0.000000   0.000000
     2  S   -0.000281  -0.000104  -0.000020   0.000000   0.000000   0.000000
     3  N   -0.063309   0.002747  -0.000095   0.000000   0.000000   0.000000
     4  C    0.490480  -0.043414   0.006516  -0.000526   0.000006   0.000000
     5  N   -0.072885  -0.088228   0.007230   0.000290  -0.000005   0.000000
     6  N   -0.094616   0.205769  -0.044447   0.000746   0.000309   0.000018
     7  C    5.030093   0.318091  -0.036270   0.007471  -0.000094   0.000019
     8  N    0.318091   6.921446   0.202998  -0.058222   0.004647   0.000390
     9  C   -0.036270   0.202998   4.611956   0.520524  -0.009246  -0.037942
    10  C    0.007471  -0.058222   0.520524   4.978925   0.517323  -0.037392
    11  C   -0.000094   0.004647  -0.009246   0.517323   4.866868   0.543601
    12  C    0.000019   0.000390  -0.037942  -0.037392   0.543601   4.848525
    13  C   -0.000039   0.004727  -0.007914  -0.041449  -0.022745   0.549786
    14  C   -0.007569  -0.050793   0.530077  -0.073398  -0.042102  -0.039392
    15  N    0.000110  -0.000001   0.000000   0.000000   0.000000   0.000000
    16  C    0.000430  -0.000025   0.000004  -0.000001   0.000000   0.000000
    17  C   -0.000036   0.000000   0.000000   0.000000   0.000000   0.000000
    18  O    0.004499   0.000018  -0.000003   0.000000   0.000000   0.000000
    19  H    0.005141   0.000065  -0.000002   0.000000   0.000000   0.000000
    20  H    0.361537  -0.037470  -0.001098  -0.000062  -0.000006  -0.000001
    21  H    0.000273  -0.013235  -0.035111   0.354742  -0.040097   0.004424
    22  H    0.000001  -0.000111   0.003496  -0.038332   0.360447  -0.041257
    23  H    0.000000   0.000003   0.000529   0.004694  -0.042449   0.362501
    24  H   -0.000004  -0.000115   0.003532   0.000800   0.004530  -0.040382
    25  H    0.006145  -0.009465  -0.039909   0.005595   0.000260   0.004434
    26  H    0.000270  -0.000008   0.000000   0.000000   0.000000   0.000000
    27  H    0.000021  -0.000001   0.000000   0.000000   0.000000   0.000000
    28  H    0.000097  -0.000068  -0.000008   0.000002   0.000000   0.000000
    29  H   -0.000001   0.000000   0.000000   0.000000   0.000000   0.000000
    30  H    0.000040   0.000001   0.000000   0.000000   0.000000   0.000000
    31  H    0.000000   0.000000   0.000000   0.000000   0.000000   0.000000
              13         14         15         16         17         18
     1  O    0.000000   0.000000  -0.052277   0.001707  -0.007381  -0.041757
     2  S    0.000000   0.000000   0.148292  -0.015482  -0.013506   0.434516
     3  N    0.000000   0.000003  -0.059729  -0.000104   0.000447  -0.052787
     4  C   -0.000008   0.000903   0.002950   0.000910  -0.000085  -0.003307
     5  N    0.000002  -0.000372   0.000377  -0.001148  -0.000215   0.000074
     6  N   -0.000072   0.002731  -0.000026  -0.000106   0.000001   0.000005
     7  C   -0.000039  -0.007569   0.000110   0.000430  -0.000036   0.004499
     8  N    0.004727  -0.050793  -0.000001  -0.000025   0.000000   0.000018
     9  C   -0.007914   0.530077   0.000000   0.000004   0.000000  -0.000003
    10  C   -0.041449  -0.073398   0.000000  -0.000001   0.000000   0.000000
    11  C   -0.022745  -0.042102   0.000000   0.000000   0.000000   0.000000
    12  C    0.549786  -0.039392   0.000000   0.000000   0.000000   0.000000
    13  C    4.845580   0.528595   0.000000   0.000000   0.000000   0.000000
    14  C    0.528595   4.987600   0.000000   0.000000   0.000000   0.000001
    15  N    0.000000   0.000000   7.184155   0.272413   0.273719  -0.051244
    16  C    0.000000   0.000000   0.272413   5.012959  -0.051133  -0.006076
    17  C    0.000000   0.000000   0.273719  -0.051133   5.016510   0.001723
    18  O    0.000000   0.000001  -0.051244  -0.006076   0.001723   8.246297
    19  H    0.000000   0.000000  -0.000528   0.000128   0.000195   0.001807
    20  H    0.000146   0.001860   0.000020   0.000012  -0.000001   0.003079
    21  H    0.000148   0.005653   0.000000   0.000000   0.000000   0.000000
    22  H    0.004561   0.000802   0.000000   0.000000   0.000000   0.000000
    23  H   -0.042212   0.004984   0.000000   0.000000   0.000000   0.000000
    24  H    0.359769  -0.038787   0.000000   0.000000   0.000000   0.000000
    25  H   -0.037416   0.349862   0.000000   0.000000   0.000000  -0.000001
    26  H    0.000000   0.000000  -0.030642   0.375088   0.004523   0.012155
    27  H    0.000000   0.000000  -0.037959   0.373213  -0.003385   0.000140
    28  H    0.000000   0.000001  -0.044959   0.371560  -0.001639   0.000072
    29  H    0.000000   0.000000  -0.032568   0.004563   0.373938   0.000059
    30  H    0.000000   0.000000  -0.047772  -0.001771   0.369914  -0.000038
    31  H    0.000000   0.000000  -0.035289  -0.003384   0.376536  -0.000051
              19         20         21         22         23         24
     1  O    0.001734   0.000001   0.000000   0.000000   0.000000   0.000000
     2  S   -0.007047   0.000952   0.000000   0.000000   0.000000   0.000000
     3  N    0.291826  -0.000140   0.000000   0.000000   0.000000   0.000000
     4  C   -0.034596  -0.024528   0.000037   0.000000   0.000000   0.000000
     5  N    0.004746   0.004196  -0.000369   0.000000   0.000000   0.000000
     6  N   -0.000055   0.003294   0.015015  -0.000008   0.000000   0.000001
     7  C    0.005141   0.361537   0.000273   0.000001   0.000000  -0.000004
     8  N    0.000065  -0.037470  -0.013235  -0.000111   0.000003  -0.000115
     9  C   -0.000002  -0.001098  -0.035111   0.003496   0.000529   0.003532
    10  C    0.000000  -0.000062   0.354742  -0.038332   0.004694   0.000800
    11  C    0.000000  -0.000006  -0.040097   0.360447  -0.042449   0.004530
    12  C    0.000000  -0.000001   0.004424  -0.041257   0.362501  -0.040382
    13  C    0.000000   0.000146   0.000148   0.004561  -0.042212   0.359769
    14  C    0.000000   0.001860   0.005653   0.000802   0.004984  -0.038787
    15  N   -0.000528   0.000020   0.000000   0.000000   0.000000   0.000000
    16  C    0.000128   0.000012   0.000000   0.000000   0.000000   0.000000
    17  C    0.000195  -0.000001   0.000000   0.000000   0.000000   0.000000
    18  O    0.001807   0.003079   0.000000   0.000000   0.000000   0.000000
    19  H    0.372030  -0.000091   0.000000   0.000000   0.000000   0.000000
    20  H   -0.000091   0.482159  -0.000011   0.000000   0.000000  -0.000001
    21  H    0.000000  -0.000011   0.539774  -0.005113  -0.000140   0.000013
    22  H    0.000000   0.000000  -0.005113   0.575155  -0.005328  -0.000178
    23  H    0.000000   0.000000  -0.000140  -0.005328   0.581137  -0.005363
    24  H    0.000000  -0.000001   0.000013  -0.000178  -0.005363   0.576255
    25  H    0.000000   0.001823  -0.000139   0.000015  -0.000158  -0.005450
    26  H   -0.000022   0.000006   0.000000   0.000000   0.000000   0.000000
    27  H    0.000000   0.000000   0.000000   0.000000   0.000000   0.000000
    28  H    0.000104   0.000000   0.000004   0.000000   0.000000   0.000000
    29  H    0.000080   0.000000   0.000000   0.000000   0.000000   0.000000
    30  H    0.001747   0.000000   0.000000   0.000000   0.000000   0.000000
    31  H   -0.000017   0.000000   0.000000   0.000000   0.000000   0.000000
              25         26         27         28         29         30
     1  O    0.000000   0.000045  -0.000044  -0.000051   0.011532  -0.000153
     2  S   -0.000002  -0.001786   0.001967  -0.008249   0.000432  -0.008628
     3  N   -0.000002  -0.000279  -0.000180   0.001646  -0.000732   0.003829
     4  C    0.000014   0.000141   0.000117   0.000562  -0.000027  -0.000049
     5  N   -0.000008   0.000025   0.000032   0.002822   0.000008   0.001062
     6  N   -0.000087  -0.000013  -0.000004   0.000620   0.000000   0.000009
     7  C    0.006145   0.000270   0.000021   0.000097  -0.000001   0.000040
     8  N   -0.009465  -0.000008  -0.000001  -0.000068   0.000000   0.000001
     9  C   -0.039909   0.000000   0.000000  -0.000008   0.000000   0.000000
    10  C    0.005595   0.000000   0.000000   0.000002   0.000000   0.000000
    11  C    0.000260   0.000000   0.000000   0.000000   0.000000   0.000000
    12  C    0.004434   0.000000   0.000000   0.000000   0.000000   0.000000
    13  C   -0.037416   0.000000   0.000000   0.000000   0.000000   0.000000
    14  C    0.349862   0.000000   0.000000   0.000001   0.000000   0.000000
    15  N    0.000000  -0.030642  -0.037959  -0.044959  -0.032568  -0.047772
    16  C    0.000000   0.375088   0.373213   0.371560   0.004563  -0.001771
    17  C    0.000000   0.004523  -0.003385  -0.001639   0.373938   0.369914
    18  O   -0.000001   0.012155   0.000140   0.000072   0.000059  -0.000038
    19  H    0.000000  -0.000022   0.000000   0.000104   0.000080   0.001747
    20  H    0.001823   0.000006   0.000000   0.000000   0.000000   0.000000
    21  H   -0.000139   0.000000   0.000000   0.000004   0.000000   0.000000
    22  H    0.000015   0.000000   0.000000   0.000000   0.000000   0.000000
    23  H   -0.000158   0.000000   0.000000   0.000000   0.000000   0.000000
    24  H   -0.005450   0.000000   0.000000   0.000000   0.000000   0.000000
    25  H    0.572537   0.000000   0.000000   0.000000   0.000000   0.000000
    26  H    0.000000   0.484874  -0.020315  -0.028962  -0.000186  -0.000167
    27  H    0.000000  -0.020315   0.552487  -0.039184   0.000012  -0.001537
    28  H    0.000000  -0.028962  -0.039184   0.570946  -0.000164   0.008042
    29  H    0.000000  -0.000186   0.000012  -0.000164   0.487449  -0.031489
    30  H    0.000000  -0.000167  -0.001537   0.008042  -0.031489   0.583794
    31  H    0.000000  -0.000001   0.005514  -0.001532  -0.019653  -0.037982
              31
     1  O    0.000091
     2  S    0.002461
     3  N   -0.000124
     4  C    0.000000
     5  N    0.000003
     6  N    0.000000
     7  C    0.000000
     8  N    0.000000
     9  C    0.000000
    10  C    0.000000
    11  C    0.000000
    12  C    0.000000
    13  C    0.000000
    14  C    0.000000
    15  N   -0.035289
    16  C   -0.003384
    17  C    0.376536
    18  O   -0.000051
    19  H   -0.000017
    20  H    0.000000
    21  H    0.000000
    22  H    0.000000
    23  H    0.000000
    24  H    0.000000
    25  H    0.000000
    26  H   -0.000001
    27  H    0.005514
    28  H   -0.001532
    29  H   -0.019653
    30  H   -0.037982
    31  H    0.538864
 Mulliken charges:
               1
     1  O   -0.535123
     2  S    1.307001
     3  N   -0.745011
     4  C    0.367912
     5  N   -0.331823
     6  N   -0.075757
     7  C    0.050422
     8  N   -0.359642
     9  C    0.325203
    10  C   -0.141729
    11  C   -0.141246
    12  C   -0.117334
    13  C   -0.141459
    14  C   -0.160660
    15  N   -0.489042
    16  C   -0.333758
    17  C   -0.340125
    18  O   -0.549182
    19  H    0.362755
    20  H    0.204324
    21  H    0.174133
    22  H    0.145849
    23  H    0.141802
    24  H    0.145382
    25  H    0.151952
    26  H    0.205253
    27  H    0.169105
    28  H    0.168339
    29  H    0.206748
    30  H    0.161149
    31  H    0.174564
 Sum of Mulliken charges =   0.00000
 Mulliken charges with hydrogens summed into heavy atoms:
               1
     1  O   -0.535123
     2  S    1.307001
     3  N   -0.382256
     4  C    0.367912
     5  N   -0.331823
     6  N   -0.075757
     7  C    0.254746
     8  N   -0.359642
     9  C    0.325203
    10  C    0.032403
    11  C    0.004603
    12  C    0.024468
    13  C    0.003923
    14  C   -0.008708
    15  N   -0.489042
    16  C    0.208939
    17  C    0.202336
    18  O   -0.549182
 Electronic spatial extent (au):  <R**2>=           6325.6338
 Charge=              0.0000 electrons
 Dipole moment (field-independent basis, Debye):
    X=              3.9545    Y=              2.3389    Z=              1.1479  Tot=              4.7356
 Quadrupole moment (field-independent basis, Debye-Ang):
   XX=           -101.2938   YY=           -110.6840   ZZ=           -114.1113
   XY=            -18.9417   XZ=              6.3869   YZ=              6.5830
 Traceless Quadrupole moment (field-independent basis, Debye-Ang):
   XX=              7.4026   YY=             -1.9876   ZZ=             -5.4150
   XY=            -18.9417   XZ=              6.3869   YZ=              6.5830
 Octapole moment (field-independent basis, Debye-Ang**2):
  XXX=             90.7418  YYY=             -3.9651  ZZZ=              0.8981  XYY=             13.3607
  XXY=             57.2374  XXZ=             18.5303  XZZ=            -29.7976  YZZ=              0.1402
  YYZ=             11.7429  XYZ=             -1.9652
 Hexadecapole moment (field-independent basis, Debye-Ang**3):
 XXXX=          -6420.4756 YYYY=           -881.3619 ZZZZ=           -592.5839 XXXY=           -222.5069
 XXXZ=            156.8606 YYYX=            -28.0786 YYYZ=             18.4866 ZZZX=             -1.2347
 ZZZY=             17.1923 XXYY=          -1214.0309 XXZZ=          -1271.1876 YYZZ=           -268.0063
 XXYZ=              9.3888 YYXZ=             -1.9694 ZZXY=            -12.8795
 N-N= 1.475508482007D+03 E-N=-5.787256650206D+03  KE= 1.202108028388D+03
 No NMR shielding tensors so no spin-rotation constants.
 Leave Link  601 at Thu Aug  6 21:15:24 2020, MaxMem=    33554432 cpu:         0.3
 (Enter /prod/apps/gaussian/g09d1/l9999.exe)
 1\1\GINC-PIRINEUS24\SP\RB3LYP\6-31G(d)\C10H13N5O2S1\UBAFAR01\06-Aug-20
 20\0\\#p b3lyp/6-31G(d)\\SM46.n.4.pdb.xyz\\0,1\O,0,4.003,0.679,0.818\S
 ,0,3.615,-0.017,-0.409\N,0,3.192,1.245,-1.471\C,0,2.735,0.949,-2.767\N
 ,0,3.454,1.263,-3.88\N,0,2.767,0.915,-4.937\C,0,1.545,0.368,-3.153\N,0
 ,1.614,0.354,-4.509\C,0,0.658,-0.141,-5.442\C,0,1.094,-0.584,-6.692\C,
 0,0.157,-1.063,-7.606\C,0,-1.198,-1.111,-7.27\C,0,-1.617,-0.67,-6.014\
 C,0,-0.694,-0.175,-5.095\N,0,4.955,-0.87,-0.921\C,0,4.771,-1.818,-2.03
 \C,0,6.217,-0.12,-0.964\O,0,2.488,-0.948,-0.43\H,0,3.906,1.976,-1.457\
 H,0,0.718,-0.034,-2.596\H,0,2.149,-0.552,-6.932\H,0,0.491,-1.407,-8.57
 8\H,0,-1.922,-1.491,-7.982\H,0,-2.668,-0.699,-5.748\H,0,-1.021,0.191,-
 4.129\H,0,3.819,-2.331,-1.913\H,0,5.579,-2.55,-1.968\H,0,4.813,-1.327,
 -3.008\H,0,6.301,0.502,-0.074\H,0,6.3,0.503,-1.863\H,0,7.031,-0.848,-0
 .963\\Version=AM64L-G09RevD.01\State=1-A\HF=-1211.1669193\RMSD=9.514e-
 09\Dipole=-0.2744291,-0.6483538,-1.7249948\Quadrupole=14.840062,-2.470
 8564,-12.3692056,-0.9866022,7.0186365,5.4098147\PG=C01 [X(C10H13N5O2S1
 )]\\@


 "THE TIME HAS COME", THE WALRUS SAID,
 "TO TALK OF MANY THINGS,
 OF SHOES AND SHIPS AND SEALING WAX,
 OF CABBAGES AND KINGS,
 AND WHY THE SEA IS BOILING HOT,
 AND WHETHER PIGS HAVE WINGS."
 Job cpu time:       0 days  0 hours  3 minutes 40.8 seconds.
 File lengths (MBytes):  RWF=     51 Int=      0 D2E=      0 Chk=      4 Scr=      1
 Normal termination of Gaussian 09 at Thu Aug  6 21:15:24 2020.
 Initial command:
 /prod/apps/gaussian/g09d1/l1.exe "/tmp/ubafar01/1448559/Gau-180914.inp" -scrdir="/tmp/ubafar01/1448559/"
 Entering Link 1 = /prod/apps/gaussian/g09d1/l1.exe PID=    182801.
  
 Copyright (c) 1988,1990,1992,1993,1995,1998,2003,2009,2013,
            Gaussian, Inc.  All Rights Reserved.
  
 This is part of the Gaussian(R) 09 program.  It is based on
 the Gaussian(R) 03 system (copyright 2003, Gaussian, Inc.),
 the Gaussian(R) 98 system (copyright 1998, Gaussian, Inc.),
 the Gaussian(R) 94 system (copyright 1995, Gaussian, Inc.),
 the Gaussian 92(TM) system (copyright 1992, Gaussian, Inc.),
 the Gaussian 90(TM) system (copyright 1990, Gaussian, Inc.),
 the Gaussian 88(TM) system (copyright 1988, Gaussian, Inc.),
 the Gaussian 86(TM) system (copyright 1986, Carnegie Mellon
 University), and the Gaussian 82(TM) system (copyright 1983,
 Carnegie Mellon University). Gaussian is a federally registered
 trademark of Gaussian, Inc.
  
 This software contains proprietary and confidential information,
 including trade secrets, belonging to Gaussian, Inc.
  
 This software is provided under written license and may be
 used, copied, transmitted, or stored only in accord with that
 written license.
  
 The following legend is applicable only to US Government
 contracts under FAR:
  
                    RESTRICTED RIGHTS LEGEND
  
 Use, reproduction and disclosure by the US Government is
 subject to restrictions as set forth in subparagraphs (a)
 and (c) of the Commercial Computer Software - Restricted
 Rights clause in FAR 52.227-19.
  
 Gaussian, Inc.
 340 Quinnipiac St., Bldg. 40, Wallingford CT 06492
  
  
 ---------------------------------------------------------------
 Warning -- This program may not be used in any manner that
 competes with the business of Gaussian, Inc. or will provide
 assistance to any competitor of Gaussian, Inc.  The licensee
 of this program is prohibited from giving any competitor of
 Gaussian, Inc. access to this program.  By using this program,
 the user acknowledges that Gaussian, Inc. is engaged in the
 business of creating and licensing software in the field of
 computational chemistry and represents and warrants to the
 licensee that it is not a competitor of Gaussian, Inc. and that
 it will not use this program in any manner prohibited above.
 ---------------------------------------------------------------
  

 Cite this work as:
 Gaussian 09, Revision D.01,
 M. J. Frisch, G. W. Trucks, H. B. Schlegel, G. E. Scuseria, 
 M. A. Robb, J. R. Cheeseman, G. Scalmani, V. Barone, B. Mennucci, 
 G. A. Petersson, H. Nakatsuji, M. Caricato, X. Li, H. P. Hratchian, 
 A. F. Izmaylov, J. Bloino, G. Zheng, J. L. Sonnenberg, M. Hada, 
 M. Ehara, K. Toyota, R. Fukuda, J. Hasegawa, M. Ishida, T. Nakajima, 
 Y. Honda, O. Kitao, H. Nakai, T. Vreven, J. A. Montgomery, Jr., 
 J. E. Peralta, F. Ogliaro, M. Bearpark, J. J. Heyd, E. Brothers, 
 K. N. Kudin, V. N. Staroverov, T. Keith, R. Kobayashi, J. Normand, 
 K. Raghavachari, A. Rendell, J. C. Burant, S. S. Iyengar, J. Tomasi, 
 M. Cossi, N. Rega, J. M. Millam, M. Klene, J. E. Knox, J. B. Cross, 
 V. Bakken, C. Adamo, J. Jaramillo, R. Gomperts, R. E. Stratmann, 
 O. Yazyev, A. J. Austin, R. Cammi, C. Pomelli, J. W. Ochterski, 
 R. L. Martin, K. Morokuma, V. G. Zakrzewski, G. A. Voth, 
 P. Salvador, J. J. Dannenberg, S. Dapprich, A. D. Daniels, 
 O. Farkas, J. B. Foresman, J. V. Ortiz, J. Cioslowski, 
 and D. J. Fox, Gaussian, Inc., Wallingford CT, 2013.
 
 ******************************************
 Gaussian 09:  AM64L-G09RevD.01 24-Apr-2013
                 6-Aug-2020 
 ******************************************
 %nproc=1
 Will use up to    1 processors via shared memory.
 %Chk=SM46.n.4.pdb.xyz.mst.n.w.chk
 %subst l502 /dades/curu/work_g09D01_MST_AddSphPartition_ReadGammas/exe-dir/
 ----------------------------------------------------------------------
 #p b3lyp/6-31G(d) scrf=(iefpcm,read,solvent=Water) geom=allcheck guess
 =read
 ----------------------------------------------------------------------
 1/29=7,38=1,40=2/1;
 2/12=2,40=1/2;
 3/5=1,6=6,7=1,11=2,14=-4,16=1,25=1,30=1,70=2203,72=1,74=-5,116=-2/1,2,3;
 4/5=1/1;
 5/5=2,38=6,53=1/2;
 6/7=2,8=2,9=2,10=2,28=1/1;
 99/5=1,9=1/99;
 Leave Link    1 at Thu Aug  6 21:15:24 2020, MaxMem=           0 cpu:         0.0
 (Enter /prod/apps/gaussian/g09d1/l101.exe)
 Structure from the checkpoint file:  "SM46.n.4.pdb.xyz.mst.n.w.chk"
 ----------------
 SM46.n.4.pdb.xyz
 ----------------
 Charge =  0 Multiplicity = 1
 Z-Matrix found in file.
 O,0,4.003,0.679,0.818
 S,0,3.615,-0.017,-0.409
 N,0,3.192,1.245,-1.471
 C,0,2.735,0.949,-2.767
 N,0,3.454,1.263,-3.88
 N,0,2.767,0.915,-4.937
 C,0,1.545,0.368,-3.153
 N,0,1.614,0.354,-4.509
 C,0,0.658,-0.141,-5.442
 C,0,1.094,-0.584,-6.692
 C,0,0.157,-1.063,-7.606
 C,0,-1.198,-1.111,-7.27
 C,0,-1.617,-0.67,-6.014
 C,0,-0.694,-0.175,-5.095
 N,0,4.955,-0.87,-0.921
 C,0,4.771,-1.818,-2.03
 C,0,6.217,-0.12,-0.964
 O,0,2.488,-0.948,-0.43
 H,0,3.906,1.976,-1.457
 H,0,0.718,-0.034,-2.596
 H,0,2.149,-0.552,-6.932
 H,0,0.491,-1.407,-8.578
 H,0,-1.922,-1.491,-7.982
 H,0,-2.668,-0.699,-5.748
 H,0,-1.021,0.191,-4.129
 H,0,3.819,-2.331,-1.913
 H,0,5.579,-2.55,-1.968
 H,0,4.813,-1.327,-3.008
 H,0,6.301,0.502,-0.074
 H,0,6.3,0.503,-1.863
 H,0,7.031,-0.848,-0.963
 Recover connectivity data from disk.
 NAtoms=     31 NQM=       31 NQMF=       0 NMMI=      0 NMMIF=      0
                NMic=       0 NMicF=      0.
                    Isotopes and Nuclear Properties:
 (Nuclear quadrupole moments (NQMom) in fm**2, nuclear magnetic moments (NMagM)
  in nuclear magnetons)

  Atom         1           2           3           4           5           6           7           8           9          10
 IAtWgt=          16          32          14          12          14          14          12          14          12          12
 AtmWgt=  15.9949146  31.9720718  14.0030740  12.0000000  14.0030740  14.0030740  12.0000000  14.0030740  12.0000000  12.0000000
 NucSpn=           0           0           2           0           2           2           0           2           0           0
 AtZEff=  -5.6000000 -13.6000000  -4.5500000  -3.6000000  -4.5500000  -4.5500000  -3.6000000  -4.5500000  -3.6000000  -3.6000000
 NQMom=    0.0000000   0.0000000   2.0440000   0.0000000   2.0440000   2.0440000   0.0000000   2.0440000   0.0000000   0.0000000
 NMagM=    0.0000000   0.0000000   0.4037610   0.0000000   0.4037610   0.4037610   0.0000000   0.4037610   0.0000000   0.0000000
 AtZNuc=   8.0000000  16.0000000   7.0000000   6.0000000   7.0000000   7.0000000   6.0000000   7.0000000   6.0000000   6.0000000

  Atom        11          12          13          14          15          16          17          18          19          20
 IAtWgt=          12          12          12          12          14          12          12          16           1           1
 AtmWgt=  12.0000000  12.0000000  12.0000000  12.0000000  14.0030740  12.0000000  12.0000000  15.9949146   1.0078250   1.0078250
 NucSpn=           0           0           0           0           2           0           0           0           1           1
 AtZEff=  -3.6000000  -3.6000000  -3.6000000  -3.6000000  -4.5500000  -3.6000000  -3.6000000  -5.6000000  -1.0000000  -1.0000000
 NQMom=    0.0000000   0.0000000   0.0000000   0.0000000   2.0440000   0.0000000   0.0000000   0.0000000   0.0000000   0.0000000
 NMagM=    0.0000000   0.0000000   0.0000000   0.0000000   0.4037610   0.0000000   0.0000000   0.0000000   2.7928460   2.7928460
 AtZNuc=   6.0000000   6.0000000   6.0000000   6.0000000   7.0000000   6.0000000   6.0000000   8.0000000   1.0000000   1.0000000

  Atom        21          22          23          24          25          26          27          28          29          30
 IAtWgt=           1           1           1           1           1           1           1           1           1           1
 AtmWgt=   1.0078250   1.0078250   1.0078250   1.0078250   1.0078250   1.0078250   1.0078250   1.0078250   1.0078250   1.0078250
 NucSpn=           1           1           1           1           1           1           1           1           1           1
 AtZEff=  -1.0000000  -1.0000000  -1.0000000  -1.0000000  -1.0000000  -1.0000000  -1.0000000  -1.0000000  -1.0000000  -1.0000000
 NQMom=    0.0000000   0.0000000   0.0000000   0.0000000   0.0000000   0.0000000   0.0000000   0.0000000   0.0000000   0.0000000
 NMagM=    2.7928460   2.7928460   2.7928460   2.7928460   2.7928460   2.7928460   2.7928460   2.7928460   2.7928460   2.7928460
 AtZNuc=   1.0000000   1.0000000   1.0000000   1.0000000   1.0000000   1.0000000   1.0000000   1.0000000   1.0000000   1.0000000

  Atom        31
 IAtWgt=           1
 AtmWgt=   1.0078250
 NucSpn=           1
 AtZEff=  -1.0000000
 NQMom=    0.0000000
 NMagM=    2.7928460
 AtZNuc=   1.0000000
 Leave Link  101 at Thu Aug  6 21:15:24 2020, MaxMem=    33554432 cpu:         0.0
 (Enter /prod/apps/gaussian/g09d1/l202.exe)
                          Input orientation:                          
 ---------------------------------------------------------------------
 Center     Atomic      Atomic             Coordinates (Angstroms)
 Number     Number       Type             X           Y           Z
 ---------------------------------------------------------------------
      1          8           0        4.003000    0.679000    0.818000
      2         16           0        3.615000   -0.017000   -0.409000
      3          7           0        3.192000    1.245000   -1.471000
      4          6           0        2.735000    0.949000   -2.767000
      5          7           0        3.454000    1.263000   -3.880000
      6          7           0        2.767000    0.915000   -4.937000
      7          6           0        1.545000    0.368000   -3.153000
      8          7           0        1.614000    0.354000   -4.509000
      9          6           0        0.658000   -0.141000   -5.442000
     10          6           0        1.094000   -0.584000   -6.692000
     11          6           0        0.157000   -1.063000   -7.606000
     12          6           0       -1.198000   -1.111000   -7.270000
     13          6           0       -1.617000   -0.670000   -6.014000
     14          6           0       -0.694000   -0.175000   -5.095000
     15          7           0        4.955000   -0.870000   -0.921000
     16          6           0        4.771000   -1.818000   -2.030000
     17          6           0        6.217000   -0.120000   -0.964000
     18          8           0        2.488000   -0.948000   -0.430000
     19          1           0        3.906000    1.976000   -1.457000
     20          1           0        0.718000   -0.034000   -2.596000
     21          1           0        2.149000   -0.552000   -6.932000
     22          1           0        0.491000   -1.407000   -8.578000
     23          1           0       -1.922000   -1.491000   -7.982000
     24          1           0       -2.668000   -0.699000   -5.748000
     25          1           0       -1.021000    0.191000   -4.129000
     26          1           0        3.819000   -2.331000   -1.913000
     27          1           0        5.579000   -2.550000   -1.968000
     28          1           0        4.813000   -1.327000   -3.008000
     29          1           0        6.301000    0.502000   -0.074000
     30          1           0        6.300000    0.503000   -1.863000
     31          1           0        7.031000   -0.848000   -0.963000
 ---------------------------------------------------------------------
                    Distance matrix (angstroms):
                    1          2          3          4          5
     1  O    0.000000
     2  S    1.463041   0.000000
     3  N    2.493511   1.702767   0.000000
     4  C    3.812211   2.695871   1.405731   0.000000
     5  N    4.765885   3.702994   2.423272   1.361736   0.000000
     6  N    5.890961   4.700054   3.507518   2.170502   1.307793
     7  C    4.680526   3.458708   2.512143   1.379368   2.230210
     8  N    5.847211   4.577296   3.537430   2.155280   2.146514
     9  C    7.144860   5.838691   4.910295   3.557760   3.496952
    10  C    8.152150   6.793601   5.916560   4.522012   4.109544
    11  C    9.422848   8.052868   7.223317   5.840389   5.492136
    12  C    9.781117   8.451930   7.645341   6.323693   6.226482
    13  C    8.948767   7.695210   6.887130   5.666046   5.831422
    14  C    7.599651   6.367970   5.500070   4.294299   4.555214
    15  N    2.515915   1.668938   2.807827   3.412459   3.944410
    16  C    3.864704   2.684693   3.491087   3.513510   3.827473
    17  C    2.952240   2.662525   3.357216   4.064221   4.248519
    18  O    2.549482   1.461961   2.527557   3.020130   4.210009
    19  H    2.620543   2.270470   1.021936   2.035208   2.565853
    20  H    4.791137   3.629858   3.003688   2.250293   3.288854
    21  H    8.063199   6.707079   5.842908   4.465828   3.783114
    22  H   10.245504   8.855735   8.052202   6.659879   6.162749
    23  H   10.828413   9.496387   8.719622   7.405233   7.301527
    24  H    9.461156   8.273218   7.510757   6.387071   6.694606
    25  H    7.067640   5.947618   5.091684   4.066589   4.608341
    26  H    4.068454   2.767350   3.657358   3.558479   4.113289
    27  H    4.546649   3.564248   4.510743   4.579273   4.765536
    28  H    4.395272   3.147397   3.406640   3.091333   3.052108
    29  H    2.471396   2.756117   3.488487   4.490926   4.813540
    30  H    3.534819   3.097376   3.219300   3.704775   3.570099
    31  H    3.830467   3.559007   4.401890   4.993920   5.075445
                    6          7          8          9         10
     6  N    0.000000
     7  C    2.230504   0.000000
     8  N    1.351782   1.357827   0.000000
     9  C    2.412062   2.507064   1.424588   0.000000
    10  C    2.850606   3.692455   2.432228   1.396010   0.000000
    11  C    4.224706   4.878885   3.704342   2.404991   1.393846
    12  C    5.026807   5.163446   4.204366   2.779788   2.421792
    13  C    4.784518   4.388737   3.708499   2.404714   2.795818
    14  C    3.632022   3.013193   2.439283   1.396234   2.432002
    15  N    4.909361   4.259409   5.053138   6.279737   6.949357
    16  C    4.464970   4.055466   4.563954   5.600968   6.064431
    17  C    5.362691   5.182417   5.829177   7.138306   7.698728
    18  O    4.884840   3.167938   4.370048   5.396322   6.425603
    19  H    3.812275   3.322108   4.147150   5.559804   6.470407
    20  H    3.252581   1.075073   2.147773   2.848643   4.149830
    21  H    2.552261   3.935995   2.641589   2.147580   1.082427
    22  H    4.881469   5.804495   4.573731   3.386021   2.144279
    23  H    6.086672   6.228580   5.288577   3.864001   3.403381
    24  H    5.727298   5.061806   4.580333   3.386337   3.880336
    25  H    3.940303   2.751047   2.667245   2.157136   3.412158
    26  H    4.559364   3.740759   4.337103   5.219374   5.772043
    27  H    5.359900   5.117822   5.532732   6.487542   6.804157
    28  H    3.596348   3.684274   3.913101   4.959332   5.287236
    29  H    6.025653   5.667251   6.454386   7.814878   8.490593
    30  H    4.701203   4.928727   5.383504   6.712387   7.183540
    31  H    6.089544   6.030833   6.585044   7.821536   8.254641
                   11         12         13         14         15
    11  C    0.000000
    12  C    1.396863   0.000000
    13  C    2.415779   1.395557   0.000000
    14  C    2.796045   2.420896   1.393383   0.000000
    15  N    8.230873   8.844619   8.316840   7.058081   0.000000
    16  C    7.276730   7.974109   7.615557   6.477646   1.470524
    17  C    9.040410   9.784168   9.336839   8.051715   1.468670
    18  O    7.545977   7.771664   6.936091   5.699551   2.516596
    19  H    7.816695   8.328947   7.633551   6.246747   3.080164
    20  H    5.145256   5.165003   4.188012   2.873783   4.632137
    21  H    2.164131   3.410152   3.878067   3.405781   6.641301
    22  H    1.083825   2.156664   3.400137   3.879863   8.879488
    23  H    2.155644   1.084214   2.154087   3.402148   9.876056
    24  H    3.400777   2.155720   1.084527   2.144216   9.024372
    25  H    3.879398   3.404763   2.156331   1.083532   6.865097
    26  H    6.886822   7.440171   7.009081   5.927953   2.099781
    27  H    7.962179   8.724085   8.466814   7.400627   2.075569
    28  H    6.549018   7.371799   7.128295   6.000810   2.141164
    29  H    9.845252  10.517566   9.967543   8.637059   2.100359
    30  H    8.553996   9.384064   9.015854   7.734439   2.140448
    31  H    9.561775  10.371300  10.016596   8.786466   2.076541
                   16         17         18         19         20
    16  C    0.000000
    17  C    2.471938   0.000000
    18  O    2.920443   3.856965   0.000000
    19  H    3.933318   3.158637   3.408112   0.000000
    20  H    4.464283   5.736708   2.942763   3.937101   0.000000
    21  H    5.701512   7.235487   6.522863   6.281199   4.595322
    22  H    7.833494   9.613347   8.401702   8.591598   6.141741
    23  H    8.962672  10.833988   8.762172   9.410701   6.172637
    24  H    8.391329  10.107676   7.411306   8.293719   4.673577
    25  H    6.479903   7.905858   5.224271   5.882273   2.329128
    26  H    1.087733   3.396988   2.425601   4.331946   3.919043
    27  H    1.092031   2.705542   3.806065   4.852291   5.509443
    28  H    1.095139   2.757898   3.492184   3.760061   4.314003
    29  H    3.398417   1.089055   4.094900   3.133910   6.149607
    30  H    2.784380   1.096913   4.323220   2.840035   5.655474
    31  H    2.680856   1.092054   4.575253   4.240830   6.571397
                   21         22         23         24         25
    21  H    0.000000
    22  H    2.487831   0.000000
    23  H    4.307814   2.486934   0.000000
    24  H    4.962555   4.299935   2.484861   0.000000
    25  H    4.296249   4.963199   4.299597   2.475049   0.000000
    26  H    5.580690   7.506769   8.396275   7.710501   5.890394
    27  H    6.355958   8.419400   9.672367   9.258921   7.466124
    28  H    4.805757   7.050602   8.374234   7.991705   6.131600
    29  H    8.085925  10.474655  11.581288  10.680807   8.375645
    30  H    6.636158   9.082060  10.441239   9.846982   7.670016
    31  H    7.716897  10.053472  11.394561  10.816147   8.714229
                   26         27         28         29         30
    26  H    0.000000
    27  H    1.774426   0.000000
    28  H    1.787478   1.778788   0.000000
    29  H    4.191436   3.663772   3.764006   0.000000
    30  H    3.766884   3.138738   2.621277   1.789001   0.000000
    31  H    3.663159   2.452577   3.054667   1.773618   1.780326
                   31
    31  H    0.000000
 Stoichiometry    C10H13N5O2S
 Framework group  C1[X(C10H13N5O2S)]
 Deg. of freedom    87
 Full point group                 C1      NOp   1
 RotChk:  IX=0 Diff= 1.25D-14
 Largest Abelian subgroup         C1      NOp   1
 Largest concise Abelian subgroup C1      NOp   1
                         Standard orientation:                         
 ---------------------------------------------------------------------
 Center     Atomic      Atomic             Coordinates (Angstroms)
 Number     Number       Type             X           Y           Z
 ---------------------------------------------------------------------
      1          8           0       -4.137974   -1.305182   -0.395345
      2         16           0       -2.896650   -0.774444    0.168499
      3          7           0       -1.883020   -0.594750   -1.187850
[...]
 Alpha virt. eigenvalues --    0.76141   0.78118   0.79201   0.80437   0.81132
 Alpha virt. eigenvalues --    0.81647   0.82611   0.83681   0.83845   0.84311
 Alpha virt. eigenvalues --    0.85094   0.86027   0.86690   0.87486   0.89623
 Alpha virt. eigenvalues --    0.89866   0.90329   0.91373   0.92544   0.92867
 Alpha virt. eigenvalues --    0.94157   0.94815   0.96126   0.96935   0.98514
 Alpha virt. eigenvalues --    0.98779   1.00246   1.01587   1.02828   1.04240
 Alpha virt. eigenvalues --    1.05024   1.05062   1.06393   1.09450   1.11094
 Alpha virt. eigenvalues --    1.11991   1.13920   1.14150   1.15516   1.16951
 Alpha virt. eigenvalues --    1.17587   1.18342   1.20084   1.22786   1.23721
 Alpha virt. eigenvalues --    1.25298   1.28758   1.31849   1.34751   1.36416
 Alpha virt. eigenvalues --    1.37968   1.39973   1.40766   1.41564   1.42719
 Alpha virt. eigenvalues --    1.43814   1.44887   1.45868   1.47606   1.49443
 Alpha virt. eigenvalues --    1.50199   1.52996   1.54410   1.57937   1.59122
 Alpha virt. eigenvalues --    1.63211   1.65838   1.69411   1.71863   1.75474
 Alpha virt. eigenvalues --    1.77553   1.79107   1.79454   1.79697   1.81205
 Alpha virt. eigenvalues --    1.83618   1.84242   1.85358   1.87475   1.87817
 Alpha virt. eigenvalues --    1.89575   1.89695   1.93904   1.94212   1.96028
 Alpha virt. eigenvalues --    1.96472   1.96947   1.98671   1.99218   2.04025
 Alpha virt. eigenvalues --    2.05011   2.06239   2.06998   2.08593   2.09378
 Alpha virt. eigenvalues --    2.10458   2.11246   2.12943   2.14193   2.14995
 Alpha virt. eigenvalues --    2.16106   2.18689   2.20012   2.20836   2.22942
 Alpha virt. eigenvalues --    2.24458   2.24595   2.26955   2.28888   2.30352
 Alpha virt. eigenvalues --    2.31509   2.32477   2.34554   2.36705   2.40375
 Alpha virt. eigenvalues --    2.42176   2.47758   2.48185   2.50975   2.52370
 Alpha virt. eigenvalues --    2.56433   2.57868   2.58054   2.59463   2.63916
 Alpha virt. eigenvalues --    2.64092   2.66768   2.69430   2.70331   2.72220
 Alpha virt. eigenvalues --    2.73815   2.74802   2.75824   2.78934   2.83110
 Alpha virt. eigenvalues --    2.87268   2.87827   2.99549   3.05762   3.13123
 Alpha virt. eigenvalues --    3.24950   3.42027   3.61302   3.71660   3.92636
 Alpha virt. eigenvalues --    3.98611   4.00403   4.03296   4.07447   4.09913
 Alpha virt. eigenvalues --    4.10744   4.12087   4.16162   4.22884   4.29360
 Alpha virt. eigenvalues --    4.31186   4.31616   4.39570   4.48886   4.70753
          Condensed to atoms (all electrons):
               1          2          3          4          5          6
     1  O    8.258394   0.453764  -0.054956   0.001790  -0.000005   0.000000
     2  S    0.453764  13.579191   0.144239  -0.022684  -0.002936   0.000318
     3  N   -0.054956   0.144239   7.364271   0.256498  -0.068935   0.006596
     4  C    0.001790  -0.022684   0.256498   4.663542   0.381240  -0.086113
     5  N   -0.000005  -0.002936  -0.068935   0.381240   6.907953   0.297526
     6  N    0.000000   0.000318   0.006596  -0.086113   0.297526   6.771541
     7  C   -0.000039  -0.001068  -0.059751   0.514373  -0.069574  -0.096120
     8  N    0.000000  -0.000098   0.002554  -0.034991  -0.098026   0.235449
     9  C    0.000000  -0.000021  -0.000106   0.005006   0.007199  -0.043433
    10  C    0.000000   0.000000   0.000000  -0.000495   0.000342  -0.000104
    11  C    0.000000   0.000000   0.000000   0.000006  -0.000005   0.000243
    12  C    0.000000   0.000000   0.000000   0.000000   0.000000   0.000018
    13  C    0.000000   0.000000   0.000000  -0.000008   0.000002  -0.000069
    14  C    0.000000   0.000000   0.000003   0.000951  -0.000367   0.002738
    15  N   -0.053791   0.170337  -0.061982   0.002435   0.000449  -0.000027
    16  C    0.001586  -0.018232  -0.000080   0.001036  -0.001143  -0.000096
    17  C   -0.007102  -0.016387   0.000615  -0.000074  -0.000207   0.000002
    18  O   -0.040749   0.437175  -0.054528  -0.003194   0.000068   0.000005
    19  H    0.001208  -0.007216   0.293071  -0.028733   0.003829  -0.000048
    20  H    0.000000   0.000958  -0.000145  -0.026893   0.004232   0.003451
    21  H    0.000000   0.000000   0.000000   0.000028  -0.000330   0.015001
    22  H    0.000000   0.000000   0.000000   0.000000   0.000000  -0.000008
    23  H    0.000000   0.000000   0.000000   0.000000   0.000000   0.000000
    24  H    0.000000   0.000000   0.000000   0.000000   0.000000   0.000001
    25  H    0.000000  -0.000002  -0.000002   0.000038  -0.000010  -0.000087
    26  H    0.000046  -0.002096  -0.000293   0.000075   0.000024  -0.000012
    27  H   -0.000042   0.001744  -0.000169   0.000106   0.000031  -0.000003
    28  H   -0.000053  -0.007641   0.001682   0.000736   0.002565   0.000611
    29  H    0.010602  -0.000203  -0.000743  -0.000016   0.000007   0.000000
    30  H   -0.000170  -0.008013   0.003749   0.000005   0.001014   0.000009
    31  H    0.000080   0.002284  -0.000117  -0.000001   0.000003   0.000000
               7          8          9         10         11         12
     1  O   -0.000039   0.000000   0.000000   0.000000   0.000000   0.000000
     2  S   -0.001068  -0.000098  -0.000021   0.000000   0.000000   0.000000
     3  N   -0.059751   0.002554  -0.000106   0.000000   0.000000   0.000000
     4  C    0.514373  -0.034991   0.005006  -0.000495   0.000006   0.000000
     5  N   -0.069574  -0.098026   0.007199   0.000342  -0.000005   0.000000
     6  N   -0.096120   0.235449  -0.043433  -0.000104   0.000243   0.000018
     7  C    4.968666   0.335422  -0.032656   0.007303  -0.000093   0.000020
     8  N    0.335422   6.865722   0.202158  -0.059796   0.004640   0.000328
     9  C   -0.032656   0.202158   4.624414   0.514881  -0.010552  -0.038147
    10  C    0.007303  -0.059796   0.514881   4.995446   0.518909  -0.039373
    11  C   -0.000093   0.004640  -0.010552   0.518909   4.880186   0.539479
    12  C    0.000020   0.000328  -0.038147  -0.039373   0.539479   4.870519
    13  C   -0.000031   0.004730  -0.010095  -0.041479  -0.024839   0.543928
    14  C   -0.007130  -0.050151   0.528897  -0.071366  -0.042059  -0.041019
    15  N    0.000064  -0.000001   0.000000   0.000000   0.000000   0.000000
    16  C    0.000434  -0.000026   0.000003  -0.000001   0.000000   0.000000
    17  C   -0.000027   0.000000   0.000000   0.000000   0.000000   0.000000
    18  O    0.004340   0.000014  -0.000003   0.000000   0.000000   0.000000
    19  H    0.004194   0.000061  -0.000001   0.000000   0.000000   0.000000
    20  H    0.362100  -0.034407  -0.001482  -0.000068  -0.000005  -0.000001
    21  H    0.000246  -0.013149  -0.039801   0.357148  -0.037696   0.004503
    22  H    0.000001  -0.000105   0.003544  -0.037586   0.363808  -0.039878
    23  H    0.000000   0.000003   0.000482   0.004655  -0.041297   0.365858
    24  H   -0.000004  -0.000109   0.003445   0.000737   0.004419  -0.039429
    25  H    0.005777  -0.009123  -0.039554   0.005228   0.000206   0.004304
    26  H    0.000271  -0.000007  -0.000001   0.000000   0.000000   0.000000
    27  H    0.000018  -0.000001   0.000000   0.000000   0.000000   0.000000
    28  H    0.000051  -0.000074  -0.000005   0.000002   0.000000   0.000000
    29  H   -0.000001   0.000000   0.000000   0.000000   0.000000   0.000000
    30  H    0.000036   0.000001   0.000000   0.000000   0.000000   0.000000
    31  H    0.000000   0.000000   0.000000   0.000000   0.000000   0.000000
              13         14         15         16         17         18
     1  O    0.000000   0.000000  -0.053791   0.001586  -0.007102  -0.040749
     2  S    0.000000   0.000000   0.170337  -0.018232  -0.016387   0.437175
     3  N    0.000000   0.000003  -0.061982  -0.000080   0.000615  -0.054528
     4  C   -0.000008   0.000951   0.002435   0.001036  -0.000074  -0.003194
     5  N    0.000002  -0.000367   0.000449  -0.001143  -0.000207   0.000068
     6  N   -0.000069   0.002738  -0.000027  -0.000096   0.000002   0.000005
     7  C   -0.000031  -0.007130   0.000064   0.000434  -0.000027   0.004340
     8  N    0.004730  -0.050151  -0.000001  -0.000026   0.000000   0.000014
     9  C   -0.010095   0.528897   0.000000   0.000003   0.000000  -0.000003
    10  C   -0.041479  -0.071366   0.000000  -0.000001   0.000000   0.000000
    11  C   -0.024839  -0.042059   0.000000   0.000000   0.000000   0.000000
    12  C    0.543928  -0.041019   0.000000   0.000000   0.000000   0.000000
    13  C    4.864608   0.527303   0.000000   0.000000   0.000000   0.000000
    14  C    0.527303   4.990474   0.000000   0.000000   0.000000   0.000001
    15  N    0.000000   0.000000   7.196417   0.265679   0.265779  -0.052342
    16  C    0.000000   0.000000   0.265679   5.011899  -0.049058  -0.005969
    17  C    0.000000   0.000000   0.265779  -0.049058   5.013363   0.001594
    18  O    0.000000   0.000001  -0.052342  -0.005969   0.001594   8.271993
    19  H    0.000000   0.000000  -0.000679   0.000113   0.000289   0.001482
    20  H    0.000149   0.002073   0.000019   0.000012  -0.000001   0.002948
    21  H    0.000092   0.005462   0.000000   0.000000   0.000000   0.000000
    22  H    0.004456   0.000709   0.000000   0.000000   0.000000   0.000000
    23  H   -0.041090   0.004873   0.000000   0.000000   0.000000   0.000000
    24  H    0.363375  -0.037398   0.000000   0.000000   0.000000   0.000000
    25  H   -0.034687   0.354337   0.000000   0.000000   0.000000  -0.000001
    26  H    0.000000   0.000000  -0.031773   0.375106   0.004384   0.011128
    27  H    0.000000   0.000000  -0.036193   0.377424  -0.003196   0.000127
    28  H    0.000000   0.000001  -0.044873   0.374173  -0.001307   0.000048
    29  H    0.000000   0.000000  -0.033405   0.004429   0.374468   0.000057
    30  H    0.000000   0.000000  -0.046545  -0.001612   0.374551  -0.000039
    31  H    0.000000   0.000000  -0.033773  -0.003296   0.378895  -0.000049
              19         20         21         22         23         24
     1  O    0.001208   0.000000   0.000000   0.000000   0.000000   0.000000
     2  S   -0.007216   0.000958   0.000000   0.000000   0.000000   0.000000
     3  N    0.293071  -0.000145   0.000000   0.000000   0.000000   0.000000
     4  C   -0.028733  -0.026893   0.000028   0.000000   0.000000   0.000000
     5  N    0.003829   0.004232  -0.000330   0.000000   0.000000   0.000000
     6  N   -0.000048   0.003451   0.015001  -0.000008   0.000000   0.000001
     7  C    0.004194   0.362100   0.000246   0.000001   0.000000  -0.000004
     8  N    0.000061  -0.034407  -0.013149  -0.000105   0.000003  -0.000109
     9  C   -0.000001  -0.001482  -0.039801   0.003544   0.000482   0.003445
    10  C    0.000000  -0.000068   0.357148  -0.037586   0.004655   0.000737
    11  C    0.000000  -0.000005  -0.037696   0.363808  -0.041297   0.004419
    12  C    0.000000  -0.000001   0.004503  -0.039878   0.365858  -0.039429
    13  C    0.000000   0.000149   0.000092   0.004456  -0.041090   0.363375
    14  C    0.000000   0.002073   0.005462   0.000709   0.004873  -0.037398
    15  N   -0.000679   0.000019   0.000000   0.000000   0.000000   0.000000
    16  C    0.000113   0.000012   0.000000   0.000000   0.000000   0.000000
    17  C    0.000289  -0.000001   0.000000   0.000000   0.000000   0.000000
    18  O    0.001482   0.002948   0.000000   0.000000   0.000000   0.000000
    19  H    0.314826  -0.000075   0.000000   0.000000   0.000000   0.000000
    20  H   -0.000075   0.460624  -0.000010   0.000000   0.000000  -0.000001
    21  H    0.000000  -0.000010   0.538680  -0.005090  -0.000134   0.000013
    22  H    0.000000   0.000000  -0.005090   0.550422  -0.005036  -0.000164
    23  H    0.000000   0.000000  -0.000134  -0.005036   0.555509  -0.005059
    24  H    0.000000  -0.000001   0.000013  -0.000164  -0.005059   0.549723
    25  H    0.000000   0.001416  -0.000130   0.000013  -0.000144  -0.005094
    26  H   -0.000015   0.000005   0.000000   0.000000   0.000000   0.000000
    27  H   -0.000001   0.000000   0.000000   0.000000   0.000000   0.000000
    28  H    0.000098   0.000000   0.000004   0.000000   0.000000   0.000000
    29  H    0.000045   0.000000   0.000000   0.000000   0.000000   0.000000
    30  H    0.001536   0.000000   0.000000   0.000000   0.000000   0.000000
    31  H   -0.000019   0.000000   0.000000   0.000000   0.000000   0.000000
              25         26         27         28         29         30
     1  O    0.000000   0.000046  -0.000042  -0.000053   0.010602  -0.000170
     2  S   -0.000002  -0.002096   0.001744  -0.007641  -0.000203  -0.008013
     3  N   -0.000002  -0.000293  -0.000169   0.001682  -0.000743   0.003749
     4  C    0.000038   0.000075   0.000106   0.000736  -0.000016   0.000005
     5  N   -0.000010   0.000024   0.000031   0.002565   0.000007   0.001014
     6  N   -0.000087  -0.000012  -0.000003   0.000611   0.000000   0.000009
     7  C    0.005777   0.000271   0.000018   0.000051  -0.000001   0.000036
     8  N   -0.009123  -0.000007  -0.000001  -0.000074   0.000000   0.000001
     9  C   -0.039554  -0.000001   0.000000  -0.000005   0.000000   0.000000
    10  C    0.005228   0.000000   0.000000   0.000002   0.000000   0.000000
    11  C    0.000206   0.000000   0.000000   0.000000   0.000000   0.000000
    12  C    0.004304   0.000000   0.000000   0.000000   0.000000   0.000000
    13  C   -0.034687   0.000000   0.000000   0.000000   0.000000   0.000000
    14  C    0.354337   0.000000   0.000000   0.000001   0.000000   0.000000
    15  N    0.000000  -0.031773  -0.036193  -0.044873  -0.033405  -0.046545
    16  C    0.000000   0.375106   0.377424   0.374173   0.004429  -0.001612
    17  C    0.000000   0.004384  -0.003196  -0.001307   0.374468   0.374551
    18  O   -0.000001   0.011128   0.000127   0.000048   0.000057  -0.000039
    19  H    0.000000  -0.000015  -0.000001   0.000098   0.000045   0.001536
    20  H    0.001416   0.000005   0.000000   0.000000   0.000000   0.000000
    21  H   -0.000130   0.000000   0.000000   0.000004   0.000000   0.000000
    22  H    0.000013   0.000000   0.000000   0.000000   0.000000   0.000000
    23  H   -0.000144   0.000000   0.000000   0.000000   0.000000   0.000000
    24  H   -0.005094   0.000000   0.000000   0.000000   0.000000   0.000000
    25  H    0.541680   0.000000   0.000000   0.000000   0.000000   0.000000
    26  H    0.000000   0.491858  -0.020116  -0.028800  -0.000192  -0.000149
    27  H    0.000000  -0.020116   0.521554  -0.035476   0.000016  -0.001380
    28  H    0.000000  -0.028800  -0.035476   0.557467  -0.000146   0.007509
    29  H    0.000000  -0.000192   0.000016  -0.000146   0.494415  -0.030005
    30  H    0.000000  -0.000149  -0.001380   0.007509  -0.030005   0.559725
    31  H    0.000000   0.000012   0.004990  -0.001431  -0.020122  -0.034496
              31
     1  O    0.000080
     2  S    0.002284
     3  N   -0.000117
     4  C   -0.000001
     5  N    0.000003
     6  N    0.000000
     7  C    0.000000
     8  N    0.000000
     9  C    0.000000
    10  C    0.000000
    11  C    0.000000
    12  C    0.000000
    13  C    0.000000
    14  C    0.000000
    15  N   -0.033773
    16  C   -0.003296
    17  C    0.378895
    18  O   -0.000049
    19  H   -0.000019
    20  H    0.000000
    21  H    0.000000
    22  H    0.000000
    23  H    0.000000
    24  H    0.000000
    25  H    0.000000
    26  H    0.000012
    27  H    0.004990
    28  H   -0.001431
    29  H   -0.020122
    30  H   -0.034496
    31  H    0.513225
 Mulliken charges:
               1
     1  O   -0.570562
     2  S    1.296587
     3  N   -0.771472
     4  C    0.375338
     5  N   -0.364947
     6  N   -0.107386
     7  C    0.063177
     8  N   -0.351019
     9  C    0.325830
    10  C   -0.154381
    11  C   -0.155348
    12  C   -0.131114
    13  C   -0.156345
    14  C   -0.168330
    15  N   -0.505794
    16  C   -0.332381
    17  C   -0.336580
    18  O   -0.574106
    19  H    0.416037
    20  H    0.225100
    21  H    0.175165
    22  H    0.164912
    23  H    0.161379
    24  H    0.165545
    25  H    0.175836
    26  H    0.200545
    27  H    0.190568
    28  H    0.174861
    29  H    0.200795
    30  H    0.174275
    31  H    0.193815
 Sum of Mulliken charges =   0.00000
 Mulliken charges with hydrogens summed into heavy atoms:
               1
     1  O   -0.570562
     2  S    1.296587
     3  N   -0.355434
     4  C    0.375338
     5  N   -0.364947
     6  N   -0.107386
     7  C    0.288277
     8  N   -0.351019
     9  C    0.325830
    10  C    0.020784
    11  C    0.009564
    12  C    0.030266
    13  C    0.009199
    14  C    0.007506
    15  N   -0.505794
    16  C    0.233593
    17  C    0.232304
    18  O   -0.574106
 Electronic spatial extent (au):  <R**2>=           6323.5715
 Charge=              0.0000 electrons
 Dipole moment (field-independent basis, Debye):
    X=              4.7438    Y=              2.6681    Z=              1.3450  Tot=              5.6064
 Quadrupole moment (field-independent basis, Debye-Ang):
   XX=            -99.1735   YY=           -110.2132   ZZ=           -113.9284
   XY=            -23.7521   XZ=              7.9749   YZ=              8.0499
 Traceless Quadrupole moment (field-independent basis, Debye-Ang):
   XX=              8.5982   YY=             -2.4415   ZZ=             -6.1567
   XY=            -23.7521   XZ=              7.9749   YZ=              8.0499
 Octapole moment (field-independent basis, Debye-Ang**2):
  XXX=            120.7805  YYY=             -1.5347  ZZZ=              1.7270  XYY=             16.4227
  XXY=             67.5269  XXZ=             21.5730  XZZ=            -31.4031  YZZ=              0.7864
  YYZ=             13.9968  XYZ=             -2.9672
 Hexadecapole moment (field-independent basis, Debye-Ang**3):
 XXXX=          -6301.5919 YYYY=           -873.2298 ZZZZ=           -589.5601 XXXY=           -289.7168
 XXXZ=            185.9986 YYYX=            -53.7068 YYYZ=             25.2900 ZZZX=              3.0767
 ZZZY=             24.1058 XXYY=          -1192.4881 XXZZ=          -1262.2698 YYZZ=           -267.4865
 XXYZ=             14.7485 YYXZ=             -1.6587 ZZXY=            -20.2353
 N-N= 1.475511941277D+03 E-N=-5.787622177539D+03  KE= 1.202100624951D+03
 No NMR shielding tensors so no spin-rotation constants.
 Leave Link  601 at Thu Aug  6 21:18:19 2020, MaxMem=    33554432 cpu:         0.2
 (Enter /prod/apps/gaussian/g09d1/l9999.exe)
 1\1\GINC-PIRINEUS24\SP\RB3LYP\6-31G(d)\C10H13N5O2S1\UBAFAR01\06-Aug-20
 20\0\\#p b3lyp/6-31G(d) scrf=(iefpcm,read,solvent=Water) geom=allcheck
  guess=read\\SM46.n.4.pdb.xyz\\0,1\O,0,4.003,0.679,0.818\S,0,3.615,-0.
 017,-0.409\N,0,3.192,1.245,-1.471\C,0,2.735,0.949,-2.767\N,0,3.454,1.2
 63,-3.88\N,0,2.767,0.915,-4.937\C,0,1.545,0.368,-3.153\N,0,1.614,0.354
 ,-4.509\C,0,0.658,-0.141,-5.442\C,0,1.094,-0.584,-6.692\C,0,0.157,-1.0
 63,-7.606\C,0,-1.198,-1.111,-7.27\C,0,-1.617,-0.67,-6.014\C,0,-0.694,-
 0.175,-5.095\N,0,4.955,-0.87,-0.921\C,0,4.771,-1.818,-2.03\C,0,6.217,-
 0.12,-0.964\O,0,2.488,-0.948,-0.43\H,0,3.906,1.976,-1.457\H,0,0.718,-0
 .034,-2.596\H,0,2.149,-0.552,-6.932\H,0,0.491,-1.407,-8.578\H,0,-1.922
 ,-1.491,-7.982\H,0,-2.668,-0.699,-5.748\H,0,-1.021,0.191,-4.129\H,0,3.
 819,-2.331,-1.913\H,0,5.579,-2.55,-1.968\H,0,4.813,-1.327,-3.008\H,0,6
 .301,0.502,-0.074\H,0,6.3,0.503,-1.863\H,0,7.031,-0.848,-0.963\\Versio
 n=AM64L-G09RevD.01\State=1-A\HF=-1211.187574\RMSD=8.783e-09\Dipole=-0.
 3708107,-0.7591233,-2.0375221\Quadrupole=18.4458288,-2.6741118,-15.771
 717,-1.1352667,8.5148837,6.5961073\PG=C01 [X(C10H13N5O2S1)]\\@


 MEMORIES ARE LIKE AN ENGLISH GRAMMER LESSON -
 PRESENT TENSE, AND PAST PERFECT.
 Job cpu time:       0 days  0 hours  2 minutes 54.5 seconds.
 File lengths (MBytes):  RWF=    159 Int=      0 D2E=      0 Chk=      6 Scr=      1
 Normal termination of Gaussian 09 at Thu Aug  6 21:18:19 2020.
