 Entering Gaussian System, Link 0=g09
 Initial command:
 /prod/apps/gaussian/g09d1/l1.exe "/tmp/ubafar01/1448558/Gau-46250.inp" -scrdir="/tmp/ubafar01/1448558/"
 Entering Link 1 = /prod/apps/gaussian/g09d1/l1.exe PID=     46251.
  
 Copyright (c) 1988,1990,1992,1993,1995,1998,2003,2009,2013,
            Gaussian, Inc.  All Rights Reserved.
  
 This is part of the Gaussian(R) 09 program.  It is based on
 the Gaussian(R) 03 system (copyright 2003, Gaussian, Inc.),
 the Gaussian(R) 98 system (copyright 1998, Gaussian, Inc.),
 the Gaussian(R) 94 system (copyright 1995, Gaussian, Inc.),
 the Gaussian 92(TM) system (copyright 1992, Gaussian, Inc.),
 the Gaussian 90(TM) system (copyright 1990, Gaussian, Inc.),
 the Gaussian 88(TM) system (copyright 1988, Gaussian, Inc.),
 the Gaussian 86(TM) system (copyright 1986, Carnegie Mellon
 University), and the Gaussian 82(TM) system (copyright 1983,
 Carnegie Mellon University). Gaussian is a federally registered
 trademark of Gaussian, Inc.
  
 This software contains proprietary and confidential information,
 including trade secrets, belonging to Gaussian, Inc.
  
 This software is provided under written license and may be
 used, copied, transmitted, or stored only in accord with that
 written license.
  
 The following legend is applicable only to US Government
 contracts under FAR:
  
                    RESTRICTED RIGHTS LEGEND
  
 Use, reproduction and disclosure by the US Government is
 subject to restrictions as set forth in subparagraphs (a)
 and (c) of the Commercial Computer Software - Restricted
 Rights clause in FAR 52.227-19.
  
 Gaussian, Inc.
 340 Quinnipiac St., Bldg. 40, Wallingford CT 06492
  
  
 ---------------------------------------------------------------
 Warning -- This program may not be used in any manner that
 competes with the business of Gaussian, Inc. or will provide
 assistance to any competitor of Gaussian, Inc.  The licensee
 of this program is prohibited from giving any competitor of
 Gaussian, Inc. access to this program.  By using this program,
 the user acknowledges that Gaussian, Inc. is engaged in the
 business of creating and licensing software in the field of
 computational chemistry and represents and warrants to the
 licensee that it is not a competitor of Gaussian, Inc. and that
 it will not use this program in any manner prohibited above.
 ---------------------------------------------------------------
  

 Cite this work as:
 Gaussian 09, Revision D.01,
 M. J. Frisch, G. W. Trucks, H. B. Schlegel, G. E. Scuseria, 
 M. A. Robb, J. R. Cheeseman, G. Scalmani, V. Barone, B. Mennucci, 
 G. A. Petersson, H. Nakatsuji, M. Caricato, X. Li, H. P. Hratchian, 
 A. F. Izmaylov, J. Bloino, G. Zheng, J. L. Sonnenberg, M. Hada, 
 M. Ehara, K. Toyota, R. Fukuda, J. Hasegawa, M. Ishida, T. Nakajima, 
 Y. Honda, O. Kitao, H. Nakai, T. Vreven, J. A. Montgomery, Jr., 
 J. E. Peralta, F. Ogliaro, M. Bearpark, J. J. Heyd, E. Brothers, 
 K. N. Kudin, V. N. Staroverov, T. Keith, R. Kobayashi, J. Normand, 
 K. Raghavachari, A. Rendell, J. C. Burant, S. S. Iyengar, J. Tomasi, 
 M. Cossi, N. Rega, J. M. Millam, M. Klene, J. E. Knox, J. B. Cross, 
 V. Bakken, C. Adamo, J. Jaramillo, R. Gomperts, R. E. Stratmann, 
 O. Yazyev, A. J. Austin, R. Cammi, C. Pomelli, J. W. Ochterski, 
 R. L. Martin, K. Morokuma, V. G. Zakrzewski, G. A. Voth, 
 P. Salvador, J. J. Dannenberg, S. Dapprich, A. D. Daniels, 
 O. Farkas, J. B. Foresman, J. V. Ortiz, J. Cioslowski, 
 and D. J. Fox, Gaussian, Inc., Wallingford CT, 2013.
 
 ******************************************
 Gaussian 09:  AM64L-G09RevD.01 24-Apr-2013
                 6-Aug-2020 
 ******************************************
 %nproc=1
 Will use up to    1 processors via shared memory.
 %Chk=SM46.n.4.pdb.xyz.mst.n.o.chk
 -----------------
 #p b3lyp/6-31G(d)
 -----------------
 1/38=1/1;
 2/12=2,17=6,18=5,40=1/2;
 3/5=1,6=6,7=1,11=2,16=1,25=1,30=1,74=-5/1,2,3;
 4//1;
 5/5=2,38=5/2;
 6/7=2,8=2,9=2,10=2,28=1/1;
 99/5=1,9=1/99;
 Leave Link    1 at Thu Aug  6 21:12:13 2020, MaxMem=           0 cpu:         0.0
 (Enter /prod/apps/gaussian/g09d1/l101.exe)
 ----------------
 SM46.n.4.pdb.xyz
 ----------------
 Symbolic Z-matrix:
 Charge =  0 Multiplicity = 1
 O                     4.068     0.817     0.771 
 S                     3.607     0.09     -0.406 
 N                     3.279     1.322    -1.535 
 C                     2.791     1.015    -2.814 
 N                     3.469     1.374    -3.939 
 N                     2.77      1.015    -4.984 
 C                     1.616     0.392    -3.176 
 N                     1.651     0.4      -4.535 
 C                     0.696    -0.123    -5.452 
 C                     1.083    -0.371    -6.771 
 C                     0.147    -0.883    -7.666 
 C                    -1.158    -1.154    -7.249 
 C                    -1.529    -0.904    -5.928 
 C                    -0.607    -0.381    -5.024 
 N                     4.874    -0.879    -0.902 
 C                     4.607    -1.858    -1.961 
 C                     6.187    -0.232    -0.973 
 O                     2.416    -0.754    -0.392 
 H                     4.008     2.032    -1.536 
 H                     0.827    -0.056    -2.6 
 H                     2.1      -0.161    -7.072 
 H                     0.443    -1.076    -8.691 
 H                    -1.881    -1.557    -7.95 
 H                    -2.541    -1.106    -5.597 
 H                    -0.901    -0.167    -4.004 
 H                     3.616    -2.282    -1.815 
 H                     5.35     -2.653    -1.869 
 H                     4.682    -1.42     -2.964 
 H                     6.322     0.409    -0.104 
 H                     6.314     0.355    -1.893 
 H                     6.946    -1.016    -0.953 
 
 NAtoms=     31 NQM=       31 NQMF=       0 NMMI=      0 NMMIF=      0
                NMic=       0 NMicF=      0.
                    Isotopes and Nuclear Properties:
 (Nuclear quadrupole moments (NQMom) in fm**2, nuclear magnetic moments (NMagM)
  in nuclear magnetons)

  Atom         1           2           3           4           5           6           7           8           9          10
 IAtWgt=          16          32          14          12          14          14          12          14          12          12
 AtmWgt=  15.9949146  31.9720718  14.0030740  12.0000000  14.0030740  14.0030740  12.0000000  14.0030740  12.0000000  12.0000000
 NucSpn=           0           0           2           0           2           2           0           2           0           0
 AtZEff=   0.0000000   0.0000000   0.0000000   0.0000000   0.0000000   0.0000000   0.0000000   0.0000000   0.0000000   0.0000000
 NQMom=    0.0000000   0.0000000   2.0440000   0.0000000   2.0440000   2.0440000   0.0000000   2.0440000   0.0000000   0.0000000
 NMagM=    0.0000000   0.0000000   0.4037610   0.0000000   0.4037610   0.4037610   0.0000000   0.4037610   0.0000000   0.0000000
 AtZNuc=   8.0000000  16.0000000   7.0000000   6.0000000   7.0000000   7.0000000   6.0000000   7.0000000   6.0000000   6.0000000

  Atom        11          12          13          14          15          16          17          18          19          20
 IAtWgt=          12          12          12          12          14          12          12          16           1           1
 AtmWgt=  12.0000000  12.0000000  12.0000000  12.0000000  14.0030740  12.0000000  12.0000000  15.9949146   1.0078250   1.0078250
 NucSpn=           0           0           0           0           2           0           0           0           1           1
 AtZEff=   0.0000000   0.0000000   0.0000000   0.0000000   0.0000000   0.0000000   0.0000000   0.0000000   0.0000000   0.0000000
 NQMom=    0.0000000   0.0000000   0.0000000   0.0000000   2.0440000   0.0000000   0.0000000   0.0000000   0.0000000   0.0000000
 NMagM=    0.0000000   0.0000000   0.0000000   0.0000000   0.4037610   0.0000000   0.0000000   0.0000000   2.7928460   2.7928460
 AtZNuc=   6.0000000   6.0000000   6.0000000   6.0000000   7.0000000   6.0000000   6.0000000   8.0000000   1.0000000   1.0000000

  Atom        21          22          23          24          25          26          27          28          29          30
 IAtWgt=           1           1           1           1           1           1           1           1           1           1
 AtmWgt=   1.0078250   1.0078250   1.0078250   1.0078250   1.0078250   1.0078250   1.0078250   1.0078250   1.0078250   1.0078250
 NucSpn=           1           1           1           1           1           1           1           1           1           1
 AtZEff=   0.0000000   0.0000000   0.0000000   0.0000000   0.0000000   0.0000000   0.0000000   0.0000000   0.0000000   0.0000000
 NQMom=    0.0000000   0.0000000   0.0000000   0.0000000   0.0000000   0.0000000   0.0000000   0.0000000   0.0000000   0.0000000
 NMagM=    2.7928460   2.7928460   2.7928460   2.7928460   2.7928460   2.7928460   2.7928460   2.7928460   2.7928460   2.7928460
 AtZNuc=   1.0000000   1.0000000   1.0000000   1.0000000   1.0000000   1.0000000   1.0000000   1.0000000   1.0000000   1.0000000

  Atom        31
 IAtWgt=           1
 AtmWgt=   1.0078250
 NucSpn=           1
 AtZEff=   0.0000000
 NQMom=    0.0000000
 NMagM=    2.7928460
 AtZNuc=   1.0000000
 Leave Link  101 at Thu Aug  6 21:12:14 2020, MaxMem=    33554432 cpu:         0.1
 (Enter /prod/apps/gaussian/g09d1/l202.exe)
                          Input orientation:                          
 ---------------------------------------------------------------------
 Center     Atomic      Atomic             Coordinates (Angstroms)
 Number     Number       Type             X           Y           Z
 ---------------------------------------------------------------------
      1          8           0        4.068000    0.817000    0.771000
      2         16           0        3.607000    0.090000   -0.406000
      3          7           0        3.279000    1.322000   -1.535000
      4          6           0        2.791000    1.015000   -2.814000
      5          7           0        3.469000    1.374000   -3.939000
      6          7           0        2.770000    1.015000   -4.984000
      7          6           0        1.616000    0.392000   -3.176000
      8          7           0        1.651000    0.400000   -4.535000
      9          6           0        0.696000   -0.123000   -5.452000
     10          6           0        1.083000   -0.371000   -6.771000
     11          6           0        0.147000   -0.883000   -7.666000
     12          6           0       -1.158000   -1.154000   -7.249000
     13          6           0       -1.529000   -0.904000   -5.928000
     14          6           0       -0.607000   -0.381000   -5.024000
     15          7           0        4.874000   -0.879000   -0.902000
     16          6           0        4.607000   -1.858000   -1.961000
     17          6           0        6.187000   -0.232000   -0.973000
     18          8           0        2.416000   -0.754000   -0.392000
     19          1           0        4.008000    2.032000   -1.536000
     20          1           0        0.827000   -0.056000   -2.600000
     21          1           0        2.100000   -0.161000   -7.072000
     22          1           0        0.443000   -1.076000   -8.691000
     23          1           0       -1.881000   -1.557000   -7.950000
     24          1           0       -2.541000   -1.106000   -5.597000
     25          1           0       -0.901000   -0.167000   -4.004000
     26          1           0        3.616000   -2.282000   -1.815000
     27          1           0        5.350000   -2.653000   -1.869000
     28          1           0        4.682000   -1.420000   -2.964000
     29          1           0        6.322000    0.409000   -0.104000
     30          1           0        6.314000    0.355000   -1.893000
     31          1           0        6.946000   -1.016000   -0.953000
 ---------------------------------------------------------------------
                    Distance matrix (angstroms):
                    1          2          3          4          5
     1  O    0.000000
     2  S    1.458211   0.000000
     3  N    2.489012   1.702953   0.000000
     4  C    3.810795   2.705540   1.402938   0.000000
     5  N    4.780497   3.761621   2.412057   1.361686   0.000000
     6  N    5.902883   4.744921   3.499847   2.170102   1.307481
     7  C    4.666020   3.424644   2.514627   1.378332   2.231614
     8  N    5.845461   4.579375   3.535600   2.153988   2.146862
     9  C    7.140008   5.829357   4.909461   3.555716   3.495670
    10  C    8.197764   6.862676   5.924893   4.527263   4.093684
    11  C    9.457654   8.100983   7.229150   5.842520   5.479075
    12  C    9.773245   8.430861   7.646394   6.322056   6.225433
    13  C    8.897463   7.606511   6.882615   5.660562   5.841696
    14  C    7.541409   6.269415   5.493116   4.287111   4.568482
    15  N    2.514951   1.670409   2.790899   3.403215   4.034031
    16  C    3.861343   2.685652   3.472385   3.504225   3.956432
    17  C    2.938043   2.661123   3.344731   4.059200   4.331734
    18  O    2.559241   1.459799   2.522101   3.022593   4.268302
    19  H    2.608079   2.282338   1.017616   2.036826   2.549097
    20  H    4.757084   3.544482   3.007559   2.247250   3.289071
    21  H    8.145069   6.838831   5.852153   4.471132   3.747809
    22  H   10.307935   8.944925   8.062359   6.665172   6.143344
    23  H   10.820458   9.473262   8.721609   7.404138   7.300780
    24  H    9.377006   8.134790   7.501162   6.377614   6.709655
    25  H    6.961310   5.773536   5.077941   4.055131   4.634200
    26  H    4.061465   2.758939   3.630535   3.542433   4.230759
    27  H    4.544670   3.564052   4.494577   4.571185   4.903039
    28  H    4.396748   3.158970   3.395440   3.086682   3.198192
    29  H    2.452061   2.750307   3.484419   4.492137   4.876275
    30  H    3.514948   3.099878   3.205383   3.700726   3.649452
    31  H    3.822950   3.559686   4.387694   4.985209   5.168929
                    6          7          8          9         10
     6  N    0.000000
     7  C    2.233542   0.000000
     8  N    1.353509   1.359474   0.000000
     9  C    2.411544   2.508346   1.423532   0.000000
    10  C    2.821406   3.713527   2.432439   1.396794   0.000000
    11  C    4.204243   4.893229   3.702873   2.404329   1.392575
    12  C    5.026328   5.164738   4.203712   2.780195   2.421498
    13  C    4.801572   4.375402   3.708539   2.405652   2.795940
    14  C    3.654387   2.992384   2.438780   1.395549   2.430681
    15  N    4.967572   4.171460   5.022177   6.223321   7.005348
    16  C    4.557107   3.935074   4.523492   5.522067   6.145392
    17  C    5.414704   5.112399   5.801945   7.086918   7.725732
    18  O    4.933674   3.115120   4.368225   5.381465   6.528033
    19  H    3.802057   3.331796   4.148840   5.563131   6.460283
    20  H    3.256646   1.074710   2.152008   2.855793   4.190704
    21  H    2.488297   3.964704   2.636796   2.144076   1.081198
    22  H    4.850676   5.826335   4.572765   3.385755   2.143134
    23  H    6.086390   6.230464   5.288393   3.864879   3.403224
    24  H    5.751620   5.038442   4.579164   3.386072   3.879675
    25  H    3.979166   2.708017   2.667612   2.156165   3.410889
    26  H    4.650644   3.605911   4.295666   5.139596   5.884721
    27  H    5.460206   4.992297   5.487346   6.395194   6.887991
    28  H    3.696670   3.567723   3.868773   4.874479   5.342888
    29  H    6.066164   5.619956   6.438329   7.780489   8.514952
    30  H    4.748665   4.870181   5.359642   6.667600   7.189250
    31  H    6.149219   5.944165   6.547733   7.752480   8.284921
                   11         12         13         14         15
    11  C    0.000000
    12  C    1.396551   0.000000
    13  C    2.414552   1.394698   0.000000
    14  C    2.792970   2.419040   1.393136   0.000000
    15  N    8.252045   8.760426   8.140007   6.876063   0.000000
    16  C    7.306795   7.854539   7.368697   6.224893   1.466701
    17  C    9.038897   9.705013   9.194578   7.911462   1.465476
    18  O    7.620766   7.742863   6.799472   5.543743   2.513462
    19  H    7.809062   8.335258   7.652982   6.267929   3.102553
    20  H    5.177904   5.172913   4.164784   2.835094   4.465282
    21  H    2.165255   3.410563   3.876909   3.401552   6.802904
    22  H    1.084200   2.156073   3.398902   3.877166   8.963319
    23  H    2.155856   1.084684   2.153787   3.401107   9.785909
    24  H    3.399387   2.155017   1.083748   2.143434   8.779338
    25  H    3.875720   3.401506   2.153910   1.082881   6.593935
    26  H    6.944448   7.320643   6.729538   5.634289   2.093930
    27  H    7.988073   8.575865   8.176498   7.113498   2.075751
    28  H    6.554647   7.248281   6.901310   5.770324   2.140418
    29  H    9.848032  10.461567   9.863121   8.534726   2.095818
    30  H    8.537685   9.316362   8.909487   7.631848   2.139728
    31  H    9.555546  10.263210   9.827960   8.603724   2.077150
                   16         17         18         19         20
    16  C    0.000000
    17  C    2.473140   0.000000
    18  O    2.912226   3.851037   0.000000
    19  H    3.958728   3.192289   3.406611   0.000000
    20  H    4.236027   5.604258   2.808450   3.951025   0.000000
    21  H    5.940301   7.342099   6.713710   6.252760   4.650843
    22  H    7.952567   9.657815   8.536382   8.576883   6.187741
    23  H    8.834753  10.748338   8.731116   9.418102   6.181324
    24  H    8.054806   9.915807   7.196373   8.320347   4.629032
    25  H    6.113215   7.709146   4.938988   5.918184   2.229242
    26  H    1.087738   3.394334   2.408259   4.340749   3.653741
    27  H    1.092034   2.713784   3.794217   4.884780   5.266526
    28  H    1.097031   2.764136   3.491919   3.796019   4.105364
    29  H    3.395433   1.088240   4.085627   3.168493   6.053203
    30  H    2.795683   1.098680   4.321723   2.873572   5.547607
    31  H    2.682527   1.091392   4.572118   4.273410   6.409085
                   21         22         23         24         25
    21  H    0.000000
    22  H    2.490790   0.000000
    23  H    4.309067   2.486246   0.000000
    24  H    4.960598   4.298603   2.485077   0.000000
    25  H    4.291697   4.959898   4.296908   2.471633   0.000000
    26  H    5.867959   7.668229   8.269272   7.320871   5.446856
    27  H    6.621463   8.550162   9.511421   8.863356   7.057862
    28  H    5.012731   7.133441   8.243296   7.694349   5.815625
    29  H    8.167203  10.512109  11.520160  10.536652   8.228822
    30  H    6.696723   9.095560  10.368270   9.709025   7.535584
    31  H    7.852191  10.107881  11.276818  10.563049   8.461963
                   26         27         28         29         30
    26  H    0.000000
    27  H    1.774067   0.000000
    28  H    1.788743   1.779196   0.000000
    29  H    4.182277   3.665495   3.770204   0.000000
    30  H    3.773468   3.158787   2.638388   1.789833   0.000000
    31  H    3.665338   2.462933   3.055001   1.772231   1.778388
                   31
    31  H    0.000000
 Stoichiometry    C10H13N5O2S
 Framework group  C1[X(C10H13N5O2S)]
 Deg. of freedom    87
 Full point group                 C1      NOp   1
 Largest Abelian subgroup         C1      NOp   1
 Largest concise Abelian subgroup C1      NOp   1
                         Standard orientation:                         
 ---------------------------------------------------------------------
 Center     Atomic      Atomic             Coordinates (Angstroms)
 Number     Number       Type             X           Y           Z
 ---------------------------------------------------------------------
      1          8           0       -4.167091   -1.093155   -0.680225
      2         16           0       -2.907735   -0.775545   -0.017260
      3          7           0       -1.905579   -0.251551   -1.290509
      4          6           0       -0.579009    0.136246   -1.049549
      5          7           0       -0.136601    1.386840   -1.356923
      6          7           0        1.139340    1.461238   -1.081339
      7          6           0        0.471127   -0.602125   -0.547733
      8          7           0        1.517131    0.265923   -0.570963
      9          6           0        2.861272    0.049666   -0.155078
     10          6           0        3.677604    1.151420    0.110954
     11          6           0        4.992010    0.937184    0.518024
     12          6           0        5.485019   -0.360855    0.667667
     13          6           0        4.657146   -1.451180    0.401214
     14          6           0        3.343494   -1.252731   -0.018030
     15          7           0       -3.228105    0.458082    1.062459
     16          6           0       -2.162941    0.837712    1.996546
     17          6           0       -4.024401    1.573813    0.544120
     18          8           0       -2.127732   -1.773759    0.708122
     19          1           0       -2.402561    0.367789   -1.926881
     20          1           0        0.534638   -1.606263   -0.170013
     21          1           0        3.274640    2.148096   -0.004148
     22          1           0        5.629316    1.789631    0.724579
     23          1           0        6.508441   -0.520867    0.989447
     24          1           0        5.032898   -2.461946    0.509248
     25          1           0        2.707412   -2.099107   -0.245361
     26          1           0       -1.639082   -0.057193    2.325012
     27          1           0       -2.635770    1.309196    2.860649
     28          1           0       -1.451540    1.545967    1.554098
     29          1           0       -4.835380    1.185502   -0.068902
     30          1           0       -3.420654    2.281515   -0.040469
     31          1           0       -4.451247    2.103076    1.397830
 ---------------------------------------------------------------------
 Rotational constants (GHZ):      1.0004514      0.1782406      0.1722380
 Leave Link  202 at Thu Aug  6 21:12:14 2020, MaxMem=    33554432 cpu:         0.0
 (Enter /prod/apps/gaussian/g09d1/l301.exe)
 Standard basis: 6-31G(d) (6D, 7F)
 Ernie: Thresh=  0.10000D-02 Tol=  0.10000D-05 Strict=F.
 There are   300 symmetry adapted cartesian basis functions of A   symmetry.
 There are   300 symmetry adapted basis functions of A   symmetry.
   300 basis functions,   580 primitive gaussians,   300 cartesian basis functions
    70 alpha electrons       70 beta electrons
       nuclear repulsion energy      1477.0082380632 Hartrees.
 IExCor=  402 DFT=T Ex+Corr=B3LYP ExCW=0 ScaHFX=  0.200000
 ScaDFX=  0.800000  0.720000  1.000000  0.810000 ScalE2=  1.000000  1.000000
 IRadAn=      0 IRanWt=     -1 IRanGd=            0 ICorTp=0 IEmpDi=  4
 NAtoms=   31 NActive=   31 NUniq=   31 SFac= 1.00D+00 NAtFMM=   60 NAOKFM=F Big=F
 Integral buffers will be    131072 words long.
 Raffenetti 2 integral format.
 Two-electron integral symmetry is turned on.
 Leave Link  301 at Thu Aug  6 21:12:14 2020, MaxMem=    33554432 cpu:         0.0
 (Enter /prod/apps/gaussian/g09d1/l302.exe)
 NPDir=0 NMtPBC=     1 NCelOv=     1 NCel=       1 NClECP=     1 NCelD=      1
         NCelK=      1 NCelE2=     1 NClLst=     1 CellRange=     0.0.
 One-electron integrals computed using PRISM.
 NBasis=   300 RedAO= T EigKep=  4.64D-04  NBF=   300
 NBsUse=   300 1.00D-06 EigRej= -1.00D+00 NBFU=   300
 Precomputing XC quadrature grid using
 IXCGrd= 4 IRadAn=           0 IRanWt=          -1 IRanGd=           0 AccXCQ= 0.00D+00.
 Generated NRdTot=       0 NPtTot=           0 NUsed=           0 NTot=          32
 NSgBfM=   298   298   298   298   298 MxSgAt=    31 MxSgA2=    31.
 Leave Link  302 at Thu Aug  6 21:12:15 2020, MaxMem=    33554432 cpu:         1.1
 (Enter /prod/apps/gaussian/g09d1/l303.exe)
 DipDrv:  MaxL=1.
 Leave Link  303 at Thu Aug  6 21:12:15 2020, MaxMem=    33554432 cpu:         0.0
 (Enter /prod/apps/gaussian/g09d1/l401.exe)
 ExpMin= 1.17D-01 ExpMax= 2.19D+04 ExpMxC= 3.30D+03 IAcc=1 IRadAn=         1 AccDes= 0.00D+00
 Harris functional with IExCor=  402 and IRadAn=       1 diagonalized for initial guess.
 HarFok:  IExCor=  402 AccDes= 0.00D+00 IRadAn=         1 IDoV= 1 UseB2=F ITyADJ=14
 ICtDFT=  3500011 ScaDFX=  1.000000  1.000000  1.000000  1.000000
 FoFCou: FMM=F IPFlag=           0 FMFlag=      100000 FMFlg1=           0
         NFxFlg=           0 DoJE=T BraDBF=F KetDBF=T FulRan=T
         wScrn=  0.000000 ICntrl=     500 IOpCl=  0 I1Cent=   200000004 NGrid=           0
         NMat0=    1 NMatS0=      1 NMatT0=    0 NMatD0=    1 NMtDS0=    0 NMtDT0=    0
 Petite list used in FoFCou.
 Harris En= -1211.17147711896    
 JPrj=0 DoOrth=F DoCkMO=F.
 Leave Link  401 at Thu Aug  6 21:12:18 2020, MaxMem=    33554432 cpu:         2.9
 (Enter /prod/apps/gaussian/g09d1/l502.exe)
 Closed shell SCF:
 Using DIIS extrapolation, IDIIS=  1040.
 Integral symmetry usage will be decided dynamically.
 IVT=      292611 IEndB=      292611 NGot=    33554432 MDV=    33368762
 LenX=    33368762 LenY=    33278321
 Requested convergence on RMS density matrix=1.00D-08 within 128 cycles.
 Requested convergence on MAX density matrix=1.00D-06.
 Requested convergence on             energy=1.00D-06.
 No special actions if energy rises.
 Fock matrices will be formed incrementally for  20 cycles.
 Integral accuracy reduced to 1.0D-05 until final iterations.

 Cycle   1  Pass 0  IDiag  1:
 FoFJK:  IHMeth= 1 ICntrl=       0 DoSepK=F KAlg= 0 I1Cent=   0 FoldK=F
 IRaf= 750000000 NMat=   1 IRICut=       1 DoRegI=T DoRafI=F ISym2E= 0.
 FoFCou: FMM=F IPFlag=           0 FMFlag=      100000 FMFlg1=           0
         NFxFlg=           0 DoJE=F BraDBF=F KetDBF=F FulRan=T
         wScrn=  0.000000 ICntrl=       0 IOpCl=  0 I1Cent=           0 NGrid=           0
         NMat0=    1 NMatS0=      1 NMatT0=    0 NMatD0=    1 NMtDS0=    0 NMtDT0=    0
 Symmetry not used in FoFCou.
 E= -1210.61544895334    
 DIIS: error= 3.19D-02 at cycle   1 NSaved=   1.
 NSaved= 1 IEnMin= 1 EnMin= -1210.61544895334     IErMin= 1 ErrMin= 3.19D-02
 ErrMax= 3.19D-02  0.00D+00 EMaxC= 1.00D-01 BMatC= 6.42D-01 BMatP= 6.42D-01
 IDIUse=3 WtCom= 6.81D-01 WtEn= 3.19D-01
 Coeff-Com:  0.100D+01
 Coeff-En:   0.100D+01
 Coeff:      0.100D+01
 Gap=     0.274 Goal=   None    Shift=    0.000
 GapD=    0.274 DampG=1.000 DampE=0.500 DampFc=0.5000 IDamp=-1.
 Damping current iteration by 5.00D-01
 RMSDP=6.65D-03 MaxDP=6.10D-01              OVMax= 2.34D-01

 Cycle   2  Pass 0  IDiag  1:
 RMSU=  3.32D-03    CP:  9.93D-01
 E= -1210.73397085460     Delta-E=       -0.118521901255 Rises=F Damp=T
 DIIS: error= 1.46D-02 at cycle   2 NSaved=   2.
 NSaved= 2 IEnMin= 2 EnMin= -1210.73397085460     IErMin= 2 ErrMin= 1.46D-02
 ErrMax= 1.46D-02  0.00D+00 EMaxC= 1.00D-01 BMatC= 1.13D-01 BMatP= 6.42D-01
 IDIUse=3 WtCom= 8.54D-01 WtEn= 1.46D-01
 Coeff-Com:  0.246D+00 0.754D+00
 Coeff-En:   0.391D+00 0.609D+00
 Coeff:      0.267D+00 0.733D+00
 Gap=     0.229 Goal=   None    Shift=    0.000
 RMSDP=1.95D-03 MaxDP=1.43D-01 DE=-1.19D-01 OVMax= 1.77D-01

 Cycle   3  Pass 0  IDiag  1:
 RMSU=  1.60D-03    CP:  9.82D-01  6.72D-01
 E= -1211.12050219401     Delta-E=       -0.386531339413 Rises=F Damp=F
 DIIS: error= 9.34D-03 at cycle   3 NSaved=   3.
 NSaved= 3 IEnMin= 3 EnMin= -1211.12050219401     IErMin= 3 ErrMin= 9.34D-03
 ErrMax= 9.34D-03  0.00D+00 EMaxC= 1.00D-01 BMatC= 5.21D-02 BMatP= 1.13D-01
 IDIUse=3 WtCom= 9.07D-01 WtEn= 9.34D-02
 Coeff-Com:  0.814D-01 0.407D+00 0.512D+00
 Coeff-En:   0.000D+00 0.000D+00 0.100D+01
 Coeff:      0.738D-01 0.369D+00 0.558D+00
 Gap=     0.190 Goal=   None    Shift=    0.000
 RMSDP=1.04D-03 MaxDP=3.21D-02 DE=-3.87D-01 OVMax= 5.05D-02

 Cycle   4  Pass 0  IDiag  1:
 RMSU=  6.70D-04    CP:  9.88D-01  7.44D-01  5.31D-01
 E= -1211.15991930509     Delta-E=       -0.039417111082 Rises=F Damp=F
 DIIS: error= 3.63D-03 at cycle   4 NSaved=   4.
 NSaved= 4 IEnMin= 4 EnMin= -1211.15991930509     IErMin= 4 ErrMin= 3.63D-03
 ErrMax= 3.63D-03  0.00D+00 EMaxC= 1.00D-01 BMatC= 8.72D-03 BMatP= 5.21D-02
 IDIUse=3 WtCom= 9.64D-01 WtEn= 3.63D-02
 Coeff-Com:  0.763D-02 0.861D-01 0.307D+00 0.599D+00
 Coeff-En:   0.000D+00 0.000D+00 0.139D+00 0.861D+00
 Coeff:      0.735D-02 0.830D-01 0.301D+00 0.609D+00
 Gap=     0.185 Goal=   None    Shift=    0.000
 RMSDP=3.47D-04 MaxDP=1.20D-02 DE=-3.94D-02 OVMax= 1.57D-02

 Cycle   5  Pass 0  IDiag  1:
 RMSU=  1.77D-04    CP:  9.87D-01  7.35D-01  6.37D-01  6.37D-01
 E= -1211.16705931172     Delta-E=       -0.007140006634 Rises=F Damp=F
 DIIS: error= 8.05D-04 at cycle   5 NSaved=   5.
 NSaved= 5 IEnMin= 5 EnMin= -1211.16705931172     IErMin= 5 ErrMin= 8.05D-04
 ErrMax= 8.05D-04  0.00D+00 EMaxC= 1.00D-01 BMatC= 5.95D-04 BMatP= 8.72D-03
 IDIUse=3 WtCom= 9.92D-01 WtEn= 8.05D-03
 Coeff-Com: -0.160D-02 0.188D-01 0.116D+00 0.312D+00 0.555D+00
 Coeff-En:   0.000D+00 0.000D+00 0.000D+00 0.000D+00 0.100D+01
 Coeff:     -0.158D-02 0.186D-01 0.115D+00 0.310D+00 0.558D+00
 Gap=     0.186 Goal=   None    Shift=    0.000
 RMSDP=9.89D-05 MaxDP=4.96D-03 DE=-7.14D-03 OVMax= 5.26D-03

 Cycle   6  Pass 0  IDiag  1:
 RMSU=  5.35D-05    CP:  9.87D-01  7.36D-01  6.40D-01  6.86D-01  5.71D-01
 E= -1211.16754014375     Delta-E=       -0.000480832031 Rises=F Damp=F
 DIIS: error= 2.90D-04 at cycle   6 NSaved=   6.
 NSaved= 6 IEnMin= 6 EnMin= -1211.16754014375     IErMin= 6 ErrMin= 2.90D-04
 ErrMax= 2.90D-04  0.00D+00 EMaxC= 1.00D-01 BMatC= 6.17D-05 BMatP= 5.95D-04
 IDIUse=3 WtCom= 9.97D-01 WtEn= 2.90D-03
 Coeff-Com: -0.163D-02 0.330D-02 0.394D-01 0.126D+00 0.315D+00 0.519D+00
 Coeff-En:   0.000D+00 0.000D+00 0.000D+00 0.000D+00 0.386D-02 0.996D+00
 Coeff:     -0.163D-02 0.329D-02 0.393D-01 0.125D+00 0.314D+00 0.520D+00
 Gap=     0.186 Goal=   None    Shift=    0.000
 RMSDP=3.11D-05 MaxDP=1.65D-03 DE=-4.81D-04 OVMax= 1.83D-03

 Cycle   7  Pass 0  IDiag  1:
 RMSU=  2.27D-05    CP:  9.87D-01  7.36D-01  6.40D-01  6.85D-01  6.24D-01
                    CP:  6.45D-01
 E= -1211.16758255060     Delta-E=       -0.000042406849 Rises=F Damp=F
 DIIS: error= 1.71D-04 at cycle   7 NSaved=   7.
 NSaved= 7 IEnMin= 7 EnMin= -1211.16758255060     IErMin= 7 ErrMin= 1.71D-04
 ErrMax= 1.71D-04  0.00D+00 EMaxC= 1.00D-01 BMatC= 1.08D-05 BMatP= 6.17D-05
 IDIUse=3 WtCom= 9.98D-01 WtEn= 1.71D-03
 Coeff-Com: -0.895D-03 0.564D-03 0.143D-01 0.504D-01 0.152D+00 0.346D+00
 Coeff-Com:  0.437D+00
 Coeff-En:   0.000D+00 0.000D+00 0.000D+00 0.000D+00 0.000D+00 0.149D+00
 Coeff-En:   0.851D+00
 Coeff:     -0.893D-03 0.563D-03 0.143D-01 0.503D-01 0.152D+00 0.346D+00
 Coeff:      0.438D+00
 Gap=     0.185 Goal=   None    Shift=    0.000
 RMSDP=1.30D-05 MaxDP=5.64D-04 DE=-4.24D-05 OVMax= 8.26D-04

 Cycle   8  Pass 0  IDiag  1:
 RMSU=  5.84D-06    CP:  9.87D-01  7.36D-01  6.40D-01  6.87D-01  6.23D-01
                    CP:  6.77D-01  5.00D-01
 E= -1211.16759222380     Delta-E=       -0.000009673198 Rises=F Damp=F
 DIIS: error= 3.90D-05 at cycle   8 NSaved=   8.
 NSaved= 8 IEnMin= 8 EnMin= -1211.16759222380     IErMin= 8 ErrMin= 3.90D-05
 ErrMax= 3.90D-05  0.00D+00 EMaxC= 1.00D-01 BMatC= 6.92D-07 BMatP= 1.08D-05
 IDIUse=1 WtCom= 1.00D+00 WtEn= 0.00D+00
 Coeff-Com: -0.330D-03-0.194D-03 0.317D-02 0.133D-01 0.496D-01 0.135D+00
 Coeff-Com:  0.251D+00 0.549D+00
 Coeff:     -0.330D-03-0.194D-03 0.317D-02 0.133D-01 0.496D-01 0.135D+00
 Coeff:      0.251D+00 0.549D+00
 Gap=     0.186 Goal=   None    Shift=    0.000
 RMSDP=3.46D-06 MaxDP=1.56D-04 DE=-9.67D-06 OVMax= 2.57D-04

 Initial convergence to 1.0D-05 achieved.  Increase integral accuracy.
 Cycle   9  Pass 1  IDiag  1:
 E= -1211.16765538643     Delta-E=       -0.000063162630 Rises=F Damp=F
 DIIS: error= 4.18D-05 at cycle   1 NSaved=   1.
 NSaved= 1 IEnMin= 1 EnMin= -1211.16765538643     IErMin= 1 ErrMin= 4.18D-05
 ErrMax= 4.18D-05  0.00D+00 EMaxC= 1.00D-01 BMatC= 7.11D-07 BMatP= 7.11D-07
 IDIUse=1 WtCom= 1.00D+00 WtEn= 0.00D+00
 Coeff-Com:  0.100D+01
 Coeff:      0.100D+01
 Gap=     0.186 Goal=   None    Shift=    0.000
 RMSDP=3.46D-06 MaxDP=1.56D-04 DE=-6.32D-05 OVMax= 1.93D-04

 Cycle  10  Pass 1  IDiag  1:
 RMSU=  3.10D-05    CP:  1.00D+00
 E= -1211.16765606188     Delta-E=       -0.000000675447 Rises=F Damp=F
 DIIS: error= 2.13D-05 at cycle   2 NSaved=   2.
 NSaved= 2 IEnMin= 2 EnMin= -1211.16765606188     IErMin= 2 ErrMin= 2.13D-05
 ErrMax= 2.13D-05  0.00D+00 EMaxC= 1.00D-01 BMatC= 1.91D-07 BMatP= 7.11D-07
 IDIUse=1 WtCom= 1.00D+00 WtEn= 0.00D+00
 Coeff-Com:  0.260D+00 0.740D+00
 Coeff:      0.260D+00 0.740D+00
 Gap=     0.186 Goal=   None    Shift=    0.000
 RMSDP=3.12D-06 MaxDP=1.25D-04 DE=-6.75D-07 OVMax= 2.28D-04

 Cycle  11  Pass 1  IDiag  1:
 RMSU=  3.12D-06    CP:  1.00D+00  1.01D+00
 E= -1211.16765598704     Delta-E=        0.000000074842 Rises=F Damp=F
 DIIS: error= 2.59D-05 at cycle   3 NSaved=   3.
 NSaved= 3 IEnMin= 2 EnMin= -1211.16765606188     IErMin= 2 ErrMin= 2.13D-05
 ErrMax= 2.59D-05  0.00D+00 EMaxC= 1.00D-01 BMatC= 2.66D-07 BMatP= 1.91D-07
 IDIUse=1 WtCom= 1.00D+00 WtEn= 0.00D+00
 Coeff-Com:  0.119D-02 0.541D+00 0.457D+00
 Coeff:      0.119D-02 0.541D+00 0.457D+00
 Gap=     0.186 Goal=   None    Shift=    0.000
 RMSDP=1.88D-06 MaxDP=8.35D-05 DE= 7.48D-08 OVMax= 1.39D-04

 Cycle  12  Pass 1  IDiag  1:
 RMSU=  6.91D-07    CP:  1.00D+00  1.01D+00  4.42D-01
 E= -1211.16765623631     Delta-E=       -0.000000249269 Rises=F Damp=F
 DIIS: error= 4.86D-06 at cycle   4 NSaved=   4.
 NSaved= 4 IEnMin= 4 EnMin= -1211.16765623631     IErMin= 4 ErrMin= 4.86D-06
 ErrMax= 4.86D-06  0.00D+00 EMaxC= 1.00D-01 BMatC= 1.30D-08 BMatP= 1.91D-07
 IDIUse=1 WtCom= 1.00D+00 WtEn= 0.00D+00
 Coeff-Com: -0.103D-01 0.319D+00 0.296D+00 0.395D+00
 Coeff:     -0.103D-01 0.319D+00 0.296D+00 0.395D+00
 Gap=     0.186 Goal=   None    Shift=    0.000
 RMSDP=4.09D-07 MaxDP=2.06D-05 DE=-2.49D-07 OVMax= 2.49D-05

 Cycle  13  Pass 1  IDiag  1:
 RMSU=  2.25D-07    CP:  1.00D+00  1.01D+00  4.74D-01  5.27D-01
 E= -1211.16765624760     Delta-E=       -0.000000011296 Rises=F Damp=F
 DIIS: error= 8.13D-07 at cycle   5 NSaved=   5.
 NSaved= 5 IEnMin= 5 EnMin= -1211.16765624760     IErMin= 5 ErrMin= 8.13D-07
 ErrMax= 8.13D-07  0.00D+00 EMaxC= 1.00D-01 BMatC= 4.67D-10 BMatP= 1.30D-08
 IDIUse=1 WtCom= 1.00D+00 WtEn= 0.00D+00
 Coeff-Com: -0.567D-02 0.138D+00 0.133D+00 0.221D+00 0.513D+00
 Coeff:     -0.567D-02 0.138D+00 0.133D+00 0.221D+00 0.513D+00
 Gap=     0.186 Goal=   None    Shift=    0.000
 RMSDP=9.59D-08 MaxDP=4.56D-06 DE=-1.13D-08 OVMax= 6.72D-06

 Cycle  14  Pass 1  IDiag  1:
 RMSU=  7.79D-08    CP:  1.00D+00  1.01D+00  4.74D-01  5.50D-01  7.63D-01
 E= -1211.16765624801     Delta-E=       -0.000000000406 Rises=F Damp=F
 DIIS: error= 3.04D-07 at cycle   6 NSaved=   6.
 NSaved= 6 IEnMin= 6 EnMin= -1211.16765624801     IErMin= 6 ErrMin= 3.04D-07
 ErrMax= 3.04D-07  0.00D+00 EMaxC= 1.00D-01 BMatC= 3.67D-11 BMatP= 4.67D-10
 IDIUse=1 WtCom= 1.00D+00 WtEn= 0.00D+00
 Coeff-Com: -0.153D-02 0.309D-01 0.313D-01 0.633D-01 0.257D+00 0.619D+00
 Coeff:     -0.153D-02 0.309D-01 0.313D-01 0.633D-01 0.257D+00 0.619D+00
 Gap=     0.186 Goal=   None    Shift=    0.000
 RMSDP=2.93D-08 MaxDP=8.55D-07 DE=-4.06D-10 OVMax= 2.34D-06

 Cycle  15  Pass 1  IDiag  1:
 RMSU=  2.15D-08    CP:  1.00D+00  1.01D+00  4.74D-01  5.52D-01  8.17D-01
                    CP:  8.01D-01
 E= -1211.16765624804     Delta-E=       -0.000000000031 Rises=F Damp=F
 DIIS: error= 1.29D-07 at cycle   7 NSaved=   7.
 NSaved= 7 IEnMin= 7 EnMin= -1211.16765624804     IErMin= 7 ErrMin= 1.29D-07
 ErrMax= 1.29D-07  0.00D+00 EMaxC= 1.00D-01 BMatC= 7.93D-12 BMatP= 3.67D-11
 IDIUse=1 WtCom= 1.00D+00 WtEn= 0.00D+00
 Coeff-Com: -0.174D-03-0.341D-03 0.783D-03 0.755D-02 0.816D-01 0.371D+00
 Coeff-Com:  0.539D+00
 Coeff:     -0.174D-03-0.341D-03 0.783D-03 0.755D-02 0.816D-01 0.371D+00
 Coeff:      0.539D+00
 Gap=     0.186 Goal=   None    Shift=    0.000
 RMSDP=1.07D-08 MaxDP=5.63D-07 DE=-3.09D-11 OVMax= 7.49D-07

 Cycle  16  Pass 1  IDiag  1:
 RMSU=  6.16D-09    CP:  1.00D+00  1.01D+00  4.75D-01  5.56D-01  8.22D-01
                    CP:  8.32D-01  6.56D-01
 E= -1211.16765624805     Delta-E=       -0.000000000009 Rises=F Damp=F
 DIIS: error= 2.64D-08 at cycle   8 NSaved=   8.
 NSaved= 8 IEnMin= 8 EnMin= -1211.16765624805     IErMin= 8 ErrMin= 2.64D-08
 ErrMax= 2.64D-08  0.00D+00 EMaxC= 1.00D-01 BMatC= 4.45D-13 BMatP= 7.93D-12
 IDIUse=1 WtCom= 1.00D+00 WtEn= 0.00D+00
 Coeff-Com:  0.129D-04-0.241D-02-0.183D-02-0.600D-03 0.236D-01 0.149D+00
 Coeff-Com:  0.280D+00 0.552D+00
 Coeff:      0.129D-04-0.241D-02-0.183D-02-0.600D-03 0.236D-01 0.149D+00
 Coeff:      0.280D+00 0.552D+00
 Gap=     0.186 Goal=   None    Shift=    0.000
 RMSDP=2.93D-09 MaxDP=1.59D-07 DE=-9.09D-12 OVMax= 1.62D-07

 SCF Done:  E(RB3LYP) =  -1211.16765625     A.U. after   16 cycles
            NFock= 16  Conv=0.29D-08     -V/T= 2.0075
 KE= 1.202132491841D+03 PE=-5.790200124056D+03 EE= 1.899891737904D+03
 Leave Link  502 at Thu Aug  6 21:16:26 2020, MaxMem=    33554432 cpu:       234.2
 (Enter /prod/apps/gaussian/g09d1/l601.exe)
 Copying SCF densities to generalized density rwf, IOpCl= 0 IROHF=0.

 **********************************************************************

            Population analysis using the SCF density.

 **********************************************************************

 Orbital symmetries:
       Occupied  (A) (A) (A) (A) (A) (A) (A) (A) (A) (A) (A) (A)
                 (A) (A) (A) (A) (A) (A) (A) (A) (A) (A) (A) (A)
                 (A) (A) (A) (A) (A) (A) (A) (A) (A) (A) (A) (A)
                 (A) (A) (A) (A) (A) (A) (A) (A) (A) (A) (A) (A)
                 (A) (A) (A) (A) (A) (A) (A) (A) (A) (A) (A) (A)
                 (A) (A) (A) (A) (A) (A) (A) (A) (A) (A)
       Virtual   (A) (A) (A) (A) (A) (A) (A) (A) (A) (A) (A) (A)
                 (A) (A) (A) (A) (A) (A) (A) (A) (A) (A) (A) (A)
                 (A) (A) (A) (A) (A) (A) (A) (A) (A) (A) (A) (A)
                 (A) (A) (A) (A) (A) (A) (A) (A) (A) (A) (A) (A)
                 (A) (A) (A) (A) (A) (A) (A) (A) (A) (A) (A) (A)
                 (A) (A) (A) (A) (A) (A) (A) (A) (A) (A) (A) (A)
                 (A) (A) (A) (A) (A) (A) (A) (A) (A) (A) (A) (A)
                 (A) (A) (A) (A) (A) (A) (A) (A) (A) (A) (A) (A)
                 (A) (A) (A) (A) (A) (A) (A) (A) (A) (A) (A) (A)
                 (A) (A) (A) (A) (A) (A) (A) (A) (A) (A) (A) (A)
                 (A) (A) (A) (A) (A) (A) (A) (A) (A) (A) (A) (A)
                 (A) (A) (A) (A) (A) (A) (A) (A) (A) (A) (A) (A)
                 (A) (A) (A) (A) (A) (A) (A) (A) (A) (A) (A) (A)
                 (A) (A) (A) (A) (A) (A) (A) (A) (A) (A) (A) (A)
                 (A) (A) (A) (A) (A) (A) (A) (A) (A) (A) (A) (A)
                 (A) (A) (A) (A) (A) (A) (A) (A) (A) (A) (A) (A)
                 (A) (A) (A) (A) (A) (A) (A) (A) (A) (A) (A) (A)
                 (A) (A) (A) (A) (A) (A) (A) (A) (A) (A) (A) (A)
                 (A) (A) (A) (A) (A) (A) (A) (A) (A) (A) (A) (A)
                 (A) (A)
 The electronic state is 1-A.
 Alpha  occ. eigenvalues --  -89.13309 -19.14960 -19.14689 -14.44613 -14.40073
 Alpha  occ. eigenvalues --  -14.38448 -14.38083 -14.36664 -10.26384 -10.25756
 Alpha  occ. eigenvalues --  -10.24301 -10.23038 -10.22809 -10.21563 -10.21183
 Alpha  occ. eigenvalues --  -10.21043 -10.20969 -10.20813  -8.15532  -6.12047
 Alpha  occ. eigenvalues --   -6.11936  -6.11921  -1.12779  -1.11206  -1.01120
 Alpha  occ. eigenvalues --   -0.95969  -0.94566  -0.92736  -0.86731  -0.81020
 Alpha  occ. eigenvalues --   -0.77085  -0.76631  -0.73552  -0.71406  -0.67225
 Alpha  occ. eigenvalues --   -0.65711  -0.62254  -0.60742  -0.59738  -0.57296
 Alpha  occ. eigenvalues --   -0.55013  -0.52518  -0.50885  -0.50332  -0.49144
 Alpha  occ. eigenvalues --   -0.48690  -0.48320  -0.47137  -0.46215  -0.45055
 Alpha  occ. eigenvalues --   -0.44297  -0.43835  -0.42439  -0.41793  -0.39673
 Alpha  occ. eigenvalues --   -0.39550  -0.38220  -0.37118  -0.35872  -0.35370
 Alpha  occ. eigenvalues --   -0.34444  -0.32296  -0.32222  -0.31903  -0.30834
 Alpha  occ. eigenvalues --   -0.28457  -0.27791  -0.27156  -0.25943  -0.23349
 Alpha virt. eigenvalues --   -0.04793  -0.02199   0.01403   0.02155   0.05739
 Alpha virt. eigenvalues --    0.07419   0.08251   0.09142   0.09792   0.10646
 Alpha virt. eigenvalues --    0.11052   0.12271   0.13615   0.13798   0.14530
 Alpha virt. eigenvalues --    0.15063   0.15333   0.15911   0.17387   0.17597
 Alpha virt. eigenvalues --    0.17910   0.18647   0.19448   0.19728   0.21400
 Alpha virt. eigenvalues --    0.21865   0.22835   0.25957   0.28445   0.29688
 Alpha virt. eigenvalues --    0.30874   0.32474   0.33283   0.35355   0.36009
 Alpha virt. eigenvalues --    0.38192   0.40806   0.42901   0.45812   0.47648
 Alpha virt. eigenvalues --    0.48356   0.48511   0.49636   0.50453   0.51949
 Alpha virt. eigenvalues --    0.52780   0.54712   0.55138   0.56301   0.56706
 Alpha virt. eigenvalues --    0.57416   0.57756   0.58635   0.59197   0.59625
 Alpha virt. eigenvalues --    0.60153   0.61452   0.62019   0.63288   0.64038
 Alpha virt. eigenvalues --    0.64670   0.64881   0.66881   0.68501   0.69092
 Alpha virt. eigenvalues --    0.71290   0.71699   0.72534   0.74200   0.75507
 Alpha virt. eigenvalues --    0.76454   0.78917   0.79607   0.80664   0.81811
 Alpha virt. eigenvalues --    0.82205   0.82513   0.82917   0.83734   0.84473
 Alpha virt. eigenvalues --    0.84945   0.85899   0.86455   0.87474   0.88756
 Alpha virt. eigenvalues --    0.89294   0.90589   0.91325   0.92295   0.92438
 Alpha virt. eigenvalues --    0.93308   0.94246   0.95506   0.96941   0.98031
 Alpha virt. eigenvalues --    0.98951   1.00418   1.01670   1.04137   1.04840
 Alpha virt. eigenvalues --    1.05640   1.06305   1.07467   1.11025   1.12992
 Alpha virt. eigenvalues --    1.13869   1.14630   1.15626   1.16013   1.17395
 Alpha virt. eigenvalues --    1.18771   1.19288   1.21466   1.23325   1.24277
 Alpha virt. eigenvalues --    1.25205   1.28809   1.31686   1.35337   1.36358
 Alpha virt. eigenvalues --    1.38309   1.39741   1.40607   1.41049   1.42892
 Alpha virt. eigenvalues --    1.43744   1.44643   1.45625   1.47036   1.48940
 Alpha virt. eigenvalues --    1.51107   1.53518   1.54817   1.58061   1.60111
 Alpha virt. eigenvalues --    1.63212   1.66549   1.69983   1.71933   1.76111
 Alpha virt. eigenvalues --    1.78569   1.79022   1.79335   1.80240   1.81952
 Alpha virt. eigenvalues --    1.83464   1.84921   1.86445   1.87129   1.88579
 Alpha virt. eigenvalues --    1.89690   1.90252   1.93487   1.94577   1.95823
 Alpha virt. eigenvalues --    1.96445   1.96790   1.98790   2.00055   2.04339
 Alpha virt. eigenvalues --    2.05478   2.06540   2.07214   2.09138   2.09766
 Alpha virt. eigenvalues --    2.10940   2.11239   2.12372   2.13683   2.15006
 Alpha virt. eigenvalues --    2.16035   2.18347   2.19844   2.21199   2.22239
 Alpha virt. eigenvalues --    2.23843   2.24497   2.28152   2.28401   2.30584
 Alpha virt. eigenvalues --    2.31881   2.32905   2.35094   2.36681   2.41177
 Alpha virt. eigenvalues --    2.42357   2.47654   2.50022   2.50944   2.52886
 Alpha virt. eigenvalues --    2.56831   2.57425   2.58330   2.59967   2.62062
 Alpha virt. eigenvalues --    2.64414   2.66554   2.68642   2.70416   2.71967
 Alpha virt. eigenvalues --    2.73707   2.76682   2.77061   2.79170   2.84576
 Alpha virt. eigenvalues --    2.87992   2.88427   3.00027   3.06656   3.13629
 Alpha virt. eigenvalues --    3.26103   3.41723   3.61767   3.72472   3.93955
 Alpha virt. eigenvalues --    3.99393   4.01078   4.04644   4.06930   4.09544
 Alpha virt. eigenvalues --    4.11462   4.12166   4.16059   4.23049   4.29391
 Alpha virt. eigenvalues --    4.30866   4.31000   4.38930   4.48674   4.70437
          Condensed to atoms (all electrons):
               1          2          3          4          5          6
     1  O    8.211123   0.457178  -0.054596   0.001888  -0.000006   0.000000
     2  S    0.457178  13.583089   0.128940  -0.018939  -0.002786   0.000277
     3  N   -0.054596   0.128940   7.376667   0.250368  -0.072061   0.006777
     4  C    0.001888  -0.018939   0.250368   4.695912   0.368404  -0.073857
     5  N   -0.000006  -0.002786  -0.072061   0.368404   6.882385   0.298997
     6  N    0.000000   0.000277   0.006777  -0.073857   0.298997   6.751859
     7  C   -0.000035  -0.001507  -0.065781   0.489866  -0.070446  -0.096031
     8  N    0.000000  -0.000050   0.002883  -0.044302  -0.088141   0.207961
     9  C    0.000000  -0.000020  -0.000094   0.006515   0.007391  -0.045802
    10  C    0.000000   0.000000   0.000000  -0.000502   0.000321  -0.000988
    11  C    0.000000   0.000000   0.000000   0.000007  -0.000007   0.000396
    12  C    0.000000   0.000000   0.000000   0.000000   0.000000   0.000017
    13  C    0.000000   0.000000   0.000000  -0.000010   0.000002  -0.000068
    14  C    0.000000   0.000001   0.000003   0.001011  -0.000382   0.003130
    15  N   -0.052514   0.154490  -0.062371   0.003359   0.000190  -0.000018
    16  C    0.001683  -0.015706   0.000052   0.000585  -0.000665  -0.000080
    17  C   -0.007349  -0.013829   0.000498  -0.000068  -0.000135   0.000000
    18  O   -0.039246   0.433037  -0.053069  -0.004099   0.000093   0.000003
    19  H    0.001843  -0.007370   0.292207  -0.032303   0.005226  -0.000082
    20  H    0.000003   0.001030  -0.000325  -0.024968   0.004239   0.003212
    21  H    0.000000   0.000000   0.000000   0.000051  -0.000396   0.017883
    22  H    0.000000   0.000000   0.000000   0.000000   0.000000  -0.000008
    23  H    0.000000   0.000000   0.000000   0.000000   0.000000   0.000000
    24  H    0.000000   0.000000   0.000000   0.000000   0.000000   0.000001
    25  H    0.000000  -0.000005  -0.000002   0.000139  -0.000007  -0.000091
    26  H    0.000047  -0.002137  -0.000291   0.000129   0.000026  -0.000010
    27  H   -0.000042   0.001954  -0.000189   0.000128   0.000017  -0.000003
    28  H   -0.000050  -0.008206   0.001708   0.000796   0.001673   0.000448
    29  H    0.011522  -0.000206  -0.000750  -0.000026   0.000006   0.000000
    30  H   -0.000167  -0.008413   0.004067   0.000036   0.000743   0.000008
    31  H    0.000107   0.002476  -0.000130  -0.000001   0.000001   0.000000
               7          8          9         10         11         12
     1  O   -0.000035   0.000000   0.000000   0.000000   0.000000   0.000000
     2  S   -0.001507  -0.000050  -0.000020   0.000000   0.000000   0.000000
     3  N   -0.065781   0.002883  -0.000094   0.000000   0.000000   0.000000
     4  C    0.489866  -0.044302   0.006515  -0.000502   0.000007   0.000000
     5  N   -0.070446  -0.088141   0.007391   0.000321  -0.000007   0.000000
     6  N   -0.096031   0.207961  -0.045802  -0.000988   0.000396   0.000017
     7  C    5.044023   0.317291  -0.038562   0.007819  -0.000086   0.000019
     8  N    0.317291   6.930419   0.202714  -0.057113   0.004618   0.000386
     9  C   -0.038562   0.202714   4.606221   0.519712  -0.009600  -0.038234
    10  C    0.007819  -0.057113   0.519712   4.988543   0.517109  -0.037096
    11  C   -0.000086   0.004618  -0.009600   0.517109   4.868087   0.543316
    12  C    0.000019   0.000386  -0.038234  -0.037096   0.543316   4.849262
    13  C   -0.000020   0.004672  -0.006414  -0.041691  -0.022563   0.550187
    14  C   -0.007672  -0.050984   0.529122  -0.075485  -0.042495  -0.039246
    15  N    0.000054  -0.000006   0.000000   0.000000   0.000000   0.000000
    16  C    0.000648  -0.000024   0.000004   0.000000   0.000000   0.000000
    17  C   -0.000035   0.000000   0.000000   0.000000   0.000000   0.000000
    18  O    0.004142   0.000052  -0.000002   0.000000   0.000000   0.000000
    19  H    0.005432   0.000078  -0.000002   0.000000   0.000000   0.000000
    20  H    0.359689  -0.036617  -0.001857  -0.000092  -0.000004  -0.000002
    21  H    0.000277  -0.014703  -0.033392   0.353564  -0.040436   0.004346
    22  H    0.000002  -0.000110   0.003475  -0.038601   0.360580  -0.041373
    23  H    0.000000   0.000004   0.000520   0.004706  -0.042595   0.362428
    24  H   -0.000003  -0.000113   0.003526   0.000794   0.004562  -0.040463
    25  H    0.006578  -0.010195  -0.039696   0.005615   0.000276   0.004466
    26  H    0.000388  -0.000021   0.000000   0.000000   0.000000   0.000000
    27  H    0.000036  -0.000001   0.000000   0.000000   0.000000   0.000000
    28  H    0.000089  -0.000060  -0.000004   0.000002   0.000000   0.000000
    29  H   -0.000001   0.000000   0.000000   0.000000   0.000000   0.000000
    30  H    0.000041   0.000001   0.000000   0.000000   0.000000   0.000000
    31  H    0.000000   0.000000   0.000000   0.000000   0.000000   0.000000
              13         14         15         16         17         18
     1  O    0.000000   0.000000  -0.052514   0.001683  -0.007349  -0.039246
     2  S    0.000000   0.000001   0.154490  -0.015706  -0.013829   0.433037
     3  N    0.000000   0.000003  -0.062371   0.000052   0.000498  -0.053069
     4  C   -0.000010   0.001011   0.003359   0.000585  -0.000068  -0.004099
     5  N    0.000002  -0.000382   0.000190  -0.000665  -0.000135   0.000093
     6  N   -0.000068   0.003130  -0.000018  -0.000080   0.000000   0.000003
     7  C   -0.000020  -0.007672   0.000054   0.000648  -0.000035   0.004142
     8  N    0.004672  -0.050984  -0.000006  -0.000024   0.000000   0.000052
     9  C   -0.006414   0.529122   0.000000   0.000004   0.000000  -0.000002
    10  C   -0.041691  -0.075485   0.000000   0.000000   0.000000   0.000000
    11  C   -0.022563  -0.042495   0.000000   0.000000   0.000000   0.000000
    12  C    0.550187  -0.039246   0.000000   0.000000   0.000000   0.000000
    13  C    4.843714   0.529276   0.000000   0.000000   0.000000   0.000000
    14  C    0.529276   4.995074   0.000000   0.000000   0.000000   0.000002
    15  N    0.000000   0.000000   7.181394   0.274810   0.275375  -0.051827
    16  C    0.000000   0.000000   0.274810   5.006077  -0.050817  -0.006366
    17  C    0.000000   0.000000   0.275375  -0.050817   5.012048   0.001727
    18  O    0.000000   0.000002  -0.051827  -0.006366   0.001727   8.244773
    19  H    0.000000   0.000000  -0.000385   0.000124   0.000135   0.001775
    20  H    0.000197   0.001783   0.000033   0.000002  -0.000001   0.004854
    21  H    0.000142   0.005745   0.000000   0.000000   0.000000   0.000000
    22  H    0.004591   0.000811   0.000000   0.000000   0.000000   0.000000
    23  H   -0.042354   0.005032   0.000000   0.000000   0.000000   0.000000
    24  H    0.359994  -0.039058   0.000000   0.000000   0.000000   0.000000
    25  H   -0.037953   0.348928   0.000000   0.000000   0.000000  -0.000005
    26  H    0.000000   0.000000  -0.030893   0.375229   0.004545   0.012328
    27  H    0.000000   0.000000  -0.038191   0.373600  -0.003408   0.000135
    28  H    0.000000   0.000001  -0.045931   0.372761  -0.001368   0.000081
    29  H    0.000000   0.000000  -0.032608   0.004532   0.374731   0.000056
    30  H    0.000000   0.000000  -0.048574  -0.001567   0.370514  -0.000036
    31  H    0.000000   0.000000  -0.035193  -0.003364   0.376558  -0.000051
              19         20         21         22         23         24
     1  O    0.001843   0.000003   0.000000   0.000000   0.000000   0.000000
     2  S   -0.007370   0.001030   0.000000   0.000000   0.000000   0.000000
     3  N    0.292207  -0.000325   0.000000   0.000000   0.000000   0.000000
     4  C   -0.032303  -0.024968   0.000051   0.000000   0.000000   0.000000
     5  N    0.005226   0.004239  -0.000396   0.000000   0.000000   0.000000
     6  N   -0.000082   0.003212   0.017883  -0.000008   0.000000   0.000001
     7  C    0.005432   0.359689   0.000277   0.000002   0.000000  -0.000003
     8  N    0.000078  -0.036617  -0.014703  -0.000110   0.000004  -0.000113
     9  C   -0.000002  -0.001857  -0.033392   0.003475   0.000520   0.003526
    10  C    0.000000  -0.000092   0.353564  -0.038601   0.004706   0.000794
    11  C    0.000000  -0.000004  -0.040436   0.360580  -0.042595   0.004562
    12  C    0.000000  -0.000002   0.004346  -0.041373   0.362428  -0.040463
    13  C    0.000000   0.000197   0.000142   0.004591  -0.042354   0.359994
    14  C    0.000000   0.001783   0.005745   0.000811   0.005032  -0.039058
    15  N   -0.000385   0.000033   0.000000   0.000000   0.000000   0.000000
    16  C    0.000124   0.000002   0.000000   0.000000   0.000000   0.000000
    17  C    0.000135  -0.000001   0.000000   0.000000   0.000000   0.000000
    18  O    0.001775   0.004854   0.000000   0.000000   0.000000   0.000000
    19  H    0.367378  -0.000097   0.000000   0.000000   0.000000   0.000000
    20  H   -0.000097   0.480260  -0.000010   0.000000   0.000000  -0.000002
    21  H    0.000000  -0.000010   0.533986  -0.005037  -0.000137   0.000013
    22  H    0.000000   0.000000  -0.005037   0.576170  -0.005377  -0.000179
    23  H    0.000000   0.000000  -0.000137  -0.005377   0.582702  -0.005378
    24  H    0.000000  -0.000002   0.000013  -0.000179  -0.005378   0.577113
    25  H    0.000000   0.002011  -0.000141   0.000015  -0.000160  -0.005499
    26  H   -0.000022   0.000035   0.000000   0.000000   0.000000   0.000000
    27  H    0.000000   0.000000   0.000000   0.000000   0.000000   0.000000
    28  H    0.000085   0.000012   0.000001   0.000000   0.000000   0.000000
    29  H    0.000065   0.000000   0.000000   0.000000   0.000000   0.000000
    30  H    0.001519   0.000000   0.000000   0.000000   0.000000   0.000000
    31  H   -0.000015   0.000000   0.000000   0.000000   0.000000   0.000000
              25         26         27         28         29         30
     1  O    0.000000   0.000047  -0.000042  -0.000050   0.011522  -0.000167
     2  S   -0.000005  -0.002137   0.001954  -0.008206  -0.000206  -0.008413
     3  N   -0.000002  -0.000291  -0.000189   0.001708  -0.000750   0.004067
     4  C    0.000139   0.000129   0.000128   0.000796  -0.000026   0.000036
     5  N   -0.000007   0.000026   0.000017   0.001673   0.000006   0.000743
     6  N   -0.000091  -0.000010  -0.000003   0.000448   0.000000   0.000008
     7  C    0.006578   0.000388   0.000036   0.000089  -0.000001   0.000041
     8  N   -0.010195  -0.000021  -0.000001  -0.000060   0.000000   0.000001
     9  C   -0.039696   0.000000   0.000000  -0.000004   0.000000   0.000000
    10  C    0.005615   0.000000   0.000000   0.000002   0.000000   0.000000
    11  C    0.000276   0.000000   0.000000   0.000000   0.000000   0.000000
    12  C    0.004466   0.000000   0.000000   0.000000   0.000000   0.000000
    13  C   -0.037953   0.000000   0.000000   0.000000   0.000000   0.000000
    14  C    0.348928   0.000000   0.000000   0.000001   0.000000   0.000000
    15  N    0.000000  -0.030893  -0.038191  -0.045931  -0.032608  -0.048574
    16  C    0.000000   0.375229   0.373600   0.372761   0.004532  -0.001567
    17  C    0.000000   0.004545  -0.003408  -0.001368   0.374731   0.370514
    18  O   -0.000005   0.012328   0.000135   0.000081   0.000056  -0.000036
    19  H    0.000000  -0.000022   0.000000   0.000085   0.000065   0.001519
    20  H    0.002011   0.000035   0.000000   0.000012   0.000000   0.000000
    21  H   -0.000141   0.000000   0.000000   0.000001   0.000000   0.000000
    22  H    0.000015   0.000000   0.000000   0.000000   0.000000   0.000000
    23  H   -0.000160   0.000000   0.000000   0.000000   0.000000   0.000000
    24  H   -0.005499   0.000000   0.000000   0.000000   0.000000   0.000000
    25  H    0.575173   0.000000   0.000000   0.000000   0.000000   0.000000
    26  H    0.000000   0.485759  -0.020249  -0.029046  -0.000189  -0.000172
    27  H    0.000000  -0.020249   0.552686  -0.039968   0.000020  -0.001534
    28  H    0.000000  -0.029046  -0.039968   0.575253  -0.000167   0.007940
    29  H    0.000000  -0.000189   0.000020  -0.000167   0.487069  -0.031419
    30  H    0.000000  -0.000172  -0.001534   0.007940  -0.031419   0.586085
    31  H    0.000000   0.000002   0.005479  -0.001590  -0.019686  -0.038688
              31
     1  O    0.000107
     2  S    0.002476
     3  N   -0.000130
     4  C   -0.000001
     5  N    0.000001
     6  N    0.000000
     7  C    0.000000
     8  N    0.000000
     9  C    0.000000
    10  C    0.000000
    11  C    0.000000
    12  C    0.000000
    13  C    0.000000
    14  C    0.000000
    15  N   -0.035193
    16  C   -0.003364
    17  C    0.376558
    18  O   -0.000051
    19  H   -0.000015
    20  H    0.000000
    21  H    0.000000
    22  H    0.000000
    23  H    0.000000
    24  H    0.000000
    25  H    0.000000
    26  H    0.000002
    27  H    0.005479
    28  H   -0.001590
    29  H   -0.019686
    30  H   -0.038688
    31  H    0.539942
 Mulliken charges:
               1
     1  O   -0.531389
     2  S    1.316703
     3  N   -0.754509
     4  C    0.379879
     5  N   -0.334687
     6  N   -0.073933
     7  C    0.043783
     8  N   -0.368638
     9  C    0.334479
    10  C   -0.146618
    11  C   -0.141165
    12  C   -0.118015
    13  C   -0.141702
    14  C   -0.164597
    15  N   -0.491195
    16  C   -0.331517
    17  C   -0.339122
    18  O   -0.548356
    19  H    0.364410
    20  H    0.206616
    21  H    0.178244
    22  H    0.145040
    23  H    0.140609
    24  H    0.144691
    25  H    0.150552
    26  H    0.204543
    27  H    0.169530
    28  H    0.165541
    29  H    0.207051
    30  H    0.159616
    31  H    0.174154
 Sum of Mulliken charges =   0.00000
 Mulliken charges with hydrogens summed into heavy atoms:
               1
     1  O   -0.531389
     2  S    1.316703
     3  N   -0.390099
     4  C    0.379879
     5  N   -0.334687
     6  N   -0.073933
     7  C    0.250399
     8  N   -0.368638
     9  C    0.334479
    10  C    0.031625
    11  C    0.003876
    12  C    0.022595
    13  C    0.002989
    14  C   -0.014044
    15  N   -0.491195
    16  C    0.208097
    17  C    0.201699
    18  O   -0.548356
 Electronic spatial extent (au):  <R**2>=           6289.2366
 Charge=              0.0000 electrons
 Dipole moment (field-independent basis, Debye):
    X=              3.5974    Y=              1.9014    Z=              2.0735  Tot=              4.5669
 Quadrupole moment (field-independent basis, Debye-Ang):
   XX=           -102.1833   YY=           -112.8501   ZZ=           -111.9872
   XY=            -18.4573   XZ=              1.8467   YZ=              5.1255
 Traceless Quadrupole moment (field-independent basis, Debye-Ang):
   XX=              6.8236   YY=             -3.8432   ZZ=             -2.9803
   XY=            -18.4573   XZ=              1.8467   YZ=              5.1255
 Octapole moment (field-independent basis, Debye-Ang**2):
  XXX=             86.9511  YYY=            -10.6841  ZZZ=              3.5065  XYY=             11.8090
  XXY=             53.3723  XXZ=             31.7264  XZZ=            -31.7351  YZZ=              2.1688
  YYZ=             10.2413  XYZ=              0.1481
 Hexadecapole moment (field-independent basis, Debye-Ang**3):
 XXXX=          -6385.5780 YYYY=           -882.4918 ZZZZ=           -618.6656 XXXY=           -205.6259
 XXXZ=             97.4755 YYYX=            -22.4559 YYYZ=             23.4584 ZZZX=            -13.4669
 ZZZY=              8.9912 XXYY=          -1198.1902 XXZZ=          -1263.8667 YYZZ=           -268.5705
 XXYZ=              0.7491 YYXZ=              3.1242 ZZXY=            -18.1842
 N-N= 1.477008238063D+03 E-N=-5.790200116744D+03  KE= 1.202132491841D+03
 No NMR shielding tensors so no spin-rotation constants.
 Leave Link  601 at Thu Aug  6 21:16:26 2020, MaxMem=    33554432 cpu:         0.2
 (Enter /prod/apps/gaussian/g09d1/l9999.exe)
 1\1\GINC-PIRINEUS22\SP\RB3LYP\6-31G(d)\C10H13N5O2S1\UBAFAR01\06-Aug-20
 20\0\\#p b3lyp/6-31G(d)\\SM46.n.4.pdb.xyz\\0,1\O,0,4.068,0.817,0.771\S
 ,0,3.607,0.09,-0.406\N,0,3.279,1.322,-1.535\C,0,2.791,1.015,-2.814\N,0
 ,3.469,1.374,-3.939\N,0,2.77,1.015,-4.984\C,0,1.616,0.392,-3.176\N,0,1
 .651,0.4,-4.535\C,0,0.696,-0.123,-5.452\C,0,1.083,-0.371,-6.771\C,0,0.
 147,-0.883,-7.666\C,0,-1.158,-1.154,-7.249\C,0,-1.529,-0.904,-5.928\C,
 0,-0.607,-0.381,-5.024\N,0,4.874,-0.879,-0.902\C,0,4.607,-1.858,-1.961
 \C,0,6.187,-0.232,-0.973\O,0,2.416,-0.754,-0.392\H,0,4.008,2.032,-1.53
 6\H,0,0.827,-0.056,-2.6\H,0,2.1,-0.161,-7.072\H,0,0.443,-1.076,-8.691\
 H,0,-1.881,-1.557,-7.95\H,0,-2.541,-1.106,-5.597\H,0,-0.901,-0.167,-4.
 004\H,0,3.616,-2.282,-1.815\H,0,5.35,-2.653,-1.869\H,0,4.682,-1.42,-2.
 964\H,0,6.322,0.409,-0.104\H,0,6.314,0.355,-1.893\H,0,6.946,-1.016,-0.
 953\\Version=AM64L-G09RevD.01\State=1-A\HF=-1211.1676562\RMSD=2.934e-0
 9\Dipole=-0.2049614,-0.8610735,-1.5635988\Quadrupole=13.7579934,-2.371
 1873,-11.3868061,-0.5108405,6.7629947,3.979712\PG=C01 [X(C10H13N5O2S1)
 ]\\@


 SOME THINGS ARE EASY, THEY ARE ONLY HARD TO DO.
            -- A. EINSTEIN TO J. O. HIRSCHFELDER
 THE ONLY TROUBLE WITH A SURE THING IS THE UNCERTAINTY.
     -- FROM A TEABAG (BELONGING TO W.H.?)
 Job cpu time:       0 days  0 hours  3 minutes 58.7 seconds.
 File lengths (MBytes):  RWF=     51 Int=      0 D2E=      0 Chk=      4 Scr=      1
 Normal termination of Gaussian 09 at Thu Aug  6 21:16:26 2020.
 Initial command:
 /prod/apps/gaussian/g09d1/l1.exe "/tmp/ubafar01/1448558/Gau-46250.inp" -scrdir="/tmp/ubafar01/1448558/"
 Entering Link 1 = /prod/apps/gaussian/g09d1/l1.exe PID=     46425.
  
 Copyright (c) 1988,1990,1992,1993,1995,1998,2003,2009,2013,
            Gaussian, Inc.  All Rights Reserved.
  
 This is part of the Gaussian(R) 09 program.  It is based on
 the Gaussian(R) 03 system (copyright 2003, Gaussian, Inc.),
 the Gaussian(R) 98 system (copyright 1998, Gaussian, Inc.),
 the Gaussian(R) 94 system (copyright 1995, Gaussian, Inc.),
 the Gaussian 92(TM) system (copyright 1992, Gaussian, Inc.),
 the Gaussian 90(TM) system (copyright 1990, Gaussian, Inc.),
 the Gaussian 88(TM) system (copyright 1988, Gaussian, Inc.),
 the Gaussian 86(TM) system (copyright 1986, Carnegie Mellon
 University), and the Gaussian 82(TM) system (copyright 1983,
 Carnegie Mellon University). Gaussian is a federally registered
 trademark of Gaussian, Inc.
  
 This software contains proprietary and confidential information,
 including trade secrets, belonging to Gaussian, Inc.
  
 This software is provided under written license and may be
 used, copied, transmitted, or stored only in accord with that
 written license.
  
 The following legend is applicable only to US Government
 contracts under FAR:
  
                    RESTRICTED RIGHTS LEGEND
  
 Use, reproduction and disclosure by the US Government is
 subject to restrictions as set forth in subparagraphs (a)
 and (c) of the Commercial Computer Software - Restricted
 Rights clause in FAR 52.227-19.
  
 Gaussian, Inc.
 340 Quinnipiac St., Bldg. 40, Wallingford CT 06492
  
  
 ---------------------------------------------------------------
 Warning -- This program may not be used in any manner that
 competes with the business of Gaussian, Inc. or will provide
 assistance to any competitor of Gaussian, Inc.  The licensee
 of this program is prohibited from giving any competitor of
 Gaussian, Inc. access to this program.  By using this program,
 the user acknowledges that Gaussian, Inc. is engaged in the
 business of creating and licensing software in the field of
 computational chemistry and represents and warrants to the
 licensee that it is not a competitor of Gaussian, Inc. and that
 it will not use this program in any manner prohibited above.
 ---------------------------------------------------------------
  

 Cite this work as:
 Gaussian 09, Revision D.01,
 M. J. Frisch, G. W. Trucks, H. B. Schlegel, G. E. Scuseria, 
 M. A. Robb, J. R. Cheeseman, G. Scalmani, V. Barone, B. Mennucci, 
 G. A. Petersson, H. Nakatsuji, M. Caricato, X. Li, H. P. Hratchian, 
 A. F. Izmaylov, J. Bloino, G. Zheng, J. L. Sonnenberg, M. Hada, 
 M. Ehara, K. Toyota, R. Fukuda, J. Hasegawa, M. Ishida, T. Nakajima, 
 Y. Honda, O. Kitao, H. Nakai, T. Vreven, J. A. Montgomery, Jr., 
 J. E. Peralta, F. Ogliaro, M. Bearpark, J. J. Heyd, E. Brothers, 
 K. N. Kudin, V. N. Staroverov, T. Keith, R. Kobayashi, J. Normand, 
 K. Raghavachari, A. Rendell, J. C. Burant, S. S. Iyengar, J. Tomasi, 
 M. Cossi, N. Rega, J. M. Millam, M. Klene, J. E. Knox, J. B. Cross, 
 V. Bakken, C. Adamo, J. Jaramillo, R. Gomperts, R. E. Stratmann, 
 O. Yazyev, A. J. Austin, R. Cammi, C. Pomelli, J. W. Ochterski, 
 R. L. Martin, K. Morokuma, V. G. Zakrzewski, G. A. Voth, 
 P. Salvador, J. J. Dannenberg, S. Dapprich, A. D. Daniels, 
 O. Farkas, J. B. Foresman, J. V. Ortiz, J. Cioslowski, 
 and D. J. Fox, Gaussian, Inc., Wallingford CT, 2013.
 
 ******************************************
 Gaussian 09:  AM64L-G09RevD.01 24-Apr-2013
                 6-Aug-2020 
 ******************************************
 %nproc=1
 Will use up to    1 processors via shared memory.
 %Chk=SM46.n.4.pdb.xyz.mst.n.o.chk
 %subst l301 /dades/curu/work_g09D01_MST_AddSphPartition_ReadGammas/exe-dir/
 %subst l502 /dades/curu/work_g09D01_MST_AddSphPartition_ReadGammas/exe-dir/
 ----------------------------------------------------------------------
 #p b3lyp/6-31G(d) scrf=(iefpcm,read,solvent=n-Octanol) geom=allcheck g
 uess=read
 ----------------------------------------------------------------------
 1/29=7,38=1,40=2/1;
 2/12=2,40=1/2;
 3/5=1,6=6,7=1,11=2,14=-4,16=1,25=1,30=1,70=2203,72=25,74=-5,116=-2/1,2,3;
 4/5=1/1;
 5/5=2,38=6,53=25/2;
 6/7=2,8=2,9=2,10=2,28=1/1;
 99/5=1,9=1/99;
 Leave Link    1 at Thu Aug  6 21:16:27 2020, MaxMem=           0 cpu:         0.0
 (Enter /prod/apps/gaussian/g09d1/l101.exe)
 Structure from the checkpoint file:  "SM46.n.4.pdb.xyz.mst.n.o.chk"
 ----------------
 SM46.n.4.pdb.xyz
 ----------------
 Charge =  0 Multiplicity = 1
 Z-Matrix found in file.
 O,0,4.068,0.817,0.771
 S,0,3.607,0.09,-0.406
 N,0,3.279,1.322,-1.535
 C,0,2.791,1.015,-2.814
 N,0,3.469,1.374,-3.939
 N,0,2.77,1.015,-4.984
 C,0,1.616,0.392,-3.176
 N,0,1.651,0.4,-4.535
 C,0,0.696,-0.123,-5.452
 C,0,1.083,-0.371,-6.771
 C,0,0.147,-0.883,-7.666
 C,0,-1.158,-1.154,-7.249
 C,0,-1.529,-0.904,-5.928
 C,0,-0.607,-0.381,-5.024
 N,0,4.874,-0.879,-0.902
 C,0,4.607,-1.858,-1.961
 C,0,6.187,-0.232,-0.973
 O,0,2.416,-0.754,-0.392
 H,0,4.008,2.032,-1.536
 H,0,0.827,-0.056,-2.6
 H,0,2.1,-0.161,-7.072
 H,0,0.443,-1.076,-8.691
 H,0,-1.881,-1.557,-7.95
 H,0,-2.541,-1.106,-5.597
 H,0,-0.901,-0.167,-4.004
 H,0,3.616,-2.282,-1.815
 H,0,5.35,-2.653,-1.869
 H,0,4.682,-1.42,-2.964
 H,0,6.322,0.409,-0.104
 H,0,6.314,0.355,-1.893
 H,0,6.946,-1.016,-0.953
 Recover connectivity data from disk.
 NAtoms=     31 NQM=       31 NQMF=       0 NMMI=      0 NMMIF=      0
                NMic=       0 NMicF=      0.
                    Isotopes and Nuclear Properties:
 (Nuclear quadrupole moments (NQMom) in fm**2, nuclear magnetic moments (NMagM)
  in nuclear magnetons)

  Atom         1           2           3           4           5           6           7           8           9          10
 IAtWgt=          16          32          14          12          14          14          12          14          12          12
 AtmWgt=  15.9949146  31.9720718  14.0030740  12.0000000  14.0030740  14.0030740  12.0000000  14.0030740  12.0000000  12.0000000
 NucSpn=           0           0           2           0           2           2           0           2           0           0
 AtZEff=  -5.6000000 -13.6000000  -4.5500000  -3.6000000  -4.5500000  -4.5500000  -3.6000000  -4.5500000  -3.6000000  -3.6000000
 NQMom=    0.0000000   0.0000000   2.0440000   0.0000000   2.0440000   2.0440000   0.0000000   2.0440000   0.0000000   0.0000000
 NMagM=    0.0000000   0.0000000   0.4037610   0.0000000   0.4037610   0.4037610   0.0000000   0.4037610   0.0000000   0.0000000
 AtZNuc=   8.0000000  16.0000000   7.0000000   6.0000000   7.0000000   7.0000000   6.0000000   7.0000000   6.0000000   6.0000000

  Atom        11          12          13          14          15          16          17          18          19          20
 IAtWgt=          12          12          12          12          14          12          12          16           1           1
 AtmWgt=  12.0000000  12.0000000  12.0000000  12.0000000  14.0030740  12.0000000  12.0000000  15.9949146   1.0078250   1.0078250
 NucSpn=           0           0           0           0           2           0           0           0           1           1
 AtZEff=  -3.6000000  -3.6000000  -3.6000000  -3.6000000  -4.5500000  -3.6000000  -3.6000000  -5.6000000  -1.0000000  -1.0000000
 NQMom=    0.0000000   0.0000000   0.0000000   0.0000000   2.0440000   0.0000000   0.0000000   0.0000000   0.0000000   0.0000000
 NMagM=    0.0000000   0.0000000   0.0000000   0.0000000   0.4037610   0.0000000   0.0000000   0.0000000   2.7928460   2.7928460
 AtZNuc=   6.0000000   6.0000000   6.0000000   6.0000000   7.0000000   6.0000000   6.0000000   8.0000000   1.0000000   1.0000000

  Atom        21          22          23          24          25          26          27          28          29          30
 IAtWgt=           1           1           1           1           1           1           1           1           1           1
 AtmWgt=   1.0078250   1.0078250   1.0078250   1.0078250   1.0078250   1.0078250   1.0078250   1.0078250   1.0078250   1.0078250
 NucSpn=           1           1           1           1           1           1           1           1           1           1
 AtZEff=  -1.0000000  -1.0000000  -1.0000000  -1.0000000  -1.0000000  -1.0000000  -1.0000000  -1.0000000  -1.0000000  -1.0000000
 NQMom=    0.0000000   0.0000000   0.0000000   0.0000000   0.0000000   0.0000000   0.0000000   0.0000000   0.0000000   0.0000000
 NMagM=    2.7928460   2.7928460   2.7928460   2.7928460   2.7928460   2.7928460   2.7928460   2.7928460   2.7928460   2.7928460
 AtZNuc=   1.0000000   1.0000000   1.0000000   1.0000000   1.0000000   1.0000000   1.0000000   1.0000000   1.0000000   1.0000000

  Atom        31
 IAtWgt=           1
 AtmWgt=   1.0078250
 NucSpn=           1
 AtZEff=  -1.0000000
 NQMom=    0.0000000
 NMagM=    2.7928460
 AtZNuc=   1.0000000
 Leave Link  101 at Thu Aug  6 21:16:27 2020, MaxMem=    33554432 cpu:         0.0
 (Enter /prod/apps/gaussian/g09d1/l202.exe)
                          Input orientation:                          
 ---------------------------------------------------------------------
 Center     Atomic      Atomic             Coordinates (Angstroms)
 Number     Number       Type             X           Y           Z
 ---------------------------------------------------------------------
      1          8           0        4.068000    0.817000    0.771000
      2         16           0        3.607000    0.090000   -0.406000
      3          7           0        3.279000    1.322000   -1.535000
      4          6           0        2.791000    1.015000   -2.814000
      5          7           0        3.469000    1.374000   -3.939000
      6          7           0        2.770000    1.015000   -4.984000
      7          6           0        1.616000    0.392000   -3.176000
      8          7           0        1.651000    0.400000   -4.535000
      9          6           0        0.696000   -0.123000   -5.452000
     10          6           0        1.083000   -0.371000   -6.771000
     11          6           0        0.147000   -0.883000   -7.666000
     12          6           0       -1.158000   -1.154000   -7.249000
     13          6           0       -1.529000   -0.904000   -5.928000
     14          6           0       -0.607000   -0.381000   -5.024000
     15          7           0        4.874000   -0.879000   -0.902000
     16          6           0        4.607000   -1.858000   -1.961000
     17          6           0        6.187000   -0.232000   -0.973000
     18          8           0        2.416000   -0.754000   -0.392000
     19          1           0        4.008000    2.032000   -1.536000
     20          1           0        0.827000   -0.056000   -2.600000
     21          1           0        2.100000   -0.161000   -7.072000
     22          1           0        0.443000   -1.076000   -8.691000
     23          1           0       -1.881000   -1.557000   -7.950000
     24          1           0       -2.541000   -1.106000   -5.597000
     25          1           0       -0.901000   -0.167000   -4.004000
     26          1           0        3.616000   -2.282000   -1.815000
     27          1           0        5.350000   -2.653000   -1.869000
     28          1           0        4.682000   -1.420000   -2.964000
     29          1           0        6.322000    0.409000   -0.104000
     30          1           0        6.314000    0.355000   -1.893000
     31          1           0        6.946000   -1.016000   -0.953000
 ---------------------------------------------------------------------
                    Distance matrix (angstroms):
                    1          2          3          4          5
     1  O    0.000000
     2  S    1.458211   0.000000
     3  N    2.489012   1.702953   0.000000
     4  C    3.810795   2.705540   1.402938   0.000000
     5  N    4.780497   3.761621   2.412057   1.361686   0.000000
     6  N    5.902883   4.744921   3.499847   2.170102   1.307481
     7  C    4.666020   3.424644   2.514627   1.378332   2.231614
     8  N    5.845461   4.579375   3.535600   2.153988   2.146862
     9  C    7.140008   5.829357   4.909461   3.555716   3.495670
    10  C    8.197764   6.862676   5.924893   4.527263   4.093684
    11  C    9.457654   8.100983   7.229150   5.842520   5.479075
    12  C    9.773245   8.430861   7.646394   6.322056   6.225433
    13  C    8.897463   7.606511   6.882615   5.660562   5.841696
    14  C    7.541409   6.269415   5.493116   4.287111   4.568482
    15  N    2.514951   1.670409   2.790899   3.403215   4.034031
    16  C    3.861343   2.685652   3.472385   3.504225   3.956432
    17  C    2.938043   2.661123   3.344731   4.059200   4.331734
    18  O    2.559241   1.459799   2.522101   3.022593   4.268302
    19  H    2.608079   2.282338   1.017616   2.036826   2.549097
    20  H    4.757084   3.544482   3.007559   2.247250   3.289071
    21  H    8.145069   6.838831   5.852153   4.471132   3.747809
    22  H   10.307935   8.944925   8.062359   6.665172   6.143344
    23  H   10.820458   9.473262   8.721609   7.404138   7.300780
    24  H    9.377006   8.134790   7.501162   6.377614   6.709655
    25  H    6.961310   5.773536   5.077941   4.055131   4.634200
    26  H    4.061465   2.758939   3.630535   3.542433   4.230759
    27  H    4.544670   3.564052   4.494577   4.571185   4.903039
    28  H    4.396748   3.158970   3.395440   3.086682   3.198192
    29  H    2.452061   2.750307   3.484419   4.492137   4.876275
    30  H    3.514948   3.099878   3.205383   3.700726   3.649452
    31  H    3.822950   3.559686   4.387694   4.985209   5.168929
                    6          7          8          9         10
     6  N    0.000000
     7  C    2.233542   0.000000
     8  N    1.353509   1.359474   0.000000
     9  C    2.411544   2.508346   1.423532   0.000000
    10  C    2.821406   3.713527   2.432439   1.396794   0.000000
    11  C    4.204243   4.893229   3.702873   2.404329   1.392575
    12  C    5.026328   5.164738   4.203712   2.780195   2.421498
    13  C    4.801572   4.375402   3.708539   2.405652   2.795940
    14  C    3.654387   2.992384   2.438780   1.395549   2.430681
    15  N    4.967572   4.171460   5.022177   6.223321   7.005348
    16  C    4.557107   3.935074   4.523492   5.522067   6.145392
    17  C    5.414704   5.112399   5.801945   7.086918   7.725732
    18  O    4.933674   3.115120   4.368225   5.381465   6.528033
    19  H    3.802057   3.331796   4.148840   5.563131   6.460283
    20  H    3.256646   1.074710   2.152008   2.855793   4.190704
    21  H    2.488297   3.964704   2.636796   2.144076   1.081198
    22  H    4.850676   5.826335   4.572765   3.385755   2.143134
    23  H    6.086390   6.230464   5.288393   3.864879   3.403224
    24  H    5.751620   5.038442   4.579164   3.386072   3.879675
    25  H    3.979166   2.708017   2.667612   2.156165   3.410889
    26  H    4.650644   3.605911   4.295666   5.139596   5.884721
    27  H    5.460206   4.992297   5.487346   6.395194   6.887991
    28  H    3.696670   3.567723   3.868773   4.874479   5.342888
    29  H    6.066164   5.619956   6.438329   7.780489   8.514952
    30  H    4.748665   4.870181   5.359642   6.667600   7.189250
    31  H    6.149219   5.944165   6.547733   7.752480   8.284921
                   11         12         13         14         15
    11  C    0.000000
    12  C    1.396551   0.000000
    13  C    2.414552   1.394698   0.000000
    14  C    2.792970   2.419040   1.393136   0.000000
    15  N    8.252045   8.760426   8.140007   6.876063   0.000000
    16  C    7.306795   7.854539   7.368697   6.224893   1.466701
    17  C    9.038897   9.705013   9.194578   7.911462   1.465476
    18  O    7.620766   7.742863   6.799472   5.543743   2.513462
    19  H    7.809062   8.335258   7.652982   6.267929   3.102553
    20  H    5.177904   5.172913   4.164784   2.835094   4.465282
    21  H    2.165255   3.410563   3.876909   3.401552   6.802904
    22  H    1.084200   2.156073   3.398902   3.877166   8.963319
    23  H    2.155856   1.084684   2.153787   3.401107   9.785909
    24  H    3.399387   2.155017   1.083748   2.143434   8.779338
    25  H    3.875720   3.401506   2.153910   1.082881   6.593935
    26  H    6.944448   7.320643   6.729538   5.634289   2.093930
    27  H    7.988073   8.575865   8.176498   7.113498   2.075751
    28  H    6.554647   7.248281   6.901310   5.770324   2.140418
    29  H    9.848032  10.461567   9.863121   8.534726   2.095818
    30  H    8.537685   9.316362   8.909487   7.631848   2.139728
    31  H    9.555546  10.263210   9.827960   8.603724   2.077150
                   16         17         18         19         20
    16  C    0.000000
    17  C    2.473140   0.000000
    18  O    2.912226   3.851037   0.000000
    19  H    3.958728   3.192289   3.406611   0.000000
    20  H    4.236027   5.604258   2.808450   3.951025   0.000000
    21  H    5.940301   7.342099   6.713710   6.252760   4.650843
    22  H    7.952567   9.657815   8.536382   8.576883   6.187741
    23  H    8.834753  10.748338   8.731116   9.418102   6.181324
    24  H    8.054806   9.915807   7.196373   8.320347   4.629032
    25  H    6.113215   7.709146   4.938988   5.918184   2.229242
    26  H    1.087738   3.394334   2.408259   4.340749   3.653741
    27  H    1.092034   2.713784   3.794217   4.884780   5.266526
    28  H    1.097031   2.764136   3.491919   3.796019   4.105364
    29  H    3.395433   1.088240   4.085627   3.168493   6.053203
    30  H    2.795683   1.098680   4.321723   2.873572   5.547607
    31  H    2.682527   1.091392   4.572118   4.273410   6.409085
                   21         22         23         24         25
    21  H    0.000000
    22  H    2.490790   0.000000
    23  H    4.309067   2.486246   0.000000
    24  H    4.960598   4.298603   2.485077   0.000000
    25  H    4.291697   4.959898   4.296908   2.471633   0.000000
    26  H    5.867959   7.668229   8.269272   7.320871   5.446856
    27  H    6.621463   8.550162   9.511421   8.863356   7.057862
    28  H    5.012731   7.133441   8.243296   7.694349   5.815625
    29  H    8.167203  10.512109  11.520160  10.536652   8.228822
    30  H    6.696723   9.095560  10.368270   9.709025   7.535584
    31  H    7.852191  10.107881  11.276818  10.563049   8.461963
                   26         27         28         29         30
    26  H    0.000000
    27  H    1.774067   0.000000
    28  H    1.788743   1.779196   0.000000
    29  H    4.182277   3.665495   3.770204   0.000000
    30  H    3.773468   3.158787   2.638388   1.789833   0.000000
[...]
 Alpha virt. eigenvalues --    0.82047   0.82998   0.83373   0.83552   0.84604
 Alpha virt. eigenvalues --    0.84930   0.85626   0.86661   0.87526   0.89125
 Alpha virt. eigenvalues --    0.89843   0.90405   0.91046   0.92359   0.92706
 Alpha virt. eigenvalues --    0.93487   0.94370   0.95609   0.97030   0.98074
 Alpha virt. eigenvalues --    0.98892   1.00414   1.01525   1.03692   1.04510
 Alpha virt. eigenvalues --    1.05369   1.05847   1.07256   1.10618   1.12772
 Alpha virt. eigenvalues --    1.13531   1.14427   1.15258   1.16239   1.17407
 Alpha virt. eigenvalues --    1.18143   1.19178   1.20847   1.22725   1.24543
 Alpha virt. eigenvalues --    1.24926   1.28574   1.31562   1.35094   1.36155
 Alpha virt. eigenvalues --    1.37998   1.39736   1.40514   1.41479   1.42759
 Alpha virt. eigenvalues --    1.44014   1.44668   1.45978   1.47477   1.49330
 Alpha virt. eigenvalues --    1.50541   1.53219   1.54738   1.57972   1.59927
 Alpha virt. eigenvalues --    1.62887   1.66266   1.69536   1.71674   1.75430
 Alpha virt. eigenvalues --    1.77689   1.79253   1.79455   1.79598   1.81529
 Alpha virt. eigenvalues --    1.83126   1.84672   1.85480   1.87462   1.88100
 Alpha virt. eigenvalues --    1.89609   1.89826   1.93909   1.94300   1.95994
 Alpha virt. eigenvalues --    1.96436   1.96752   1.98701   1.99687   2.04228
 Alpha virt. eigenvalues --    2.05154   2.06441   2.07055   2.09078   2.09632
 Alpha virt. eigenvalues --    2.10920   2.11388   2.12708   2.13872   2.14934
 Alpha virt. eigenvalues --    2.15786   2.18309   2.19895   2.21096   2.22219
 Alpha virt. eigenvalues --    2.24052   2.24543   2.27540   2.28794   2.30534
 Alpha virt. eigenvalues --    2.31932   2.32719   2.34828   2.36388   2.40930
 Alpha virt. eigenvalues --    2.42436   2.47688   2.49993   2.51151   2.52552
 Alpha virt. eigenvalues --    2.56599   2.57790   2.58190   2.59866   2.62111
 Alpha virt. eigenvalues --    2.64699   2.66788   2.68846   2.70353   2.72195
 Alpha virt. eigenvalues --    2.74123   2.75911   2.76577   2.79009   2.83947
 Alpha virt. eigenvalues --    2.87808   2.88351   2.99931   3.06393   3.13502
 Alpha virt. eigenvalues --    3.26133   3.42131   3.61376   3.71522   3.93633
 Alpha virt. eigenvalues --    3.98820   4.00440   4.04003   4.07352   4.09901
 Alpha virt. eigenvalues --    4.11161   4.12160   4.16009   4.23013   4.29385
 Alpha virt. eigenvalues --    4.31084   4.31329   4.39240   4.48454   4.70813
          Condensed to atoms (all electrons):
               1          2          3          4          5          6
     1  O    8.230539   0.457383  -0.055126   0.001804  -0.000006   0.000000
     2  S    0.457383  13.576081   0.136716  -0.020086  -0.002670   0.000262
     3  N   -0.055126   0.136716   7.379461   0.251104  -0.070364   0.006745
     4  C    0.001804  -0.020086   0.251104   4.679640   0.375869  -0.077492
     5  N   -0.000006  -0.002670  -0.070364   0.375869   6.892087   0.294886
     6  N    0.000000   0.000262   0.006745  -0.077492   0.294886   6.760508
     7  C   -0.000037  -0.001922  -0.064490   0.498860  -0.069666  -0.097179
     8  N    0.000000  -0.000051   0.002793  -0.042063  -0.091581   0.220415
     9  C    0.000000  -0.000020  -0.000098   0.005943   0.007345  -0.045435
    10  C    0.000000   0.000000   0.000000  -0.000487   0.000339  -0.001417
    11  C    0.000000   0.000000   0.000000   0.000007  -0.000006   0.000362
    12  C    0.000000   0.000000   0.000000   0.000000   0.000000   0.000018
    13  C    0.000000   0.000000   0.000000  -0.000011   0.000002  -0.000067
    14  C    0.000000   0.000001   0.000003   0.001038  -0.000378   0.003103
    15  N   -0.053486   0.166569  -0.063853   0.003085   0.000225  -0.000018
    16  C    0.001613  -0.017317   0.000099   0.000683  -0.000672  -0.000075
    17  C   -0.007240  -0.015356   0.000627  -0.000059  -0.000132   0.000000
    18  O   -0.038781   0.434891  -0.053943  -0.003993   0.000091   0.000004
    19  H    0.001561  -0.007545   0.293560  -0.029573   0.004842  -0.000081
    20  H    0.000003   0.001032  -0.000306  -0.026031   0.004236   0.003276
    21  H    0.000000   0.000000   0.000000   0.000047  -0.000381   0.017823
    22  H    0.000000   0.000000   0.000000   0.000000   0.000000  -0.000008
    23  H    0.000000   0.000000   0.000000   0.000000   0.000000   0.000000
    24  H    0.000000   0.000000   0.000000   0.000000   0.000000   0.000001
    25  H    0.000000  -0.000005  -0.000002   0.000157  -0.000008  -0.000093
    26  H    0.000047  -0.002320  -0.000298   0.000091   0.000026  -0.000009
    27  H   -0.000042   0.001851  -0.000182   0.000121   0.000017  -0.000003
    28  H   -0.000051  -0.008001   0.001722   0.000855   0.001573   0.000445
    29  H    0.010963  -0.000496  -0.000763  -0.000021   0.000006   0.000000
    30  H   -0.000175  -0.008227   0.003999   0.000082   0.000719   0.000008
    31  H    0.000099   0.002379  -0.000126  -0.000002   0.000001   0.000000
               7          8          9         10         11         12
     1  O   -0.000037   0.000000   0.000000   0.000000   0.000000   0.000000
     2  S   -0.001922  -0.000051  -0.000020   0.000000   0.000000   0.000000
     3  N   -0.064490   0.002793  -0.000098   0.000000   0.000000   0.000000
     4  C    0.498860  -0.042063   0.005943  -0.000487   0.000007   0.000000
     5  N   -0.069666  -0.091581   0.007345   0.000339  -0.000006   0.000000
     6  N   -0.097179   0.220415  -0.045435  -0.001417   0.000362   0.000018
     7  C    5.021903   0.325620  -0.037209   0.007770  -0.000086   0.000020
     8  N    0.325620   6.909203   0.201163  -0.057900   0.004613   0.000353
     9  C   -0.037209   0.201163   4.618940   0.517219  -0.010141  -0.038341
    10  C    0.007770  -0.057900   0.517219   4.994731   0.518313  -0.038131
    11  C   -0.000086   0.004613  -0.010141   0.518313   4.873958   0.541233
    12  C    0.000020   0.000353  -0.038341  -0.038131   0.541233   4.859250
    13  C   -0.000021   0.004664  -0.007768  -0.041535  -0.023596   0.547415
    14  C   -0.007336  -0.051061   0.528572  -0.074004  -0.042566  -0.040112
    15  N    0.000017  -0.000006   0.000000   0.000000   0.000000   0.000000
    16  C    0.000633  -0.000025   0.000003   0.000000   0.000000   0.000000
    17  C   -0.000029   0.000000   0.000000   0.000000   0.000000   0.000000
    18  O    0.004009   0.000048  -0.000002   0.000000   0.000000   0.000000
    19  H    0.004991   0.000076  -0.000001   0.000000   0.000000   0.000000
    20  H    0.359991  -0.035003  -0.001982  -0.000095  -0.000004  -0.000002
    21  H    0.000268  -0.014642  -0.036422   0.354905  -0.039415   0.004420
    22  H    0.000001  -0.000106   0.003497  -0.038186   0.362574  -0.040293
    23  H    0.000000   0.000004   0.000506   0.004641  -0.041743   0.364463
    24  H   -0.000003  -0.000110   0.003449   0.000768   0.004467  -0.039646
    25  H    0.006386  -0.009909  -0.040154   0.005356   0.000255   0.004364
    26  H    0.000383  -0.000020   0.000000   0.000000   0.000000   0.000000
    27  H    0.000034  -0.000001   0.000000   0.000000   0.000000   0.000000
    28  H    0.000081  -0.000060  -0.000003   0.000002   0.000000   0.000000
    29  H   -0.000001   0.000000   0.000000   0.000000   0.000000   0.000000
    30  H    0.000040   0.000001   0.000000   0.000000   0.000000   0.000000
    31  H    0.000000   0.000000   0.000000   0.000000   0.000000   0.000000
              13         14         15         16         17         18
     1  O    0.000000   0.000000  -0.053486   0.001613  -0.007240  -0.038781
     2  S    0.000000   0.000001   0.166569  -0.017317  -0.015356   0.434891
     3  N    0.000000   0.000003  -0.063853   0.000099   0.000627  -0.053943
     4  C   -0.000011   0.001038   0.003085   0.000683  -0.000059  -0.003993
     5  N    0.000002  -0.000378   0.000225  -0.000672  -0.000132   0.000091
     6  N   -0.000067   0.003103  -0.000018  -0.000075   0.000000   0.000004
     7  C   -0.000021  -0.007336   0.000017   0.000633  -0.000029   0.004009
     8  N    0.004664  -0.051061  -0.000006  -0.000025   0.000000   0.000048
     9  C   -0.007768   0.528572   0.000000   0.000003   0.000000  -0.000002
    10  C   -0.041535  -0.074004   0.000000   0.000000   0.000000   0.000000
    11  C   -0.023596  -0.042566   0.000000   0.000000   0.000000   0.000000
    12  C    0.547415  -0.040112   0.000000   0.000000   0.000000   0.000000
    13  C    4.851079   0.529083   0.000000   0.000000   0.000000   0.000000
    14  C    0.529083   4.996488   0.000000   0.000000   0.000000   0.000002
    15  N    0.000000   0.000000   7.185835   0.271047   0.270771  -0.052606
    16  C    0.000000   0.000000   0.271047   5.007404  -0.049691  -0.006281
    17  C    0.000000   0.000000   0.270771  -0.049691   5.012439   0.001652
    18  O    0.000000   0.000002  -0.052606  -0.006281   0.001652   8.255388
    19  H    0.000000   0.000000  -0.000480   0.000117   0.000188   0.001624
    20  H    0.000196   0.001962   0.000031   0.000002  -0.000001   0.004725
    21  H    0.000103   0.005673   0.000000   0.000000   0.000000   0.000000
    22  H    0.004508   0.000759   0.000000   0.000000   0.000000   0.000000
    23  H   -0.041447   0.004946   0.000000   0.000000   0.000000   0.000000
    24  H    0.362135  -0.037998   0.000000   0.000000   0.000000   0.000000
    25  H   -0.035702   0.351555   0.000000   0.000000   0.000000  -0.000005
    26  H    0.000000   0.000000  -0.031488   0.375207   0.004460   0.011640
    27  H    0.000000   0.000000  -0.037136   0.376369  -0.003289   0.000127
    28  H    0.000000   0.000001  -0.045809   0.374235  -0.001168   0.000071
    29  H    0.000000   0.000000  -0.033199   0.004463   0.374832   0.000055
    30  H    0.000000   0.000000  -0.047962  -0.001465   0.373185  -0.000037
    31  H    0.000000   0.000000  -0.034215  -0.003269   0.378322  -0.000050
              19         20         21         22         23         24
     1  O    0.001561   0.000003   0.000000   0.000000   0.000000   0.000000
     2  S   -0.007545   0.001032   0.000000   0.000000   0.000000   0.000000
     3  N    0.293560  -0.000306   0.000000   0.000000   0.000000   0.000000
     4  C   -0.029573  -0.026031   0.000047   0.000000   0.000000   0.000000
     5  N    0.004842   0.004236  -0.000381   0.000000   0.000000   0.000000
     6  N   -0.000081   0.003276   0.017823  -0.000008   0.000000   0.000001
     7  C    0.004991   0.359991   0.000268   0.000001   0.000000  -0.000003
     8  N    0.000076  -0.035003  -0.014642  -0.000106   0.000004  -0.000110
     9  C   -0.000001  -0.001982  -0.036422   0.003497   0.000506   0.003449
    10  C    0.000000  -0.000095   0.354905  -0.038186   0.004641   0.000768
    11  C    0.000000  -0.000004  -0.039415   0.362574  -0.041743   0.004467
    12  C    0.000000  -0.000002   0.004420  -0.040293   0.364463  -0.039646
    13  C    0.000000   0.000196   0.000103   0.004508  -0.041447   0.362135
    14  C    0.000000   0.001962   0.005673   0.000759   0.004946  -0.037998
    15  N   -0.000480   0.000031   0.000000   0.000000   0.000000   0.000000
    16  C    0.000117   0.000002   0.000000   0.000000   0.000000   0.000000
    17  C    0.000188  -0.000001   0.000000   0.000000   0.000000   0.000000
    18  O    0.001624   0.004725   0.000000   0.000000   0.000000   0.000000
    19  H    0.342059  -0.000088   0.000000   0.000000   0.000000   0.000000
    20  H   -0.000088   0.470319  -0.000010   0.000000   0.000000  -0.000002
    21  H    0.000000  -0.000010   0.537040  -0.005044  -0.000134   0.000013
    22  H    0.000000   0.000000  -0.005044   0.560937  -0.005168  -0.000170
    23  H    0.000000   0.000000  -0.000134  -0.005168   0.566102  -0.005154
    24  H    0.000000  -0.000002   0.000013  -0.000170  -0.005154   0.559806
    25  H    0.000000   0.001727  -0.000136   0.000014  -0.000152  -0.005254
    26  H   -0.000019   0.000032   0.000000   0.000000   0.000000   0.000000
    27  H    0.000000   0.000000   0.000000   0.000000   0.000000   0.000000
    28  H    0.000084   0.000012   0.000001   0.000000   0.000000   0.000000
    29  H    0.000049   0.000000   0.000000   0.000000   0.000000   0.000000
    30  H    0.001433   0.000000   0.000000   0.000000   0.000000   0.000000
    31  H   -0.000016   0.000000   0.000000   0.000000   0.000000   0.000000
              25         26         27         28         29         30
     1  O    0.000000   0.000047  -0.000042  -0.000051   0.010963  -0.000175
     2  S   -0.000005  -0.002320   0.001851  -0.008001  -0.000496  -0.008227
     3  N   -0.000002  -0.000298  -0.000182   0.001722  -0.000763   0.003999
     4  C    0.000157   0.000091   0.000121   0.000855  -0.000021   0.000082
     5  N   -0.000008   0.000026   0.000017   0.001573   0.000006   0.000719
     6  N   -0.000093  -0.000009  -0.000003   0.000445   0.000000   0.000008
     7  C    0.006386   0.000383   0.000034   0.000081  -0.000001   0.000040
     8  N   -0.009909  -0.000020  -0.000001  -0.000060   0.000000   0.000001
     9  C   -0.040154   0.000000   0.000000  -0.000003   0.000000   0.000000
    10  C    0.005356   0.000000   0.000000   0.000002   0.000000   0.000000
    11  C    0.000255   0.000000   0.000000   0.000000   0.000000   0.000000
    12  C    0.004364   0.000000   0.000000   0.000000   0.000000   0.000000
    13  C   -0.035702   0.000000   0.000000   0.000000   0.000000   0.000000
    14  C    0.351555   0.000000   0.000000   0.000001   0.000000   0.000000
    15  N    0.000000  -0.031488  -0.037136  -0.045809  -0.033199  -0.047962
    16  C    0.000000   0.375207   0.376369   0.374235   0.004463  -0.001465
    17  C    0.000000   0.004460  -0.003289  -0.001168   0.374832   0.373185
    18  O   -0.000005   0.011640   0.000127   0.000071   0.000055  -0.000037
    19  H    0.000000  -0.000019   0.000000   0.000084   0.000049   0.001433
    20  H    0.001727   0.000032   0.000000   0.000012   0.000000   0.000000
    21  H   -0.000136   0.000000   0.000000   0.000001   0.000000   0.000000
    22  H    0.000014   0.000000   0.000000   0.000000   0.000000   0.000000
    23  H   -0.000152   0.000000   0.000000   0.000000   0.000000   0.000000
    24  H   -0.005254   0.000000   0.000000   0.000000   0.000000   0.000000
    25  H    0.557202   0.000000   0.000000   0.000000   0.000000   0.000000
    26  H    0.000000   0.489888  -0.020110  -0.028948  -0.000193  -0.000162
    27  H    0.000000  -0.020110   0.532813  -0.037657   0.000023  -0.001438
    28  H    0.000000  -0.028948  -0.037657   0.567054  -0.000158   0.007627
    29  H    0.000000  -0.000193   0.000023  -0.000158   0.492444  -0.030754
    30  H    0.000000  -0.000162  -0.001438   0.007627  -0.030754   0.572408
    31  H    0.000000   0.000010   0.005127  -0.001520  -0.019858  -0.036440
              31
     1  O    0.000099
     2  S    0.002379
     3  N   -0.000126
     4  C   -0.000002
     5  N    0.000001
     6  N    0.000000
     7  C    0.000000
     8  N    0.000000
     9  C    0.000000
    10  C    0.000000
    11  C    0.000000
    12  C    0.000000
    13  C    0.000000
    14  C    0.000000
    15  N   -0.034215
    16  C   -0.003269
    17  C    0.378322
    18  O   -0.000050
    19  H   -0.000016
    20  H    0.000000
    21  H    0.000000
    22  H    0.000000
    23  H    0.000000
    24  H    0.000000
    25  H    0.000000
    26  H    0.000010
    27  H    0.005127
    28  H   -0.001520
    29  H   -0.019858
    30  H   -0.036440
    31  H    0.522317
 Mulliken charges:
               1
     1  O   -0.549069
     2  S    1.306848
     3  N   -0.767278
     4  C    0.380431
     5  N   -0.346399
     6  N   -0.085979
     7  C    0.046972
     8  N   -0.366411
     9  C    0.330939
    10  C   -0.152288
    11  C   -0.148224
    12  C   -0.125011
    13  C   -0.149041
    14  C   -0.169728
    15  N   -0.497321
    16  C   -0.333079
    17  C   -0.339514
    18  O   -0.558627
    19  H    0.387218
    20  H    0.215976
    21  H    0.175892
    22  H    0.156685
    23  H    0.153136
    24  H    0.157697
    25  H    0.164403
    26  H    0.201782
    27  H    0.183375
    28  H    0.169613
    29  H    0.202606
    30  H    0.167157
    31  H    0.187238
 Sum of Mulliken charges =   0.00000
 Mulliken charges with hydrogens summed into heavy atoms:
               1
     1  O   -0.549069
     2  S    1.306848
     3  N   -0.380060
     4  C    0.380431
     5  N   -0.346399
     6  N   -0.085979
     7  C    0.262948
     8  N   -0.366411
     9  C    0.330939
    10  C    0.023604
    11  C    0.008461
    12  C    0.028125
    13  C    0.008656
    14  C   -0.005326
    15  N   -0.497321
    16  C    0.221692
    17  C    0.217487
    18  O   -0.558627
 Electronic spatial extent (au):  <R**2>=           6287.5309
 Charge=              0.0000 electrons
 Dipole moment (field-independent basis, Debye):
    X=              4.1321    Y=              2.1126    Z=              2.3907  Tot=              5.2204
 Quadrupole moment (field-independent basis, Debye-Ang):
   XX=           -100.4788   YY=           -112.6596   ZZ=           -111.5881
   XY=            -21.2386   XZ=              2.0486   YZ=              5.7292
 Traceless Quadrupole moment (field-independent basis, Debye-Ang):
   XX=              7.7634   YY=             -4.4175   ZZ=             -3.3459
   XY=            -21.2386   XZ=              2.0486   YZ=              5.7292
 Octapole moment (field-independent basis, Debye-Ang**2):
  XXX=            107.8368  YYY=             -9.9560  ZZZ=              5.1836  XYY=             13.7929
  XXY=             58.1421  XXZ=             36.4314  XZZ=            -32.8220  YZZ=              3.0095
  YYZ=             11.6720  XYZ=             -0.4737
 Hexadecapole moment (field-independent basis, Debye-Ang**3):
 XXXX=          -6296.9839 YYYY=           -879.5085 ZZZZ=           -613.6590 XXXY=           -245.5505
 XXXZ=            106.8532 YYYX=            -36.8511 YYYZ=             26.5462 ZZZX=            -15.0901
 ZZZY=             12.3455 XXYY=          -1185.3616 XXZZ=          -1256.7083 YYZZ=           -267.8007
 XXYZ=              3.2829 YYXZ=              2.3826 ZZXY=            -23.2778
 N-N= 1.476998979464D+03 E-N=-5.790461755131D+03  KE= 1.202135100312D+03
 No NMR shielding tensors so no spin-rotation constants.
 Leave Link  601 at Thu Aug  6 21:19:28 2020, MaxMem=    33554432 cpu:         0.2
 (Enter /prod/apps/gaussian/g09d1/l9999.exe)
 1\1\GINC-PIRINEUS22\SP\RB3LYP\6-31G(d)\C10H13N5O2S1\UBAFAR01\06-Aug-20
 20\0\\#p b3lyp/6-31G(d) scrf=(iefpcm,read,solvent=n-Octanol) geom=allc
 heck guess=read\\SM46.n.4.pdb.xyz\\0,1\O,0,4.068,0.817,0.771\S,0,3.607
 ,0.09,-0.406\N,0,3.279,1.322,-1.535\C,0,2.791,1.015,-2.814\N,0,3.469,1
 .374,-3.939\N,0,2.77,1.015,-4.984\C,0,1.616,0.392,-3.176\N,0,1.651,0.4
 ,-4.535\C,0,0.696,-0.123,-5.452\C,0,1.083,-0.371,-6.771\C,0,0.147,-0.8
 83,-7.666\C,0,-1.158,-1.154,-7.249\C,0,-1.529,-0.904,-5.928\C,0,-0.607
 ,-0.381,-5.024\N,0,4.874,-0.879,-0.902\C,0,4.607,-1.858,-1.961\C,0,6.1
 87,-0.232,-0.973\O,0,2.416,-0.754,-0.392\H,0,4.008,2.032,-1.536\H,0,0.
 827,-0.056,-2.6\H,0,2.1,-0.161,-7.072\H,0,0.443,-1.076,-8.691\H,0,-1.8
 81,-1.557,-7.95\H,0,-2.541,-1.106,-5.597\H,0,-0.901,-0.167,-4.004\H,0,
 3.616,-2.282,-1.815\H,0,5.35,-2.653,-1.869\H,0,4.682,-1.42,-2.964\H,0,
 6.322,0.409,-0.104\H,0,6.314,0.355,-1.893\H,0,6.946,-1.016,-0.953\\Ver
 sion=AM64L-G09RevD.01\State=1-A\HF=-1211.187456\RMSD=5.596e-09\Dipole=
 -0.2571022,-0.994465,-1.7785671\Quadrupole=15.7970215,-2.6584477,-13.1
 385738,-0.533825,7.7596031,4.4531689\PG=C01 [X(C10H13N5O2S1)]\\@


 You don't have to suffer to be a poet.
 Adolescence is enough suffering for anyone.
                             -- John Ciardi
 Job cpu time:       0 days  0 hours  2 minutes 54.4 seconds.
 File lengths (MBytes):  RWF=    155 Int=      0 D2E=      0 Chk=      6 Scr=      1
 Normal termination of Gaussian 09 at Thu Aug  6 21:19:31 2020.
