 Entering Gaussian System, Link 0=g09
 Initial command:
 /prod/apps/gaussian/g09d1/l1.exe "/tmp/ubafar01/1448564/Gau-177593.inp" -scrdir="/tmp/ubafar01/1448564/"
 Entering Link 1 = /prod/apps/gaussian/g09d1/l1.exe PID=    177594.
  
 Copyright (c) 1988,1990,1992,1993,1995,1998,2003,2009,2013,
            Gaussian, Inc.  All Rights Reserved.
  
 This is part of the Gaussian(R) 09 program.  It is based on
 the Gaussian(R) 03 system (copyright 2003, Gaussian, Inc.),
 the Gaussian(R) 98 system (copyright 1998, Gaussian, Inc.),
 the Gaussian(R) 94 system (copyright 1995, Gaussian, Inc.),
 the Gaussian 92(TM) system (copyright 1992, Gaussian, Inc.),
 the Gaussian 90(TM) system (copyright 1990, Gaussian, Inc.),
 the Gaussian 88(TM) system (copyright 1988, Gaussian, Inc.),
 the Gaussian 86(TM) system (copyright 1986, Carnegie Mellon
 University), and the Gaussian 82(TM) system (copyright 1983,
 Carnegie Mellon University). Gaussian is a federally registered
 trademark of Gaussian, Inc.
  
 This software contains proprietary and confidential information,
 including trade secrets, belonging to Gaussian, Inc.
  
 This software is provided under written license and may be
 used, copied, transmitted, or stored only in accord with that
 written license.
  
 The following legend is applicable only to US Government
 contracts under FAR:
  
                    RESTRICTED RIGHTS LEGEND
  
 Use, reproduction and disclosure by the US Government is
 subject to restrictions as set forth in subparagraphs (a)
 and (c) of the Commercial Computer Software - Restricted
 Rights clause in FAR 52.227-19.
  
 Gaussian, Inc.
 340 Quinnipiac St., Bldg. 40, Wallingford CT 06492
  
  
 ---------------------------------------------------------------
 Warning -- This program may not be used in any manner that
 competes with the business of Gaussian, Inc. or will provide
 assistance to any competitor of Gaussian, Inc.  The licensee
 of this program is prohibited from giving any competitor of
 Gaussian, Inc. access to this program.  By using this program,
 the user acknowledges that Gaussian, Inc. is engaged in the
 business of creating and licensing software in the field of
 computational chemistry and represents and warrants to the
 licensee that it is not a competitor of Gaussian, Inc. and that
 it will not use this program in any manner prohibited above.
 ---------------------------------------------------------------
  

 Cite this work as:
 Gaussian 09, Revision D.01,
 M. J. Frisch, G. W. Trucks, H. B. Schlegel, G. E. Scuseria, 
 M. A. Robb, J. R. Cheeseman, G. Scalmani, V. Barone, B. Mennucci, 
 G. A. Petersson, H. Nakatsuji, M. Caricato, X. Li, H. P. Hratchian, 
 A. F. Izmaylov, J. Bloino, G. Zheng, J. L. Sonnenberg, M. Hada, 
 M. Ehara, K. Toyota, R. Fukuda, J. Hasegawa, M. Ishida, T. Nakajima, 
 Y. Honda, O. Kitao, H. Nakai, T. Vreven, J. A. Montgomery, Jr., 
 J. E. Peralta, F. Ogliaro, M. Bearpark, J. J. Heyd, E. Brothers, 
 K. N. Kudin, V. N. Staroverov, T. Keith, R. Kobayashi, J. Normand, 
 K. Raghavachari, A. Rendell, J. C. Burant, S. S. Iyengar, J. Tomasi, 
 M. Cossi, N. Rega, J. M. Millam, M. Klene, J. E. Knox, J. B. Cross, 
 V. Bakken, C. Adamo, J. Jaramillo, R. Gomperts, R. E. Stratmann, 
 O. Yazyev, A. J. Austin, R. Cammi, C. Pomelli, J. W. Ochterski, 
 R. L. Martin, K. Morokuma, V. G. Zakrzewski, G. A. Voth, 
 P. Salvador, J. J. Dannenberg, S. Dapprich, A. D. Daniels, 
 O. Farkas, J. B. Foresman, J. V. Ortiz, J. Cioslowski, 
 and D. J. Fox, Gaussian, Inc., Wallingford CT, 2013.
 
 ******************************************
 Gaussian 09:  AM64L-G09RevD.01 24-Apr-2013
                 6-Aug-2020 
 ******************************************
 %nproc=1
 Will use up to    1 processors via shared memory.
 %Chk=SM46.n.7.pdb.xyz.mst.n.o.chk
 -----------------
 #p b3lyp/6-31G(d)
 -----------------
 1/38=1/1;
 2/12=2,17=6,18=5,40=1/2;
 3/5=1,6=6,7=1,11=2,16=1,25=1,30=1,74=-5/1,2,3;
 4//1;
 5/5=2,38=5/2;
 6/7=2,8=2,9=2,10=2,28=1/1;
 99/5=1,9=1/99;
 Leave Link    1 at Thu Aug  6 21:14:14 2020, MaxMem=           0 cpu:         0.0
 (Enter /prod/apps/gaussian/g09d1/l101.exe)
 ----------------
 SM46.n.7.pdb.xyz
 ----------------
 Symbolic Z-matrix:
 Charge =  0 Multiplicity = 1
 O                     2.696     3.887    -1.864 
 S                     1.68      2.945    -1.39 
 N                     2.172     1.329    -1.528 
 C                     2.016     0.675    -2.763 
 N                     3.001    -0.136    -3.231 
 N                     2.601    -0.678    -4.353 
 C                     0.951     0.648    -3.636 
 N                     1.365    -0.202    -4.618 
 C                     0.67     -0.598    -5.796 
 C                    -0.715    -0.433    -5.871 
 C                    -1.385    -0.814    -7.032 
 C                    -0.681    -1.366    -8.103 
 C                     0.701    -1.534    -8.01 
 C                     1.387    -1.147    -6.862 
 N                     1.681     3.025     0.276 
 C                     1.957     4.353     0.842 
 C                     0.591     2.293     0.936 
 O                     0.343     2.986    -1.992 
 H                     3.099     1.189    -1.129 
 H                     0.013     1.17     -3.64 
 H                    -1.263    -0.023    -5.031 
 H                    -2.459    -0.685    -7.092 
 H                    -1.207    -1.665    -9.003 
 H                     1.255    -1.96     -8.839 
 H                     2.459    -1.261    -6.776 
 H                     2.794     4.803     0.313 
 H                     2.229     4.209     1.889 
 H                     1.087     5.019     0.79 
 H                     0.501     1.303     0.492 
 H                    -0.367     2.82      0.861 
 H                     0.861     2.184     1.988 
 
 NAtoms=     31 NQM=       31 NQMF=       0 NMMI=      0 NMMIF=      0
                NMic=       0 NMicF=      0.
                    Isotopes and Nuclear Properties:
 (Nuclear quadrupole moments (NQMom) in fm**2, nuclear magnetic moments (NMagM)
  in nuclear magnetons)

  Atom         1           2           3           4           5           6           7           8           9          10
 IAtWgt=          16          32          14          12          14          14          12          14          12          12
 AtmWgt=  15.9949146  31.9720718  14.0030740  12.0000000  14.0030740  14.0030740  12.0000000  14.0030740  12.0000000  12.0000000
 NucSpn=           0           0           2           0           2           2           0           2           0           0
 AtZEff=   0.0000000   0.0000000   0.0000000   0.0000000   0.0000000   0.0000000   0.0000000   0.0000000   0.0000000   0.0000000
 NQMom=    0.0000000   0.0000000   2.0440000   0.0000000   2.0440000   2.0440000   0.0000000   2.0440000   0.0000000   0.0000000
 NMagM=    0.0000000   0.0000000   0.4037610   0.0000000   0.4037610   0.4037610   0.0000000   0.4037610   0.0000000   0.0000000
 AtZNuc=   8.0000000  16.0000000   7.0000000   6.0000000   7.0000000   7.0000000   6.0000000   7.0000000   6.0000000   6.0000000

  Atom        11          12          13          14          15          16          17          18          19          20
 IAtWgt=          12          12          12          12          14          12          12          16           1           1
 AtmWgt=  12.0000000  12.0000000  12.0000000  12.0000000  14.0030740  12.0000000  12.0000000  15.9949146   1.0078250   1.0078250
 NucSpn=           0           0           0           0           2           0           0           0           1           1
 AtZEff=   0.0000000   0.0000000   0.0000000   0.0000000   0.0000000   0.0000000   0.0000000   0.0000000   0.0000000   0.0000000
 NQMom=    0.0000000   0.0000000   0.0000000   0.0000000   2.0440000   0.0000000   0.0000000   0.0000000   0.0000000   0.0000000
 NMagM=    0.0000000   0.0000000   0.0000000   0.0000000   0.4037610   0.0000000   0.0000000   0.0000000   2.7928460   2.7928460
 AtZNuc=   6.0000000   6.0000000   6.0000000   6.0000000   7.0000000   6.0000000   6.0000000   8.0000000   1.0000000   1.0000000

  Atom        21          22          23          24          25          26          27          28          29          30
 IAtWgt=           1           1           1           1           1           1           1           1           1           1
 AtmWgt=   1.0078250   1.0078250   1.0078250   1.0078250   1.0078250   1.0078250   1.0078250   1.0078250   1.0078250   1.0078250
 NucSpn=           1           1           1           1           1           1           1           1           1           1
 AtZEff=   0.0000000   0.0000000   0.0000000   0.0000000   0.0000000   0.0000000   0.0000000   0.0000000   0.0000000   0.0000000
 NQMom=    0.0000000   0.0000000   0.0000000   0.0000000   0.0000000   0.0000000   0.0000000   0.0000000   0.0000000   0.0000000
 NMagM=    2.7928460   2.7928460   2.7928460   2.7928460   2.7928460   2.7928460   2.7928460   2.7928460   2.7928460   2.7928460
 AtZNuc=   1.0000000   1.0000000   1.0000000   1.0000000   1.0000000   1.0000000   1.0000000   1.0000000   1.0000000   1.0000000

  Atom        31
 IAtWgt=           1
 AtmWgt=   1.0078250
 NucSpn=           1
 AtZEff=   0.0000000
 NQMom=    0.0000000
 NMagM=    2.7928460
 AtZNuc=   1.0000000
 Leave Link  101 at Thu Aug  6 21:14:14 2020, MaxMem=    33554432 cpu:         0.1
 (Enter /prod/apps/gaussian/g09d1/l202.exe)
                          Input orientation:                          
 ---------------------------------------------------------------------
 Center     Atomic      Atomic             Coordinates (Angstroms)
 Number     Number       Type             X           Y           Z
 ---------------------------------------------------------------------
      1          8           0        2.696000    3.887000   -1.864000
      2         16           0        1.680000    2.945000   -1.390000
      3          7           0        2.172000    1.329000   -1.528000
      4          6           0        2.016000    0.675000   -2.763000
      5          7           0        3.001000   -0.136000   -3.231000
      6          7           0        2.601000   -0.678000   -4.353000
      7          6           0        0.951000    0.648000   -3.636000
      8          7           0        1.365000   -0.202000   -4.618000
      9          6           0        0.670000   -0.598000   -5.796000
     10          6           0       -0.715000   -0.433000   -5.871000
     11          6           0       -1.385000   -0.814000   -7.032000
     12          6           0       -0.681000   -1.366000   -8.103000
     13          6           0        0.701000   -1.534000   -8.010000
     14          6           0        1.387000   -1.147000   -6.862000
     15          7           0        1.681000    3.025000    0.276000
     16          6           0        1.957000    4.353000    0.842000
     17          6           0        0.591000    2.293000    0.936000
     18          8           0        0.343000    2.986000   -1.992000
     19          1           0        3.099000    1.189000   -1.129000
     20          1           0        0.013000    1.170000   -3.640000
     21          1           0       -1.263000   -0.023000   -5.031000
     22          1           0       -2.459000   -0.685000   -7.092000
     23          1           0       -1.207000   -1.665000   -9.003000
     24          1           0        1.255000   -1.960000   -8.839000
     25          1           0        2.459000   -1.261000   -6.776000
     26          1           0        2.794000    4.803000    0.313000
     27          1           0        2.229000    4.209000    1.889000
     28          1           0        1.087000    5.019000    0.790000
     29          1           0        0.501000    1.303000    0.492000
     30          1           0       -0.367000    2.820000    0.861000
     31          1           0        0.861000    2.184000    1.988000
 ---------------------------------------------------------------------
                    Distance matrix (angstroms):
                    1          2          3          4          5
     1  O    0.000000
     2  S    1.464341   0.000000
     3  N    2.632648   1.694864   0.000000
     4  C    3.404048   2.674121   1.406157   0.000000
     5  N    4.259841   3.824511   2.394509   1.359033   0.000000
     6  N    5.200324   4.770088   3.491807   2.168164   1.308682
     7  C    4.083642   3.294263   2.529479   1.377346   2.231856
     8  N    5.106466   4.519161   3.541654   2.152662   2.145838
     9  C    6.299248   5.743325   4.917841   3.554059   3.496603
    10  C    6.808331   6.101333   5.504640   4.283187   4.567983
    11  C    8.090871   7.440193   6.894832   5.657586   5.843311
    12  C    8.827415   8.320061   7.657236   6.321004   6.229479
    13  C    8.434488   8.052595   7.237191   5.842937   5.484820
    14  C    7.213504   6.839086   5.932820   4.529583   4.100156
    15  N    2.520490   1.667920   2.524265   3.856196   4.902384
    16  C    2.843539   2.653491   3.848078   5.150455   6.150641
    17  C    3.848618   2.649774   3.082232   4.281489   5.391848
    18  O    2.522854   1.466852   2.511212   2.955350   4.283336
    19  H    2.825215   2.272712   1.018887   2.026584   2.486691
    20  H    4.211265   3.315421   3.024418   2.241911   3.286497
    21  H    6.402474   5.543208   5.089021   4.047576   4.629737
    22  H    8.649231   7.925972   7.514017   6.373026   6.709718
    23  H    9.850047   9.356529   8.732543   7.402765   7.304867
    24  H    9.214907   8.929012   8.069023   6.666342   6.150216
    25  H    7.119397   6.877956   5.859349   4.477557   3.758512
    26  H    2.363893   2.755607   3.980558   5.206481   6.082475
    27  H    3.795627   3.556816   4.469176   5.845993   6.759394
    28  H    3.303638   3.066843   4.490707   5.688338   6.812185
    29  H    4.128658   2.761907   2.621701   3.644809   4.709719
    30  H    4.236282   3.045133   3.791691   4.838707   6.068428
    31  H    4.594055   3.558197   3.848636   5.116943   6.099177
                    6          7          8          9         10
     6  N    0.000000
     7  C    2.234919   0.000000
     8  N    1.350739   1.363165   0.000000
     9  C    2.411931   2.509398   1.423912   0.000000
    10  C    3.655161   2.989873   2.439215   1.396809   0.000000
    11  C    4.804553   4.373460   3.710046   2.407774   1.393550
    12  C    5.030643   5.164660   4.205501   2.781596   2.419394
    13  C    4.209084   4.894436   3.704158   2.403924   2.791519
    14  C    2.826453   3.717418   2.434963   1.397085   2.431107
    15  N    5.998854   4.635383   5.870658   7.142649   7.448771
    16  C    7.260422   5.898436   7.135131   8.380442   8.666588
    17  C    6.390654   4.872249   6.137672   7.326933   7.447950
    18  O    4.908949   2.922096   4.254845   5.236640   5.277837
    19  H    3.758706   3.345390   4.136999   5.556465   6.297940
    20  H    3.259021   1.073473   2.160271   2.864578   2.841998
    21  H    3.977336   2.701493   2.666270   2.156928   1.083515
    22  H    5.753761   5.034772   4.580059   3.387894   2.143801
    23  H    6.090774   6.229897   5.289970   3.866066   3.401369
    24  H    4.855866   5.827975   4.573785   3.384836   3.875778
    25  H    2.496194   3.972146   2.641076   2.144875   3.402776
    26  H    7.200706   6.021235   7.169855   8.426272   8.830098
    27  H    7.936228   6.696240   7.908506   9.197660   9.509621
    28  H    7.822944   6.222026   7.522140   8.666024   8.794341
    29  H    5.639892   4.203797   5.396631   6.571248   6.706722
    30  H    6.944842   5.165048   6.492438   7.554717   7.484847
    31  H    7.171257   5.830675   7.041750   8.268413   8.431865
                   11         12         13         14         15
    11  C    0.000000
    12  C    1.395479   0.000000
    13  C    2.413769   1.395277   0.000000
    14  C    2.797101   2.421707   1.392217   0.000000
    15  N    8.805972   9.750260   9.508032   8.273032   0.000000
    16  C    9.993334  10.939791  10.704775   9.482959   1.469733
    17  C    8.777645   9.834113   9.730824   8.560141   1.469532
    18  O    6.544279   7.571843   7.534911   6.472135   2.633551
    19  H    7.678781   8.333853   7.779029   6.423016   2.712129
    20  H    4.170890   5.179894   5.184772   4.199720   4.643092
    21  H    2.155126   3.402875   3.874901   3.411515   6.791295
    22  H    1.083382   2.155729   3.398400   3.880472   9.229904
    23  H    2.154234   1.084471   2.154919   3.403093  10.790574
    24  H    3.398259   2.154676   1.084266   2.141710  10.397833
    25  H    3.878361   3.410506   2.165144   1.081469   8.288895
    26  H   10.147106  10.998238  10.668203   9.426705   2.097957
    27  H   10.857061  11.806303  11.545867  10.294450   2.074591
    28  H   10.065702  11.089612  10.978652   9.831717   2.143144
    29  H    8.040476   9.077153   8.965075   7.801847   2.098652
    30  H    8.748813   9.898206   9.939446   8.857671   2.139756
    31  H    9.766930  10.807800  10.668136   9.470731   2.076204
                   16         17         18         19         20
    16  C    0.000000
    17  C    2.473538   0.000000
    18  O    3.536275   3.019095   0.000000
    19  H    3.898705   3.431196   3.401399   0.000000
    20  H    5.830862   4.747103   2.474401   3.978552   0.000000
    21  H    8.000619   6.663802   4.568242   5.976754   2.233004
    22  H   10.384164   9.089542   6.880221   8.364246   4.633370
    23  H   11.964583  10.848147   8.555023   9.417368   6.187681
    24  H   11.578797  10.680802   8.495650   8.529985   6.194277
    25  H    9.476440   8.694555   6.738035   6.188757   4.661242
    26  H    1.087617   3.397269   3.823861   3.902997   6.046392
    27  H    1.091297   2.694867   4.484962   4.357250   6.687004
    28  H    1.096887   2.774601   3.525074   4.732822   5.966002
    29  H    3.397784   1.088731   3.004615   3.064350   4.162842
    30  H    2.784138   1.095955   2.944701   4.316644   4.808940
    31  H    2.686837   1.091552   4.092912   3.964134   5.781149
                   21         22         23         24         25
    21  H    0.000000
    22  H    2.473132   0.000000
    23  H    4.298382   2.485925   0.000000
    24  H    4.959149   4.297840   2.485028   0.000000
    25  H    4.293129   4.961689   4.308399   2.488812   0.000000
    26  H    8.264857  10.608778  12.026258  11.483283   9.334787
    27  H    8.831211  11.251086  12.843116  12.413510  10.249684
    28  H    8.051603  10.355465  12.076471  11.893372   9.927998
    29  H    5.947563   8.380382  10.093627   9.913791   7.951835
    30  H    6.603115   8.939334  10.868271  10.934774   9.108491
    31  H    7.658236  10.084640  11.827659  11.599651   9.551404
                   26         27         28         29         30
    26  H    0.000000
    27  H    1.776468   0.000000
    28  H    1.785507   1.779906   0.000000
    29  H    4.188065   3.658200   3.773706   0.000000
    30  H    3.771540   3.118545   2.637188   1.786302   0.000000
    31  H    3.660775   2.445782   3.086018   1.773070   1.783987
                   31
    31  H    0.000000
 Stoichiometry    C10H13N5O2S
 Framework group  C1[X(C10H13N5O2S)]
 Deg. of freedom    87
 Full point group                 C1      NOp   1
 Largest Abelian subgroup         C1      NOp   1
 Largest concise Abelian subgroup C1      NOp   1
                         Standard orientation:                         
 ---------------------------------------------------------------------
 Center     Atomic      Atomic             Coordinates (Angstroms)
 Number     Number       Type             X           Y           Z
 ---------------------------------------------------------------------
      1          8           0        2.917522    0.529013    1.783016
      2         16           0        2.630480   -0.138814    0.511831
      3          7           0        1.750052    0.839406   -0.556109
      4          6           0        0.351696    0.902859   -0.422504
      5          7           0       -0.288507    2.095511   -0.543721
      6          7           0       -1.577699    1.891644   -0.448484
      7          6           0       -0.578027   -0.095660   -0.233676
      8          7           0       -1.767781    0.569562   -0.247326
      9          6           0       -3.079204    0.039881   -0.082607
     10          6           0       -3.302789   -1.325944   -0.271303
     11          6           0       -4.587692   -1.836715   -0.097749
     12          6           0       -5.641710   -0.990256    0.248537
     13          6           0       -5.405315    0.373604    0.424040
     14          6           0       -4.125154    0.897706    0.266635
     15          7           0        4.055182   -0.169459   -0.354912
     16          6           0        5.276311   -0.329642    0.447149
     17          6           0        4.020186   -0.974590   -1.583759
     18          8           0        1.912725   -1.417903    0.532138
     19          1           0        2.173464    1.761600   -0.647816
     20          1           0       -0.473763   -1.150563   -0.064404
     21          1           0       -2.487490   -1.978637   -0.559890
     22          1           0       -4.762044   -2.896171   -0.242218
     23          1           0       -6.640877   -1.391328    0.378475
     24          1           0       -6.218869    1.037006    0.695444
     25          1           0       -3.921661    1.950423    0.407886
     26          1           0        5.225516    0.324135    1.314850
     27          1           0        6.117675   -0.030028   -0.179960
     28          1           0        5.429076   -1.365382    0.774359
     29          1           0        3.112332   -0.745279   -2.139234
     30          1           0        4.064597   -2.049779   -1.376119
     31          1           0        4.883842   -0.687958   -2.186607
 ---------------------------------------------------------------------
 Rotational constants (GHZ):      1.1626663      0.1605732      0.1523706
 Leave Link  202 at Thu Aug  6 21:14:14 2020, MaxMem=    33554432 cpu:         0.0
 (Enter /prod/apps/gaussian/g09d1/l301.exe)
 Standard basis: 6-31G(d) (6D, 7F)
 Ernie: Thresh=  0.10000D-02 Tol=  0.10000D-05 Strict=F.
 There are   300 symmetry adapted cartesian basis functions of A   symmetry.
 There are   300 symmetry adapted basis functions of A   symmetry.
   300 basis functions,   580 primitive gaussians,   300 cartesian basis functions
    70 alpha electrons       70 beta electrons
       nuclear repulsion energy      1454.8836127790 Hartrees.
 IExCor=  402 DFT=T Ex+Corr=B3LYP ExCW=0 ScaHFX=  0.200000
 ScaDFX=  0.800000  0.720000  1.000000  0.810000 ScalE2=  1.000000  1.000000
 IRadAn=      0 IRanWt=     -1 IRanGd=            0 ICorTp=0 IEmpDi=  4
 NAtoms=   31 NActive=   31 NUniq=   31 SFac= 1.00D+00 NAtFMM=   60 NAOKFM=F Big=F
 Integral buffers will be    131072 words long.
 Raffenetti 2 integral format.
 Two-electron integral symmetry is turned on.
 Leave Link  301 at Thu Aug  6 21:14:14 2020, MaxMem=    33554432 cpu:         0.0
 (Enter /prod/apps/gaussian/g09d1/l302.exe)
 NPDir=0 NMtPBC=     1 NCelOv=     1 NCel=       1 NClECP=     1 NCelD=      1
         NCelK=      1 NCelE2=     1 NClLst=     1 CellRange=     0.0.
 One-electron integrals computed using PRISM.
 NBasis=   300 RedAO= T EigKep=  4.64D-04  NBF=   300
 NBsUse=   300 1.00D-06 EigRej= -1.00D+00 NBFU=   300
 Precomputing XC quadrature grid using
 IXCGrd= 4 IRadAn=           0 IRanWt=          -1 IRanGd=           0 AccXCQ= 0.00D+00.
 Generated NRdTot=       0 NPtTot=           0 NUsed=           0 NTot=          32
 NSgBfM=   298   298   298   298   298 MxSgAt=    31 MxSgA2=    31.
 Leave Link  302 at Thu Aug  6 21:14:15 2020, MaxMem=    33554432 cpu:         1.0
 (Enter /prod/apps/gaussian/g09d1/l303.exe)
 DipDrv:  MaxL=1.
 Leave Link  303 at Thu Aug  6 21:14:15 2020, MaxMem=    33554432 cpu:         0.0
 (Enter /prod/apps/gaussian/g09d1/l401.exe)
 ExpMin= 1.17D-01 ExpMax= 2.19D+04 ExpMxC= 3.30D+03 IAcc=1 IRadAn=         1 AccDes= 0.00D+00
 Harris functional with IExCor=  402 and IRadAn=       1 diagonalized for initial guess.
 HarFok:  IExCor=  402 AccDes= 0.00D+00 IRadAn=         1 IDoV= 1 UseB2=F ITyADJ=14
 ICtDFT=  3500011 ScaDFX=  1.000000  1.000000  1.000000  1.000000
 FoFCou: FMM=F IPFlag=           0 FMFlag=      100000 FMFlg1=           0
         NFxFlg=           0 DoJE=T BraDBF=F KetDBF=T FulRan=T
         wScrn=  0.000000 ICntrl=     500 IOpCl=  0 I1Cent=   200000004 NGrid=           0
         NMat0=    1 NMatS0=      1 NMatT0=    0 NMatD0=    1 NMtDS0=    0 NMtDT0=    0
 Petite list used in FoFCou.
 Harris En= -1211.17113129691    
 JPrj=0 DoOrth=F DoCkMO=F.
 Leave Link  401 at Thu Aug  6 21:14:18 2020, MaxMem=    33554432 cpu:         2.7
 (Enter /prod/apps/gaussian/g09d1/l502.exe)
 Closed shell SCF:
 Using DIIS extrapolation, IDIIS=  1040.
 Integral symmetry usage will be decided dynamically.
 IVT=      292611 IEndB=      292611 NGot=    33554432 MDV=    33368762
 LenX=    33368762 LenY=    33278321
 Requested convergence on RMS density matrix=1.00D-08 within 128 cycles.
 Requested convergence on MAX density matrix=1.00D-06.
 Requested convergence on             energy=1.00D-06.
 No special actions if energy rises.
 Fock matrices will be formed incrementally for  20 cycles.
 Integral accuracy reduced to 1.0D-05 until final iterations.

 Cycle   1  Pass 0  IDiag  1:
 FoFJK:  IHMeth= 1 ICntrl=       0 DoSepK=F KAlg= 0 I1Cent=   0 FoldK=F
 IRaf= 700000000 NMat=   1 IRICut=       1 DoRegI=T DoRafI=F ISym2E= 0.
 FoFCou: FMM=F IPFlag=           0 FMFlag=      100000 FMFlg1=           0
         NFxFlg=           0 DoJE=F BraDBF=F KetDBF=F FulRan=T
         wScrn=  0.000000 ICntrl=       0 IOpCl=  0 I1Cent=           0 NGrid=           0
         NMat0=    1 NMatS0=      1 NMatT0=    0 NMatD0=    1 NMtDS0=    0 NMtDT0=    0
 Symmetry not used in FoFCou.
 E= -1210.61271913620    
 DIIS: error= 2.72D-02 at cycle   1 NSaved=   1.
 NSaved= 1 IEnMin= 1 EnMin= -1210.61271913620     IErMin= 1 ErrMin= 2.72D-02
 ErrMax= 2.72D-02  0.00D+00 EMaxC= 1.00D-01 BMatC= 6.43D-01 BMatP= 6.43D-01
 IDIUse=3 WtCom= 7.28D-01 WtEn= 2.72D-01
 Coeff-Com:  0.100D+01
 Coeff-En:   0.100D+01
 Coeff:      0.100D+01
 Gap=     0.280 Goal=   None    Shift=    0.000
 GapD=    0.280 DampG=1.000 DampE=0.500 DampFc=0.5000 IDamp=-1.
 Damping current iteration by 5.00D-01
 RMSDP=6.75D-03 MaxDP=6.08D-01              OVMax= 2.56D-01

 Cycle   2  Pass 0  IDiag  1:
 RMSU=  3.37D-03    CP:  9.92D-01
 E= -1210.73054175290     Delta-E=       -0.117822616699 Rises=F Damp=T
 DIIS: error= 1.50D-02 at cycle   2 NSaved=   2.
 NSaved= 2 IEnMin= 2 EnMin= -1210.73054175290     IErMin= 2 ErrMin= 1.50D-02
 ErrMax= 1.50D-02  0.00D+00 EMaxC= 1.00D-01 BMatC= 1.15D-01 BMatP= 6.43D-01
 IDIUse=3 WtCom= 8.50D-01 WtEn= 1.50D-01
 Coeff-Com:  0.248D+00 0.752D+00
 Coeff-En:   0.392D+00 0.608D+00
 Coeff:      0.270D+00 0.730D+00
 Gap=     0.230 Goal=   None    Shift=    0.000
 RMSDP=1.98D-03 MaxDP=1.32D-01 DE=-1.18D-01 OVMax= 1.95D-01

 Cycle   3  Pass 0  IDiag  1:
 RMSU=  1.62D-03    CP:  9.82D-01  6.68D-01
 E= -1211.11563592330     Delta-E=       -0.385094170402 Rises=F Damp=F
 DIIS: error= 9.19D-03 at cycle   3 NSaved=   3.
 NSaved= 3 IEnMin= 3 EnMin= -1211.11563592330     IErMin= 3 ErrMin= 9.19D-03
 ErrMax= 9.19D-03  0.00D+00 EMaxC= 1.00D-01 BMatC= 5.74D-02 BMatP= 1.15D-01
 IDIUse=3 WtCom= 9.08D-01 WtEn= 9.19D-02
 Coeff-Com:  0.860D-01 0.415D+00 0.499D+00
 Coeff-En:   0.000D+00 0.000D+00 0.100D+01
 Coeff:      0.781D-01 0.377D+00 0.545D+00
 Gap=     0.190 Goal=   None    Shift=    0.000
 RMSDP=1.11D-03 MaxDP=4.00D-02 DE=-3.85D-01 OVMax= 5.10D-02

 Cycle   4  Pass 0  IDiag  1:
 RMSU=  7.15D-04    CP:  9.87D-01  7.49D-01  5.09D-01
 E= -1211.15875709411     Delta-E=       -0.043121170810 Rises=F Damp=F
 DIIS: error= 3.21D-03 at cycle   4 NSaved=   4.
 NSaved= 4 IEnMin= 4 EnMin= -1211.15875709411     IErMin= 4 ErrMin= 3.21D-03
 ErrMax= 3.21D-03  0.00D+00 EMaxC= 1.00D-01 BMatC= 9.97D-03 BMatP= 5.74D-02
 IDIUse=3 WtCom= 9.68D-01 WtEn= 3.21D-02
 Coeff-Com:  0.921D-02 0.899D-01 0.309D+00 0.592D+00
 Coeff-En:   0.000D+00 0.000D+00 0.149D+00 0.851D+00
 Coeff:      0.891D-02 0.871D-01 0.304D+00 0.600D+00
 Gap=     0.189 Goal=   None    Shift=    0.000
 RMSDP=3.69D-04 MaxDP=1.49D-02 DE=-4.31D-02 OVMax= 2.29D-02

 Cycle   5  Pass 0  IDiag  1:
 RMSU=  1.82D-04    CP:  9.87D-01  7.36D-01  6.23D-01  6.37D-01
 E= -1211.16689236366     Delta-E=       -0.008135269554 Rises=F Damp=F
 DIIS: error= 7.52D-04 at cycle   5 NSaved=   5.
 NSaved= 5 IEnMin= 5 EnMin= -1211.16689236366     IErMin= 5 ErrMin= 7.52D-04
 ErrMax= 7.52D-04  0.00D+00 EMaxC= 1.00D-01 BMatC= 5.90D-04 BMatP= 9.97D-03
 IDIUse=3 WtCom= 9.92D-01 WtEn= 7.52D-03
 Coeff-Com: -0.150D-02 0.174D-01 0.113D+00 0.301D+00 0.571D+00
 Coeff-En:   0.000D+00 0.000D+00 0.000D+00 0.000D+00 0.100D+01
 Coeff:     -0.149D-02 0.173D-01 0.112D+00 0.298D+00 0.574D+00
 Gap=     0.189 Goal=   None    Shift=    0.000
 RMSDP=9.82D-05 MaxDP=5.20D-03 DE=-8.14D-03 OVMax= 4.97D-03

 Cycle   6  Pass 0  IDiag  1:
 RMSU=  5.21D-05    CP:  9.86D-01  7.37D-01  6.27D-01  6.85D-01  5.88D-01
 E= -1211.16738398514     Delta-E=       -0.000491621478 Rises=F Damp=F
 DIIS: error= 2.05D-04 at cycle   6 NSaved=   6.
 NSaved= 6 IEnMin= 6 EnMin= -1211.16738398514     IErMin= 6 ErrMin= 2.05D-04
 ErrMax= 2.05D-04  0.00D+00 EMaxC= 1.00D-01 BMatC= 4.29D-05 BMatP= 5.90D-04
 IDIUse=3 WtCom= 9.98D-01 WtEn= 2.05D-03
 Coeff-Com: -0.152D-02 0.231D-02 0.339D-01 0.106D+00 0.290D+00 0.569D+00
 Coeff-En:   0.000D+00 0.000D+00 0.000D+00 0.000D+00 0.000D+00 0.100D+01
 Coeff:     -0.151D-02 0.230D-02 0.338D-01 0.106D+00 0.290D+00 0.570D+00
 Gap=     0.189 Goal=   None    Shift=    0.000
 RMSDP=2.45D-05 MaxDP=1.35D-03 DE=-4.92D-04 OVMax= 1.72D-03

 Cycle   7  Pass 0  IDiag  1:
 RMSU=  1.82D-05    CP:  9.86D-01  7.37D-01  6.27D-01  6.86D-01  6.31D-01
                    CP:  7.22D-01
 E= -1211.16741424952     Delta-E=       -0.000030264376 Rises=F Damp=F
 DIIS: error= 9.91D-05 at cycle   7 NSaved=   7.
 NSaved= 7 IEnMin= 7 EnMin= -1211.16741424952     IErMin= 7 ErrMin= 9.91D-05
 ErrMax= 9.91D-05  0.00D+00 EMaxC= 1.00D-01 BMatC= 6.22D-06 BMatP= 4.29D-05
 IDIUse=1 WtCom= 1.00D+00 WtEn= 0.00D+00
 Coeff-Com: -0.802D-03 0.288D-03 0.123D-01 0.420D-01 0.137D+00 0.350D+00
 Coeff-Com:  0.459D+00
 Coeff:     -0.802D-03 0.288D-03 0.123D-01 0.420D-01 0.137D+00 0.350D+00
 Coeff:      0.459D+00
 Gap=     0.189 Goal=   None    Shift=    0.000
 RMSDP=1.06D-05 MaxDP=4.94D-04 DE=-3.03D-05 OVMax= 8.46D-04

 Cycle   8  Pass 0  IDiag  1:
 RMSU=  5.86D-06    CP:  9.86D-01  7.37D-01  6.27D-01  6.87D-01  6.32D-01
                    CP:  7.24D-01  5.18D-01
 E= -1211.16741939615     Delta-E=       -0.000005146635 Rises=F Damp=F
 DIIS: error= 3.17D-05 at cycle   8 NSaved=   8.
 NSaved= 8 IEnMin= 8 EnMin= -1211.16741939615     IErMin= 8 ErrMin= 3.17D-05
 ErrMax= 3.17D-05  0.00D+00 EMaxC= 1.00D-01 BMatC= 7.46D-07 BMatP= 6.22D-06
 IDIUse=1 WtCom= 1.00D+00 WtEn= 0.00D+00
 Coeff-Com: -0.291D-03-0.235D-03 0.266D-02 0.107D-01 0.443D-01 0.136D+00
 Coeff-Com:  0.288D+00 0.519D+00
 Coeff:     -0.291D-03-0.235D-03 0.266D-02 0.107D-01 0.443D-01 0.136D+00
 Coeff:      0.288D+00 0.519D+00
 Gap=     0.189 Goal=   None    Shift=    0.000
 RMSDP=3.64D-06 MaxDP=1.61D-04 DE=-5.15D-06 OVMax= 3.34D-04

 Initial convergence to 1.0D-05 achieved.  Increase integral accuracy.
 Cycle   9  Pass 1  IDiag  1:
 E= -1211.16737427760     Delta-E=        0.000045118555 Rises=F Damp=F
 DIIS: error= 3.84D-05 at cycle   1 NSaved=   1.
 NSaved= 1 IEnMin= 1 EnMin= -1211.16737427760     IErMin= 1 ErrMin= 3.84D-05
 ErrMax= 3.84D-05  0.00D+00 EMaxC= 1.00D-01 BMatC= 4.29D-07 BMatP= 4.29D-07
 IDIUse=1 WtCom= 1.00D+00 WtEn= 0.00D+00
 Coeff-Com:  0.100D+01
 Coeff:      0.100D+01
 Gap=     0.189 Goal=   None    Shift=    0.000
 RMSDP=3.64D-06 MaxDP=1.61D-04 DE= 4.51D-05 OVMax= 2.36D-04

 Cycle  10  Pass 1  IDiag  1:
 RMSU=  2.37D-05    CP:  1.00D+00
 E= -1211.16737443651     Delta-E=       -0.000000158912 Rises=F Damp=F
 DIIS: error= 3.01D-05 at cycle   2 NSaved=   2.
 NSaved= 2 IEnMin= 2 EnMin= -1211.16737443651     IErMin= 2 ErrMin= 3.01D-05
 ErrMax= 3.01D-05  0.00D+00 EMaxC= 1.00D-01 BMatC= 3.20D-07 BMatP= 4.29D-07
 IDIUse=1 WtCom= 1.00D+00 WtEn= 0.00D+00
 Coeff-Com:  0.447D+00 0.553D+00
 Coeff:      0.447D+00 0.553D+00
 Gap=     0.189 Goal=   None    Shift=    0.000
 RMSDP=3.32D-06 MaxDP=1.58D-04 DE=-1.59D-07 OVMax= 2.82D-04

 Cycle  11  Pass 1  IDiag  1:
 RMSU=  3.32D-06    CP:  1.00D+00  9.94D-01
 E= -1211.16737455165     Delta-E=       -0.000000115140 Rises=F Damp=F
 DIIS: error= 2.35D-05 at cycle   3 NSaved=   3.
 NSaved= 3 IEnMin= 3 EnMin= -1211.16737455165     IErMin= 3 ErrMin= 2.35D-05
 ErrMax= 2.35D-05  0.00D+00 EMaxC= 1.00D-01 BMatC= 2.02D-07 BMatP= 3.20D-07
 IDIUse=1 WtCom= 1.00D+00 WtEn= 0.00D+00
 Coeff-Com:  0.208D-01 0.438D+00 0.542D+00
 Coeff:      0.208D-01 0.438D+00 0.542D+00
 Gap=     0.189 Goal=   None    Shift=    0.000
 RMSDP=1.66D-06 MaxDP=8.05D-05 DE=-1.15D-07 OVMax= 1.36D-04

 Cycle  12  Pass 1  IDiag  1:
 RMSU=  6.39D-07    CP:  1.00D+00  1.01D+00  5.48D-01
 E= -1211.16737473602     Delta-E=       -0.000000184375 Rises=F Damp=F
 DIIS: error= 3.99D-06 at cycle   4 NSaved=   4.
 NSaved= 4 IEnMin= 4 EnMin= -1211.16737473602     IErMin= 4 ErrMin= 3.99D-06
 ErrMax= 3.99D-06  0.00D+00 EMaxC= 1.00D-01 BMatC= 1.13D-08 BMatP= 2.02D-07
 IDIUse=1 WtCom= 1.00D+00 WtEn= 0.00D+00
 Coeff-Com: -0.778D-02 0.251D+00 0.341D+00 0.415D+00
 Coeff:     -0.778D-02 0.251D+00 0.341D+00 0.415D+00
 Gap=     0.189 Goal=   None    Shift=    0.000
 RMSDP=3.57D-07 MaxDP=2.18D-05 DE=-1.84D-07 OVMax= 2.73D-05

 Cycle  13  Pass 1  IDiag  1:
 RMSU=  1.62D-07    CP:  1.00D+00  1.01D+00  5.70D-01  5.16D-01
 E= -1211.16737474566     Delta-E=       -0.000000009641 Rises=F Damp=F
 DIIS: error= 6.87D-07 at cycle   5 NSaved=   5.
 NSaved= 5 IEnMin= 5 EnMin= -1211.16737474566     IErMin= 5 ErrMin= 6.87D-07
 ErrMax= 6.87D-07  0.00D+00 EMaxC= 1.00D-01 BMatC= 2.61D-10 BMatP= 1.13D-08
 IDIUse=1 WtCom= 1.00D+00 WtEn= 0.00D+00
 Coeff-Com: -0.502D-02 0.118D+00 0.163D+00 0.223D+00 0.501D+00
 Coeff:     -0.502D-02 0.118D+00 0.163D+00 0.223D+00 0.501D+00
 Gap=     0.189 Goal=   None    Shift=    0.000
 RMSDP=7.27D-08 MaxDP=3.81D-06 DE=-9.64D-09 OVMax= 5.52D-06

 Cycle  14  Pass 1  IDiag  1:
 RMSU=  5.81D-08    CP:  1.00D+00  1.01D+00  5.70D-01  5.23D-01  7.32D-01
 E= -1211.16737474593     Delta-E=       -0.000000000261 Rises=F Damp=F
 DIIS: error= 2.37D-07 at cycle   6 NSaved=   6.
 NSaved= 6 IEnMin= 6 EnMin= -1211.16737474593     IErMin= 6 ErrMin= 2.37D-07
 ErrMax= 2.37D-07  0.00D+00 EMaxC= 1.00D-01 BMatC= 2.23D-11 BMatP= 2.61D-10
 IDIUse=1 WtCom= 1.00D+00 WtEn= 0.00D+00
 Coeff-Com: -0.166D-02 0.330D-01 0.459D-01 0.674D-01 0.260D+00 0.595D+00
 Coeff:     -0.166D-02 0.330D-01 0.459D-01 0.674D-01 0.260D+00 0.595D+00
 Gap=     0.189 Goal=   None    Shift=    0.000
 RMSDP=2.04D-08 MaxDP=6.33D-07 DE=-2.61D-10 OVMax= 1.44D-06

 Cycle  15  Pass 1  IDiag  1:
 RMSU=  1.51D-08    CP:  1.00D+00  1.01D+00  5.70D-01  5.23D-01  7.94D-01
                    CP:  8.45D-01
 E= -1211.16737474598     Delta-E=       -0.000000000057 Rises=F Damp=F
 DIIS: error= 7.04D-08 at cycle   7 NSaved=   7.
 NSaved= 7 IEnMin= 7 EnMin= -1211.16737474598     IErMin= 7 ErrMin= 7.04D-08
 ErrMax= 7.04D-08  0.00D+00 EMaxC= 1.00D-01 BMatC= 3.88D-12 BMatP= 2.23D-11
 IDIUse=1 WtCom= 1.00D+00 WtEn= 0.00D+00
 Coeff-Com: -0.224D-03 0.129D-02 0.206D-02 0.510D-02 0.750D-01 0.345D+00
 Coeff-Com:  0.572D+00
 Coeff:     -0.224D-03 0.129D-02 0.206D-02 0.510D-02 0.750D-01 0.345D+00
 Coeff:      0.572D+00
 Gap=     0.189 Goal=   None    Shift=    0.000
 RMSDP=7.65D-09 MaxDP=4.50D-07 DE=-5.73D-11 OVMax= 3.57D-07

 SCF Done:  E(RB3LYP) =  -1211.16737475     A.U. after   15 cycles
            NFock= 15  Conv=0.76D-08     -V/T= 2.0075
 KE= 1.202119797085D+03 PE=-5.746299619511D+03 EE= 1.878128834901D+03
 Leave Link  502 at Thu Aug  6 21:17:35 2020, MaxMem=    33554432 cpu:       197.2
 (Enter /prod/apps/gaussian/g09d1/l601.exe)
 Copying SCF densities to generalized density rwf, IOpCl= 0 IROHF=0.

 **********************************************************************

            Population analysis using the SCF density.

 **********************************************************************

 Orbital symmetries:
       Occupied  (A) (A) (A) (A) (A) (A) (A) (A) (A) (A) (A) (A)
                 (A) (A) (A) (A) (A) (A) (A) (A) (A) (A) (A) (A)
                 (A) (A) (A) (A) (A) (A) (A) (A) (A) (A) (A) (A)
                 (A) (A) (A) (A) (A) (A) (A) (A) (A) (A) (A) (A)
                 (A) (A) (A) (A) (A) (A) (A) (A) (A) (A) (A) (A)
                 (A) (A) (A) (A) (A) (A) (A) (A) (A) (A)
       Virtual   (A) (A) (A) (A) (A) (A) (A) (A) (A) (A) (A) (A)
                 (A) (A) (A) (A) (A) (A) (A) (A) (A) (A) (A) (A)
                 (A) (A) (A) (A) (A) (A) (A) (A) (A) (A) (A) (A)
                 (A) (A) (A) (A) (A) (A) (A) (A) (A) (A) (A) (A)
                 (A) (A) (A) (A) (A) (A) (A) (A) (A) (A) (A) (A)
                 (A) (A) (A) (A) (A) (A) (A) (A) (A) (A) (A) (A)
                 (A) (A) (A) (A) (A) (A) (A) (A) (A) (A) (A) (A)
                 (A) (A) (A) (A) (A) (A) (A) (A) (A) (A) (A) (A)
                 (A) (A) (A) (A) (A) (A) (A) (A) (A) (A) (A) (A)
                 (A) (A) (A) (A) (A) (A) (A) (A) (A) (A) (A) (A)
                 (A) (A) (A) (A) (A) (A) (A) (A) (A) (A) (A) (A)
                 (A) (A) (A) (A) (A) (A) (A) (A) (A) (A) (A) (A)
                 (A) (A) (A) (A) (A) (A) (A) (A) (A) (A) (A) (A)
                 (A) (A) (A) (A) (A) (A) (A) (A) (A) (A) (A) (A)
                 (A) (A) (A) (A) (A) (A) (A) (A) (A) (A) (A) (A)
                 (A) (A) (A) (A) (A) (A) (A) (A) (A) (A) (A) (A)
                 (A) (A) (A) (A) (A) (A) (A) (A) (A) (A) (A) (A)
                 (A) (A) (A) (A) (A) (A) (A) (A) (A) (A) (A) (A)
                 (A) (A) (A) (A) (A) (A) (A) (A) (A) (A) (A) (A)
                 (A) (A)
 The electronic state is 1-A.
 Alpha  occ. eigenvalues --  -89.13749 -19.15180 -19.15127 -14.43699 -14.39178
 Alpha  occ. eigenvalues --  -14.38801 -14.38530 -14.35771 -10.25929 -10.25065
 Alpha  occ. eigenvalues --  -10.23234 -10.23207 -10.23079 -10.20900 -10.20571
 Alpha  occ. eigenvalues --  -10.20373 -10.20272 -10.20169  -8.16002  -6.12491
 Alpha  occ. eigenvalues --   -6.12437  -6.12370  -1.12955  -1.10339  -1.00908
 Alpha  occ. eigenvalues --   -0.96134  -0.94926  -0.92253  -0.86012  -0.80512
 Alpha  occ. eigenvalues --   -0.76442  -0.76092  -0.73739  -0.72149  -0.66591
 Alpha  occ. eigenvalues --   -0.64619  -0.61676  -0.60315  -0.59151  -0.56659
 Alpha  occ. eigenvalues --   -0.54645  -0.52250  -0.50948  -0.49922  -0.48656
 Alpha  occ. eigenvalues --   -0.48376  -0.47498  -0.46875  -0.45702  -0.44499
 Alpha  occ. eigenvalues --   -0.44278  -0.43607  -0.42537  -0.42021  -0.40020
 Alpha  occ. eigenvalues --   -0.39095  -0.37583  -0.37033  -0.36130  -0.35296
 Alpha  occ. eigenvalues --   -0.34387  -0.33521  -0.32378  -0.31201  -0.30384
 Alpha  occ. eigenvalues --   -0.27747  -0.26694  -0.26557  -0.25501  -0.22859
 Alpha virt. eigenvalues --   -0.03993  -0.01526   0.02363   0.03810   0.05887
 Alpha virt. eigenvalues --    0.07584   0.07956   0.08357   0.09749   0.10641
 Alpha virt. eigenvalues --    0.10763   0.11984   0.13101   0.14420   0.14834
 Alpha virt. eigenvalues --    0.15214   0.15668   0.15903   0.17518   0.18071
 Alpha virt. eigenvalues --    0.18268   0.18694   0.19529   0.19803   0.21722
 Alpha virt. eigenvalues --    0.22282   0.23632   0.26485   0.28935   0.30385
 Alpha virt. eigenvalues --    0.31577   0.33499   0.34268   0.35746   0.37050
 Alpha virt. eigenvalues --    0.40918   0.41173   0.43565   0.45338   0.47667
 Alpha virt. eigenvalues --    0.48208   0.48894   0.49555   0.51084   0.52786
 Alpha virt. eigenvalues --    0.53369   0.54557   0.55835   0.56673   0.57321
 Alpha virt. eigenvalues --    0.58030   0.58339   0.58767   0.59456   0.60129
 Alpha virt. eigenvalues --    0.60727   0.61213   0.62378   0.62628   0.64538
 Alpha virt. eigenvalues --    0.65118   0.66995   0.67454   0.67767   0.69709
 Alpha virt. eigenvalues --    0.72099   0.72774   0.73981   0.74670   0.76106
 Alpha virt. eigenvalues --    0.76644   0.78361   0.78932   0.81056   0.81326
 Alpha virt. eigenvalues --    0.81989   0.83064   0.83163   0.83522   0.85443
 Alpha virt. eigenvalues --    0.85969   0.86119   0.86844   0.87472   0.88598
 Alpha virt. eigenvalues --    0.89791   0.90700   0.91171   0.92725   0.93186
 Alpha virt. eigenvalues --    0.93883   0.94490   0.95917   0.96507   0.96951
 Alpha virt. eigenvalues --    0.98669   1.00039   1.00923   1.03670   1.03865
 Alpha virt. eigenvalues --    1.05902   1.06516   1.07680   1.10763   1.12874
 Alpha virt. eigenvalues --    1.14488   1.15398   1.16161   1.16642   1.18503
 Alpha virt. eigenvalues --    1.20373   1.21203   1.22040   1.24093   1.24979
 Alpha virt. eigenvalues --    1.26266   1.29530   1.30830   1.36593   1.37683
 Alpha virt. eigenvalues --    1.39400   1.40023   1.41409   1.41914   1.43917
 Alpha virt. eigenvalues --    1.44761   1.46291   1.46385   1.47714   1.49644
 Alpha virt. eigenvalues --    1.53706   1.54317   1.56802   1.59235   1.59433
 Alpha virt. eigenvalues --    1.62635   1.63688   1.66203   1.71854   1.73826
 Alpha virt. eigenvalues --    1.78865   1.79480   1.79906   1.80919   1.81494
 Alpha virt. eigenvalues --    1.82296   1.83493   1.85373   1.86692   1.87885
 Alpha virt. eigenvalues --    1.90411   1.91610   1.93519   1.94158   1.94568
 Alpha virt. eigenvalues --    1.96560   1.97166   1.99288   1.99892   2.04273
 Alpha virt. eigenvalues --    2.05457   2.06893   2.08050   2.08777   2.11106
 Alpha virt. eigenvalues --    2.12084   2.12744   2.13876   2.14279   2.15461
 Alpha virt. eigenvalues --    2.17052   2.18777   2.20669   2.21636   2.23537
 Alpha virt. eigenvalues --    2.23821   2.25670   2.28639   2.29328   2.31540
 Alpha virt. eigenvalues --    2.32887   2.32984   2.33937   2.37135   2.41590
 Alpha virt. eigenvalues --    2.43060   2.46207   2.51021   2.51342   2.52764
 Alpha virt. eigenvalues --    2.55456   2.57953   2.58725   2.60083   2.63300
 Alpha virt. eigenvalues --    2.64970   2.67429   2.69357   2.70254   2.71751
 Alpha virt. eigenvalues --    2.74358   2.75645   2.78631   2.81180   2.83244
 Alpha virt. eigenvalues --    2.87595   2.89153   3.01137   3.07609   3.14516
 Alpha virt. eigenvalues --    3.27077   3.42331   3.62633   3.82195   3.89266
 Alpha virt. eigenvalues --    3.94816   3.99642   4.00858   4.07600   4.10185
 Alpha virt. eigenvalues --    4.11865   4.13761   4.18142   4.23472   4.24594
 Alpha virt. eigenvalues --    4.30426   4.31532   4.38824   4.48397   4.71107
          Condensed to atoms (all electrons):
               1          2          3          4          5          6
     1  O    8.193091   0.459845  -0.057107   0.000619  -0.000084  -0.000001
     2  S    0.459845  13.642685   0.127847  -0.023220  -0.001431   0.000051
     3  N   -0.057107   0.127847   7.396850   0.254024  -0.065847   0.006771
     4  C    0.000619  -0.023220   0.254024   4.644471   0.381525  -0.073621
     5  N   -0.000084  -0.001431  -0.065847   0.381525   6.856804   0.305853
     6  N   -0.000001   0.000051   0.006771  -0.073621   0.305853   6.742709
     7  C    0.000058  -0.002021  -0.074212   0.495065  -0.065747  -0.099451
     8  N   -0.000005  -0.000065   0.003174  -0.041339  -0.088921   0.213412
     9  C    0.000000  -0.000009  -0.000097   0.006365   0.007430  -0.046272
    10  C    0.000000  -0.000001   0.000003   0.001064  -0.000366   0.003128
    11  C    0.000000   0.000000   0.000000  -0.000011   0.000002  -0.000068
    12  C    0.000000   0.000000   0.000000   0.000000   0.000000   0.000017
    13  C    0.000000   0.000000   0.000000   0.000006  -0.000006   0.000407
    14  C    0.000000   0.000000   0.000000  -0.000494   0.000282  -0.000524
    15  N   -0.055478   0.133888  -0.048007   0.002929  -0.000022   0.000000
    16  C   -0.003434  -0.031743   0.002063  -0.000003   0.000000   0.000000
    17  C    0.001485  -0.006972  -0.008114  -0.000300  -0.000001   0.000000
    18  O   -0.046620   0.421634  -0.055099  -0.004342   0.000138   0.000001
    19  H   -0.000057  -0.004679   0.283753  -0.026281   0.007065  -0.000143
    20  H    0.000050   0.001293  -0.000702  -0.025073   0.004166   0.003120
    21  H    0.000000  -0.000008  -0.000001   0.000153  -0.000007  -0.000090
    22  H    0.000000   0.000000   0.000000   0.000000   0.000000   0.000001
    23  H    0.000000   0.000000   0.000000   0.000000   0.000000   0.000000
    24  H    0.000000   0.000000   0.000000   0.000000   0.000000  -0.000008
    25  H    0.000000   0.000000   0.000000   0.000052  -0.000394   0.017696
    26  H    0.011704  -0.003485   0.000096  -0.000009   0.000000   0.000000
    27  H    0.000321   0.001658  -0.000080  -0.000001   0.000000   0.000000
    28  H   -0.000409  -0.002124  -0.000066   0.000006   0.000000   0.000000
    29  H    0.000036  -0.002376   0.011324  -0.000245  -0.000004   0.000000
    30  H   -0.000028  -0.006528   0.000122   0.000052   0.000000   0.000000
    31  H   -0.000050   0.002439  -0.000085  -0.000009   0.000000   0.000000
               7          8          9         10         11         12
     1  O    0.000058  -0.000005   0.000000   0.000000   0.000000   0.000000
     2  S   -0.002021  -0.000065  -0.000009  -0.000001   0.000000   0.000000
     3  N   -0.074212   0.003174  -0.000097   0.000003   0.000000   0.000000
     4  C    0.495065  -0.041339   0.006365   0.001064  -0.000011   0.000000
     5  N   -0.065747  -0.088921   0.007430  -0.000366   0.000002   0.000000
     6  N   -0.099451   0.213412  -0.046272   0.003128  -0.000068   0.000017
     7  C    5.070575   0.305322  -0.038677  -0.007545   0.000002   0.000019
     8  N    0.305322   6.935802   0.204648  -0.050827   0.004634   0.000387
     9  C   -0.038677   0.204648   4.602330   0.528660  -0.006391  -0.038218
    10  C   -0.007545  -0.050827   0.528660   4.996566   0.529001  -0.039147
    11  C    0.000002   0.004634  -0.006391   0.529001   4.845987   0.549802
    12  C    0.000019   0.000387  -0.038218  -0.039147   0.549802   4.850255
    13  C   -0.000086   0.004613  -0.009596  -0.042490  -0.022603   0.544060
    14  C    0.007767  -0.056966   0.519561  -0.075717  -0.041652  -0.037026
    15  N   -0.000011   0.000000   0.000000   0.000000   0.000000   0.000000
    16  C    0.000002   0.000000   0.000000   0.000000   0.000000   0.000000
    17  C    0.000049   0.000000   0.000000   0.000000   0.000000   0.000000
    18  O    0.002148   0.000202  -0.000003   0.000004   0.000000   0.000000
    19  H    0.005775   0.000115  -0.000003   0.000000   0.000000   0.000000
    20  H    0.355845  -0.036224  -0.001707   0.001444   0.000190  -0.000002
    21  H    0.007043  -0.010302  -0.039353   0.348365  -0.038629   0.004480
    22  H   -0.000004  -0.000112   0.003539  -0.039392   0.359633  -0.040788
    23  H    0.000000   0.000004   0.000517   0.005034  -0.042737   0.362164
    24  H    0.000001  -0.000110   0.003480   0.000819   0.004624  -0.041795
    25  H    0.000274  -0.014570  -0.032756   0.005734   0.000150   0.004334
    26  H    0.000000   0.000000   0.000000   0.000000   0.000000   0.000000
    27  H    0.000000   0.000000   0.000000   0.000000   0.000000   0.000000
    28  H    0.000000   0.000000   0.000000   0.000000   0.000000   0.000000
    29  H    0.000008   0.000000   0.000000   0.000000   0.000000   0.000000
    30  H   -0.000007   0.000000   0.000000   0.000000   0.000000   0.000000
    31  H    0.000000   0.000000   0.000000   0.000000   0.000000   0.000000
              13         14         15         16         17         18
     1  O    0.000000   0.000000  -0.055478  -0.003434   0.001485  -0.046620
     2  S    0.000000   0.000000   0.133888  -0.031743  -0.006972   0.421634
     3  N    0.000000   0.000000  -0.048007   0.002063  -0.008114  -0.055099
     4  C    0.000006  -0.000494   0.002929  -0.000003  -0.000300  -0.004342
     5  N   -0.000006   0.000282  -0.000022   0.000000  -0.000001   0.000138
     6  N    0.000407  -0.000524   0.000000   0.000000   0.000000   0.000001
     7  C   -0.000086   0.007767  -0.000011   0.000002   0.000049   0.002148
     8  N    0.004613  -0.056966   0.000000   0.000000   0.000000   0.000202
     9  C   -0.009596   0.519561   0.000000   0.000000   0.000000  -0.000003
    10  C   -0.042490  -0.075717   0.000000   0.000000   0.000000   0.000004
    11  C   -0.022603  -0.041652   0.000000   0.000000   0.000000   0.000000
    12  C    0.544060  -0.037026   0.000000   0.000000   0.000000   0.000000
    13  C    4.868482   0.516484   0.000000   0.000000   0.000000   0.000000
    14  C    0.516484   4.988464   0.000000   0.000000   0.000000   0.000000
    15  N    0.000000   0.000000   7.210938   0.294558   0.269096  -0.054162
    16  C    0.000000   0.000000   0.294558   4.982435  -0.048862  -0.001789
    17  C    0.000000   0.000000   0.269096  -0.048862   4.978342   0.003806
    18  O    0.000000   0.000000  -0.054162  -0.001789   0.003806   8.260013
    19  H    0.000000   0.000000   0.003308  -0.000071  -0.000007   0.001645
    20  H   -0.000005  -0.000065   0.000037   0.000000  -0.000014   0.009706
    21  H    0.000275   0.005667   0.000000   0.000000   0.000000  -0.000018
    22  H    0.004597   0.000789   0.000000   0.000000   0.000000   0.000000
    23  H   -0.042783   0.004725   0.000000   0.000000   0.000000   0.000000
    24  H    0.360310  -0.038679   0.000000   0.000000   0.000000   0.000000
    25  H   -0.040642   0.353512   0.000000   0.000000   0.000000   0.000000
    26  H    0.000000   0.000000  -0.030186   0.377946   0.004277  -0.000041
    27  H    0.000000   0.000000  -0.040883   0.377867  -0.002640  -0.000094
    28  H    0.000000   0.000000  -0.048374   0.373887  -0.001423   0.001384
    29  H    0.000000   0.000000  -0.031872   0.004482   0.377749  -0.001763
    30  H    0.000000   0.000000  -0.046692  -0.001482   0.377048   0.004174
    31  H    0.000000   0.000000  -0.035800  -0.003730   0.373359   0.000080
              19         20         21         22         23         24
     1  O   -0.000057   0.000050   0.000000   0.000000   0.000000   0.000000
     2  S   -0.004679   0.001293  -0.000008   0.000000   0.000000   0.000000
     3  N    0.283753  -0.000702  -0.000001   0.000000   0.000000   0.000000
     4  C   -0.026281  -0.025073   0.000153   0.000000   0.000000   0.000000
     5  N    0.007065   0.004166  -0.000007   0.000000   0.000000   0.000000
     6  N   -0.000143   0.003120  -0.000090   0.000001   0.000000  -0.000008
     7  C    0.005775   0.355845   0.007043  -0.000004   0.000000   0.000001
     8  N    0.000115  -0.036224  -0.010302  -0.000112   0.000004  -0.000110
     9  C   -0.000003  -0.001707  -0.039353   0.003539   0.000517   0.003480
    10  C    0.000000   0.001444   0.348365  -0.039392   0.005034   0.000819
    11  C    0.000000   0.000190  -0.038629   0.359633  -0.042737   0.004624
    12  C    0.000000  -0.000002   0.004480  -0.040788   0.362164  -0.041795
    13  C    0.000000  -0.000005   0.000275   0.004597  -0.042783   0.360310
    14  C    0.000000  -0.000065   0.005667   0.000789   0.004725  -0.038679
    15  N    0.003308   0.000037   0.000000   0.000000   0.000000   0.000000
    16  C   -0.000071   0.000000   0.000000   0.000000   0.000000   0.000000
    17  C   -0.000007  -0.000014   0.000000   0.000000   0.000000   0.000000
    18  O    0.001645   0.009706  -0.000018   0.000000   0.000000   0.000000
    19  H    0.360309  -0.000128   0.000000   0.000000   0.000000   0.000000
    20  H   -0.000128   0.475353   0.002015  -0.000002   0.000000   0.000000
    21  H    0.000000   0.002015   0.578269  -0.005536  -0.000161   0.000015
    22  H    0.000000  -0.000002  -0.005536   0.581437  -0.005414  -0.000182
    23  H    0.000000   0.000000  -0.000161  -0.005414   0.586363  -0.005458
    24  H    0.000000   0.000000   0.000015  -0.000182  -0.005458   0.578891
    25  H    0.000000  -0.000009  -0.000141   0.000013  -0.000138  -0.005063
    26  H   -0.000014   0.000000   0.000000   0.000000   0.000000   0.000000
    27  H   -0.000001   0.000000   0.000000   0.000000   0.000000   0.000000
    28  H    0.000006   0.000000   0.000000   0.000000   0.000000   0.000000
    29  H   -0.000213   0.000019   0.000000   0.000000   0.000000   0.000000
    30  H    0.000007  -0.000006   0.000000   0.000000   0.000000   0.000000
    31  H   -0.000018   0.000000   0.000000   0.000000   0.000000   0.000000
              25         26         27         28         29         30
     1  O    0.000000   0.011704   0.000321  -0.000409   0.000036  -0.000028
     2  S    0.000000  -0.003485   0.001658  -0.002124  -0.002376  -0.006528
     3  N    0.000000   0.000096  -0.000080  -0.000066   0.011324   0.000122
     4  C    0.000052  -0.000009  -0.000001   0.000006  -0.000245   0.000052
     5  N   -0.000394   0.000000   0.000000   0.000000  -0.000004   0.000000
     6  N    0.017696   0.000000   0.000000   0.000000   0.000000   0.000000
     7  C    0.000274   0.000000   0.000000   0.000000   0.000008  -0.000007
     8  N   -0.014570   0.000000   0.000000   0.000000   0.000000   0.000000
     9  C   -0.032756   0.000000   0.000000   0.000000   0.000000   0.000000
    10  C    0.005734   0.000000   0.000000   0.000000   0.000000   0.000000
    11  C    0.000150   0.000000   0.000000   0.000000   0.000000   0.000000
    12  C    0.004334   0.000000   0.000000   0.000000   0.000000   0.000000
    13  C   -0.040642   0.000000   0.000000   0.000000   0.000000   0.000000
    14  C    0.353512   0.000000   0.000000   0.000000   0.000000   0.000000
    15  N    0.000000  -0.030186  -0.040883  -0.048374  -0.031872  -0.046692
    16  C    0.000000   0.377946   0.377867   0.373887   0.004482  -0.001482
    17  C    0.000000   0.004277  -0.002640  -0.001423   0.377749   0.377048
    18  O    0.000000  -0.000041  -0.000094   0.001384  -0.001763   0.004174
    19  H    0.000000  -0.000014  -0.000001   0.000006  -0.000213   0.000007
    20  H   -0.000009   0.000000   0.000000   0.000000   0.000019  -0.000006
    21  H   -0.000141   0.000000   0.000000   0.000000   0.000000   0.000000
    22  H    0.000013   0.000000   0.000000   0.000000   0.000000   0.000000
    23  H   -0.000138   0.000000   0.000000   0.000000   0.000000   0.000000
    24  H   -0.005063   0.000000   0.000000   0.000000   0.000000   0.000000
    25  H    0.532639   0.000000   0.000000   0.000000   0.000000   0.000000
    26  H    0.000000   0.477595  -0.020311  -0.028910  -0.000182  -0.000161
    27  H    0.000000  -0.020311   0.555809  -0.043002   0.000084  -0.001797
    28  H    0.000000  -0.028910  -0.043002   0.580219  -0.000189   0.007895
    29  H    0.000000  -0.000182   0.000084  -0.000189   0.499687  -0.029485
    30  H    0.000000  -0.000161  -0.001797   0.007895  -0.029485   0.564794
    31  H    0.000000   0.000003   0.005287  -0.001430  -0.023122  -0.037706
              31
     1  O   -0.000050
     2  S    0.002439
     3  N   -0.000085
     4  C   -0.000009
     5  N    0.000000
     6  N    0.000000
     7  C    0.000000
     8  N    0.000000
     9  C    0.000000
    10  C    0.000000
    11  C    0.000000
    12  C    0.000000
    13  C    0.000000
    14  C    0.000000
    15  N   -0.035800
    16  C   -0.003730
    17  C    0.373359
    18  O    0.000080
    19  H   -0.000018
    20  H    0.000000
    21  H    0.000000
    22  H    0.000000
    23  H    0.000000
    24  H    0.000000
    25  H    0.000000
    26  H    0.000003
    27  H    0.005287
    28  H   -0.001430
    29  H   -0.023122
    30  H   -0.037706
    31  H    0.552912
 Mulliken charges:
               1
     1  O   -0.503936
     2  S    1.293323
     3  N   -0.776609
     4  C    0.408618
     5  N   -0.340437
     6  N   -0.072988
     7  C    0.037809
     8  N   -0.372871
     9  C    0.336552
    10  C   -0.164338
    11  C   -0.141934
    12  C   -0.118542
    13  C   -0.141024
    14  C   -0.146130
    15  N   -0.523266
    16  C   -0.322126
    17  C   -0.316878
    18  O   -0.541005
    19  H    0.369633
    20  H    0.210697
    21  H    0.147964
    22  H    0.141420
    23  H    0.137884
    24  H    0.143155
    25  H    0.179308
    26  H    0.211678
    27  H    0.167783
    28  H    0.162531
    29  H    0.196062
    30  H    0.169799
    31  H    0.167869
 Sum of Mulliken charges =   0.00000
 Mulliken charges with hydrogens summed into heavy atoms:
               1
     1  O   -0.503936
     2  S    1.293323
     3  N   -0.406976
     4  C    0.408618
     5  N   -0.340437
     6  N   -0.072988
     7  C    0.248506
     8  N   -0.372871
     9  C    0.336552
    10  C   -0.016374
    11  C   -0.000513
    12  C    0.019342
    13  C    0.002131
    14  C    0.033178
    15  N   -0.523266
    16  C    0.219865
    17  C    0.216852
    18  O   -0.541005
 Electronic spatial extent (au):  <R**2>=           6958.6937
 Charge=              0.0000 electrons
 Dipole moment (field-independent basis, Debye):
    X=              0.8097    Y=             -2.7172    Z=             -2.2396  Tot=              3.6132
 Quadrupole moment (field-independent basis, Debye-Ang):
   XX=            -75.8229   YY=           -114.0288   ZZ=           -116.6379
   XY=              3.5524   XZ=            -10.9187   YZ=              3.4484
 Traceless Quadrupole moment (field-independent basis, Debye-Ang):
   XX=             26.3403   YY=            -11.8656   ZZ=            -14.4747
   XY=              3.5524   XZ=            -10.9187   YZ=              3.4484
 Octapole moment (field-independent basis, Debye-Ang**2):
  XXX=             60.9664  YYY=            -22.8122  ZZZ=             -6.1046  XYY=              3.6469
  XXY=            -23.4842  XXZ=             -5.7391  XZZ=             20.8343  YZZ=             -3.0584
  YYZ=              1.9283  XYZ=             -6.9252
 Hexadecapole moment (field-independent basis, Debye-Ang**3):
 XXXX=          -6626.9602 YYYY=           -905.6047 ZZZZ=           -453.2838 XXXY=            -40.6920
 XXXZ=           -145.1856 YYYX=             53.1691 YYYZ=             21.5561 ZZZX=            -14.8742
 ZZZY=             -0.6345 XXYY=          -1375.3121 XXZZ=          -1451.0651 YYZZ=           -228.1249
 XXYZ=             26.9315 YYXZ=             -9.6304 ZZXY=            -24.8424
 N-N= 1.454883612779D+03 E-N=-5.746299649658D+03  KE= 1.202119797085D+03
 No NMR shielding tensors so no spin-rotation constants.
 Leave Link  601 at Thu Aug  6 21:17:35 2020, MaxMem=    33554432 cpu:         0.2
 (Enter /prod/apps/gaussian/g09d1/l9999.exe)
 1\1\GINC-PIRINEUS21\SP\RB3LYP\6-31G(d)\C10H13N5O2S1\UBAFAR01\06-Aug-20
 20\0\\#p b3lyp/6-31G(d)\\SM46.n.7.pdb.xyz\\0,1\O,0,2.696,3.887,-1.864\
 S,0,1.68,2.945,-1.39\N,0,2.172,1.329,-1.528\C,0,2.016,0.675,-2.763\N,0
 ,3.001,-0.136,-3.231\N,0,2.601,-0.678,-4.353\C,0,0.951,0.648,-3.636\N,
 0,1.365,-0.202,-4.618\C,0,0.67,-0.598,-5.796\C,0,-0.715,-0.433,-5.871\
 C,0,-1.385,-0.814,-7.032\C,0,-0.681,-1.366,-8.103\C,0,0.701,-1.534,-8.
 01\C,0,1.387,-1.147,-6.862\N,0,1.681,3.025,0.276\C,0,1.957,4.353,0.842
 \C,0,0.591,2.293,0.936\O,0,0.343,2.986,-1.992\H,0,3.099,1.189,-1.129\H
 ,0,0.013,1.17,-3.64\H,0,-1.263,-0.023,-5.031\H,0,-2.459,-0.685,-7.092\
 H,0,-1.207,-1.665,-9.003\H,0,1.255,-1.96,-8.839\H,0,2.459,-1.261,-6.77
 6\H,0,2.794,4.803,0.313\H,0,2.229,4.209,1.889\H,0,1.087,5.019,0.79\H,0
 ,0.501,1.303,0.492\H,0,-0.367,2.82,0.861\H,0,0.861,2.184,1.988\\Versio
 n=AM64L-G09RevD.01\State=1-A\HF=-1211.1673747\RMSD=7.649e-09\Dipole=-1
 .1863911,-0.187743,0.7602458\Quadrupole=-6.6310392,-11.009315,17.64035
 42,2.9119816,4.2885335,10.1473307\PG=C01 [X(C10H13N5O2S1)]\\@


 BRING ME INTO THE COMPANY OF THOSE WHO SEEK TRUTH,
 AND DELIVER ME FROM THOSE WHO HAVE FOUND IT.
 Job cpu time:       0 days  0 hours  3 minutes 21.3 seconds.
 File lengths (MBytes):  RWF=     51 Int=      0 D2E=      0 Chk=      4 Scr=      1
 Normal termination of Gaussian 09 at Thu Aug  6 21:17:35 2020.
 Initial command:
 /prod/apps/gaussian/g09d1/l1.exe "/tmp/ubafar01/1448564/Gau-177593.inp" -scrdir="/tmp/ubafar01/1448564/"
 Entering Link 1 = /prod/apps/gaussian/g09d1/l1.exe PID=    177657.
  
 Copyright (c) 1988,1990,1992,1993,1995,1998,2003,2009,2013,
            Gaussian, Inc.  All Rights Reserved.
  
 This is part of the Gaussian(R) 09 program.  It is based on
 the Gaussian(R) 03 system (copyright 2003, Gaussian, Inc.),
 the Gaussian(R) 98 system (copyright 1998, Gaussian, Inc.),
 the Gaussian(R) 94 system (copyright 1995, Gaussian, Inc.),
 the Gaussian 92(TM) system (copyright 1992, Gaussian, Inc.),
 the Gaussian 90(TM) system (copyright 1990, Gaussian, Inc.),
 the Gaussian 88(TM) system (copyright 1988, Gaussian, Inc.),
 the Gaussian 86(TM) system (copyright 1986, Carnegie Mellon
 University), and the Gaussian 82(TM) system (copyright 1983,
 Carnegie Mellon University). Gaussian is a federally registered
 trademark of Gaussian, Inc.
  
 This software contains proprietary and confidential information,
 including trade secrets, belonging to Gaussian, Inc.
  
 This software is provided under written license and may be
 used, copied, transmitted, or stored only in accord with that
 written license.
  
 The following legend is applicable only to US Government
 contracts under FAR:
  
                    RESTRICTED RIGHTS LEGEND
  
 Use, reproduction and disclosure by the US Government is
 subject to restrictions as set forth in subparagraphs (a)
 and (c) of the Commercial Computer Software - Restricted
 Rights clause in FAR 52.227-19.
  
 Gaussian, Inc.
 340 Quinnipiac St., Bldg. 40, Wallingford CT 06492
  
  
 ---------------------------------------------------------------
 Warning -- This program may not be used in any manner that
 competes with the business of Gaussian, Inc. or will provide
 assistance to any competitor of Gaussian, Inc.  The licensee
 of this program is prohibited from giving any competitor of
 Gaussian, Inc. access to this program.  By using this program,
 the user acknowledges that Gaussian, Inc. is engaged in the
 business of creating and licensing software in the field of
 computational chemistry and represents and warrants to the
 licensee that it is not a competitor of Gaussian, Inc. and that
 it will not use this program in any manner prohibited above.
 ---------------------------------------------------------------
  

 Cite this work as:
 Gaussian 09, Revision D.01,
 M. J. Frisch, G. W. Trucks, H. B. Schlegel, G. E. Scuseria, 
 M. A. Robb, J. R. Cheeseman, G. Scalmani, V. Barone, B. Mennucci, 
 G. A. Petersson, H. Nakatsuji, M. Caricato, X. Li, H. P. Hratchian, 
 A. F. Izmaylov, J. Bloino, G. Zheng, J. L. Sonnenberg, M. Hada, 
 M. Ehara, K. Toyota, R. Fukuda, J. Hasegawa, M. Ishida, T. Nakajima, 
 Y. Honda, O. Kitao, H. Nakai, T. Vreven, J. A. Montgomery, Jr., 
 J. E. Peralta, F. Ogliaro, M. Bearpark, J. J. Heyd, E. Brothers, 
 K. N. Kudin, V. N. Staroverov, T. Keith, R. Kobayashi, J. Normand, 
 K. Raghavachari, A. Rendell, J. C. Burant, S. S. Iyengar, J. Tomasi, 
 M. Cossi, N. Rega, J. M. Millam, M. Klene, J. E. Knox, J. B. Cross, 
 V. Bakken, C. Adamo, J. Jaramillo, R. Gomperts, R. E. Stratmann, 
 O. Yazyev, A. J. Austin, R. Cammi, C. Pomelli, J. W. Ochterski, 
 R. L. Martin, K. Morokuma, V. G. Zakrzewski, G. A. Voth, 
 P. Salvador, J. J. Dannenberg, S. Dapprich, A. D. Daniels, 
 O. Farkas, J. B. Foresman, J. V. Ortiz, J. Cioslowski, 
 and D. J. Fox, Gaussian, Inc., Wallingford CT, 2013.
 
 ******************************************
 Gaussian 09:  AM64L-G09RevD.01 24-Apr-2013
                 6-Aug-2020 
 ******************************************
 %nproc=1
 Will use up to    1 processors via shared memory.
 %Chk=SM46.n.7.pdb.xyz.mst.n.o.chk
 %subst l301 /dades/curu/work_g09D01_MST_AddSphPartition_ReadGammas/exe-dir/
 %subst l502 /dades/curu/work_g09D01_MST_AddSphPartition_ReadGammas/exe-dir/
 ----------------------------------------------------------------------
 #p b3lyp/6-31G(d) scrf=(iefpcm,read,solvent=n-Octanol) geom=allcheck g
 uess=read
 ----------------------------------------------------------------------
 1/29=7,38=1,40=2/1;
 2/12=2,40=1/2;
 3/5=1,6=6,7=1,11=2,14=-4,16=1,25=1,30=1,70=2203,72=25,74=-5,116=-2/1,2,3;
 4/5=1/1;
 5/5=2,38=6,53=25/2;
 6/7=2,8=2,9=2,10=2,28=1/1;
 99/5=1,9=1/99;
 Leave Link    1 at Thu Aug  6 21:17:35 2020, MaxMem=           0 cpu:         0.0
 (Enter /prod/apps/gaussian/g09d1/l101.exe)
 Structure from the checkpoint file:  "SM46.n.7.pdb.xyz.mst.n.o.chk"
 ----------------
 SM46.n.7.pdb.xyz
 ----------------
 Charge =  0 Multiplicity = 1
 Z-Matrix found in file.
 O,0,2.696,3.887,-1.864
 S,0,1.68,2.945,-1.39
 N,0,2.172,1.329,-1.528
 C,0,2.016,0.675,-2.763
 N,0,3.001,-0.136,-3.231
 N,0,2.601,-0.678,-4.353
 C,0,0.951,0.648,-3.636
 N,0,1.365,-0.202,-4.618
 C,0,0.67,-0.598,-5.796
 C,0,-0.715,-0.433,-5.871
 C,0,-1.385,-0.814,-7.032
 C,0,-0.681,-1.366,-8.103
 C,0,0.701,-1.534,-8.01
 C,0,1.387,-1.147,-6.862
 N,0,1.681,3.025,0.276
 C,0,1.957,4.353,0.842
 C,0,0.591,2.293,0.936
 O,0,0.343,2.986,-1.992
 H,0,3.099,1.189,-1.129
 H,0,0.013,1.17,-3.64
 H,0,-1.263,-0.023,-5.031
 H,0,-2.459,-0.685,-7.092
 H,0,-1.207,-1.665,-9.003
 H,0,1.255,-1.96,-8.839
 H,0,2.459,-1.261,-6.776
 H,0,2.794,4.803,0.313
 H,0,2.229,4.209,1.889
 H,0,1.087,5.019,0.79
 H,0,0.501,1.303,0.492
 H,0,-0.367,2.82,0.861
 H,0,0.861,2.184,1.988
 Recover connectivity data from disk.
 NAtoms=     31 NQM=       31 NQMF=       0 NMMI=      0 NMMIF=      0
                NMic=       0 NMicF=      0.
                    Isotopes and Nuclear Properties:
 (Nuclear quadrupole moments (NQMom) in fm**2, nuclear magnetic moments (NMagM)
  in nuclear magnetons)

  Atom         1           2           3           4           5           6           7           8           9          10
 IAtWgt=          16          32          14          12          14          14          12          14          12          12
 AtmWgt=  15.9949146  31.9720718  14.0030740  12.0000000  14.0030740  14.0030740  12.0000000  14.0030740  12.0000000  12.0000000
 NucSpn=           0           0           2           0           2           2           0           2           0           0
 AtZEff=  -5.6000000 -13.6000000  -4.5500000  -3.6000000  -4.5500000  -4.5500000  -3.6000000  -4.5500000  -3.6000000  -3.6000000
 NQMom=    0.0000000   0.0000000   2.0440000   0.0000000   2.0440000   2.0440000   0.0000000   2.0440000   0.0000000   0.0000000
 NMagM=    0.0000000   0.0000000   0.4037610   0.0000000   0.4037610   0.4037610   0.0000000   0.4037610   0.0000000   0.0000000
 AtZNuc=   8.0000000  16.0000000   7.0000000   6.0000000   7.0000000   7.0000000   6.0000000   7.0000000   6.0000000   6.0000000

  Atom        11          12          13          14          15          16          17          18          19          20
 IAtWgt=          12          12          12          12          14          12          12          16           1           1
 AtmWgt=  12.0000000  12.0000000  12.0000000  12.0000000  14.0030740  12.0000000  12.0000000  15.9949146   1.0078250   1.0078250
 NucSpn=           0           0           0           0           2           0           0           0           1           1
 AtZEff=  -3.6000000  -3.6000000  -3.6000000  -3.6000000  -4.5500000  -3.6000000  -3.6000000  -5.6000000  -1.0000000  -1.0000000
 NQMom=    0.0000000   0.0000000   0.0000000   0.0000000   2.0440000   0.0000000   0.0000000   0.0000000   0.0000000   0.0000000
 NMagM=    0.0000000   0.0000000   0.0000000   0.0000000   0.4037610   0.0000000   0.0000000   0.0000000   2.7928460   2.7928460
 AtZNuc=   6.0000000   6.0000000   6.0000000   6.0000000   7.0000000   6.0000000   6.0000000   8.0000000   1.0000000   1.0000000

  Atom        21          22          23          24          25          26          27          28          29          30
 IAtWgt=           1           1           1           1           1           1           1           1           1           1
 AtmWgt=   1.0078250   1.0078250   1.0078250   1.0078250   1.0078250   1.0078250   1.0078250   1.0078250   1.0078250   1.0078250
 NucSpn=           1           1           1           1           1           1           1           1           1           1
 AtZEff=  -1.0000000  -1.0000000  -1.0000000  -1.0000000  -1.0000000  -1.0000000  -1.0000000  -1.0000000  -1.0000000  -1.0000000
 NQMom=    0.0000000   0.0000000   0.0000000   0.0000000   0.0000000   0.0000000   0.0000000   0.0000000   0.0000000   0.0000000
 NMagM=    2.7928460   2.7928460   2.7928460   2.7928460   2.7928460   2.7928460   2.7928460   2.7928460   2.7928460   2.7928460
 AtZNuc=   1.0000000   1.0000000   1.0000000   1.0000000   1.0000000   1.0000000   1.0000000   1.0000000   1.0000000   1.0000000

  Atom        31
 IAtWgt=           1
 AtmWgt=   1.0078250
 NucSpn=           1
 AtZEff=  -1.0000000
 NQMom=    0.0000000
 NMagM=    2.7928460
 AtZNuc=   1.0000000
 Leave Link  101 at Thu Aug  6 21:17:35 2020, MaxMem=    33554432 cpu:         0.0
 (Enter /prod/apps/gaussian/g09d1/l202.exe)
                          Input orientation:                          
 ---------------------------------------------------------------------
 Center     Atomic      Atomic             Coordinates (Angstroms)
 Number     Number       Type             X           Y           Z
 ---------------------------------------------------------------------
      1          8           0        2.696000    3.887000   -1.864000
      2         16           0        1.680000    2.945000   -1.390000
      3          7           0        2.172000    1.329000   -1.528000
      4          6           0        2.016000    0.675000   -2.763000
      5          7           0        3.001000   -0.136000   -3.231000
      6          7           0        2.601000   -0.678000   -4.353000
      7          6           0        0.951000    0.648000   -3.636000
      8          7           0        1.365000   -0.202000   -4.618000
      9          6           0        0.670000   -0.598000   -5.796000
     10          6           0       -0.715000   -0.433000   -5.871000
     11          6           0       -1.385000   -0.814000   -7.032000
     12          6           0       -0.681000   -1.366000   -8.103000
     13          6           0        0.701000   -1.534000   -8.010000
     14          6           0        1.387000   -1.147000   -6.862000
     15          7           0        1.681000    3.025000    0.276000
     16          6           0        1.957000    4.353000    0.842000
     17          6           0        0.591000    2.293000    0.936000
     18          8           0        0.343000    2.986000   -1.992000
     19          1           0        3.099000    1.189000   -1.129000
     20          1           0        0.013000    1.170000   -3.640000
     21          1           0       -1.263000   -0.023000   -5.031000
     22          1           0       -2.459000   -0.685000   -7.092000
     23          1           0       -1.207000   -1.665000   -9.003000
     24          1           0        1.255000   -1.960000   -8.839000
     25          1           0        2.459000   -1.261000   -6.776000
     26          1           0        2.794000    4.803000    0.313000
     27          1           0        2.229000    4.209000    1.889000
     28          1           0        1.087000    5.019000    0.790000
     29          1           0        0.501000    1.303000    0.492000
     30          1           0       -0.367000    2.820000    0.861000
     31          1           0        0.861000    2.184000    1.988000
 ---------------------------------------------------------------------
                    Distance matrix (angstroms):
                    1          2          3          4          5
     1  O    0.000000
     2  S    1.464341   0.000000
     3  N    2.632648   1.694864   0.000000
     4  C    3.404048   2.674121   1.406157   0.000000
     5  N    4.259841   3.824511   2.394509   1.359033   0.000000
     6  N    5.200324   4.770088   3.491807   2.168164   1.308682
     7  C    4.083642   3.294263   2.529479   1.377346   2.231856
     8  N    5.106466   4.519161   3.541654   2.152662   2.145838
     9  C    6.299248   5.743325   4.917841   3.554059   3.496603
    10  C    6.808331   6.101333   5.504640   4.283187   4.567983
    11  C    8.090871   7.440193   6.894832   5.657586   5.843311
    12  C    8.827415   8.320061   7.657236   6.321004   6.229479
    13  C    8.434488   8.052595   7.237191   5.842937   5.484820
    14  C    7.213504   6.839086   5.932820   4.529583   4.100156
    15  N    2.520490   1.667920   2.524265   3.856196   4.902384
    16  C    2.843539   2.653491   3.848078   5.150455   6.150641
    17  C    3.848618   2.649774   3.082232   4.281489   5.391848
    18  O    2.522854   1.466852   2.511212   2.955350   4.283336
    19  H    2.825215   2.272712   1.018887   2.026584   2.486691
    20  H    4.211265   3.315421   3.024418   2.241911   3.286497
    21  H    6.402474   5.543208   5.089021   4.047576   4.629737
    22  H    8.649231   7.925972   7.514017   6.373026   6.709718
    23  H    9.850047   9.356529   8.732543   7.402765   7.304867
    24  H    9.214907   8.929012   8.069023   6.666342   6.150216
    25  H    7.119397   6.877956   5.859349   4.477557   3.758512
    26  H    2.363893   2.755607   3.980558   5.206481   6.082475
    27  H    3.795627   3.556816   4.469176   5.845993   6.759394
    28  H    3.303638   3.066843   4.490707   5.688338   6.812185
    29  H    4.128658   2.761907   2.621701   3.644809   4.709719
    30  H    4.236282   3.045133   3.791691   4.838707   6.068428
    31  H    4.594055   3.558197   3.848636   5.116943   6.099177
                    6          7          8          9         10
     6  N    0.000000
     7  C    2.234919   0.000000
     8  N    1.350739   1.363165   0.000000
     9  C    2.411931   2.509398   1.423912   0.000000
    10  C    3.655161   2.989873   2.439215   1.396809   0.000000
    11  C    4.804553   4.373460   3.710046   2.407774   1.393550
    12  C    5.030643   5.164660   4.205501   2.781596   2.419394
    13  C    4.209084   4.894436   3.704158   2.403924   2.791519
    14  C    2.826453   3.717418   2.434963   1.397085   2.431107
    15  N    5.998854   4.635383   5.870658   7.142649   7.448771
    16  C    7.260422   5.898436   7.135131   8.380442   8.666588
    17  C    6.390654   4.872249   6.137672   7.326933   7.447950
    18  O    4.908949   2.922096   4.254845   5.236640   5.277837
    19  H    3.758706   3.345390   4.136999   5.556465   6.297940
    20  H    3.259021   1.073473   2.160271   2.864578   2.841998
    21  H    3.977336   2.701493   2.666270   2.156928   1.083515
    22  H    5.753761   5.034772   4.580059   3.387894   2.143801
    23  H    6.090774   6.229897   5.289970   3.866066   3.401369
    24  H    4.855866   5.827975   4.573785   3.384836   3.875778
    25  H    2.496194   3.972146   2.641076   2.144875   3.402776
    26  H    7.200706   6.021235   7.169855   8.426272   8.830098
    27  H    7.936228   6.696240   7.908506   9.197660   9.509621
    28  H    7.822944   6.222026   7.522140   8.666024   8.794341
    29  H    5.639892   4.203797   5.396631   6.571248   6.706722
    30  H    6.944842   5.165048   6.492438   7.554717   7.484847
    31  H    7.171257   5.830675   7.041750   8.268413   8.431865
                   11         12         13         14         15
    11  C    0.000000
    12  C    1.395479   0.000000
    13  C    2.413769   1.395277   0.000000
    14  C    2.797101   2.421707   1.392217   0.000000
    15  N    8.805972   9.750260   9.508032   8.273032   0.000000
    16  C    9.993334  10.939791  10.704775   9.482959   1.469733
    17  C    8.777645   9.834113   9.730824   8.560141   1.469532
    18  O    6.544279   7.571843   7.534911   6.472135   2.633551
    19  H    7.678781   8.333853   7.779029   6.423016   2.712129
    20  H    4.170890   5.179894   5.184772   4.199720   4.643092
    21  H    2.155126   3.402875   3.874901   3.411515   6.791295
    22  H    1.083382   2.155729   3.398400   3.880472   9.229904
    23  H    2.154234   1.084471   2.154919   3.403093  10.790574
    24  H    3.398259   2.154676   1.084266   2.141710  10.397833
    25  H    3.878361   3.410506   2.165144   1.081469   8.288895
    26  H   10.147106  10.998238  10.668203   9.426705   2.097957
    27  H   10.857061  11.806303  11.545867  10.294450   2.074591
    28  H   10.065702  11.089612  10.978652   9.831717   2.143144
    29  H    8.040476   9.077153   8.965075   7.801847   2.098652
    30  H    8.748813   9.898206   9.939446   8.857671   2.139756
    31  H    9.766930  10.807800  10.668136   9.470731   2.076204
                   16         17         18         19         20
    16  C    0.000000
    17  C    2.473538   0.000000
    18  O    3.536275   3.019095   0.000000
    19  H    3.898705   3.431196   3.401399   0.000000
    20  H    5.830862   4.747103   2.474401   3.978552   0.000000
    21  H    8.000619   6.663802   4.568242   5.976754   2.233004
    22  H   10.384164   9.089542   6.880221   8.364246   4.633370
    23  H   11.964583  10.848147   8.555023   9.417368   6.187681
    24  H   11.578797  10.680802   8.495650   8.529985   6.194277
    25  H    9.476440   8.694555   6.738035   6.188757   4.661242
    26  H    1.087617   3.397269   3.823861   3.902997   6.046392
    27  H    1.091297   2.694867   4.484962   4.357250   6.687004
    28  H    1.096887   2.774601   3.525074   4.732822   5.966002
    29  H    3.397784   1.088731   3.004615   3.064350   4.162842
    30  H    2.784138   1.095955   2.944701   4.316644   4.808940
    31  H    2.686837   1.091552   4.092912   3.964134   5.781149
                   21         22         23         24         25
    21  H    0.000000
    22  H    2.473132   0.000000
    23  H    4.298382   2.485925   0.000000
    24  H    4.959149   4.297840   2.485028   0.000000
    25  H    4.293129   4.961689   4.308399   2.488812   0.000000
    26  H    8.264857  10.608778  12.026258  11.483283   9.334787
    27  H    8.831211  11.251086  12.843116  12.413510  10.249684
    28  H    8.051603  10.355465  12.076471  11.893372   9.927998
    29  H    5.947563   8.380382  10.093627   9.913791   7.951835
    30  H    6.603115   8.939334  10.868271  10.934774   9.108491
    31  H    7.658236  10.084640  11.827659  11.599651   9.551404
                   26         27         28         29         30
    26  H    0.000000
    27  H    1.776468   0.000000
    28  H    1.785507   1.779906   0.000000
    29  H    4.188065   3.658200   3.773706   0.000000
    30  H    3.771540   3.118545   2.637188   1.786302   0.000000
    31  H    3.660775   2.445782   3.086018   1.773070   1.783987
                   31
    31  H    0.000000
 Stoichiometry    C10H13N5O2S
 Framework group  C1[X(C10H13N5O2S)]
 Deg. of freedom    87
 Full point group                 C1      NOp   1
 RotChk:  IX=0 Diff= 6.97D-16
 Largest Abelian subgroup         C1      NOp   1
 Largest concise Abelian subgroup C1      NOp   1
                         Standard orientation:                         
 ---------------------------------------------------------------------
 Center     Atomic      Atomic             Coordinates (Angstroms)
 Number     Number       Type             X           Y           Z
 ---------------------------------------------------------------------
      1          8           0        2.917522    0.529013    1.783016
      2         16           0        2.630480   -0.138814    0.511831
      3          7           0        1.750052    0.839406   -0.556109
      4          6           0        0.351696    0.902859   -0.422504
[...]
 Alpha virt. eigenvalues --    0.76544   0.77651   0.78731   0.80537   0.80768
 Alpha virt. eigenvalues --    0.81827   0.82440   0.83437   0.83759   0.85435
 Alpha virt. eigenvalues --    0.85781   0.86145   0.86595   0.87706   0.88755
 Alpha virt. eigenvalues --    0.89978   0.90946   0.91246   0.92470   0.93181
 Alpha virt. eigenvalues --    0.93934   0.94398   0.95950   0.96081   0.97064
 Alpha virt. eigenvalues --    0.98380   0.99762   1.00608   1.02963   1.03618
 Alpha virt. eigenvalues --    1.05694   1.06120   1.07395   1.10161   1.12354
 Alpha virt. eigenvalues --    1.14198   1.15099   1.15996   1.16463   1.18026
 Alpha virt. eigenvalues --    1.19836   1.20925   1.21540   1.23408   1.24791
 Alpha virt. eigenvalues --    1.25707   1.29045   1.30333   1.35951   1.37282
 Alpha virt. eigenvalues --    1.39148   1.39827   1.41306   1.41806   1.43849
 Alpha virt. eigenvalues --    1.44578   1.46160   1.46608   1.47704   1.49616
 Alpha virt. eigenvalues --    1.52937   1.54012   1.56342   1.58741   1.58930
 Alpha virt. eigenvalues --    1.61865   1.63151   1.65755   1.71280   1.73346
 Alpha virt. eigenvalues --    1.78125   1.79053   1.79652   1.80533   1.80970
 Alpha virt. eigenvalues --    1.81526   1.82772   1.84771   1.86752   1.87827
 Alpha virt. eigenvalues --    1.89951   1.91178   1.93416   1.94141   1.94491
 Alpha virt. eigenvalues --    1.96566   1.97401   1.99036   1.99789   2.03833
 Alpha virt. eigenvalues --    2.05209   2.06337   2.07821   2.08913   2.10828
 Alpha virt. eigenvalues --    2.11834   2.12596   2.13706   2.14041   2.14987
 Alpha virt. eigenvalues --    2.16646   2.19059   2.20225   2.21256   2.23307
 Alpha virt. eigenvalues --    2.24108   2.25300   2.28277   2.29214   2.31146
 Alpha virt. eigenvalues --    2.32280   2.32617   2.33473   2.36696   2.41785
 Alpha virt. eigenvalues --    2.42770   2.46499   2.50428   2.51120   2.52167
 Alpha virt. eigenvalues --    2.54948   2.57909   2.58584   2.59843   2.62891
 Alpha virt. eigenvalues --    2.64777   2.67194   2.69105   2.70207   2.71628
 Alpha virt. eigenvalues --    2.74306   2.75087   2.78008   2.80632   2.82315
 Alpha virt. eigenvalues --    2.87037   2.88942   3.00610   3.06892   3.13994
 Alpha virt. eigenvalues --    3.26622   3.42259   3.61708   3.81800   3.88604
 Alpha virt. eigenvalues --    3.94444   3.98771   4.00225   4.07585   4.10088
 Alpha virt. eigenvalues --    4.11495   4.13512   4.17699   4.22904   4.24975
 Alpha virt. eigenvalues --    4.30840   4.31514   4.38680   4.47842   4.70997
          Condensed to atoms (all electrons):
               1          2          3          4          5          6
     1  O    8.213786   0.459558  -0.057125   0.000557  -0.000083  -0.000001
     2  S    0.459558  13.625507   0.135043  -0.021834  -0.001420   0.000051
     3  N   -0.057125   0.135043   7.386084   0.255990  -0.064424   0.006701
     4  C    0.000557  -0.021834   0.255990   4.631900   0.388869  -0.078508
     5  N   -0.000083  -0.001420  -0.064424   0.388869   6.878045   0.299477
     6  N   -0.000001   0.000051   0.006701  -0.078508   0.299477   6.756213
     7  C    0.000068  -0.001691  -0.072460   0.503687  -0.066852  -0.099998
     8  N   -0.000005  -0.000071   0.003084  -0.038695  -0.093075   0.226770
     9  C    0.000000  -0.000010  -0.000100   0.005775   0.007365  -0.045868
    10  C    0.000000  -0.000001   0.000003   0.001098  -0.000365   0.003098
    11  C    0.000000   0.000000   0.000000  -0.000011   0.000003  -0.000068
    12  C    0.000000   0.000000   0.000000   0.000000   0.000000   0.000018
    13  C    0.000000   0.000000   0.000000   0.000006  -0.000006   0.000372
    14  C    0.000000   0.000000   0.000000  -0.000479   0.000303  -0.001102
    15  N   -0.056309   0.146799  -0.048609   0.002940  -0.000023   0.000000
    16  C   -0.003658  -0.031437   0.001949  -0.000004   0.000000   0.000000
    17  C    0.001404  -0.008329  -0.007952  -0.000289  -0.000001   0.000000
    18  O   -0.046292   0.421611  -0.055964  -0.004122   0.000139   0.000002
    19  H   -0.000122  -0.004108   0.285616  -0.024615   0.006219  -0.000126
    20  H    0.000049   0.001397  -0.000745  -0.026021   0.004213   0.003198
    21  H    0.000000  -0.000008  -0.000001   0.000175  -0.000009  -0.000092
    22  H    0.000000   0.000000   0.000000   0.000000   0.000000   0.000001
    23  H    0.000000   0.000000   0.000000   0.000000   0.000000   0.000000
    24  H    0.000000   0.000000   0.000000   0.000000   0.000000  -0.000008
    25  H    0.000000   0.000000   0.000000   0.000049  -0.000388   0.017790
    26  H    0.011159  -0.003801   0.000090  -0.000010   0.000000   0.000000
    27  H    0.000300   0.001763  -0.000082  -0.000001   0.000000   0.000000
    28  H   -0.000389  -0.002339  -0.000062   0.000006   0.000000   0.000000
    29  H    0.000034  -0.001817   0.010585  -0.000268  -0.000004   0.000000
    30  H   -0.000027  -0.007045   0.000110   0.000053   0.000000   0.000000
    31  H   -0.000049   0.002447  -0.000082  -0.000009   0.000000   0.000000
               7          8          9         10         11         12
     1  O    0.000068  -0.000005   0.000000   0.000000   0.000000   0.000000
     2  S   -0.001691  -0.000071  -0.000010  -0.000001   0.000000   0.000000
     3  N   -0.072460   0.003084  -0.000100   0.000003   0.000000   0.000000
     4  C    0.503687  -0.038695   0.005775   0.001098  -0.000011   0.000000
     5  N   -0.066852  -0.093075   0.007365  -0.000365   0.000003   0.000000
     6  N   -0.099998   0.226770  -0.045868   0.003098  -0.000068   0.000018
     7  C    5.051167   0.311847  -0.037049  -0.007223  -0.000001   0.000020
     8  N    0.311847   6.915903   0.203079  -0.050892   0.004634   0.000351
     9  C   -0.037049   0.203079   4.616583   0.527960  -0.007842  -0.038368
    10  C   -0.007223  -0.050892   0.527960   4.998533   0.528652  -0.040049
    11  C   -0.000001   0.004634  -0.007842   0.528652   4.853278   0.546932
    12  C    0.000020   0.000351  -0.038368  -0.040049   0.546932   4.860153
    13  C   -0.000086   0.004607  -0.010133  -0.042584  -0.023678   0.541931
    14  C    0.007674  -0.057920   0.516975  -0.074122  -0.041498  -0.038120
    15  N   -0.000014   0.000000   0.000000   0.000000   0.000000   0.000000
    16  C    0.000001   0.000000   0.000000   0.000000   0.000000   0.000000
    17  C    0.000045   0.000000   0.000000   0.000000   0.000000   0.000000
    18  O    0.001965   0.000195  -0.000003   0.000004   0.000000   0.000000
    19  H    0.005401   0.000104  -0.000002   0.000000   0.000000   0.000000
    20  H    0.356429  -0.035253  -0.001851   0.001628   0.000188  -0.000002
    21  H    0.006797  -0.009971  -0.039964   0.351297  -0.036151   0.004366
    22  H   -0.000003  -0.000109   0.003450  -0.038133   0.362029  -0.039781
    23  H    0.000000   0.000004   0.000504   0.004934  -0.041635   0.364410
    24  H    0.000001  -0.000106   0.003511   0.000763   0.004537  -0.040558
    25  H    0.000261  -0.014544  -0.036202   0.005688   0.000104   0.004433
    26  H    0.000000   0.000000   0.000000   0.000000   0.000000   0.000000
    27  H    0.000000   0.000000   0.000000   0.000000   0.000000   0.000000
    28  H    0.000000   0.000000   0.000000   0.000000   0.000000   0.000000
    29  H    0.000015   0.000000   0.000000   0.000000   0.000000   0.000000
    30  H   -0.000007   0.000000   0.000000   0.000000   0.000000   0.000000
    31  H    0.000000   0.000000   0.000000   0.000000   0.000000   0.000000
              13         14         15         16         17         18
     1  O    0.000000   0.000000  -0.056309  -0.003658   0.001404  -0.046292
     2  S    0.000000   0.000000   0.146799  -0.031437  -0.008329   0.421611
     3  N    0.000000   0.000000  -0.048609   0.001949  -0.007952  -0.055964
     4  C    0.000006  -0.000479   0.002940  -0.000004  -0.000289  -0.004122
     5  N   -0.000006   0.000303  -0.000023   0.000000  -0.000001   0.000139
     6  N    0.000372  -0.001102   0.000000   0.000000   0.000000   0.000002
     7  C   -0.000086   0.007674  -0.000014   0.000001   0.000045   0.001965
     8  N    0.004607  -0.057920   0.000000   0.000000   0.000000   0.000195
     9  C   -0.010133   0.516975   0.000000   0.000000   0.000000  -0.000003
    10  C   -0.042584  -0.074122   0.000000   0.000000   0.000000   0.000004
    11  C   -0.023678  -0.041498   0.000000   0.000000   0.000000   0.000000
    12  C    0.541931  -0.038120   0.000000   0.000000   0.000000   0.000000
    13  C    4.874400   0.517770   0.000000   0.000000   0.000000   0.000000
    14  C    0.517770   4.995952   0.000000   0.000000   0.000000   0.000000
    15  N    0.000000   0.000000   7.205799   0.289311   0.266329  -0.054471
    16  C    0.000000   0.000000   0.289311   4.986205  -0.048123  -0.001709
    17  C    0.000000   0.000000   0.266329  -0.048123   4.981473   0.003628
    18  O    0.000000   0.000000  -0.054471  -0.001709   0.003628   8.271031
    19  H    0.000000   0.000000   0.002939  -0.000054  -0.000022   0.001505
    20  H   -0.000004  -0.000068   0.000037   0.000000  -0.000014   0.009717
    21  H    0.000256   0.005382   0.000000   0.000000   0.000000  -0.000018
    22  H    0.004485   0.000765   0.000000   0.000000   0.000000   0.000000
    23  H   -0.041836   0.004650   0.000000   0.000000   0.000000   0.000000
    24  H    0.362425  -0.038341   0.000000   0.000000   0.000000   0.000000
    25  H   -0.039668   0.354763   0.000000   0.000000   0.000000   0.000000
    26  H    0.000000   0.000000  -0.030982   0.377394   0.004253  -0.000044
    27  H    0.000000   0.000000  -0.039435   0.380448  -0.002534  -0.000092
    28  H    0.000000   0.000000  -0.047979   0.375031  -0.001239   0.001363
    29  H    0.000000   0.000000  -0.032322   0.004419   0.377110  -0.001795
    30  H    0.000000   0.000000  -0.046495  -0.001442   0.378277   0.004156
    31  H    0.000000   0.000000  -0.034616  -0.003612   0.376308   0.000074
              19         20         21         22         23         24
     1  O   -0.000122   0.000049   0.000000   0.000000   0.000000   0.000000
     2  S   -0.004108   0.001397  -0.000008   0.000000   0.000000   0.000000
     3  N    0.285616  -0.000745  -0.000001   0.000000   0.000000   0.000000
     4  C   -0.024615  -0.026021   0.000175   0.000000   0.000000   0.000000
     5  N    0.006219   0.004213  -0.000009   0.000000   0.000000   0.000000
     6  N   -0.000126   0.003198  -0.000092   0.000001   0.000000  -0.000008
     7  C    0.005401   0.356429   0.006797  -0.000003   0.000000   0.000001
     8  N    0.000104  -0.035253  -0.009971  -0.000109   0.000004  -0.000106
     9  C   -0.000002  -0.001851  -0.039964   0.003450   0.000504   0.003511
    10  C    0.000000   0.001628   0.351297  -0.038133   0.004934   0.000763
    11  C    0.000000   0.000188  -0.036151   0.362029  -0.041635   0.004537
    12  C    0.000000  -0.000002   0.004366  -0.039781   0.364410  -0.040558
    13  C    0.000000  -0.000004   0.000256   0.004485  -0.041836   0.362425
    14  C    0.000000  -0.000068   0.005382   0.000765   0.004650  -0.038341
    15  N    0.002939   0.000037   0.000000   0.000000   0.000000   0.000000
    16  C   -0.000054   0.000000   0.000000   0.000000   0.000000   0.000000
    17  C   -0.000022  -0.000014   0.000000   0.000000   0.000000   0.000000
    18  O    0.001505   0.009717  -0.000018   0.000000   0.000000   0.000000
    19  H    0.337533  -0.000116   0.000000   0.000000   0.000000   0.000000
    20  H   -0.000116   0.467117   0.001735  -0.000002   0.000000   0.000000
    21  H    0.000000   0.001735   0.558868  -0.005260  -0.000152   0.000014
    22  H    0.000000  -0.000002  -0.005260   0.561633  -0.005155  -0.000172
    23  H    0.000000   0.000000  -0.000152  -0.005155   0.567869  -0.005227
    24  H    0.000000   0.000000   0.000014  -0.000172  -0.005227   0.562867
    25  H    0.000000  -0.000009  -0.000136   0.000013  -0.000135  -0.005090
    26  H   -0.000014   0.000000   0.000000   0.000000   0.000000   0.000000
    27  H   -0.000002   0.000000   0.000000   0.000000   0.000000   0.000000
    28  H    0.000005   0.000000   0.000000   0.000000   0.000000   0.000000
    29  H   -0.000166   0.000018   0.000000   0.000000   0.000000   0.000000
    30  H    0.000007  -0.000007   0.000000   0.000000   0.000000   0.000000
    31  H   -0.000017   0.000000   0.000000   0.000000   0.000000   0.000000
              25         26         27         28         29         30
     1  O    0.000000   0.011159   0.000300  -0.000389   0.000034  -0.000027
     2  S    0.000000  -0.003801   0.001763  -0.002339  -0.001817  -0.007045
     3  N    0.000000   0.000090  -0.000082  -0.000062   0.010585   0.000110
     4  C    0.000049  -0.000010  -0.000001   0.000006  -0.000268   0.000053
     5  N   -0.000388   0.000000   0.000000   0.000000  -0.000004   0.000000
     6  N    0.017790   0.000000   0.000000   0.000000   0.000000   0.000000
     7  C    0.000261   0.000000   0.000000   0.000000   0.000015  -0.000007
     8  N   -0.014544   0.000000   0.000000   0.000000   0.000000   0.000000
     9  C   -0.036202   0.000000   0.000000   0.000000   0.000000   0.000000
    10  C    0.005688   0.000000   0.000000   0.000000   0.000000   0.000000
    11  C    0.000104   0.000000   0.000000   0.000000   0.000000   0.000000
    12  C    0.004433   0.000000   0.000000   0.000000   0.000000   0.000000
    13  C   -0.039668   0.000000   0.000000   0.000000   0.000000   0.000000
    14  C    0.354763   0.000000   0.000000   0.000000   0.000000   0.000000
    15  N    0.000000  -0.030982  -0.039435  -0.047979  -0.032322  -0.046495
    16  C    0.000000   0.377394   0.380448   0.375031   0.004419  -0.001442
    17  C    0.000000   0.004253  -0.002534  -0.001239   0.377110   0.378277
    18  O    0.000000  -0.000044  -0.000092   0.001363  -0.001795   0.004156
    19  H    0.000000  -0.000014  -0.000002   0.000005  -0.000166   0.000007
    20  H   -0.000009   0.000000   0.000000   0.000000   0.000018  -0.000007
    21  H   -0.000136   0.000000   0.000000   0.000000   0.000000   0.000000
    22  H    0.000013   0.000000   0.000000   0.000000   0.000000   0.000000
    23  H   -0.000135   0.000000   0.000000   0.000000   0.000000   0.000000
    24  H   -0.005090   0.000000   0.000000   0.000000   0.000000   0.000000
    25  H    0.537890   0.000000   0.000000   0.000000   0.000000   0.000000
    26  H    0.000000   0.487527  -0.019981  -0.029481  -0.000187  -0.000153
    27  H    0.000000  -0.019981   0.534262  -0.040459   0.000083  -0.001707
    28  H    0.000000  -0.029481  -0.040459   0.571377  -0.000181   0.007572
    29  H    0.000000  -0.000187   0.000083  -0.000181   0.500693  -0.029730
    30  H    0.000000  -0.000153  -0.001707   0.007572  -0.029730   0.559082
    31  H    0.000000   0.000010   0.004957  -0.001348  -0.022330  -0.035574
              31
     1  O   -0.000049
     2  S    0.002447
     3  N   -0.000082
     4  C   -0.000009
     5  N    0.000000
     6  N    0.000000
     7  C    0.000000
     8  N    0.000000
     9  C    0.000000
    10  C    0.000000
    11  C    0.000000
    12  C    0.000000
    13  C    0.000000
    14  C    0.000000
    15  N   -0.034616
    16  C   -0.003612
    17  C    0.376308
    18  O    0.000074
    19  H   -0.000017
    20  H    0.000000
    21  H    0.000000
    22  H    0.000000
    23  H    0.000000
    24  H    0.000000
    25  H    0.000000
    26  H    0.000010
    27  H    0.004957
    28  H   -0.001348
    29  H   -0.022330
    30  H   -0.035574
    31  H    0.531472
 Mulliken charges:
               1
     1  O   -0.522856
     2  S    1.289737
     3  N   -0.777650
     4  C    0.403760
     5  N   -0.357981
     6  N   -0.087919
     7  C    0.040005
     8  N   -0.369937
     9  C    0.332190
    10  C   -0.170289
    11  C   -0.149471
    12  C   -0.125735
    13  C   -0.148258
    14  C   -0.152584
    15  N   -0.522899
    16  C   -0.324720
    17  C   -0.320323
    18  O   -0.550881
    19  H    0.390035
    20  H    0.218365
    21  H    0.162873
    22  H    0.156239
    23  H    0.151770
    24  H    0.155382
    25  H    0.175182
    26  H    0.204220
    27  H    0.182479
    28  H    0.168123
    29  H    0.195843
    30  H    0.172929
    31  H    0.182368
 Sum of Mulliken charges =   0.00000
 Mulliken charges with hydrogens summed into heavy atoms:
               1
     1  O   -0.522856
     2  S    1.289737
     3  N   -0.387616
     4  C    0.403760
     5  N   -0.357981
     6  N   -0.087919
     7  C    0.258371
     8  N   -0.369937
     9  C    0.332190
    10  C   -0.007416
    11  C    0.006768
    12  C    0.026035
    13  C    0.007124
    14  C    0.022598
    15  N   -0.522899
    16  C    0.230103
    17  C    0.230818
    18  O   -0.550881
 Electronic spatial extent (au):  <R**2>=           6954.6214
 Charge=              0.0000 electrons
 Dipole moment (field-independent basis, Debye):
    X=              0.9392    Y=             -3.3042    Z=             -2.6637  Tot=              4.3468
 Quadrupole moment (field-independent basis, Debye-Ang):
   XX=            -70.1210   YY=           -114.0999   ZZ=           -116.7913
   XY=              4.8293   XZ=            -12.6923   YZ=              3.7159
 Traceless Quadrupole moment (field-independent basis, Debye-Ang):
   XX=             30.2164   YY=            -13.7625   ZZ=            -16.4539
   XY=              4.8293   XZ=            -12.6923   YZ=              3.7159
 Octapole moment (field-independent basis, Debye-Ang**2):
  XXX=             61.2763  YYY=            -27.0044  ZZZ=             -8.2170  XYY=              2.6120
  XXY=            -30.8498  XXZ=            -10.7051  XZZ=             21.0395  YZZ=             -3.8800
  YYZ=              1.5880  XYZ=             -7.2790
 Hexadecapole moment (field-independent basis, Debye-Ang**3):
 XXXX=          -6372.5200 YYYY=           -905.7601 ZZZZ=           -453.7481 XXXY=            -25.5403
 XXXZ=           -181.2712 YYYX=             63.8896 YYYZ=             23.6195 ZZZX=            -23.0458
 ZZZY=              0.0119 XXYY=          -1357.1479 XXZZ=          -1444.4240 YYZZ=           -228.1640
 XXYZ=             29.4116 YYXZ=            -11.7518 ZZXY=            -25.8227
 N-N= 1.454874435087D+03 E-N=-5.746624879336D+03  KE= 1.202127191172D+03
 No NMR shielding tensors so no spin-rotation constants.
 Leave Link  601 at Thu Aug  6 21:20:22 2020, MaxMem=    33554432 cpu:         0.2
 (Enter /prod/apps/gaussian/g09d1/l9999.exe)
 1\1\GINC-PIRINEUS21\SP\RB3LYP\6-31G(d)\C10H13N5O2S1\UBAFAR01\06-Aug-20
 20\0\\#p b3lyp/6-31G(d) scrf=(iefpcm,read,solvent=n-Octanol) geom=allc
 heck guess=read\\SM46.n.7.pdb.xyz\\0,1\O,0,2.696,3.887,-1.864\S,0,1.68
 ,2.945,-1.39\N,0,2.172,1.329,-1.528\C,0,2.016,0.675,-2.763\N,0,3.001,-
 0.136,-3.231\N,0,2.601,-0.678,-4.353\C,0,0.951,0.648,-3.636\N,0,1.365,
 -0.202,-4.618\C,0,0.67,-0.598,-5.796\C,0,-0.715,-0.433,-5.871\C,0,-1.3
 85,-0.814,-7.032\C,0,-0.681,-1.366,-8.103\C,0,0.701,-1.534,-8.01\C,0,1
 .387,-1.147,-6.862\N,0,1.681,3.025,0.276\C,0,1.957,4.353,0.842\C,0,0.5
 91,2.293,0.936\O,0,0.343,2.986,-1.992\H,0,3.099,1.189,-1.129\H,0,0.013
 ,1.17,-3.64\H,0,-1.263,-0.023,-5.031\H,0,-2.459,-0.685,-7.092\H,0,-1.2
 07,-1.665,-9.003\H,0,1.255,-1.96,-8.839\H,0,2.459,-1.261,-6.776\H,0,2.
 794,4.803,0.313\H,0,2.229,4.209,1.889\H,0,1.087,5.019,0.79\H,0,0.501,1
 .303,0.492\H,0,-0.367,2.82,0.861\H,0,0.861,2.184,1.988\\Version=AM64L-
 G09RevD.01\State=1-A\HF=-1211.1864767\RMSD=6.490e-09\Dipole=-1.4397659
 ,-0.2192409,0.8964995\Quadrupole=-7.6088723,-12.7729757,20.381848,3.49
 32284,5.424912,11.367451\PG=C01 [X(C10H13N5O2S1)]\\@


 The hours that make us happy make us wise.
                         -- John Masefield
 Job cpu time:       0 days  0 hours  2 minutes 46.6 seconds.
 File lengths (MBytes):  RWF=    163 Int=      0 D2E=      0 Chk=      6 Scr=      1
 Normal termination of Gaussian 09 at Thu Aug  6 21:20:22 2020.
