 Entering Gaussian System, Link 0=g09
 Initial command:
 /prod/apps/gaussian/g09d1/l1.exe "/tmp/ubafar01/1448557/Gau-179097.inp" -scrdir="/tmp/ubafar01/1448557/"
 Entering Link 1 = /prod/apps/gaussian/g09d1/l1.exe PID=    179098.
  
 Copyright (c) 1988,1990,1992,1993,1995,1998,2003,2009,2013,
            Gaussian, Inc.  All Rights Reserved.
  
 This is part of the Gaussian(R) 09 program.  It is based on
 the Gaussian(R) 03 system (copyright 2003, Gaussian, Inc.),
 the Gaussian(R) 98 system (copyright 1998, Gaussian, Inc.),
 the Gaussian(R) 94 system (copyright 1995, Gaussian, Inc.),
 the Gaussian 92(TM) system (copyright 1992, Gaussian, Inc.),
 the Gaussian 90(TM) system (copyright 1990, Gaussian, Inc.),
 the Gaussian 88(TM) system (copyright 1988, Gaussian, Inc.),
 the Gaussian 86(TM) system (copyright 1986, Carnegie Mellon
 University), and the Gaussian 82(TM) system (copyright 1983,
 Carnegie Mellon University). Gaussian is a federally registered
 trademark of Gaussian, Inc.
  
 This software contains proprietary and confidential information,
 including trade secrets, belonging to Gaussian, Inc.
  
 This software is provided under written license and may be
 used, copied, transmitted, or stored only in accord with that
 written license.
  
 The following legend is applicable only to US Government
 contracts under FAR:
  
                    RESTRICTED RIGHTS LEGEND
  
 Use, reproduction and disclosure by the US Government is
 subject to restrictions as set forth in subparagraphs (a)
 and (c) of the Commercial Computer Software - Restricted
 Rights clause in FAR 52.227-19.
  
 Gaussian, Inc.
 340 Quinnipiac St., Bldg. 40, Wallingford CT 06492
  
  
 ---------------------------------------------------------------
 Warning -- This program may not be used in any manner that
 competes with the business of Gaussian, Inc. or will provide
 assistance to any competitor of Gaussian, Inc.  The licensee
 of this program is prohibited from giving any competitor of
 Gaussian, Inc. access to this program.  By using this program,
 the user acknowledges that Gaussian, Inc. is engaged in the
 business of creating and licensing software in the field of
 computational chemistry and represents and warrants to the
 licensee that it is not a competitor of Gaussian, Inc. and that
 it will not use this program in any manner prohibited above.
 ---------------------------------------------------------------
  

 Cite this work as:
 Gaussian 09, Revision D.01,
 M. J. Frisch, G. W. Trucks, H. B. Schlegel, G. E. Scuseria, 
 M. A. Robb, J. R. Cheeseman, G. Scalmani, V. Barone, B. Mennucci, 
 G. A. Petersson, H. Nakatsuji, M. Caricato, X. Li, H. P. Hratchian, 
 A. F. Izmaylov, J. Bloino, G. Zheng, J. L. Sonnenberg, M. Hada, 
 M. Ehara, K. Toyota, R. Fukuda, J. Hasegawa, M. Ishida, T. Nakajima, 
 Y. Honda, O. Kitao, H. Nakai, T. Vreven, J. A. Montgomery, Jr., 
 J. E. Peralta, F. Ogliaro, M. Bearpark, J. J. Heyd, E. Brothers, 
 K. N. Kudin, V. N. Staroverov, T. Keith, R. Kobayashi, J. Normand, 
 K. Raghavachari, A. Rendell, J. C. Burant, S. S. Iyengar, J. Tomasi, 
 M. Cossi, N. Rega, J. M. Millam, M. Klene, J. E. Knox, J. B. Cross, 
 V. Bakken, C. Adamo, J. Jaramillo, R. Gomperts, R. E. Stratmann, 
 O. Yazyev, A. J. Austin, R. Cammi, C. Pomelli, J. W. Ochterski, 
 R. L. Martin, K. Morokuma, V. G. Zakrzewski, G. A. Voth, 
 P. Salvador, J. J. Dannenberg, S. Dapprich, A. D. Daniels, 
 O. Farkas, J. B. Foresman, J. V. Ortiz, J. Cioslowski, 
 and D. J. Fox, Gaussian, Inc., Wallingford CT, 2013.
 
 ******************************************
 Gaussian 09:  AM64L-G09RevD.01 24-Apr-2013
                 6-Aug-2020 
 ******************************************
 %nproc=1
 Will use up to    1 processors via shared memory.
 %Chk=SM46.n.3.pdb.xyz.mst.n.w.chk
 -----------------
 #p b3lyp/6-31G(d)
 -----------------
 1/38=1/1;
 2/12=2,17=6,18=5,40=1/2;
 3/5=1,6=6,7=1,11=2,16=1,25=1,30=1,74=-5/1,2,3;
 4//1;
 5/5=2,38=5/2;
 6/7=2,8=2,9=2,10=2,28=1/1;
 99/5=1,9=1/99;
 Leave Link    1 at Thu Aug  6 21:09:13 2020, MaxMem=           0 cpu:         0.0
 (Enter /prod/apps/gaussian/g09d1/l101.exe)
 ----------------
 SM46.n.3.pdb.xyz
 ----------------
 Symbolic Z-matrix:
 Charge =  0 Multiplicity = 1
 O                     3.448     2.175     0.585 
 S                     2.993     2.414    -0.785 
 N                     2.885     0.842    -1.437 
 C                     2.476     0.632    -2.766 
 N                     3.285     0.927    -3.821 
 N                     2.68      0.578    -4.926 
 C                     1.314     0.061    -3.242 
 N                     1.485     0.037    -4.587 
 C                     0.601    -0.464    -5.587 
 C                    -0.332    -1.448    -5.252 
 C                    -1.196    -1.926    -6.236 
 C                    -1.12     -1.437    -7.541 
 C                    -0.176    -0.459    -7.862 
 C                     0.685     0.038    -6.887 
 N                     1.513     3.175    -0.667 
 C                     0.933     3.748    -1.888 
 C                     0.543     2.571     0.255 
 O                     3.793     3.197    -1.725 
 H                     2.441     0.217    -0.763 
 H                     0.426    -0.298    -2.752 
 H                    -0.374    -1.84     -4.243 
 H                    -1.922    -2.69     -5.979 
 H                    -1.791    -1.816    -8.304 
 H                    -0.114    -0.072    -8.872 
 H                     1.412     0.805    -7.118 
 H                     1.726     4.169    -2.503 
 H                     0.258     4.551    -1.584 
 H                     0.367     3.01     -2.466 
 H                     1.056     2.246     1.158 
 H                     0.011     1.725    -0.197 
 H                    -0.183     3.343     0.52 
 
 NAtoms=     31 NQM=       31 NQMF=       0 NMMI=      0 NMMIF=      0
                NMic=       0 NMicF=      0.
                    Isotopes and Nuclear Properties:
 (Nuclear quadrupole moments (NQMom) in fm**2, nuclear magnetic moments (NMagM)
  in nuclear magnetons)

  Atom         1           2           3           4           5           6           7           8           9          10
 IAtWgt=          16          32          14          12          14          14          12          14          12          12
 AtmWgt=  15.9949146  31.9720718  14.0030740  12.0000000  14.0030740  14.0030740  12.0000000  14.0030740  12.0000000  12.0000000
 NucSpn=           0           0           2           0           2           2           0           2           0           0
 AtZEff=   0.0000000   0.0000000   0.0000000   0.0000000   0.0000000   0.0000000   0.0000000   0.0000000   0.0000000   0.0000000
 NQMom=    0.0000000   0.0000000   2.0440000   0.0000000   2.0440000   2.0440000   0.0000000   2.0440000   0.0000000   0.0000000
 NMagM=    0.0000000   0.0000000   0.4037610   0.0000000   0.4037610   0.4037610   0.0000000   0.4037610   0.0000000   0.0000000
 AtZNuc=   8.0000000  16.0000000   7.0000000   6.0000000   7.0000000   7.0000000   6.0000000   7.0000000   6.0000000   6.0000000

  Atom        11          12          13          14          15          16          17          18          19          20
 IAtWgt=          12          12          12          12          14          12          12          16           1           1
 AtmWgt=  12.0000000  12.0000000  12.0000000  12.0000000  14.0030740  12.0000000  12.0000000  15.9949146   1.0078250   1.0078250
 NucSpn=           0           0           0           0           2           0           0           0           1           1
 AtZEff=   0.0000000   0.0000000   0.0000000   0.0000000   0.0000000   0.0000000   0.0000000   0.0000000   0.0000000   0.0000000
 NQMom=    0.0000000   0.0000000   0.0000000   0.0000000   2.0440000   0.0000000   0.0000000   0.0000000   0.0000000   0.0000000
 NMagM=    0.0000000   0.0000000   0.0000000   0.0000000   0.4037610   0.0000000   0.0000000   0.0000000   2.7928460   2.7928460
 AtZNuc=   6.0000000   6.0000000   6.0000000   6.0000000   7.0000000   6.0000000   6.0000000   8.0000000   1.0000000   1.0000000

  Atom        21          22          23          24          25          26          27          28          29          30
 IAtWgt=           1           1           1           1           1           1           1           1           1           1
 AtmWgt=   1.0078250   1.0078250   1.0078250   1.0078250   1.0078250   1.0078250   1.0078250   1.0078250   1.0078250   1.0078250
 NucSpn=           1           1           1           1           1           1           1           1           1           1
 AtZEff=   0.0000000   0.0000000   0.0000000   0.0000000   0.0000000   0.0000000   0.0000000   0.0000000   0.0000000   0.0000000
 NQMom=    0.0000000   0.0000000   0.0000000   0.0000000   0.0000000   0.0000000   0.0000000   0.0000000   0.0000000   0.0000000
 NMagM=    2.7928460   2.7928460   2.7928460   2.7928460   2.7928460   2.7928460   2.7928460   2.7928460   2.7928460   2.7928460
 AtZNuc=   1.0000000   1.0000000   1.0000000   1.0000000   1.0000000   1.0000000   1.0000000   1.0000000   1.0000000   1.0000000

  Atom        31
 IAtWgt=           1
 AtmWgt=   1.0078250
 NucSpn=           1
 AtZEff=   0.0000000
 NQMom=    0.0000000
 NMagM=    2.7928460
 AtZNuc=   1.0000000
 Leave Link  101 at Thu Aug  6 21:09:13 2020, MaxMem=    33554432 cpu:         0.1
 (Enter /prod/apps/gaussian/g09d1/l202.exe)
                          Input orientation:                          
 ---------------------------------------------------------------------
 Center     Atomic      Atomic             Coordinates (Angstroms)
 Number     Number       Type             X           Y           Z
 ---------------------------------------------------------------------
      1          8           0        3.448000    2.175000    0.585000
      2         16           0        2.993000    2.414000   -0.785000
      3          7           0        2.885000    0.842000   -1.437000
      4          6           0        2.476000    0.632000   -2.766000
      5          7           0        3.285000    0.927000   -3.821000
      6          7           0        2.680000    0.578000   -4.926000
      7          6           0        1.314000    0.061000   -3.242000
      8          7           0        1.485000    0.037000   -4.587000
      9          6           0        0.601000   -0.464000   -5.587000
     10          6           0       -0.332000   -1.448000   -5.252000
     11          6           0       -1.196000   -1.926000   -6.236000
     12          6           0       -1.120000   -1.437000   -7.541000
     13          6           0       -0.176000   -0.459000   -7.862000
     14          6           0        0.685000    0.038000   -6.887000
     15          7           0        1.513000    3.175000   -0.667000
     16          6           0        0.933000    3.748000   -1.888000
     17          6           0        0.543000    2.571000    0.255000
     18          8           0        3.793000    3.197000   -1.725000
     19          1           0        2.441000    0.217000   -0.763000
     20          1           0        0.426000   -0.298000   -2.752000
     21          1           0       -0.374000   -1.840000   -4.243000
     22          1           0       -1.922000   -2.690000   -5.979000
     23          1           0       -1.791000   -1.816000   -8.304000
     24          1           0       -0.114000   -0.072000   -8.872000
     25          1           0        1.412000    0.805000   -7.118000
     26          1           0        1.726000    4.169000   -2.503000
     27          1           0        0.258000    4.551000   -1.584000
     28          1           0        0.367000    3.010000   -2.466000
     29          1           0        1.056000    2.246000    1.158000
     30          1           0        0.011000    1.725000   -0.197000
     31          1           0       -0.183000    3.343000    0.520000
 ---------------------------------------------------------------------
                    Distance matrix (angstroms):
                    1          2          3          4          5
     1  O    0.000000
     2  S    1.463231   0.000000
     3  N    2.486432   1.705272   0.000000
     4  C    3.815080   2.714254   1.406279   0.000000
     5  N    4.582238   3.393189   2.418818   1.361812   0.000000
     6  N    5.788899   4.540567   3.504974   2.170284   1.307230
     7  C    4.865067   3.793745   2.517147   1.379442   2.229358
     8  N    5.930767   4.730687   3.539848   2.156884   2.149152
     9  C    7.291318   6.088001   4.913735   3.560180   3.501070
    10  C    7.841243   6.776781   5.490666   4.288527   4.557529
    11  C    9.214715   8.129989   6.880900   5.662848   5.835340
    12  C    9.997252   8.797187   7.648051   6.325552   6.231446
    13  C    9.561545   8.269257   7.234843   5.847444   5.498109
    14  C    8.248134   6.943100   5.932025   4.532456   4.117120
    15  N    2.512315   1.668366   2.813925   3.435116   4.259249
    16  C    3.862031   2.690681   3.529666   3.586250   4.150474
    17  C    2.950380   2.666224   3.367086   4.077089   5.180258
    18  O    2.549433   1.461742   2.540361   3.065517   3.131163
    19  H    2.581650   2.265391   1.020802   2.045839   3.250815
    20  H    5.136515   4.220607   3.012558   2.251132   3.288961
    21  H    7.351020   6.433581   5.068317   4.051520   4.606805
    22  H    9.777076   8.785538   7.497469   6.379769   6.697201
    23  H   11.062980   9.864832   8.722708   7.407391   7.306649
    24  H   10.352377   9.012947   8.068991   6.669854   6.169587
    25  H    8.084455   6.722747   5.868974   4.483517   3.793840
    26  H    4.059195   2.763483   3.680838   3.625195   3.831210
    27  H    4.530567   3.561656   4.547463   4.655664   5.224966
    28  H    4.415698   3.174406   3.478418   3.192611   3.832706
    29  H    2.460698   2.748716   3.471380   4.474279   5.612365
    30  H    3.553448   3.116535   3.252255   3.724330   4.948662
    31  H    3.814788   3.557111   4.415594   5.021713   6.058743
                    6          7          8          9         10
     6  N    0.000000
     7  C    2.229148   0.000000
     8  N    1.354853   1.356039   0.000000
     9  C    2.417628   2.506595   1.425643   0.000000
    10  C    3.644598   3.004413   2.439045   1.396771   0.000000
    11  C    4.796821   4.383184   3.709492   2.405796   1.394000
    12  C    5.033731   5.162341   4.205332   2.779692   2.420865
    13  C    4.225187   4.882100   3.705477   2.404034   2.795453
    14  C    2.849061   3.698945   2.435159   1.396087   2.432223
    15  N    5.123024   4.045642   5.021377   6.187121   6.767450
    16  C    4.725500   3.946194   4.621777   5.615494   6.317843
    17  C    5.948242   4.373048   5.545582   6.583582   6.873502
    18  O    4.283028   4.275655   4.848042   6.205387   7.143625
    19  H    4.185452   2.727619   3.945797   5.207719   5.532890
    20  H    3.251795   1.075883   2.144978   2.845243   2.854306
    21  H    3.954760   2.732242   2.664084   2.156464   1.083286
    22  H    5.741693   5.052808   4.580594   3.387369   2.144573
    23  H    6.093600   6.228001   5.289790   3.864150   3.402765
    24  H    4.878509   5.809800   4.574922   3.384688   3.878827
    25  H    2.542482   3.947976   2.645962   2.147567   3.405804
    26  H    4.435800   4.194226   4.634065   5.678148   6.583544
    27  H    5.728855   4.901449   5.558753   6.425876   7.056226
    28  H    4.161273   3.193053   3.819332   4.675903   5.303222
    29  H    6.514189   4.919430   6.169988   7.283279   7.527302
    30  H    5.550010   3.706579   4.928907   5.847386   5.978177
    31  H    6.745436   5.212022   6.308194   7.239016   7.502791
                   11         12         13         14         15
    11  C    0.000000
    12  C    1.395680   0.000000
    13  C    2.415857   1.396661   0.000000
    14  C    2.796294   2.421026   1.392464   0.000000
    15  N    8.023256   8.686490   8.235697   7.015323   0.000000
    16  C    7.458688   7.940746   7.390359   6.230217   1.468186
    17  C    8.085803   8.922289   8.693880   7.579210   1.468264
    18  O    8.454843   8.912765   8.172029   6.803322   2.513613
    19  H    6.911870   7.833117   7.596148   6.373300   3.101639
    20  H    4.173670   5.159647   5.147856   4.156706   4.194106
    21  H    2.157575   3.405250   3.878598   3.411613   6.441954
    22  H    1.084814   2.157095   3.401700   3.881095   8.626401
    23  H    2.154704   1.084459   2.155235   3.402320   9.703106
    24  H    3.399491   2.155649   1.083380   2.142598   8.972857
    25  H    3.877879   3.408301   2.161707   1.081748   6.873318
    26  H    7.721554   8.056575   7.331771   6.112961   2.098643
    27  H    8.105970   8.558088   8.043739   6.976482   2.075883
    28  H    6.404683   6.909602   6.437828   5.336586   2.139379
    29  H    8.783412   9.693919   9.497118   8.350744   2.098217
    30  H    7.159342   8.075379   7.972268   6.932268   2.139954
    31  H    8.627402   9.418391   9.203976   8.157211   2.076923
                   16         17         18         19         20
    16  C    0.000000
    17  C    2.475859   0.000000
    18  O    2.917151   3.856783   0.000000
    19  H    4.000956   3.190618   3.410828   0.000000
    20  H    4.168172   4.157752   4.960488   2.877772   0.000000
    21  H    6.203226   6.366303   7.005397   4.926040   2.289289
    22  H    8.144639   8.521567   9.241997   7.395477   4.652773
    23  H    8.918707   9.896959   9.979703   8.883107   6.167991
    24  H    8.029001   9.524664   8.776709   8.506905   6.147933
    25  H    6.020265   7.631189   6.362018   6.464566   4.609855
    26  H    1.088262   3.399950   2.412998   4.376886   4.658980
    27  H    1.092177   2.717268   3.788063   4.921695   4.990516
    28  H    1.095027   2.761800   3.510203   3.873310   3.320864
    29  H    3.398419   1.088211   4.087451   3.118542   4.707115
    30  H    2.793223   1.096834   4.336484   2.915359   3.285237
    31  H    2.684762   1.092376   4.568360   4.278240   4.932925
                   21         22         23         24         25
    21  H    0.000000
    22  H    2.476388   0.000000
    23  H    4.301184   2.487300   0.000000
    24  H    4.961962   4.300260   2.485254   0.000000
    25  H    4.295515   4.962651   4.305281   2.484818   0.000000
    26  H    6.598915   8.510955   9.046608   7.869933   5.719556
    27  H    6.950869   8.746457   9.481323   8.638603   6.781548
    28  H    5.218171   7.076065   7.875880   7.125091   5.253109
    29  H    6.921784   9.174385  10.683384  10.360643   8.408055
    30  H    5.406252   7.527300   9.028252   8.860048   7.121056
    31  H    7.041743   9.036493  10.347170   9.993831   8.205152
                   26         27         28         29         30
    26  H    0.000000
    27  H    1.773558   0.000000
    28  H    1.786486   1.778900   0.000000
    29  H    4.189242   3.669931   3.767200   0.000000
    30  H    3.772532   3.157698   2.631791   1.788712   0.000000
    31  H    3.669480   2.465879   3.054437   1.773577   1.780351
                   31
    31  H    0.000000
 Stoichiometry    C10H13N5O2S
 Framework group  C1[X(C10H13N5O2S)]
 Deg. of freedom    87
 Full point group                 C1      NOp   1
 Largest Abelian subgroup         C1      NOp   1
 Largest concise Abelian subgroup C1      NOp   1
                         Standard orientation:                         
 ---------------------------------------------------------------------
 Center     Atomic      Atomic             Coordinates (Angstroms)
 Number     Number       Type             X           Y           Z
 ---------------------------------------------------------------------
      1          8           0       -4.321656   -0.207544   -1.002367
      2         16           0       -3.169555   -0.337045   -0.109653
      3          7           0       -1.861458   -0.515680   -1.188970
      4          6           0       -0.546092   -0.675577   -0.717941
      5          7           0       -0.125761   -1.836354   -0.143095
      6          7           0        1.145195   -1.728387    0.143029
      7          6           0        0.522788    0.192383   -0.801614
      8          7           0        1.555654   -0.503372   -0.265002
      9          6           0        2.913802   -0.099309   -0.108083
     10          6           0        3.443716    0.879449   -0.951999
     11          6           0        4.770943    1.271838   -0.785459
     12          6           0        5.562539    0.684489    0.202630
     13          6           0        5.020267   -0.298800    1.033139
     14          6           0        3.692356   -0.691849    0.887814
     15          7           0       -3.096159    1.074108    0.777311
     16          6           0       -2.177546    1.122303    1.921600
     17          6           0       -3.205522    2.325889    0.017782
     18          8           0       -3.069751   -1.438421    0.846223
     19          1           0       -1.949223    0.154615   -1.953848
     20          1           0        0.615780    1.198520   -1.171163
     21          1           0        2.832272    1.318074   -1.731264
     22          1           0        5.185448    2.031989   -1.439047
     23          1           0        6.596012    0.989624    0.324599
     24          1           0        5.627738   -0.756202    1.804810
     25          1           0        3.255145   -1.442468    1.532481
     26          1           0       -2.165346    0.153772    2.417698
     27          1           0       -2.561429    1.870881    2.618101
     28          1           0       -1.160434    1.401614    1.627400
     29          1           0       -3.961716    2.214264   -0.756759
     30          1           0       -2.250817    2.623404   -0.432847
     31          1           0       -3.525103    3.105246    0.713308
 ---------------------------------------------------------------------
 Rotational constants (GHZ):      1.0023507      0.1737027      0.1665726
 Leave Link  202 at Thu Aug  6 21:09:13 2020, MaxMem=    33554432 cpu:         0.0
 (Enter /prod/apps/gaussian/g09d1/l301.exe)
 Standard basis: 6-31G(d) (6D, 7F)
 Ernie: Thresh=  0.10000D-02 Tol=  0.10000D-05 Strict=F.
 There are   300 symmetry adapted cartesian basis functions of A   symmetry.
 There are   300 symmetry adapted basis functions of A   symmetry.
   300 basis functions,   580 primitive gaussians,   300 cartesian basis functions
    70 alpha electrons       70 beta electrons
       nuclear repulsion energy      1469.6315852073 Hartrees.
 IExCor=  402 DFT=T Ex+Corr=B3LYP ExCW=0 ScaHFX=  0.200000
 ScaDFX=  0.800000  0.720000  1.000000  0.810000 ScalE2=  1.000000  1.000000
 IRadAn=      0 IRanWt=     -1 IRanGd=            0 ICorTp=0 IEmpDi=  4
 NAtoms=   31 NActive=   31 NUniq=   31 SFac= 1.00D+00 NAtFMM=   60 NAOKFM=F Big=F
 Integral buffers will be    131072 words long.
 Raffenetti 2 integral format.
 Two-electron integral symmetry is turned on.
 Leave Link  301 at Thu Aug  6 21:09:13 2020, MaxMem=    33554432 cpu:         0.0
 (Enter /prod/apps/gaussian/g09d1/l302.exe)
 NPDir=0 NMtPBC=     1 NCelOv=     1 NCel=       1 NClECP=     1 NCelD=      1
         NCelK=      1 NCelE2=     1 NClLst=     1 CellRange=     0.0.
 One-electron integrals computed using PRISM.
 NBasis=   300 RedAO= T EigKep=  4.67D-04  NBF=   300
 NBsUse=   300 1.00D-06 EigRej= -1.00D+00 NBFU=   300
 Precomputing XC quadrature grid using
 IXCGrd= 4 IRadAn=           0 IRanWt=          -1 IRanGd=           0 AccXCQ= 0.00D+00.
 Generated NRdTot=       0 NPtTot=           0 NUsed=           0 NTot=          32
 NSgBfM=   297   297   298   298   298 MxSgAt=    31 MxSgA2=    31.
 Leave Link  302 at Thu Aug  6 21:09:15 2020, MaxMem=    33554432 cpu:         1.1
 (Enter /prod/apps/gaussian/g09d1/l303.exe)
 DipDrv:  MaxL=1.
 Leave Link  303 at Thu Aug  6 21:09:15 2020, MaxMem=    33554432 cpu:         0.0
 (Enter /prod/apps/gaussian/g09d1/l401.exe)
 ExpMin= 1.17D-01 ExpMax= 2.19D+04 ExpMxC= 3.30D+03 IAcc=1 IRadAn=         1 AccDes= 0.00D+00
 Harris functional with IExCor=  402 and IRadAn=       1 diagonalized for initial guess.
 HarFok:  IExCor=  402 AccDes= 0.00D+00 IRadAn=         1 IDoV= 1 UseB2=F ITyADJ=14
 ICtDFT=  3500011 ScaDFX=  1.000000  1.000000  1.000000  1.000000
 FoFCou: FMM=F IPFlag=           0 FMFlag=      100000 FMFlg1=           0
         NFxFlg=           0 DoJE=T BraDBF=F KetDBF=T FulRan=T
         wScrn=  0.000000 ICntrl=     500 IOpCl=  0 I1Cent=   200000004 NGrid=           0
         NMat0=    1 NMatS0=      1 NMatT0=    0 NMatD0=    1 NMtDS0=    0 NMtDT0=    0
 Petite list used in FoFCou.
 Harris En= -1211.17087074797    
 JPrj=0 DoOrth=F DoCkMO=F.
 Leave Link  401 at Thu Aug  6 21:09:18 2020, MaxMem=    33554432 cpu:         3.2
 (Enter /prod/apps/gaussian/g09d1/l502.exe)
 Closed shell SCF:
 Using DIIS extrapolation, IDIIS=  1040.
 Integral symmetry usage will be decided dynamically.
 IVT=      292611 IEndB=      292611 NGot=    33554432 MDV=    33368762
 LenX=    33368762 LenY=    33278321
 Requested convergence on RMS density matrix=1.00D-08 within 128 cycles.
 Requested convergence on MAX density matrix=1.00D-06.
 Requested convergence on             energy=1.00D-06.
 No special actions if energy rises.
 Fock matrices will be formed incrementally for  20 cycles.
 Integral accuracy reduced to 1.0D-05 until final iterations.

 Cycle   1  Pass 0  IDiag  1:
 FoFJK:  IHMeth= 1 ICntrl=       0 DoSepK=F KAlg= 0 I1Cent=   0 FoldK=F
 IRaf= 750000000 NMat=   1 IRICut=       1 DoRegI=T DoRafI=F ISym2E= 0.
 FoFCou: FMM=F IPFlag=           0 FMFlag=      100000 FMFlg1=           0
         NFxFlg=           0 DoJE=F BraDBF=F KetDBF=F FulRan=T
         wScrn=  0.000000 ICntrl=       0 IOpCl=  0 I1Cent=           0 NGrid=           0
         NMat0=    1 NMatS0=      1 NMatT0=    0 NMatD0=    1 NMtDS0=    0 NMtDT0=    0
 Symmetry not used in FoFCou.
 E= -1210.59181046425    
 DIIS: error= 2.61D-02 at cycle   1 NSaved=   1.
 NSaved= 1 IEnMin= 1 EnMin= -1210.59181046425     IErMin= 1 ErrMin= 2.61D-02
 ErrMax= 2.61D-02  0.00D+00 EMaxC= 1.00D-01 BMatC= 6.50D-01 BMatP= 6.50D-01
 IDIUse=3 WtCom= 7.39D-01 WtEn= 2.61D-01
 Coeff-Com:  0.100D+01
 Coeff-En:   0.100D+01
 Coeff:      0.100D+01
 Gap=     0.300 Goal=   None    Shift=    0.000
 GapD=    0.300 DampG=1.000 DampE=0.500 DampFc=0.5000 IDamp=-1.
 Damping current iteration by 5.00D-01
 RMSDP=7.00D-03 MaxDP=6.22D-01              OVMax= 2.46D-01

 Cycle   2  Pass 0  IDiag  1:
 RMSU=  3.50D-03    CP:  9.95D-01
 E= -1210.69603445285     Delta-E=       -0.104223988600 Rises=F Damp=T
 DIIS: error= 1.53D-02 at cycle   2 NSaved=   2.
 NSaved= 2 IEnMin= 2 EnMin= -1210.69603445285     IErMin= 2 ErrMin= 1.53D-02
 ErrMax= 1.53D-02  0.00D+00 EMaxC= 1.00D-01 BMatC= 1.28D-01 BMatP= 6.50D-01
 IDIUse=3 WtCom= 8.47D-01 WtEn= 1.53D-01
 Coeff-Com:  0.260D+00 0.740D+00
 Coeff-En:   0.410D+00 0.590D+00
 Coeff:      0.283D+00 0.717D+00
 Gap=     0.235 Goal=   None    Shift=    0.000
 RMSDP=2.09D-03 MaxDP=1.48D-01 DE=-1.04D-01 OVMax= 2.09D-01

 Cycle   3  Pass 0  IDiag  1:
 RMSU=  1.66D-03    CP:  9.84D-01  6.46D-01
 E= -1211.09931071698     Delta-E=       -0.403276264134 Rises=F Damp=F
 DIIS: error= 8.54D-03 at cycle   3 NSaved=   3.
 NSaved= 3 IEnMin= 3 EnMin= -1211.09931071698     IErMin= 3 ErrMin= 8.54D-03
 ErrMax= 8.54D-03  0.00D+00 EMaxC= 1.00D-01 BMatC= 6.10D-02 BMatP= 1.28D-01
 IDIUse=3 WtCom= 9.15D-01 WtEn= 8.54D-02
 Coeff-Com:  0.911D-01 0.410D+00 0.499D+00
 Coeff-En:   0.000D+00 0.000D+00 0.100D+01
 Coeff:      0.833D-01 0.375D+00 0.542D+00
 Gap=     0.195 Goal=   None    Shift=    0.000
 RMSDP=1.11D-03 MaxDP=3.25D-02 DE=-4.03D-01 OVMax= 4.70D-02

 Cycle   4  Pass 0  IDiag  1:
 RMSU=  7.11D-04    CP:  9.90D-01  7.25D-01  5.24D-01
 E= -1211.14617802183     Delta-E=       -0.046867304845 Rises=F Damp=F
 DIIS: error= 3.07D-03 at cycle   4 NSaved=   4.
 NSaved= 4 IEnMin= 4 EnMin= -1211.14617802183     IErMin= 4 ErrMin= 3.07D-03
 ErrMax= 3.07D-03  0.00D+00 EMaxC= 1.00D-01 BMatC= 9.37D-03 BMatP= 6.10D-02
 IDIUse=3 WtCom= 9.69D-01 WtEn= 3.07D-02
 Coeff-Com:  0.938D-02 0.929D-01 0.299D+00 0.599D+00
 Coeff-En:   0.000D+00 0.000D+00 0.127D+00 0.873D+00
 Coeff:      0.909D-02 0.900D-01 0.294D+00 0.607D+00
 Gap=     0.189 Goal=   None    Shift=    0.000
 RMSDP=3.98D-04 MaxDP=1.39D-02 DE=-4.69D-02 OVMax= 2.33D-02

 Cycle   5  Pass 0  IDiag  1:
 RMSU=  2.32D-04    CP:  9.89D-01  7.12D-01  6.24D-01  6.16D-01
 E= -1211.15349158712     Delta-E=       -0.007313565297 Rises=F Damp=F
 DIIS: error= 1.32D-03 at cycle   5 NSaved=   5.
 NSaved= 5 IEnMin= 5 EnMin= -1211.15349158712     IErMin= 5 ErrMin= 1.32D-03
 ErrMax= 1.32D-03  0.00D+00 EMaxC= 1.00D-01 BMatC= 1.14D-03 BMatP= 9.37D-03
 IDIUse=3 WtCom= 9.87D-01 WtEn= 1.32D-02
 Coeff-Com: -0.136D-02 0.261D-01 0.131D+00 0.356D+00 0.488D+00
 Coeff-En:   0.000D+00 0.000D+00 0.000D+00 0.586D-01 0.941D+00
 Coeff:     -0.134D-02 0.257D-01 0.129D+00 0.352D+00 0.494D+00
 Gap=     0.188 Goal=   None    Shift=    0.000
 RMSDP=1.50D-04 MaxDP=6.51D-03 DE=-7.31D-03 OVMax= 1.17D-02

 Cycle   6  Pass 0  IDiag  1:
 RMSU=  7.15D-05    CP:  9.89D-01  7.16D-01  6.29D-01  6.86D-01  4.76D-01
 E= -1211.15438350765     Delta-E=       -0.000891920526 Rises=F Damp=F
 DIIS: error= 5.24D-04 at cycle   6 NSaved=   6.
 NSaved= 6 IEnMin= 6 EnMin= -1211.15438350765     IErMin= 6 ErrMin= 5.24D-04
 ErrMax= 5.24D-04  0.00D+00 EMaxC= 1.00D-01 BMatC= 1.75D-04 BMatP= 1.14D-03
 IDIUse=3 WtCom= 9.95D-01 WtEn= 5.24D-03
 Coeff-Com: -0.217D-02 0.584D-02 0.487D-01 0.159D+00 0.323D+00 0.465D+00
 Coeff-En:   0.000D+00 0.000D+00 0.000D+00 0.000D+00 0.113D+00 0.887D+00
 Coeff:     -0.216D-02 0.581D-02 0.485D-01 0.159D+00 0.322D+00 0.467D+00
 Gap=     0.189 Goal=   None    Shift=    0.000
 RMSDP=5.09D-05 MaxDP=2.16D-03 DE=-8.92D-04 OVMax= 3.88D-03

 Cycle   7  Pass 0  IDiag  1:
 RMSU=  2.93D-05    CP:  9.89D-01  7.16D-01  6.28D-01  6.81D-01  5.72D-01
                    CP:  5.13D-01
 E= -1211.15452458933     Delta-E=       -0.000141081676 Rises=F Damp=F
 DIIS: error= 1.14D-04 at cycle   7 NSaved=   7.
 NSaved= 7 IEnMin= 7 EnMin= -1211.15452458933     IErMin= 7 ErrMin= 1.14D-04
 ErrMax= 1.14D-04  0.00D+00 EMaxC= 1.00D-01 BMatC= 1.31D-05 BMatP= 1.75D-04
 IDIUse=3 WtCom= 9.99D-01 WtEn= 1.14D-03
 Coeff-Com: -0.113D-02 0.787D-03 0.139D-01 0.529D-01 0.135D+00 0.279D+00
 Coeff-Com:  0.520D+00
 Coeff-En:   0.000D+00 0.000D+00 0.000D+00 0.000D+00 0.000D+00 0.295D-01
 Coeff-En:   0.971D+00
 Coeff:     -0.112D-02 0.786D-03 0.139D-01 0.528D-01 0.135D+00 0.278D+00
 Coeff:      0.520D+00
 Gap=     0.188 Goal=   None    Shift=    0.000
 RMSDP=1.39D-05 MaxDP=6.13D-04 DE=-1.41D-04 OVMax= 9.82D-04

 Cycle   8  Pass 0  IDiag  1:
 RMSU=  6.78D-06    CP:  9.89D-01  7.16D-01  6.29D-01  6.84D-01  5.68D-01
                    CP:  5.68D-01  6.19D-01
 E= -1211.15453592026     Delta-E=       -0.000011330936 Rises=F Damp=F
 DIIS: error= 3.63D-05 at cycle   8 NSaved=   8.
 NSaved= 8 IEnMin= 8 EnMin= -1211.15453592026     IErMin= 8 ErrMin= 3.63D-05
 ErrMax= 3.63D-05  0.00D+00 EMaxC= 1.00D-01 BMatC= 8.32D-07 BMatP= 1.31D-05
 IDIUse=1 WtCom= 1.00D+00 WtEn= 0.00D+00
 Coeff-Com: -0.459D-03-0.146D-03 0.349D-02 0.158D-01 0.485D-01 0.115D+00
 Coeff-Com:  0.279D+00 0.538D+00
 Coeff:     -0.459D-03-0.146D-03 0.349D-02 0.158D-01 0.485D-01 0.115D+00
 Coeff:      0.279D+00 0.538D+00
 Gap=     0.189 Goal=   None    Shift=    0.000
 RMSDP=4.18D-06 MaxDP=1.69D-04 DE=-1.13D-05 OVMax= 2.50D-04

 Initial convergence to 1.0D-05 achieved.  Increase integral accuracy.
 Cycle   9  Pass 1  IDiag  1:
 E= -1211.15445381799     Delta-E=        0.000082102272 Rises=F Damp=F
 DIIS: error= 5.75D-05 at cycle   1 NSaved=   1.
 NSaved= 1 IEnMin= 1 EnMin= -1211.15445381799     IErMin= 1 ErrMin= 5.75D-05
 ErrMax= 5.75D-05  0.00D+00 EMaxC= 1.00D-01 BMatC= 6.32D-07 BMatP= 6.32D-07
 IDIUse=1 WtCom= 1.00D+00 WtEn= 0.00D+00
 Coeff-Com:  0.100D+01
 Coeff:      0.100D+01
 Gap=     0.188 Goal=   None    Shift=    0.000
 RMSDP=4.18D-06 MaxDP=1.69D-04 DE= 8.21D-05 OVMax= 3.20D-04

 Cycle  10  Pass 1  IDiag  1:
 RMSU=  3.24D-05    CP:  1.00D+00
 E= -1211.15445379024     Delta-E=        0.000000027750 Rises=F Damp=F
 DIIS: error= 4.32D-05 at cycle   2 NSaved=   2.
 NSaved= 2 IEnMin= 1 EnMin= -1211.15445381799     IErMin= 2 ErrMin= 4.32D-05
 ErrMax= 4.32D-05  0.00D+00 EMaxC= 1.00D-01 BMatC= 8.10D-07 BMatP= 6.32D-07
 IDIUse=1 WtCom= 1.00D+00 WtEn= 0.00D+00
 Coeff-Com:  0.542D+00 0.458D+00
 Coeff:      0.542D+00 0.458D+00
 Gap=     0.189 Goal=   None    Shift=    0.000
 RMSDP=4.36D-06 MaxDP=1.97D-04 DE= 2.77D-08 OVMax= 3.41D-04

 Cycle  11  Pass 1  IDiag  1:
 RMSU=  4.34D-06    CP:  1.00D+00  9.86D-01
 E= -1211.15445433607     Delta-E=       -0.000000545834 Rises=F Damp=F
 DIIS: error= 2.26D-05 at cycle   3 NSaved=   3.
 NSaved= 3 IEnMin= 3 EnMin= -1211.15445433607     IErMin= 3 ErrMin= 2.26D-05
 ErrMax= 2.26D-05  0.00D+00 EMaxC= 1.00D-01 BMatC= 2.15D-07 BMatP= 6.32D-07
 IDIUse=1 WtCom= 1.00D+00 WtEn= 0.00D+00
 Coeff-Com:  0.689D-02 0.338D+00 0.655D+00
 Coeff:      0.689D-02 0.338D+00 0.655D+00
 Gap=     0.189 Goal=   None    Shift=    0.000
 RMSDP=1.64D-06 MaxDP=7.49D-05 DE=-5.46D-07 OVMax= 1.37D-04

 Cycle  12  Pass 1  IDiag  1:
 RMSU=  6.06D-07    CP:  1.00D+00  1.00D+00  6.65D-01
 E= -1211.15445452439     Delta-E=       -0.000000188314 Rises=F Damp=F
 DIIS: error= 3.62D-06 at cycle   4 NSaved=   4.
 NSaved= 4 IEnMin= 4 EnMin= -1211.15445452439     IErMin= 4 ErrMin= 3.62D-06
 ErrMax= 3.62D-06  0.00D+00 EMaxC= 1.00D-01 BMatC= 1.12D-08 BMatP= 2.15D-07
 IDIUse=1 WtCom= 1.00D+00 WtEn= 0.00D+00
 Coeff-Com: -0.886D-02 0.200D+00 0.411D+00 0.398D+00
 Coeff:     -0.886D-02 0.200D+00 0.411D+00 0.398D+00
 Gap=     0.189 Goal=   None    Shift=    0.000
 RMSDP=3.75D-07 MaxDP=1.86D-05 DE=-1.88D-07 OVMax= 2.36D-05

 Cycle  13  Pass 1  IDiag  1:
 RMSU=  2.04D-07    CP:  1.00D+00  1.00D+00  6.72D-01  4.84D-01
 E= -1211.15445453364     Delta-E=       -0.000000009255 Rises=F Damp=F
 DIIS: error= 9.33D-07 at cycle   5 NSaved=   5.
 NSaved= 5 IEnMin= 5 EnMin= -1211.15445453364     IErMin= 5 ErrMin= 9.33D-07
 ErrMax= 9.33D-07  0.00D+00 EMaxC= 1.00D-01 BMatC= 4.81D-10 BMatP= 1.12D-08
 IDIUse=1 WtCom= 1.00D+00 WtEn= 0.00D+00
 Coeff-Com: -0.563D-02 0.960D-01 0.200D+00 0.234D+00 0.475D+00
 Coeff:     -0.563D-02 0.960D-01 0.200D+00 0.234D+00 0.475D+00
 Gap=     0.189 Goal=   None    Shift=    0.000
 RMSDP=9.72D-08 MaxDP=3.33D-06 DE=-9.26D-09 OVMax= 6.93D-06

 Cycle  14  Pass 1  IDiag  1:
 RMSU=  7.29D-08    CP:  1.00D+00  1.00D+00  6.73D-01  5.22D-01  7.05D-01
 E= -1211.15445453402     Delta-E=       -0.000000000378 Rises=F Damp=F
 DIIS: error= 3.24D-07 at cycle   6 NSaved=   6.
 NSaved= 6 IEnMin= 6 EnMin= -1211.15445453402     IErMin= 6 ErrMin= 3.24D-07
 ErrMax= 3.24D-07  0.00D+00 EMaxC= 1.00D-01 BMatC= 5.44D-11 BMatP= 4.81D-10
 IDIUse=1 WtCom= 1.00D+00 WtEn= 0.00D+00
 Coeff-Com: -0.187D-02 0.252D-01 0.535D-01 0.751D-01 0.280D+00 0.568D+00
 Coeff:     -0.187D-02 0.252D-01 0.535D-01 0.751D-01 0.280D+00 0.568D+00
 Gap=     0.189 Goal=   None    Shift=    0.000
 RMSDP=2.94D-08 MaxDP=1.12D-06 DE=-3.78D-10 OVMax= 1.76D-06

 Cycle  15  Pass 1  IDiag  1:
 RMSU=  2.26D-08    CP:  1.00D+00  1.00D+00  6.73D-01  5.22D-01  7.73D-01
                    CP:  8.29D-01
 E= -1211.15445453406     Delta-E=       -0.000000000035 Rises=F Damp=F
 DIIS: error= 1.59D-07 at cycle   7 NSaved=   7.
 NSaved= 7 IEnMin= 7 EnMin= -1211.15445453406     IErMin= 7 ErrMin= 1.59D-07
 ErrMax= 1.59D-07  0.00D+00 EMaxC= 1.00D-01 BMatC= 6.91D-12 BMatP= 5.44D-11
 IDIUse=1 WtCom= 1.00D+00 WtEn= 0.00D+00
 Coeff-Com: -0.261D-03 0.716D-03 0.202D-02 0.923D-02 0.936D-01 0.325D+00
 Coeff-Com:  0.570D+00
 Coeff:     -0.261D-03 0.716D-03 0.202D-02 0.923D-02 0.936D-01 0.325D+00
 Coeff:      0.570D+00
 Gap=     0.189 Goal=   None    Shift=    0.000
 RMSDP=1.19D-08 MaxDP=3.72D-07 DE=-3.55D-11 OVMax= 9.80D-07

 Cycle  16  Pass 1  IDiag  1:
 RMSU=  6.98D-09    CP:  1.00D+00  1.00D+00  6.73D-01  5.25D-01  7.83D-01
                    CP:  8.45D-01  5.99D-01
 E= -1211.15445453412     Delta-E=       -0.000000000063 Rises=F Damp=F
 DIIS: error= 7.19D-08 at cycle   8 NSaved=   8.
 NSaved= 8 IEnMin= 8 EnMin= -1211.15445453412     IErMin= 8 ErrMin= 7.19D-08
 ErrMax= 7.19D-08  0.00D+00 EMaxC= 1.00D-01 BMatC= 8.25D-13 BMatP= 6.91D-12
 IDIUse=1 WtCom= 1.00D+00 WtEn= 0.00D+00
 Coeff-Com:  0.229D-04-0.203D-02-0.397D-02-0.200D-02 0.273D-01 0.134D+00
 Coeff-Com:  0.334D+00 0.513D+00
 Coeff:      0.229D-04-0.203D-02-0.397D-02-0.200D-02 0.273D-01 0.134D+00
 Coeff:      0.334D+00 0.513D+00
 Gap=     0.189 Goal=   None    Shift=    0.000
 RMSDP=3.66D-09 MaxDP=9.11D-08 DE=-6.28D-11 OVMax= 3.10D-07

 SCF Done:  E(RB3LYP) =  -1211.15445453     A.U. after   16 cycles
            NFock= 16  Conv=0.37D-08     -V/T= 2.0075
 KE= 1.202107364175D+03 PE=-5.775368062972D+03 EE= 1.892474659055D+03
 Leave Link  502 at Thu Aug  6 21:13:13 2020, MaxMem=    33554432 cpu:       235.0
 (Enter /prod/apps/gaussian/g09d1/l601.exe)
 Copying SCF densities to generalized density rwf, IOpCl= 0 IROHF=0.

 **********************************************************************

            Population analysis using the SCF density.

 **********************************************************************

 Orbital symmetries:
       Occupied  (A) (A) (A) (A) (A) (A) (A) (A) (A) (A) (A) (A)
                 (A) (A) (A) (A) (A) (A) (A) (A) (A) (A) (A) (A)
                 (A) (A) (A) (A) (A) (A) (A) (A) (A) (A) (A) (A)
                 (A) (A) (A) (A) (A) (A) (A) (A) (A) (A) (A) (A)
                 (A) (A) (A) (A) (A) (A) (A) (A) (A) (A) (A) (A)
                 (A) (A) (A) (A) (A) (A) (A) (A) (A) (A)
       Virtual   (A) (A) (A) (A) (A) (A) (A) (A) (A) (A) (A) (A)
                 (A) (A) (A) (A) (A) (A) (A) (A) (A) (A) (A) (A)
                 (A) (A) (A) (A) (A) (A) (A) (A) (A) (A) (A) (A)
                 (A) (A) (A) (A) (A) (A) (A) (A) (A) (A) (A) (A)
                 (A) (A) (A) (A) (A) (A) (A) (A) (A) (A) (A) (A)
                 (A) (A) (A) (A) (A) (A) (A) (A) (A) (A) (A) (A)
                 (A) (A) (A) (A) (A) (A) (A) (A) (A) (A) (A) (A)
                 (A) (A) (A) (A) (A) (A) (A) (A) (A) (A) (A) (A)
                 (A) (A) (A) (A) (A) (A) (A) (A) (A) (A) (A) (A)
                 (A) (A) (A) (A) (A) (A) (A) (A) (A) (A) (A) (A)
                 (A) (A) (A) (A) (A) (A) (A) (A) (A) (A) (A) (A)
                 (A) (A) (A) (A) (A) (A) (A) (A) (A) (A) (A) (A)
                 (A) (A) (A) (A) (A) (A) (A) (A) (A) (A) (A) (A)
                 (A) (A) (A) (A) (A) (A) (A) (A) (A) (A) (A) (A)
                 (A) (A) (A) (A) (A) (A) (A) (A) (A) (A) (A) (A)
                 (A) (A) (A) (A) (A) (A) (A) (A) (A) (A) (A) (A)
                 (A) (A) (A) (A) (A) (A) (A) (A) (A) (A) (A) (A)
                 (A) (A) (A) (A) (A) (A) (A) (A) (A) (A) (A) (A)
                 (A) (A) (A) (A) (A) (A) (A) (A) (A) (A) (A) (A)
                 (A) (A)
 The electronic state is 1-A.
 Alpha  occ. eigenvalues --  -89.12693 -19.13961 -19.13888 -14.44794 -14.40173
 Alpha  occ. eigenvalues --  -14.38681 -14.38204 -14.36347 -10.26637 -10.26143
 Alpha  occ. eigenvalues --  -10.25121 -10.23698 -10.22928 -10.22079 -10.21657
 Alpha  occ. eigenvalues --  -10.21391 -10.21327 -10.21208  -8.14923  -6.11445
 Alpha  occ. eigenvalues --   -6.11329  -6.11297  -1.11958  -1.11235  -0.99966
 Alpha  occ. eigenvalues --   -0.95807  -0.94588  -0.93018  -0.87095  -0.81295
 Alpha  occ. eigenvalues --   -0.77433  -0.76963  -0.73849  -0.71487  -0.67424
 Alpha  occ. eigenvalues --   -0.65944  -0.62746  -0.61722  -0.59066  -0.57287
 Alpha  occ. eigenvalues --   -0.55009  -0.53398  -0.50903  -0.50393  -0.49367
 Alpha  occ. eigenvalues --   -0.49094  -0.48709  -0.47348  -0.46426  -0.45677
 Alpha  occ. eigenvalues --   -0.44727  -0.43230  -0.42537  -0.42153  -0.39846
 Alpha  occ. eigenvalues --   -0.39615  -0.38636  -0.37373  -0.35485  -0.34667
 Alpha  occ. eigenvalues --   -0.33962  -0.32138  -0.31590  -0.31102  -0.29697
 Alpha  occ. eigenvalues --   -0.28228  -0.27907  -0.27375  -0.26361  -0.23851
 Alpha virt. eigenvalues --   -0.04999  -0.02620   0.01013   0.01451   0.04175
 Alpha virt. eigenvalues --    0.06817   0.07700   0.09068   0.09619   0.09997
 Alpha virt. eigenvalues --    0.10354   0.12399   0.12700   0.13442   0.13963
 Alpha virt. eigenvalues --    0.14502   0.14654   0.15343   0.17278   0.17333
 Alpha virt. eigenvalues --    0.18010   0.18143   0.19164   0.19898   0.20905
 Alpha virt. eigenvalues --    0.21805   0.22490   0.24810   0.28031   0.29625
 Alpha virt. eigenvalues --    0.30357   0.32387   0.33256   0.34679   0.36557
 Alpha virt. eigenvalues --    0.39209   0.40733   0.42802   0.46088   0.47430
 Alpha virt. eigenvalues --    0.47874   0.48105   0.49845   0.50206   0.51422
 Alpha virt. eigenvalues --    0.52787   0.54290   0.54686   0.55653   0.56249
 Alpha virt. eigenvalues --    0.56568   0.57213   0.57448   0.59174   0.59202
 Alpha virt. eigenvalues --    0.59679   0.60543   0.62065   0.62267   0.63714
 Alpha virt. eigenvalues --    0.63867   0.64899   0.66310   0.68365   0.69011
 Alpha virt. eigenvalues --    0.70883   0.71589   0.72766   0.74359   0.75841
 Alpha virt. eigenvalues --    0.76664   0.78319   0.79326   0.80943   0.81708
 Alpha virt. eigenvalues --    0.81944   0.82367   0.82448   0.83742   0.84466
 Alpha virt. eigenvalues --    0.84952   0.85670   0.85926   0.86644   0.87742
 Alpha virt. eigenvalues --    0.88699   0.90032   0.90779   0.91479   0.92210
 Alpha virt. eigenvalues --    0.93552   0.93924   0.94715   0.96971   0.98143
 Alpha virt. eigenvalues --    0.98281   0.99818   1.00620   1.03695   1.05531
 Alpha virt. eigenvalues --    1.06004   1.06474   1.06943   1.09358   1.10814
 Alpha virt. eigenvalues --    1.12887   1.14306   1.14951   1.15552   1.17210
 Alpha virt. eigenvalues --    1.17818   1.17953   1.21976   1.23598   1.24397
 Alpha virt. eigenvalues --    1.25808   1.29520   1.31554   1.35030   1.36495
 Alpha virt. eigenvalues --    1.37390   1.39673   1.40435   1.41224   1.43035
 Alpha virt. eigenvalues --    1.43467   1.44845   1.46081   1.46757   1.48601
 Alpha virt. eigenvalues --    1.50811   1.52224   1.54366   1.57478   1.58028
 Alpha virt. eigenvalues --    1.62206   1.68287   1.69135   1.74468   1.75888
 Alpha virt. eigenvalues --    1.78574   1.78697   1.79536   1.79958   1.82000
 Alpha virt. eigenvalues --    1.84073   1.85225   1.86683   1.86993   1.88547
 Alpha virt. eigenvalues --    1.90095   1.91006   1.93075   1.94743   1.95251
 Alpha virt. eigenvalues --    1.95678   1.96525   1.98088   1.99198   2.03194
 Alpha virt. eigenvalues --    2.05734   2.06029   2.06382   2.07769   2.09061
 Alpha virt. eigenvalues --    2.09975   2.11241   2.11849   2.13595   2.13761
 Alpha virt. eigenvalues --    2.16958   2.18902   2.19491   2.21414   2.22902
 Alpha virt. eigenvalues --    2.23632   2.25296   2.26793   2.28002   2.30029
 Alpha virt. eigenvalues --    2.31200   2.33234   2.34567   2.37349   2.38763
 Alpha virt. eigenvalues --    2.41707   2.47413   2.48153   2.50419   2.53532
 Alpha virt. eigenvalues --    2.56611   2.57357   2.58879   2.59294   2.62812
 Alpha virt. eigenvalues --    2.63213   2.66216   2.69044   2.70249   2.71516
 Alpha virt. eigenvalues --    2.72877   2.76460   2.76924   2.78879   2.84619
 Alpha virt. eigenvalues --    2.86859   2.88636   3.00310   3.06328   3.12777
 Alpha virt. eigenvalues --    3.24877   3.41059   3.60868   3.74834   3.95150
 Alpha virt. eigenvalues --    3.96696   3.99083   4.05192   4.06136   4.08566
 Alpha virt. eigenvalues --    4.09341   4.12362   4.17465   4.21567   4.28000
 Alpha virt. eigenvalues --    4.30264   4.30570   4.38317   4.50174   4.69917
          Condensed to atoms (all electrons):
               1          2          3          4          5          6
     1  O    8.232691   0.444588  -0.054409   0.001922  -0.000020   0.000000
     2  S    0.444588  13.618114   0.116089  -0.019634   0.001302  -0.000017
     3  N   -0.054409   0.116089   7.368390   0.254149  -0.059194   0.005910
     4  C    0.001922  -0.019634   0.254149   4.732889   0.345767  -0.057254
     5  N   -0.000020   0.001302  -0.059194   0.345767   6.830619   0.285375
     6  N    0.000000  -0.000017   0.005910  -0.057254   0.285375   6.776382
     7  C   -0.000032  -0.003710  -0.084511   0.471511  -0.070701  -0.104858
     8  N    0.000000   0.000336   0.003682  -0.055462  -0.075365   0.180209
     9  C    0.000000  -0.000011  -0.000098   0.006498   0.005979  -0.042741
    10  C    0.000000   0.000000   0.000004   0.000861  -0.000307   0.002924
    11  C    0.000000   0.000000   0.000000  -0.000008   0.000002  -0.000069
    12  C    0.000000   0.000000   0.000000   0.000000   0.000000   0.000016
    13  C    0.000000   0.000000   0.000000   0.000006  -0.000004   0.000360
    14  C    0.000000   0.000000   0.000000  -0.000388   0.000268   0.001074
    15  N   -0.051548   0.142392  -0.058222   0.001898  -0.000006  -0.000003
    16  C    0.001717  -0.015973  -0.000095   0.000116   0.000083   0.000027
    17  C   -0.007806  -0.012144   0.000511   0.000022  -0.000005   0.000000
    18  O   -0.042077   0.442720  -0.051443   0.000534   0.000824   0.000041
    19  H    0.002817  -0.006150   0.297584  -0.034289   0.002522  -0.000104
    20  H    0.000000  -0.000074  -0.000277  -0.027063   0.004048   0.003616
    21  H    0.000000   0.000000   0.000001   0.000050  -0.000004  -0.000090
    22  H    0.000000   0.000000   0.000000   0.000000   0.000000   0.000001
    23  H    0.000000   0.000000   0.000000   0.000000   0.000000   0.000000
    24  H    0.000000   0.000000   0.000000   0.000000   0.000000  -0.000008
    25  H    0.000000   0.000000   0.000000   0.000064  -0.000364   0.015550
    26  H    0.000050  -0.001607  -0.000195   0.000158   0.000096   0.000007
    27  H   -0.000043   0.002070  -0.000166   0.000101   0.000004  -0.000001
    28  H   -0.000050  -0.008495   0.001466   0.001154  -0.000139  -0.000076
    29  H    0.012519   0.000915  -0.000781  -0.000035  -0.000001   0.000000
    30  H   -0.000094  -0.009276   0.003937  -0.000034   0.000005   0.000000
    31  H    0.000082   0.002555  -0.000116  -0.000003   0.000000   0.000000
               7          8          9         10         11         12
     1  O   -0.000032   0.000000   0.000000   0.000000   0.000000   0.000000
     2  S   -0.003710   0.000336  -0.000011   0.000000   0.000000   0.000000
     3  N   -0.084511   0.003682  -0.000098   0.000004   0.000000   0.000000
     4  C    0.471511  -0.055462   0.006498   0.000861  -0.000008   0.000000
     5  N   -0.070701  -0.075365   0.005979  -0.000307   0.000002   0.000000
     6  N   -0.104858   0.180209  -0.042741   0.002924  -0.000069   0.000016
     7  C    5.144732   0.316159  -0.035960  -0.007962  -0.000058   0.000020
     8  N    0.316159   6.953076   0.195889  -0.051558   0.004696   0.000396
     9  C   -0.035960   0.195889   4.617956   0.529461  -0.007625  -0.038136
    10  C   -0.007962  -0.051558   0.529461   4.994419   0.529506  -0.039594
    11  C   -0.000058   0.004696  -0.007625   0.529506   4.844978   0.550308
    12  C    0.000020   0.000396  -0.038136  -0.039594   0.550308   4.849199
    13  C   -0.000090   0.004557  -0.009788  -0.042141  -0.022704   0.543374
    14  C    0.007745  -0.057055   0.519477  -0.073292  -0.041625  -0.037414
    15  N    0.000412  -0.000007   0.000000   0.000000   0.000000   0.000000
    16  C   -0.000402  -0.000107   0.000001   0.000000   0.000000   0.000000
    17  C    0.000065   0.000000   0.000000   0.000000   0.000000   0.000000
    18  O    0.000062  -0.000001   0.000000   0.000000   0.000000   0.000000
    19  H   -0.001898   0.000005   0.000001   0.000000   0.000000   0.000000
    20  H    0.356600  -0.034655  -0.001254   0.002283   0.000162  -0.000001
    21  H    0.006181  -0.009753  -0.041208   0.347671  -0.038114   0.004511
    22  H   -0.000004  -0.000115   0.003577  -0.039585   0.359534  -0.040094
    23  H    0.000000   0.000004   0.000531   0.004982  -0.042355   0.362553
    24  H    0.000002  -0.000109   0.003470   0.000816   0.004560  -0.041281
    25  H    0.000258  -0.013453  -0.034051   0.005587   0.000159   0.004377
    26  H    0.000006  -0.000003   0.000000   0.000000   0.000000   0.000000
    27  H    0.000049  -0.000001   0.000000   0.000000   0.000000   0.000000
    28  H    0.002444   0.000125   0.000014  -0.000003   0.000000   0.000000
    29  H    0.000013   0.000000   0.000000   0.000000   0.000000   0.000000
    30  H    0.000110   0.000006   0.000000   0.000000   0.000000   0.000000
    31  H    0.000002   0.000000   0.000000   0.000000   0.000000   0.000000
              13         14         15         16         17         18
     1  O    0.000000   0.000000  -0.051548   0.001717  -0.007806  -0.042077
     2  S    0.000000   0.000000   0.142392  -0.015973  -0.012144   0.442720
     3  N    0.000000   0.000000  -0.058222  -0.000095   0.000511  -0.051443
     4  C    0.000006  -0.000388   0.001898   0.000116   0.000022   0.000534
     5  N   -0.000004   0.000268  -0.000006   0.000083  -0.000005   0.000824
     6  N    0.000360   0.001074  -0.000003   0.000027   0.000000   0.000041
     7  C   -0.000090   0.007745   0.000412  -0.000402   0.000065   0.000062
     8  N    0.004557  -0.057055  -0.000007  -0.000107   0.000000  -0.000001
     9  C   -0.009788   0.519477   0.000000   0.000001   0.000000   0.000000
    10  C   -0.042141  -0.073292   0.000000   0.000000   0.000000   0.000000
    11  C   -0.022704  -0.041625   0.000000   0.000000   0.000000   0.000000
    12  C    0.543374  -0.037414   0.000000   0.000000   0.000000   0.000000
    13  C    4.865503   0.517834   0.000000   0.000000   0.000000   0.000000
    14  C    0.517834   4.979096   0.000000   0.000000   0.000000   0.000000
    15  N    0.000000   0.000000   7.190057   0.274685   0.274781  -0.051205
    16  C    0.000000   0.000000   0.274685   5.006180  -0.051116  -0.006250
    17  C    0.000000   0.000000   0.274781  -0.051116   5.009368   0.001801
    18  O    0.000000   0.000000  -0.051205  -0.006250   0.001801   8.208978
    19  H    0.000000   0.000000  -0.000405   0.000147   0.000334   0.001936
    20  H   -0.000006  -0.000117  -0.000122   0.000005   0.000027   0.000001
    21  H    0.000251   0.005785   0.000000   0.000000   0.000000   0.000000
    22  H    0.004540   0.000781   0.000000   0.000000   0.000000   0.000000
    23  H   -0.042225   0.004691   0.000000   0.000000   0.000000   0.000000
    24  H    0.360880  -0.038022   0.000000   0.000000   0.000000   0.000000
    25  H   -0.039751   0.354974   0.000000   0.000000   0.000000   0.000000
    26  H    0.000000   0.000000  -0.029442   0.376284   0.004463   0.012810
    27  H    0.000000   0.000000  -0.038512   0.373295  -0.003307   0.000142
    28  H    0.000000  -0.000002  -0.046846   0.370019  -0.002020   0.000110
    29  H    0.000000   0.000000  -0.032466   0.004548   0.374413   0.000067
    30  H    0.000000   0.000000  -0.050440  -0.001617   0.364161  -0.000037
    31  H    0.000000   0.000000  -0.035322  -0.003072   0.378465  -0.000050
              19         20         21         22         23         24
     1  O    0.002817   0.000000   0.000000   0.000000   0.000000   0.000000
     2  S   -0.006150  -0.000074   0.000000   0.000000   0.000000   0.000000
     3  N    0.297584  -0.000277   0.000001   0.000000   0.000000   0.000000
     4  C   -0.034289  -0.027063   0.000050   0.000000   0.000000   0.000000
     5  N    0.002522   0.004048  -0.000004   0.000000   0.000000   0.000000
     6  N   -0.000104   0.003616  -0.000090   0.000001   0.000000  -0.000008
     7  C   -0.001898   0.356600   0.006181  -0.000004   0.000000   0.000002
     8  N    0.000005  -0.034655  -0.009753  -0.000115   0.000004  -0.000109
     9  C    0.000001  -0.001254  -0.041208   0.003577   0.000531   0.003470
    10  C    0.000000   0.002283   0.347671  -0.039585   0.004982   0.000816
    11  C    0.000000   0.000162  -0.038114   0.359534  -0.042355   0.004560
    12  C    0.000000  -0.000001   0.004511  -0.040094   0.362553  -0.041281
    13  C    0.000000  -0.000006   0.000251   0.004540  -0.042225   0.360880
    14  C    0.000000  -0.000117   0.005785   0.000781   0.004691  -0.038022
    15  N   -0.000405  -0.000122   0.000000   0.000000   0.000000   0.000000
    16  C    0.000147   0.000005   0.000000   0.000000   0.000000   0.000000
    17  C    0.000334   0.000027   0.000000   0.000000   0.000000   0.000000
    18  O    0.001936   0.000001   0.000000   0.000000   0.000000   0.000000
    19  H    0.382444   0.001124   0.000000   0.000000   0.000000   0.000000
    20  H    0.001124   0.514155   0.002075  -0.000002   0.000000   0.000000
    21  H    0.000000   0.002075   0.587016  -0.005582  -0.000160   0.000015
    22  H    0.000000  -0.000002  -0.005582   0.579206  -0.005356  -0.000178
    23  H    0.000000   0.000000  -0.000160  -0.005356   0.580846  -0.005327
    24  H    0.000000   0.000000   0.000015  -0.000178  -0.005327   0.572274
    25  H    0.000000  -0.000011  -0.000140   0.000013  -0.000139  -0.005053
    26  H   -0.000021  -0.000004   0.000000   0.000000   0.000000   0.000000
    27  H    0.000000  -0.000003   0.000000   0.000000   0.000000   0.000000
    28  H    0.000042   0.000397   0.000000   0.000000   0.000000   0.000000
    29  H    0.000084  -0.000005   0.000000   0.000000   0.000000   0.000000
    30  H    0.001240   0.000707   0.000000   0.000000   0.000000   0.000000
    31  H   -0.000016  -0.000003   0.000000   0.000000   0.000000   0.000000
              25         26         27         28         29         30
     1  O    0.000000   0.000050  -0.000043  -0.000050   0.012519  -0.000094
     2  S    0.000000  -0.001607   0.002070  -0.008495   0.000915  -0.009276
     3  N    0.000000  -0.000195  -0.000166   0.001466  -0.000781   0.003937
     4  C    0.000064   0.000158   0.000101   0.001154  -0.000035  -0.000034
     5  N   -0.000364   0.000096   0.000004  -0.000139  -0.000001   0.000005
     6  N    0.015550   0.000007  -0.000001  -0.000076   0.000000   0.000000
     7  C    0.000258   0.000006   0.000049   0.002444   0.000013   0.000110
     8  N   -0.013453  -0.000003  -0.000001   0.000125   0.000000   0.000006
     9  C   -0.034051   0.000000   0.000000   0.000014   0.000000   0.000000
    10  C    0.005587   0.000000   0.000000  -0.000003   0.000000   0.000000
    11  C    0.000159   0.000000   0.000000   0.000000   0.000000   0.000000
    12  C    0.004377   0.000000   0.000000   0.000000   0.000000   0.000000
    13  C   -0.039751   0.000000   0.000000   0.000000   0.000000   0.000000
    14  C    0.354974   0.000000   0.000000  -0.000002   0.000000   0.000000
    15  N    0.000000  -0.029442  -0.038512  -0.046846  -0.032466  -0.050440
    16  C    0.000000   0.376284   0.373295   0.370019   0.004548  -0.001617
    17  C    0.000000   0.004463  -0.003307  -0.002020   0.374413   0.364161
    18  O    0.000000   0.012810   0.000142   0.000110   0.000067  -0.000037
    19  H    0.000000  -0.000021   0.000000   0.000042   0.000084   0.001240
    20  H   -0.000011  -0.000004  -0.000003   0.000397  -0.000005   0.000707
    21  H   -0.000140   0.000000   0.000000   0.000000   0.000000   0.000000
    22  H    0.000013   0.000000   0.000000   0.000000   0.000000   0.000000
    23  H   -0.000139   0.000000   0.000000   0.000000   0.000000   0.000000
    24  H   -0.005053   0.000000   0.000000   0.000000   0.000000   0.000000
    25  H    0.531109   0.000000   0.000000   0.000000   0.000000   0.000000
    26  H    0.000000   0.467099  -0.019915  -0.028420  -0.000180  -0.000170
    27  H    0.000000  -0.019915   0.554573  -0.041067   0.000005  -0.001628
    28  H    0.000000  -0.028420  -0.041067   0.596121  -0.000166   0.008495
    29  H    0.000000  -0.000180   0.000005  -0.000166   0.483488  -0.033036
    30  H    0.000000  -0.000170  -0.001628   0.008495  -0.033036   0.623812
    31  H    0.000000  -0.000016   0.005503  -0.001622  -0.019071  -0.040321
              31
     1  O    0.000082
     2  S    0.002555
     3  N   -0.000116
     4  C   -0.000003
     5  N    0.000000
     6  N    0.000000
     7  C    0.000002
     8  N    0.000000
     9  C    0.000000
    10  C    0.000000
    11  C    0.000000
    12  C    0.000000
    13  C    0.000000
    14  C    0.000000
    15  N   -0.035322
    16  C   -0.003072
    17  C    0.378465
    18  O   -0.000050
    19  H   -0.000016
    20  H   -0.000003
    21  H    0.000000
    22  H    0.000000
    23  H    0.000000
    24  H    0.000000
    25  H    0.000000
    26  H   -0.000016
    27  H    0.005503
    28  H   -0.001622
    29  H   -0.019071
    30  H   -0.040321
    31  H    0.535883
 Mulliken charges:
               1
     1  O   -0.540308
     2  S    1.306011
     3  N   -0.742217
     4  C    0.376472
     5  N   -0.270787
     6  N   -0.066272
     7  C    0.003817
     8  N   -0.361496
     9  C    0.328017
    10  C   -0.164071
    11  C   -0.141345
    12  C   -0.118234
    13  C   -0.140595
    14  C   -0.143810
    15  N   -0.489679
    16  C   -0.328475
    17  C   -0.332015
    18  O   -0.518962
    19  H    0.352602
    20  H    0.178392
    21  H    0.141496
    22  H    0.143263
    23  H    0.141957
    24  H    0.147961
    25  H    0.180870
    26  H    0.218999
    27  H    0.168903
    28  H    0.148518
    29  H    0.209688
    30  H    0.134179
    31  H    0.177122
 Sum of Mulliken charges =   0.00000
 Mulliken charges with hydrogens summed into heavy atoms:
               1
     1  O   -0.540308
     2  S    1.306011
     3  N   -0.389615
     4  C    0.376472
     5  N   -0.270787
     6  N   -0.066272
     7  C    0.182209
     8  N   -0.361496
     9  C    0.328017
    10  C   -0.022575
    11  C    0.001917
    12  C    0.023723
    13  C    0.007366
    14  C    0.037060
    15  N   -0.489679
    16  C    0.207945
    17  C    0.188975
    18  O   -0.518962
 Electronic spatial extent (au):  <R**2>=           6435.1626
 Charge=              0.0000 electrons
 Dipole moment (field-independent basis, Debye):
    X=              6.0766    Y=              7.7786    Z=             -0.5449  Tot=              9.8858
 Quadrupole moment (field-independent basis, Debye-Ang):
   XX=           -115.5421   YY=           -114.9103   ZZ=           -104.9226
   XY=            -10.2323   XZ=             -0.7037   YZ=             -2.8136
 Traceless Quadrupole moment (field-independent basis, Debye-Ang):
   XX=             -3.7504   YY=             -3.1187   ZZ=              6.8691
   XY=            -10.2323   XZ=             -0.7037   YZ=             -2.8136
 Octapole moment (field-independent basis, Debye-Ang**2):
  XXX=            159.0155  YYY=             28.5003  ZZZ=              2.2678  XYY=            -17.9005
  XXY=             55.4267  XXZ=             28.3458  XZZ=             -8.8836  YZZ=              7.0089
  YYZ=             -4.0774  XYZ=            -18.5981
 Hexadecapole moment (field-independent basis, Debye-Ang**3):
 XXXX=          -6781.5716 YYYY=           -956.2031 ZZZZ=           -585.9419 XXXY=            -12.9274
 XXXZ=             35.0082 YYYX=            -36.6606 YYYZ=              0.5323 ZZZX=              2.1869
 ZZZY=            -12.6764 XXYY=          -1268.8956 XXZZ=          -1244.7569 YYZZ=           -245.2392
 XXYZ=            -62.4283 YYXZ=            -12.2817 ZZXY=            -22.9620
 N-N= 1.469631585207D+03 E-N=-5.775368060413D+03  KE= 1.202107364175D+03
 No NMR shielding tensors so no spin-rotation constants.
 Leave Link  601 at Thu Aug  6 21:13:13 2020, MaxMem=    33554432 cpu:         0.2
 (Enter /prod/apps/gaussian/g09d1/l9999.exe)
 1\1\GINC-PIRINEUS24\SP\RB3LYP\6-31G(d)\C10H13N5O2S1\UBAFAR01\06-Aug-20
 20\0\\#p b3lyp/6-31G(d)\\SM46.n.3.pdb.xyz\\0,1\O,0,3.448,2.175,0.585\S
 ,0,2.993,2.414,-0.785\N,0,2.885,0.842,-1.437\C,0,2.476,0.632,-2.766\N,
 0,3.285,0.927,-3.821\N,0,2.68,0.578,-4.926\C,0,1.314,0.061,-3.242\N,0,
 1.485,0.037,-4.587\C,0,0.601,-0.464,-5.587\C,0,-0.332,-1.448,-5.252\C,
 0,-1.196,-1.926,-6.236\C,0,-1.12,-1.437,-7.541\C,0,-0.176,-0.459,-7.86
 2\C,0,0.685,0.038,-6.887\N,0,1.513,3.175,-0.667\C,0,0.933,3.748,-1.888
 \C,0,0.543,2.571,0.255\O,0,3.793,3.197,-1.725\H,0,2.441,0.217,-0.763\H
 ,0,0.426,-0.298,-2.752\H,0,-0.374,-1.84,-4.243\H,0,-1.922,-2.69,-5.979
 \H,0,-1.791,-1.816,-8.304\H,0,-0.114,-0.072,-8.872\H,0,1.412,0.805,-7.
 118\H,0,1.726,4.169,-2.503\H,0,0.258,4.551,-1.584\H,0,0.367,3.01,-2.46
 6\H,0,1.056,2.246,1.158\H,0,0.011,1.725,-0.197\H,0,-0.183,3.343,0.52\\
 Version=AM64L-G09RevD.01\State=1-A\HF=-1211.1544545\RMSD=3.657e-09\Dip
 ole=-3.6192866,-1.2894471,-0.6044215\Quadrupole=-7.8788329,3.8075291,4
 .0713038,-2.7278642,-4.9115993,-2.0000625\PG=C01 [X(C10H13N5O2S1)]\\@


 SATCHEL PAIGE'S GUIDE TO LONGEVITY

    1.  AVOID FRIED MEATS, WHICH ANGRY UP THE BLOOD.

    2.  IF YOUR STOMACH DISPUTES YOU, LIE DOWN AND PACIFY IT WITH COOL
        THOUGHTS.

    3.  KEEP THE JUICES FLOWING BY JANGLING AROUND GENTLY AS YOU MOVE.

    4.  GO VERY LIGHT ON THE VICES, SUCH AS CARRYING ON IN SOCIETY.
        THE SOCIAL RUMBLE AIN'T RESTFUL.

    5.  AVOID RUNNING AT ALL TIMES.

    6.  DON'T LOOK BACK.  SOMETHING MAY BE GAINING ON YOU.
 Job cpu time:       0 days  0 hours  3 minutes 59.8 seconds.
 File lengths (MBytes):  RWF=     51 Int=      0 D2E=      0 Chk=      4 Scr=      1
 Normal termination of Gaussian 09 at Thu Aug  6 21:13:13 2020.
 Initial command:
 /prod/apps/gaussian/g09d1/l1.exe "/tmp/ubafar01/1448557/Gau-179097.inp" -scrdir="/tmp/ubafar01/1448557/"
 Entering Link 1 = /prod/apps/gaussian/g09d1/l1.exe PID=    181020.
  
 Copyright (c) 1988,1990,1992,1993,1995,1998,2003,2009,2013,
            Gaussian, Inc.  All Rights Reserved.
  
 This is part of the Gaussian(R) 09 program.  It is based on
 the Gaussian(R) 03 system (copyright 2003, Gaussian, Inc.),
 the Gaussian(R) 98 system (copyright 1998, Gaussian, Inc.),
 the Gaussian(R) 94 system (copyright 1995, Gaussian, Inc.),
 the Gaussian 92(TM) system (copyright 1992, Gaussian, Inc.),
 the Gaussian 90(TM) system (copyright 1990, Gaussian, Inc.),
 the Gaussian 88(TM) system (copyright 1988, Gaussian, Inc.),
 the Gaussian 86(TM) system (copyright 1986, Carnegie Mellon
 University), and the Gaussian 82(TM) system (copyright 1983,
 Carnegie Mellon University). Gaussian is a federally registered
 trademark of Gaussian, Inc.
  
 This software contains proprietary and confidential information,
 including trade secrets, belonging to Gaussian, Inc.
  
 This software is provided under written license and may be
 used, copied, transmitted, or stored only in accord with that
 written license.
  
 The following legend is applicable only to US Government
 contracts under FAR:
  
                    RESTRICTED RIGHTS LEGEND
  
 Use, reproduction and disclosure by the US Government is
 subject to restrictions as set forth in subparagraphs (a)
 and (c) of the Commercial Computer Software - Restricted
 Rights clause in FAR 52.227-19.
  
 Gaussian, Inc.
 340 Quinnipiac St., Bldg. 40, Wallingford CT 06492
  
  
 ---------------------------------------------------------------
 Warning -- This program may not be used in any manner that
 competes with the business of Gaussian, Inc. or will provide
 assistance to any competitor of Gaussian, Inc.  The licensee
 of this program is prohibited from giving any competitor of
 Gaussian, Inc. access to this program.  By using this program,
 the user acknowledges that Gaussian, Inc. is engaged in the
 business of creating and licensing software in the field of
 computational chemistry and represents and warrants to the
 licensee that it is not a competitor of Gaussian, Inc. and that
 it will not use this program in any manner prohibited above.
 ---------------------------------------------------------------
  

 Cite this work as:
 Gaussian 09, Revision D.01,
 M. J. Frisch, G. W. Trucks, H. B. Schlegel, G. E. Scuseria, 
 M. A. Robb, J. R. Cheeseman, G. Scalmani, V. Barone, B. Mennucci, 
 G. A. Petersson, H. Nakatsuji, M. Caricato, X. Li, H. P. Hratchian, 
 A. F. Izmaylov, J. Bloino, G. Zheng, J. L. Sonnenberg, M. Hada, 
 M. Ehara, K. Toyota, R. Fukuda, J. Hasegawa, M. Ishida, T. Nakajima, 
 Y. Honda, O. Kitao, H. Nakai, T. Vreven, J. A. Montgomery, Jr., 
 J. E. Peralta, F. Ogliaro, M. Bearpark, J. J. Heyd, E. Brothers, 
 K. N. Kudin, V. N. Staroverov, T. Keith, R. Kobayashi, J. Normand, 
 K. Raghavachari, A. Rendell, J. C. Burant, S. S. Iyengar, J. Tomasi, 
 M. Cossi, N. Rega, J. M. Millam, M. Klene, J. E. Knox, J. B. Cross, 
 V. Bakken, C. Adamo, J. Jaramillo, R. Gomperts, R. E. Stratmann, 
 O. Yazyev, A. J. Austin, R. Cammi, C. Pomelli, J. W. Ochterski, 
 R. L. Martin, K. Morokuma, V. G. Zakrzewski, G. A. Voth, 
 P. Salvador, J. J. Dannenberg, S. Dapprich, A. D. Daniels, 
 O. Farkas, J. B. Foresman, J. V. Ortiz, J. Cioslowski, 
 and D. J. Fox, Gaussian, Inc., Wallingford CT, 2013.
 
 ******************************************
 Gaussian 09:  AM64L-G09RevD.01 24-Apr-2013
                 6-Aug-2020 
 ******************************************
 %nproc=1
 Will use up to    1 processors via shared memory.
 %Chk=SM46.n.3.pdb.xyz.mst.n.w.chk
 %subst l502 /dades/curu/work_g09D01_MST_AddSphPartition_ReadGammas/exe-dir/
 ----------------------------------------------------------------------
 #p b3lyp/6-31G(d) scrf=(iefpcm,read,solvent=Water) geom=allcheck guess
 =read
 ----------------------------------------------------------------------
 1/29=7,38=1,40=2/1;
 2/12=2,40=1/2;
 3/5=1,6=6,7=1,11=2,14=-4,16=1,25=1,30=1,70=2203,72=1,74=-5,116=-2/1,2,3;
 4/5=1/1;
 5/5=2,38=6,53=1/2;
 6/7=2,8=2,9=2,10=2,28=1/1;
 99/5=1,9=1/99;
 Leave Link    1 at Thu Aug  6 21:13:13 2020, MaxMem=           0 cpu:         0.0
 (Enter /prod/apps/gaussian/g09d1/l101.exe)
 Structure from the checkpoint file:  "SM46.n.3.pdb.xyz.mst.n.w.chk"
 ----------------
 SM46.n.3.pdb.xyz
 ----------------
 Charge =  0 Multiplicity = 1
 Z-Matrix found in file.
 O,0,3.448,2.175,0.585
 S,0,2.993,2.414,-0.785
 N,0,2.885,0.842,-1.437
 C,0,2.476,0.632,-2.766
 N,0,3.285,0.927,-3.821
 N,0,2.68,0.578,-4.926
 C,0,1.314,0.061,-3.242
 N,0,1.485,0.037,-4.587
 C,0,0.601,-0.464,-5.587
 C,0,-0.332,-1.448,-5.252
 C,0,-1.196,-1.926,-6.236
 C,0,-1.12,-1.437,-7.541
 C,0,-0.176,-0.459,-7.862
 C,0,0.685,0.038,-6.887
 N,0,1.513,3.175,-0.667
 C,0,0.933,3.748,-1.888
 C,0,0.543,2.571,0.255
 O,0,3.793,3.197,-1.725
 H,0,2.441,0.217,-0.763
 H,0,0.426,-0.298,-2.752
 H,0,-0.374,-1.84,-4.243
 H,0,-1.922,-2.69,-5.979
 H,0,-1.791,-1.816,-8.304
 H,0,-0.114,-0.072,-8.872
 H,0,1.412,0.805,-7.118
 H,0,1.726,4.169,-2.503
 H,0,0.258,4.551,-1.584
 H,0,0.367,3.01,-2.466
 H,0,1.056,2.246,1.158
 H,0,0.011,1.725,-0.197
 H,0,-0.183,3.343,0.52
 Recover connectivity data from disk.
 NAtoms=     31 NQM=       31 NQMF=       0 NMMI=      0 NMMIF=      0
                NMic=       0 NMicF=      0.
                    Isotopes and Nuclear Properties:
 (Nuclear quadrupole moments (NQMom) in fm**2, nuclear magnetic moments (NMagM)
  in nuclear magnetons)

  Atom         1           2           3           4           5           6           7           8           9          10
 IAtWgt=          16          32          14          12          14          14          12          14          12          12
 AtmWgt=  15.9949146  31.9720718  14.0030740  12.0000000  14.0030740  14.0030740  12.0000000  14.0030740  12.0000000  12.0000000
 NucSpn=           0           0           2           0           2           2           0           2           0           0
 AtZEff=  -5.6000000 -13.6000000  -4.5500000  -3.6000000  -4.5500000  -4.5500000  -3.6000000  -4.5500000  -3.6000000  -3.6000000
 NQMom=    0.0000000   0.0000000   2.0440000   0.0000000   2.0440000   2.0440000   0.0000000   2.0440000   0.0000000   0.0000000
 NMagM=    0.0000000   0.0000000   0.4037610   0.0000000   0.4037610   0.4037610   0.0000000   0.4037610   0.0000000   0.0000000
 AtZNuc=   8.0000000  16.0000000   7.0000000   6.0000000   7.0000000   7.0000000   6.0000000   7.0000000   6.0000000   6.0000000

  Atom        11          12          13          14          15          16          17          18          19          20
 IAtWgt=          12          12          12          12          14          12          12          16           1           1
 AtmWgt=  12.0000000  12.0000000  12.0000000  12.0000000  14.0030740  12.0000000  12.0000000  15.9949146   1.0078250   1.0078250
 NucSpn=           0           0           0           0           2           0           0           0           1           1
 AtZEff=  -3.6000000  -3.6000000  -3.6000000  -3.6000000  -4.5500000  -3.6000000  -3.6000000  -5.6000000  -1.0000000  -1.0000000
 NQMom=    0.0000000   0.0000000   0.0000000   0.0000000   2.0440000   0.0000000   0.0000000   0.0000000   0.0000000   0.0000000
 NMagM=    0.0000000   0.0000000   0.0000000   0.0000000   0.4037610   0.0000000   0.0000000   0.0000000   2.7928460   2.7928460
 AtZNuc=   6.0000000   6.0000000   6.0000000   6.0000000   7.0000000   6.0000000   6.0000000   8.0000000   1.0000000   1.0000000

  Atom        21          22          23          24          25          26          27          28          29          30
 IAtWgt=           1           1           1           1           1           1           1           1           1           1
 AtmWgt=   1.0078250   1.0078250   1.0078250   1.0078250   1.0078250   1.0078250   1.0078250   1.0078250   1.0078250   1.0078250
 NucSpn=           1           1           1           1           1           1           1           1           1           1
 AtZEff=  -1.0000000  -1.0000000  -1.0000000  -1.0000000  -1.0000000  -1.0000000  -1.0000000  -1.0000000  -1.0000000  -1.0000000
 NQMom=    0.0000000   0.0000000   0.0000000   0.0000000   0.0000000   0.0000000   0.0000000   0.0000000   0.0000000   0.0000000
 NMagM=    2.7928460   2.7928460   2.7928460   2.7928460   2.7928460   2.7928460   2.7928460   2.7928460   2.7928460   2.7928460
 AtZNuc=   1.0000000   1.0000000   1.0000000   1.0000000   1.0000000   1.0000000   1.0000000   1.0000000   1.0000000   1.0000000

  Atom        31
 IAtWgt=           1
 AtmWgt=   1.0078250
 NucSpn=           1
 AtZEff=  -1.0000000
 NQMom=    0.0000000
 NMagM=    2.7928460
 AtZNuc=   1.0000000
 Leave Link  101 at Thu Aug  6 21:13:13 2020, MaxMem=    33554432 cpu:         0.0
 (Enter /prod/apps/gaussian/g09d1/l202.exe)
                          Input orientation:                          
 ---------------------------------------------------------------------
 Center     Atomic      Atomic             Coordinates (Angstroms)
 Number     Number       Type             X           Y           Z
 ---------------------------------------------------------------------
      1          8           0        3.448000    2.175000    0.585000
      2         16           0        2.993000    2.414000   -0.785000
      3          7           0        2.885000    0.842000   -1.437000
      4          6           0        2.476000    0.632000   -2.766000
      5          7           0        3.285000    0.927000   -3.821000
      6          7           0        2.680000    0.578000   -4.926000
      7          6           0        1.314000    0.061000   -3.242000
      8          7           0        1.485000    0.037000   -4.587000
      9          6           0        0.601000   -0.464000   -5.587000
     10          6           0       -0.332000   -1.448000   -5.252000
     11          6           0       -1.196000   -1.926000   -6.236000
     12          6           0       -1.120000   -1.437000   -7.541000
     13          6           0       -0.176000   -0.459000   -7.862000
     14          6           0        0.685000    0.038000   -6.887000
     15          7           0        1.513000    3.175000   -0.667000
     16          6           0        0.933000    3.748000   -1.888000
     17          6           0        0.543000    2.571000    0.255000
     18          8           0        3.793000    3.197000   -1.725000
     19          1           0        2.441000    0.217000   -0.763000
     20          1           0        0.426000   -0.298000   -2.752000
     21          1           0       -0.374000   -1.840000   -4.243000
     22          1           0       -1.922000   -2.690000   -5.979000
     23          1           0       -1.791000   -1.816000   -8.304000
     24          1           0       -0.114000   -0.072000   -8.872000
     25          1           0        1.412000    0.805000   -7.118000
     26          1           0        1.726000    4.169000   -2.503000
     27          1           0        0.258000    4.551000   -1.584000
     28          1           0        0.367000    3.010000   -2.466000
     29          1           0        1.056000    2.246000    1.158000
     30          1           0        0.011000    1.725000   -0.197000
     31          1           0       -0.183000    3.343000    0.520000
 ---------------------------------------------------------------------
                    Distance matrix (angstroms):
                    1          2          3          4          5
     1  O    0.000000
     2  S    1.463231   0.000000
     3  N    2.486432   1.705272   0.000000
     4  C    3.815080   2.714254   1.406279   0.000000
     5  N    4.582238   3.393189   2.418818   1.361812   0.000000
     6  N    5.788899   4.540567   3.504974   2.170284   1.307230
     7  C    4.865067   3.793745   2.517147   1.379442   2.229358
     8  N    5.930767   4.730687   3.539848   2.156884   2.149152
     9  C    7.291318   6.088001   4.913735   3.560180   3.501070
    10  C    7.841243   6.776781   5.490666   4.288527   4.557529
    11  C    9.214715   8.129989   6.880900   5.662848   5.835340
    12  C    9.997252   8.797187   7.648051   6.325552   6.231446
    13  C    9.561545   8.269257   7.234843   5.847444   5.498109
    14  C    8.248134   6.943100   5.932025   4.532456   4.117120
    15  N    2.512315   1.668366   2.813925   3.435116   4.259249
    16  C    3.862031   2.690681   3.529666   3.586250   4.150474
    17  C    2.950380   2.666224   3.367086   4.077089   5.180258
    18  O    2.549433   1.461742   2.540361   3.065517   3.131163
    19  H    2.581650   2.265391   1.020802   2.045839   3.250815
    20  H    5.136515   4.220607   3.012558   2.251132   3.288961
    21  H    7.351020   6.433581   5.068317   4.051520   4.606805
    22  H    9.777076   8.785538   7.497469   6.379769   6.697201
    23  H   11.062980   9.864832   8.722708   7.407391   7.306649
    24  H   10.352377   9.012947   8.068991   6.669854   6.169587
    25  H    8.084455   6.722747   5.868974   4.483517   3.793840
    26  H    4.059195   2.763483   3.680838   3.625195   3.831210
    27  H    4.530567   3.561656   4.547463   4.655664   5.224966
    28  H    4.415698   3.174406   3.478418   3.192611   3.832706
    29  H    2.460698   2.748716   3.471380   4.474279   5.612365
    30  H    3.553448   3.116535   3.252255   3.724330   4.948662
    31  H    3.814788   3.557111   4.415594   5.021713   6.058743
                    6          7          8          9         10
     6  N    0.000000
     7  C    2.229148   0.000000
     8  N    1.354853   1.356039   0.000000
     9  C    2.417628   2.506595   1.425643   0.000000
    10  C    3.644598   3.004413   2.439045   1.396771   0.000000
    11  C    4.796821   4.383184   3.709492   2.405796   1.394000
    12  C    5.033731   5.162341   4.205332   2.779692   2.420865
    13  C    4.225187   4.882100   3.705477   2.404034   2.795453
    14  C    2.849061   3.698945   2.435159   1.396087   2.432223
    15  N    5.123024   4.045642   5.021377   6.187121   6.767450
    16  C    4.725500   3.946194   4.621777   5.615494   6.317843
    17  C    5.948242   4.373048   5.545582   6.583582   6.873502
    18  O    4.283028   4.275655   4.848042   6.205387   7.143625
    19  H    4.185452   2.727619   3.945797   5.207719   5.532890
    20  H    3.251795   1.075883   2.144978   2.845243   2.854306
    21  H    3.954760   2.732242   2.664084   2.156464   1.083286
    22  H    5.741693   5.052808   4.580594   3.387369   2.144573
    23  H    6.093600   6.228001   5.289790   3.864150   3.402765
    24  H    4.878509   5.809800   4.574922   3.384688   3.878827
    25  H    2.542482   3.947976   2.645962   2.147567   3.405804
    26  H    4.435800   4.194226   4.634065   5.678148   6.583544
    27  H    5.728855   4.901449   5.558753   6.425876   7.056226
    28  H    4.161273   3.193053   3.819332   4.675903   5.303222
    29  H    6.514189   4.919430   6.169988   7.283279   7.527302
    30  H    5.550010   3.706579   4.928907   5.847386   5.978177
    31  H    6.745436   5.212022   6.308194   7.239016   7.502791
                   11         12         13         14         15
    11  C    0.000000
    12  C    1.395680   0.000000
    13  C    2.415857   1.396661   0.000000
    14  C    2.796294   2.421026   1.392464   0.000000
    15  N    8.023256   8.686490   8.235697   7.015323   0.000000
    16  C    7.458688   7.940746   7.390359   6.230217   1.468186
    17  C    8.085803   8.922289   8.693880   7.579210   1.468264
    18  O    8.454843   8.912765   8.172029   6.803322   2.513613
    19  H    6.911870   7.833117   7.596148   6.373300   3.101639
    20  H    4.173670   5.159647   5.147856   4.156706   4.194106
    21  H    2.157575   3.405250   3.878598   3.411613   6.441954
    22  H    1.084814   2.157095   3.401700   3.881095   8.626401
    23  H    2.154704   1.084459   2.155235   3.402320   9.703106
    24  H    3.399491   2.155649   1.083380   2.142598   8.972857
    25  H    3.877879   3.408301   2.161707   1.081748   6.873318
    26  H    7.721554   8.056575   7.331771   6.112961   2.098643
    27  H    8.105970   8.558088   8.043739   6.976482   2.075883
    28  H    6.404683   6.909602   6.437828   5.336586   2.139379
    29  H    8.783412   9.693919   9.497118   8.350744   2.098217
    30  H    7.159342   8.075379   7.972268   6.932268   2.139954
    31  H    8.627402   9.418391   9.203976   8.157211   2.076923
                   16         17         18         19         20
    16  C    0.000000
    17  C    2.475859   0.000000
    18  O    2.917151   3.856783   0.000000
    19  H    4.000956   3.190618   3.410828   0.000000
    20  H    4.168172   4.157752   4.960488   2.877772   0.000000
    21  H    6.203226   6.366303   7.005397   4.926040   2.289289
    22  H    8.144639   8.521567   9.241997   7.395477   4.652773
    23  H    8.918707   9.896959   9.979703   8.883107   6.167991
    24  H    8.029001   9.524664   8.776709   8.506905   6.147933
    25  H    6.020265   7.631189   6.362018   6.464566   4.609855
    26  H    1.088262   3.399950   2.412998   4.376886   4.658980
    27  H    1.092177   2.717268   3.788063   4.921695   4.990516
    28  H    1.095027   2.761800   3.510203   3.873310   3.320864
    29  H    3.398419   1.088211   4.087451   3.118542   4.707115
    30  H    2.793223   1.096834   4.336484   2.915359   3.285237
    31  H    2.684762   1.092376   4.568360   4.278240   4.932925
                   21         22         23         24         25
    21  H    0.000000
    22  H    2.476388   0.000000
    23  H    4.301184   2.487300   0.000000
    24  H    4.961962   4.300260   2.485254   0.000000
    25  H    4.295515   4.962651   4.305281   2.484818   0.000000
    26  H    6.598915   8.510955   9.046608   7.869933   5.719556
    27  H    6.950869   8.746457   9.481323   8.638603   6.781548
    28  H    5.218171   7.076065   7.875880   7.125091   5.253109
    29  H    6.921784   9.174385  10.683384  10.360643   8.408055
    30  H    5.406252   7.527300   9.028252   8.860048   7.121056
    31  H    7.041743   9.036493  10.347170   9.993831   8.205152
                   26         27         28         29         30
    26  H    0.000000
    27  H    1.773558   0.000000
[...]
 Alpha virt. eigenvalues --    0.82131   0.83141   0.83711   0.83822   0.84206
 Alpha virt. eigenvalues --    0.85091   0.85995   0.86618   0.87174   0.88166
 Alpha virt. eigenvalues --    0.89653   0.90133   0.91150   0.91607   0.93111
 Alpha virt. eigenvalues --    0.94354   0.94417   0.95415   0.97418   0.98040
 Alpha virt. eigenvalues --    0.98909   0.99711   1.01222   1.02795   1.04759
 Alpha virt. eigenvalues --    1.05024   1.06119   1.07151   1.08275   1.10971
 Alpha virt. eigenvalues --    1.12547   1.13953   1.15248   1.15624   1.16309
 Alpha virt. eigenvalues --    1.17114   1.18268   1.21119   1.22658   1.24935
 Alpha virt. eigenvalues --    1.25500   1.29137   1.31186   1.34707   1.36419
 Alpha virt. eigenvalues --    1.37517   1.39806   1.41317   1.41912   1.43728
 Alpha virt. eigenvalues --    1.44050   1.45437   1.46096   1.47724   1.49641
 Alpha virt. eigenvalues --    1.50674   1.51497   1.54036   1.56964   1.58085
 Alpha virt. eigenvalues --    1.62078   1.67724   1.68838   1.73960   1.75051
 Alpha virt. eigenvalues --    1.77682   1.78876   1.79301   1.79615   1.80656
 Alpha virt. eigenvalues --    1.83606   1.84777   1.85386   1.87727   1.87853
 Alpha virt. eigenvalues --    1.89662   1.90523   1.94107   1.94464   1.95696
 Alpha virt. eigenvalues --    1.96397   1.96762   1.97842   1.98709   2.03413
 Alpha virt. eigenvalues --    2.05012   2.05801   2.06975   2.08329   2.09287
 Alpha virt. eigenvalues --    2.10259   2.10918   2.12506   2.13800   2.14591
 Alpha virt. eigenvalues --    2.16631   2.19624   2.19906   2.21338   2.23405
 Alpha virt. eigenvalues --    2.24391   2.24686   2.26360   2.29013   2.30122
 Alpha virt. eigenvalues --    2.31370   2.32994   2.34385   2.37245   2.38689
 Alpha virt. eigenvalues --    2.42289   2.47784   2.48381   2.50994   2.53084
 Alpha virt. eigenvalues --    2.56585   2.58003   2.58799   2.59366   2.63193
 Alpha virt. eigenvalues --    2.64025   2.66844   2.69735   2.70316   2.72198
 Alpha virt. eigenvalues --    2.73881   2.74745   2.76242   2.78815   2.83311
 Alpha virt. eigenvalues --    2.86619   2.88750   3.00171   3.05803   3.13020
 Alpha virt. eigenvalues --    3.25161   3.42086   3.60048   3.73014   3.94251
 Alpha virt. eigenvalues --    3.95901   3.97942   4.04068   4.06797   4.08775
 Alpha virt. eigenvalues --    4.10398   4.12927   4.17248   4.21696   4.28551
 Alpha virt. eigenvalues --    4.30985   4.31617   4.39163   4.50204   4.70894
          Condensed to atoms (all electrons):
               1          2          3          4          5          6
     1  O    8.266934   0.448518  -0.055328   0.001774  -0.000020   0.000000
     2  S    0.448518  13.581129   0.143337  -0.022399   0.001733   0.000040
     3  N   -0.055328   0.143337   7.368354   0.256548  -0.058625   0.005610
     4  C    0.001774  -0.022399   0.256548   4.656652   0.370605  -0.080795
     5  N   -0.000020   0.001733  -0.058625   0.370605   6.885816   0.297924
     6  N    0.000000   0.000040   0.005610  -0.080795   0.297924   6.776085
     7  C   -0.000031  -0.003229  -0.072412   0.518933  -0.070815  -0.100828
     8  N    0.000000   0.000271   0.003340  -0.037604  -0.094061   0.227708
     9  C    0.000000  -0.000013  -0.000119   0.004227   0.006483  -0.043157
    10  C    0.000000   0.000000   0.000004   0.000978  -0.000327   0.002930
    11  C    0.000000   0.000000   0.000000  -0.000008   0.000002  -0.000067
    12  C    0.000000   0.000000   0.000000   0.000000   0.000000   0.000017
    13  C    0.000000   0.000000   0.000000   0.000006  -0.000004   0.000284
    14  C    0.000000   0.000000   0.000001  -0.000406   0.000344  -0.000119
    15  N   -0.053663   0.172926  -0.061069   0.001248  -0.000031  -0.000004
    16  C    0.001572  -0.018864   0.000007   0.000303   0.000063   0.000024
    17  C   -0.007423  -0.016448   0.000788   0.000024  -0.000003   0.000000
    18  O   -0.040861   0.442324  -0.053725   0.000463   0.001035   0.000058
    19  H    0.001925  -0.007423   0.299241  -0.026141   0.001986  -0.000075
    20  H    0.000000  -0.000095  -0.000650  -0.025530   0.004035   0.003479
    21  H    0.000000   0.000000   0.000000   0.000062  -0.000007  -0.000087
    22  H    0.000000   0.000000   0.000000   0.000000   0.000000   0.000001
    23  H    0.000000   0.000000   0.000000   0.000000   0.000000   0.000000
    24  H    0.000000   0.000000   0.000000   0.000000   0.000000  -0.000008
    25  H    0.000000   0.000000   0.000000   0.000040  -0.000326   0.015742
    26  H    0.000051  -0.002153  -0.000221   0.000082   0.000102   0.000007
    27  H   -0.000042   0.001806  -0.000157   0.000091   0.000004  -0.000001
    28  H   -0.000052  -0.007623   0.001477   0.001208  -0.000141  -0.000055
    29  H    0.011122  -0.000075  -0.000795  -0.000024  -0.000001   0.000000
    30  H   -0.000127  -0.008240   0.003633   0.000050   0.000005   0.000000
    31  H    0.000077   0.002343  -0.000114  -0.000003   0.000000   0.000000
               7          8          9         10         11         12
     1  O   -0.000031   0.000000   0.000000   0.000000   0.000000   0.000000
     2  S   -0.003229   0.000271  -0.000013   0.000000   0.000000   0.000000
     3  N   -0.072412   0.003340  -0.000119   0.000004   0.000000   0.000000
     4  C    0.518933  -0.037604   0.004227   0.000978  -0.000008   0.000000
     5  N   -0.070815  -0.094061   0.006483  -0.000327   0.000002   0.000000
     6  N   -0.100828   0.227708  -0.043157   0.002930  -0.000067   0.000017
     7  C    5.021443   0.331333  -0.031374  -0.006853  -0.000002   0.000020
     8  N    0.331333   6.880363   0.197714  -0.050420   0.004681   0.000332
     9  C   -0.031374   0.197714   4.627291   0.528630  -0.009988  -0.038302
    10  C   -0.006853  -0.050420   0.528630   4.993002   0.527649  -0.041038
    11  C   -0.000002   0.004681  -0.009988   0.527649   4.863882   0.543983
    12  C    0.000020   0.000332  -0.038302  -0.041038   0.543983   4.871208
    13  C   -0.000088   0.004560  -0.010763  -0.042204  -0.024781   0.539439
    14  C    0.007295  -0.058823   0.513893  -0.071251  -0.041504  -0.039357
    15  N    0.000526  -0.000006   0.000000   0.000000   0.000000   0.000000
    16  C   -0.000284  -0.000108   0.000001   0.000000   0.000000   0.000000
    17  C    0.000066   0.000001   0.000000   0.000000   0.000000   0.000000
    18  O    0.000045  -0.000001   0.000000   0.000000   0.000000   0.000000
    19  H   -0.001451   0.000007   0.000002   0.000000   0.000000   0.000000
    20  H    0.361039  -0.033004  -0.001688   0.002183   0.000164  -0.000001
    21  H    0.005881  -0.009207  -0.039765   0.353852  -0.034473   0.004282
    22  H   -0.000004  -0.000108   0.003426  -0.037498   0.363400  -0.039299
    23  H    0.000000   0.000003   0.000483   0.004868  -0.041129   0.365839
    24  H    0.000001  -0.000103   0.003563   0.000709   0.004471  -0.039954
    25  H    0.000227  -0.013434  -0.039544   0.005478   0.000090   0.004527
    26  H   -0.000003  -0.000002   0.000000   0.000000   0.000000   0.000000
    27  H    0.000044  -0.000001   0.000000   0.000000   0.000000   0.000000
    28  H    0.002013   0.000126   0.000009  -0.000003   0.000000   0.000000
    29  H    0.000011   0.000000   0.000000   0.000000   0.000000   0.000000
    30  H    0.000107   0.000005   0.000000   0.000000   0.000000   0.000000
    31  H    0.000002   0.000000   0.000000   0.000000   0.000000   0.000000
              13         14         15         16         17         18
     1  O    0.000000   0.000000  -0.053663   0.001572  -0.007423  -0.040861
     2  S    0.000000   0.000000   0.172926  -0.018864  -0.016448   0.442324
     3  N    0.000000   0.000001  -0.061069   0.000007   0.000788  -0.053725
     4  C    0.000006  -0.000406   0.001248   0.000303   0.000024   0.000463
     5  N   -0.000004   0.000344  -0.000031   0.000063  -0.000003   0.001035
     6  N    0.000284  -0.000119  -0.000004   0.000024   0.000000   0.000058
     7  C   -0.000088   0.007295   0.000526  -0.000284   0.000066   0.000045
     8  N    0.004560  -0.058823  -0.000006  -0.000108   0.000001  -0.000001
     9  C   -0.010763   0.513893   0.000000   0.000001   0.000000   0.000000
    10  C   -0.042204  -0.071251   0.000000   0.000000   0.000000   0.000000
    11  C   -0.024781  -0.041504   0.000000   0.000000   0.000000   0.000000
    12  C    0.539439  -0.039357   0.000000   0.000000   0.000000   0.000000
    13  C    4.879072   0.519941   0.000000   0.000000   0.000000   0.000000
    14  C    0.519941   4.995477   0.000000   0.000000   0.000000   0.000000
    15  N    0.000000   0.000000   7.196463   0.266818   0.265504  -0.053095
    16  C    0.000000   0.000000   0.266818   5.006549  -0.048492  -0.006188
    17  C    0.000000   0.000000   0.265504  -0.048492   5.008003   0.001607
    18  O    0.000000   0.000000  -0.053095  -0.006188   0.001607   8.260653
    19  H    0.000000   0.000000  -0.000522   0.000120   0.000409   0.001479
    20  H   -0.000004  -0.000097  -0.000101   0.000016   0.000046   0.000001
    21  H    0.000213   0.005252   0.000000   0.000000   0.000000   0.000000
    22  H    0.004406   0.000733   0.000000   0.000000   0.000000   0.000000
    23  H   -0.041301   0.004666   0.000000   0.000000   0.000000   0.000000
    24  H    0.364044  -0.037739   0.000000   0.000000   0.000000   0.000000
    25  H   -0.037965   0.356919   0.000000   0.000000   0.000000   0.000000
    26  H    0.000000   0.000000  -0.031456   0.375170   0.004350   0.011615
    27  H    0.000000   0.000000  -0.036727   0.377369  -0.003131   0.000128
    28  H    0.000000  -0.000002  -0.045257   0.376305  -0.001090   0.000071
    29  H    0.000000   0.000000  -0.033378   0.004402   0.374473   0.000062
    30  H    0.000000   0.000000  -0.046983  -0.001260   0.376008  -0.000038
    31  H    0.000000   0.000000  -0.033921  -0.003199   0.379539  -0.000049
              19         20         21         22         23         24
     1  O    0.001925   0.000000   0.000000   0.000000   0.000000   0.000000
     2  S   -0.007423  -0.000095   0.000000   0.000000   0.000000   0.000000
     3  N    0.299241  -0.000650   0.000000   0.000000   0.000000   0.000000
     4  C   -0.026141  -0.025530   0.000062   0.000000   0.000000   0.000000
     5  N    0.001986   0.004035  -0.000007   0.000000   0.000000   0.000000
     6  N   -0.000075   0.003479  -0.000087   0.000001   0.000000  -0.000008
     7  C   -0.001451   0.361039   0.005881  -0.000004   0.000000   0.000001
     8  N    0.000007  -0.033004  -0.009207  -0.000108   0.000003  -0.000103
     9  C    0.000002  -0.001688  -0.039765   0.003426   0.000483   0.003563
    10  C    0.000000   0.002183   0.353852  -0.037498   0.004868   0.000709
    11  C    0.000000   0.000164  -0.034473   0.363400  -0.041129   0.004471
    12  C    0.000000  -0.000001   0.004282  -0.039299   0.365839  -0.039954
    13  C    0.000000  -0.000004   0.000213   0.004406  -0.041301   0.364044
    14  C    0.000000  -0.000097   0.005252   0.000733   0.004666  -0.037739
    15  N   -0.000522  -0.000101   0.000000   0.000000   0.000000   0.000000
    16  C    0.000120   0.000016   0.000000   0.000000   0.000000   0.000000
    17  C    0.000409   0.000046   0.000000   0.000000   0.000000   0.000000
    18  O    0.001479   0.000001   0.000000   0.000000   0.000000   0.000000
    19  H    0.306312   0.000831   0.000000   0.000000   0.000000   0.000000
    20  H    0.000831   0.457271   0.001592  -0.000001   0.000000   0.000000
    21  H    0.000000   0.001592   0.542600  -0.005068  -0.000144   0.000013
    22  H    0.000000  -0.000001  -0.005068   0.549679  -0.005031  -0.000163
    23  H    0.000000   0.000000  -0.000144  -0.005031   0.555837  -0.005063
    24  H    0.000000   0.000000   0.000013  -0.000163  -0.005063   0.550484
    25  H    0.000000  -0.000010  -0.000130   0.000013  -0.000134  -0.005136
    26  H   -0.000013  -0.000004   0.000000   0.000000   0.000000   0.000000
    27  H   -0.000001  -0.000002   0.000000   0.000000   0.000000   0.000000
    28  H    0.000040   0.000322   0.000000   0.000000   0.000000   0.000000
    29  H    0.000058  -0.000004   0.000000   0.000000   0.000000   0.000000
    30  H    0.000952   0.000534   0.000000   0.000000   0.000000   0.000000
    31  H   -0.000017  -0.000002   0.000000   0.000000   0.000000   0.000000
              25         26         27         28         29         30
     1  O    0.000000   0.000051  -0.000042  -0.000052   0.011122  -0.000127
     2  S    0.000000  -0.002153   0.001806  -0.007623  -0.000075  -0.008240
     3  N    0.000000  -0.000221  -0.000157   0.001477  -0.000795   0.003633
     4  C    0.000040   0.000082   0.000091   0.001208  -0.000024   0.000050
     5  N   -0.000326   0.000102   0.000004  -0.000141  -0.000001   0.000005
     6  N    0.015742   0.000007  -0.000001  -0.000055   0.000000   0.000000
     7  C    0.000227  -0.000003   0.000044   0.002013   0.000011   0.000107
     8  N   -0.013434  -0.000002  -0.000001   0.000126   0.000000   0.000005
     9  C   -0.039544   0.000000   0.000000   0.000009   0.000000   0.000000
    10  C    0.005478   0.000000   0.000000  -0.000003   0.000000   0.000000
    11  C    0.000090   0.000000   0.000000   0.000000   0.000000   0.000000
    12  C    0.004527   0.000000   0.000000   0.000000   0.000000   0.000000
    13  C   -0.037965   0.000000   0.000000   0.000000   0.000000   0.000000
    14  C    0.356919   0.000000   0.000000  -0.000002   0.000000   0.000000
    15  N    0.000000  -0.031456  -0.036727  -0.045257  -0.033378  -0.046983
    16  C    0.000000   0.375170   0.377369   0.376305   0.004402  -0.001260
    17  C    0.000000   0.004350  -0.003131  -0.001090   0.374473   0.376008
    18  O    0.000000   0.011615   0.000128   0.000071   0.000062  -0.000038
    19  H    0.000000  -0.000013  -0.000001   0.000040   0.000058   0.000952
    20  H   -0.000010  -0.000004  -0.000002   0.000322  -0.000004   0.000534
    21  H   -0.000130   0.000000   0.000000   0.000000   0.000000   0.000000
    22  H    0.000013   0.000000   0.000000   0.000000   0.000000   0.000000
    23  H   -0.000134   0.000000   0.000000   0.000000   0.000000   0.000000
    24  H   -0.005136   0.000000   0.000000   0.000000   0.000000   0.000000
    25  H    0.537983   0.000000   0.000000   0.000000   0.000000   0.000000
    26  H    0.000000   0.490356  -0.020408  -0.028559  -0.000192  -0.000144
    27  H    0.000000  -0.020408   0.522842  -0.035719   0.000011  -0.001381
    28  H    0.000000  -0.028559  -0.035719   0.558907  -0.000141   0.007175
    29  H    0.000000  -0.000192   0.000011  -0.000141   0.493380  -0.030061
    30  H    0.000000  -0.000144  -0.001381   0.007175  -0.030061   0.563896
    31  H    0.000000   0.000005   0.004968  -0.001455  -0.020059  -0.034990
              31
     1  O    0.000077
     2  S    0.002343
     3  N   -0.000114
     4  C   -0.000003
     5  N    0.000000
     6  N    0.000000
     7  C    0.000002
     8  N    0.000000
     9  C    0.000000
    10  C    0.000000
    11  C    0.000000
    12  C    0.000000
    13  C    0.000000
    14  C    0.000000
    15  N   -0.033921
    16  C   -0.003199
    17  C    0.379539
    18  O   -0.000049
    19  H   -0.000017
    20  H   -0.000002
    21  H    0.000000
    22  H    0.000000
    23  H    0.000000
    24  H    0.000000
    25  H    0.000000
    26  H    0.000005
    27  H    0.004968
    28  H   -0.001455
    29  H   -0.020059
    30  H   -0.034990
    31  H    0.512648
 Mulliken charges:
               1
     1  O   -0.574426
     2  S    1.292135
     3  N   -0.779125
     4  C    0.379617
     5  N   -0.345776
     6  N   -0.104712
     7  C    0.038387
     8  N   -0.353560
     9  C    0.328991
    10  C   -0.170690
    11  C   -0.156371
    12  C   -0.131696
    13  C   -0.154857
    14  C   -0.155222
    15  N   -0.507273
    16  C   -0.330325
    17  C   -0.334232
    18  O   -0.565585
    19  H    0.422280
    20  H    0.229680
    21  H    0.175133
    22  H    0.165515
    23  H    0.161105
    24  H    0.164881
    25  H    0.175660
    26  H    0.201417
    27  H    0.190307
    28  H    0.172442
    29  H    0.201212
    30  H    0.170860
    31  H    0.194228
 Sum of Mulliken charges =   0.00000
 Mulliken charges with hydrogens summed into heavy atoms:
               1
     1  O   -0.574426
     2  S    1.292135
     3  N   -0.356845
     4  C    0.379617
     5  N   -0.345776
     6  N   -0.104712
     7  C    0.268067
     8  N   -0.353560
     9  C    0.328991
    10  C    0.004443
    11  C    0.009144
    12  C    0.029409
    13  C    0.010025
    14  C    0.020438
    15  N   -0.507273
    16  C    0.233841
    17  C    0.232067
    18  O   -0.565585
 Electronic spatial extent (au):  <R**2>=           6435.3950
 Charge=              0.0000 electrons
 Dipole moment (field-independent basis, Debye):
    X=              7.7534    Y=             10.8975    Z=             -1.4270  Tot=             13.4501
 Quadrupole moment (field-independent basis, Debye-Ang):
   XX=           -117.2676   YY=           -115.4262   ZZ=           -102.9938
   XY=            -12.2131   XZ=             -1.1044   YZ=             -2.9616
 Traceless Quadrupole moment (field-independent basis, Debye-Ang):
   XX=             -5.3718   YY=             -3.5303   ZZ=              8.9021
   XY=            -12.2131   XZ=             -1.1044   YZ=             -2.9616
 Octapole moment (field-independent basis, Debye-Ang**2):
  XXX=            207.9840  YYY=             45.6257  ZZZ=             -0.5183  XYY=            -17.5123
  XXY=             74.7783  XXZ=             27.2253  XZZ=             -6.7060  YZZ=             11.7598
  YYZ=             -4.9262  XYZ=            -21.6033
 Hexadecapole moment (field-independent basis, Debye-Ang**3):
 XXXX=          -6750.1915 YYYY=           -952.5832 ZZZZ=           -572.4392 XXXY=            -14.1340
 XXXZ=             28.1287 YYYX=            -51.5167 YYYZ=              1.7422 ZZZX=              0.7292
 ZZZY=            -11.6385 XXYY=          -1256.2376 XXZZ=          -1235.0242 YYZZ=           -240.5234
 XXYZ=            -67.1026 YYXZ=            -17.3698 ZZXY=            -27.3664
 N-N= 1.469635034055D+03 E-N=-5.775818221804D+03  KE= 1.202090230080D+03
 No NMR shielding tensors so no spin-rotation constants.
 Leave Link  601 at Thu Aug  6 21:16:20 2020, MaxMem=    33554432 cpu:         0.2
 (Enter /prod/apps/gaussian/g09d1/l9999.exe)
 1\1\GINC-PIRINEUS24\SP\RB3LYP\6-31G(d)\C10H13N5O2S1\UBAFAR01\06-Aug-20
 20\0\\#p b3lyp/6-31G(d) scrf=(iefpcm,read,solvent=Water) geom=allcheck
  guess=read\\SM46.n.3.pdb.xyz\\0,1\O,0,3.448,2.175,0.585\S,0,2.993,2.4
 14,-0.785\N,0,2.885,0.842,-1.437\C,0,2.476,0.632,-2.766\N,0,3.285,0.92
 7,-3.821\N,0,2.68,0.578,-4.926\C,0,1.314,0.061,-3.242\N,0,1.485,0.037,
 -4.587\C,0,0.601,-0.464,-5.587\C,0,-0.332,-1.448,-5.252\C,0,-1.196,-1.
 926,-6.236\C,0,-1.12,-1.437,-7.541\C,0,-0.176,-0.459,-7.862\C,0,0.685,
 0.038,-6.887\N,0,1.513,3.175,-0.667\C,0,0.933,3.748,-1.888\C,0,0.543,2
 .571,0.255\O,0,3.793,3.197,-1.725\H,0,2.441,0.217,-0.763\H,0,0.426,-0.
 298,-2.752\H,0,-0.374,-1.84,-4.243\H,0,-1.922,-2.69,-5.979\H,0,-1.791,
 -1.816,-8.304\H,0,-0.114,-0.072,-8.872\H,0,1.412,0.805,-7.118\H,0,1.72
 6,4.169,-2.503\H,0,0.258,4.551,-1.584\H,0,0.367,3.01,-2.466\H,0,1.056,
 2.246,1.158\H,0,0.011,1.725,-0.197\H,0,-0.183,3.343,0.52\\Version=AM64
 L-G09RevD.01\State=1-A\HF=-1211.1845718\RMSD=4.424e-09\Dipole=-4.91626
 51,-1.8948071,-0.4919189\Quadrupole=-9.2794029,4.9701885,4.3092144,-3.
 6470416,-6.0273541,-2.6407228\PG=C01 [X(C10H13N5O2S1)]\\@


 FOR THE NATURE OF THE CHEMICAL BOND
 IS THE PROBLEM AT THE HEART OF ALL CHEMISTRY.

                     -- BRYCE CRAWFORD, JR., 1953
 Job cpu time:       0 days  0 hours  3 minutes  7.1 seconds.
 File lengths (MBytes):  RWF=    158 Int=      0 D2E=      0 Chk=      6 Scr=      1
 Normal termination of Gaussian 09 at Thu Aug  6 21:16:20 2020.
