 Entering Gaussian System, Link 0=g09
 Initial command:
 /prod/apps/gaussian/g09d1/l1.exe "/tmp/ubafar01/1448553/Gau-177208.inp" -scrdir="/tmp/ubafar01/1448553/"
 Entering Link 1 = /prod/apps/gaussian/g09d1/l1.exe PID=    177210.
  
 Copyright (c) 1988,1990,1992,1993,1995,1998,2003,2009,2013,
            Gaussian, Inc.  All Rights Reserved.
  
 This is part of the Gaussian(R) 09 program.  It is based on
 the Gaussian(R) 03 system (copyright 2003, Gaussian, Inc.),
 the Gaussian(R) 98 system (copyright 1998, Gaussian, Inc.),
 the Gaussian(R) 94 system (copyright 1995, Gaussian, Inc.),
 the Gaussian 92(TM) system (copyright 1992, Gaussian, Inc.),
 the Gaussian 90(TM) system (copyright 1990, Gaussian, Inc.),
 the Gaussian 88(TM) system (copyright 1988, Gaussian, Inc.),
 the Gaussian 86(TM) system (copyright 1986, Carnegie Mellon
 University), and the Gaussian 82(TM) system (copyright 1983,
 Carnegie Mellon University). Gaussian is a federally registered
 trademark of Gaussian, Inc.
  
 This software contains proprietary and confidential information,
 including trade secrets, belonging to Gaussian, Inc.
  
 This software is provided under written license and may be
 used, copied, transmitted, or stored only in accord with that
 written license.
  
 The following legend is applicable only to US Government
 contracts under FAR:
  
                    RESTRICTED RIGHTS LEGEND
  
 Use, reproduction and disclosure by the US Government is
 subject to restrictions as set forth in subparagraphs (a)
 and (c) of the Commercial Computer Software - Restricted
 Rights clause in FAR 52.227-19.
  
 Gaussian, Inc.
 340 Quinnipiac St., Bldg. 40, Wallingford CT 06492
  
  
 ---------------------------------------------------------------
 Warning -- This program may not be used in any manner that
 competes with the business of Gaussian, Inc. or will provide
 assistance to any competitor of Gaussian, Inc.  The licensee
 of this program is prohibited from giving any competitor of
 Gaussian, Inc. access to this program.  By using this program,
 the user acknowledges that Gaussian, Inc. is engaged in the
 business of creating and licensing software in the field of
 computational chemistry and represents and warrants to the
 licensee that it is not a competitor of Gaussian, Inc. and that
 it will not use this program in any manner prohibited above.
 ---------------------------------------------------------------
  

 Cite this work as:
 Gaussian 09, Revision D.01,
 M. J. Frisch, G. W. Trucks, H. B. Schlegel, G. E. Scuseria, 
 M. A. Robb, J. R. Cheeseman, G. Scalmani, V. Barone, B. Mennucci, 
 G. A. Petersson, H. Nakatsuji, M. Caricato, X. Li, H. P. Hratchian, 
 A. F. Izmaylov, J. Bloino, G. Zheng, J. L. Sonnenberg, M. Hada, 
 M. Ehara, K. Toyota, R. Fukuda, J. Hasegawa, M. Ishida, T. Nakajima, 
 Y. Honda, O. Kitao, H. Nakai, T. Vreven, J. A. Montgomery, Jr., 
 J. E. Peralta, F. Ogliaro, M. Bearpark, J. J. Heyd, E. Brothers, 
 K. N. Kudin, V. N. Staroverov, T. Keith, R. Kobayashi, J. Normand, 
 K. Raghavachari, A. Rendell, J. C. Burant, S. S. Iyengar, J. Tomasi, 
 M. Cossi, N. Rega, J. M. Millam, M. Klene, J. E. Knox, J. B. Cross, 
 V. Bakken, C. Adamo, J. Jaramillo, R. Gomperts, R. E. Stratmann, 
 O. Yazyev, A. J. Austin, R. Cammi, C. Pomelli, J. W. Ochterski, 
 R. L. Martin, K. Morokuma, V. G. Zakrzewski, G. A. Voth, 
 P. Salvador, J. J. Dannenberg, S. Dapprich, A. D. Daniels, 
 O. Farkas, J. B. Foresman, J. V. Ortiz, J. Cioslowski, 
 and D. J. Fox, Gaussian, Inc., Wallingford CT, 2013.
 
 ******************************************
 Gaussian 09:  AM64L-G09RevD.01 24-Apr-2013
                 6-Aug-2020 
 ******************************************
 %nproc=1
 Will use up to    1 processors via shared memory.
 %Chk=SM46.n.1.pdb.xyz.mst.n.w.chk
 -----------------
 #p b3lyp/6-31G(d)
 -----------------
 1/38=1/1;
 2/12=2,17=6,18=5,40=1/2;
 3/5=1,6=6,7=1,11=2,16=1,25=1,30=1,74=-5/1,2,3;
 4//1;
 5/5=2,38=5/2;
 6/7=2,8=2,9=2,10=2,28=1/1;
 99/5=1,9=1/99;
 Leave Link    1 at Thu Aug  6 21:05:14 2020, MaxMem=           0 cpu:         0.0
 (Enter /prod/apps/gaussian/g09d1/l101.exe)
 ----------------
 SM46.n.1.pdb.xyz
 ----------------
 Symbolic Z-matrix:
 Charge =  0 Multiplicity = 1
 O                     4.678    -1.426    -0.915 
 S                     4.73     -0.005    -0.553 
 N                     4.57      1.014    -1.897 
 C                     3.769     0.6      -2.976 
 N                     4.302     0.321    -4.196 
 N                     3.33      0.019    -5.02 
 C                     2.4       0.458    -3.041 
 N                     2.171     0.084    -4.326 
 C                     0.927    -0.211    -4.955 
 C                    -0.157    -0.625    -4.178 
 C                    -1.373    -0.902    -4.802 
 C                    -1.5      -0.779    -6.187 
 C                    -0.404    -0.372    -6.951 
 C                     0.813    -0.079    -6.341 
 N                     3.286     0.339     0.222 
 C                     2.824    -0.708     1.15 
 C                     3.2       1.701     0.775 
 O                     5.918     0.505     0.146 
 H                     5.497     1.329    -2.187 
 H                     1.618     0.602    -2.317 
 H                    -0.051    -0.74     -3.106 
 H                    -2.217    -1.222    -4.202 
 H                    -2.447    -1.       -6.668 
 H                    -0.497    -0.272    -8.026 
 H                     1.666     0.25     -6.92 
 H                     2.874    -1.677     0.659 
 H                     1.784    -0.483     1.393 
 H                     3.406    -0.732     2.079 
 H                     3.511     2.42      0.018 
 H                     3.813     1.821     1.675 
 H                     2.154     1.884     1.027 
 
 NAtoms=     31 NQM=       31 NQMF=       0 NMMI=      0 NMMIF=      0
                NMic=       0 NMicF=      0.
                    Isotopes and Nuclear Properties:
 (Nuclear quadrupole moments (NQMom) in fm**2, nuclear magnetic moments (NMagM)
  in nuclear magnetons)

  Atom         1           2           3           4           5           6           7           8           9          10
 IAtWgt=          16          32          14          12          14          14          12          14          12          12
 AtmWgt=  15.9949146  31.9720718  14.0030740  12.0000000  14.0030740  14.0030740  12.0000000  14.0030740  12.0000000  12.0000000
 NucSpn=           0           0           2           0           2           2           0           2           0           0
 AtZEff=   0.0000000   0.0000000   0.0000000   0.0000000   0.0000000   0.0000000   0.0000000   0.0000000   0.0000000   0.0000000
 NQMom=    0.0000000   0.0000000   2.0440000   0.0000000   2.0440000   2.0440000   0.0000000   2.0440000   0.0000000   0.0000000
 NMagM=    0.0000000   0.0000000   0.4037610   0.0000000   0.4037610   0.4037610   0.0000000   0.4037610   0.0000000   0.0000000
 AtZNuc=   8.0000000  16.0000000   7.0000000   6.0000000   7.0000000   7.0000000   6.0000000   7.0000000   6.0000000   6.0000000

  Atom        11          12          13          14          15          16          17          18          19          20
 IAtWgt=          12          12          12          12          14          12          12          16           1           1
 AtmWgt=  12.0000000  12.0000000  12.0000000  12.0000000  14.0030740  12.0000000  12.0000000  15.9949146   1.0078250   1.0078250
 NucSpn=           0           0           0           0           2           0           0           0           1           1
 AtZEff=   0.0000000   0.0000000   0.0000000   0.0000000   0.0000000   0.0000000   0.0000000   0.0000000   0.0000000   0.0000000
 NQMom=    0.0000000   0.0000000   0.0000000   0.0000000   2.0440000   0.0000000   0.0000000   0.0000000   0.0000000   0.0000000
 NMagM=    0.0000000   0.0000000   0.0000000   0.0000000   0.4037610   0.0000000   0.0000000   0.0000000   2.7928460   2.7928460
 AtZNuc=   6.0000000   6.0000000   6.0000000   6.0000000   7.0000000   6.0000000   6.0000000   8.0000000   1.0000000   1.0000000

  Atom        21          22          23          24          25          26          27          28          29          30
 IAtWgt=           1           1           1           1           1           1           1           1           1           1
 AtmWgt=   1.0078250   1.0078250   1.0078250   1.0078250   1.0078250   1.0078250   1.0078250   1.0078250   1.0078250   1.0078250
 NucSpn=           1           1           1           1           1           1           1           1           1           1
 AtZEff=   0.0000000   0.0000000   0.0000000   0.0000000   0.0000000   0.0000000   0.0000000   0.0000000   0.0000000   0.0000000
 NQMom=    0.0000000   0.0000000   0.0000000   0.0000000   0.0000000   0.0000000   0.0000000   0.0000000   0.0000000   0.0000000
 NMagM=    2.7928460   2.7928460   2.7928460   2.7928460   2.7928460   2.7928460   2.7928460   2.7928460   2.7928460   2.7928460
 AtZNuc=   1.0000000   1.0000000   1.0000000   1.0000000   1.0000000   1.0000000   1.0000000   1.0000000   1.0000000   1.0000000

  Atom        31
 IAtWgt=           1
 AtmWgt=   1.0078250
 NucSpn=           1
 AtZEff=   0.0000000
 NQMom=    0.0000000
 NMagM=    2.7928460
 AtZNuc=   1.0000000
 Leave Link  101 at Thu Aug  6 21:05:14 2020, MaxMem=    33554432 cpu:         0.1
 (Enter /prod/apps/gaussian/g09d1/l202.exe)
                          Input orientation:                          
 ---------------------------------------------------------------------
 Center     Atomic      Atomic             Coordinates (Angstroms)
 Number     Number       Type             X           Y           Z
 ---------------------------------------------------------------------
      1          8           0        4.678000   -1.426000   -0.915000
      2         16           0        4.730000   -0.005000   -0.553000
      3          7           0        4.570000    1.014000   -1.897000
      4          6           0        3.769000    0.600000   -2.976000
      5          7           0        4.302000    0.321000   -4.196000
      6          7           0        3.330000    0.019000   -5.020000
      7          6           0        2.400000    0.458000   -3.041000
      8          7           0        2.171000    0.084000   -4.326000
      9          6           0        0.927000   -0.211000   -4.955000
     10          6           0       -0.157000   -0.625000   -4.178000
     11          6           0       -1.373000   -0.902000   -4.802000
     12          6           0       -1.500000   -0.779000   -6.187000
     13          6           0       -0.404000   -0.372000   -6.951000
     14          6           0        0.813000   -0.079000   -6.341000
     15          7           0        3.286000    0.339000    0.222000
     16          6           0        2.824000   -0.708000    1.150000
     17          6           0        3.200000    1.701000    0.775000
     18          8           0        5.918000    0.505000    0.146000
     19          1           0        5.497000    1.329000   -2.187000
     20          1           0        1.618000    0.602000   -2.317000
     21          1           0       -0.051000   -0.740000   -3.106000
     22          1           0       -2.217000   -1.222000   -4.202000
     23          1           0       -2.447000   -1.000000   -6.668000
     24          1           0       -0.497000   -0.272000   -8.026000
     25          1           0        1.666000    0.250000   -6.920000
     26          1           0        2.874000   -1.677000    0.659000
     27          1           0        1.784000   -0.483000    1.393000
     28          1           0        3.406000   -0.732000    2.079000
     29          1           0        3.511000    2.420000    0.018000
     30          1           0        3.813000    1.821000    1.675000
     31          1           0        2.154000    1.884000    1.027000
 ---------------------------------------------------------------------
                    Distance matrix (angstroms):
                    1          2          3          4          5
     1  O    0.000000
     2  S    1.467307   0.000000
     3  N    2.632411   1.694195   0.000000
     4  C    3.029633   2.675906   1.406143   0.000000
     5  N    3.736087   3.682514   2.416087   1.360268   0.000000
     6  N    4.555892   4.681310   3.504391   2.169843   1.309566
     7  C    3.641238   3.439973   2.515308   1.377879   2.229439
     8  N    4.494449   4.559817   3.538381   2.154614   2.148076
     9  C    5.645160   5.820898   4.911562   3.556842   3.499961
    10  C    5.887784   6.116191   5.498528   4.284729   4.558280
    11  C    7.210960   7.490342   6.886896   5.659545   5.836830
    12  C    8.147409   8.435279   7.646166   6.322541   6.231957
    13  C    7.960586   8.211398   7.225274   5.844599   5.496973
    14  C    6.796625   6.989228   5.921050   4.530144   4.115112
    15  N    2.519059   1.674544   2.567965   3.244783   4.533355
    16  C    2.866542   2.650897   3.911267   4.430323   5.641191
    17  C    3.849508   2.648569   3.080333   3.950438   5.275381
    18  O    2.528257   1.469709   2.500007   3.791320   4.636623
    19  H    3.143051   2.244505   1.021104   2.034686   2.545618
    20  H    3.929629   3.628318   3.010058   2.249686   3.288382
    21  H    5.256854   5.469552   5.088402   4.050296   4.611120
    22  H    7.641139   7.940850   7.508401   6.376124   6.699123
    23  H    9.167557   9.481170   8.721062   7.404696   7.307861
    24  H    8.870099   9.123516   8.055615   6.667956   6.168545
    25  H    6.923954   7.070489   5.852131   4.483330   3.791268
    26  H    2.407258   2.776556   4.080568   4.381664   5.440792
    27  H    3.819862   3.562908   4.563650   4.919479   6.182529
    28  H    3.326207   3.034622   4.495774   5.240135   6.425516
    29  H    4.126026   2.773559   2.601066   3.513261   4.773812
    30  H    4.242562   3.023103   3.739449   4.808802   6.079290
    31  H    4.593260   3.563776   3.891495   4.503431   5.859744
                    6          7          8          9         10
     6  N    0.000000
     7  C    2.230261   0.000000
     8  N    1.352458   1.357771   0.000000
     9  C    2.414857   2.506130   1.424852   0.000000
    10  C    3.644567   3.000651   2.438067   1.396489   0.000000
    11  C    4.797288   4.380211   3.709273   2.406427   1.394547
    12  C    5.032653   5.161152   4.205274   2.780427   2.421455
    13  C    4.221895   4.882562   3.705292   2.404475   2.795451
    14  C    2.844281   3.700937   2.435356   1.396931   2.432609
    15  N    5.251942   3.383242   4.689622   5.715655   5.669528
    16  C    6.233255   4.370791   5.571378   6.412226   6.105803
    17  C    6.035565   4.092298   5.449195   6.454082   6.419652
    18  O    5.798405   4.747157   5.849447   7.172373   7.541850
    19  H    3.799721   3.328568   4.145796   5.560425   6.304753
    20  H    3.252236   1.075377   2.147141   2.845610   2.849469
    21  H    3.958616   2.728888   2.665457   2.157574   1.083349
    22  H    5.742684   5.048466   4.579908   3.387310   2.144897
    23  H    6.093274   6.226901   5.290174   3.865329   3.403649
    24  H    4.875105   5.811689   4.575474   3.385637   3.879087
    25  H    2.536189   3.953310   2.647908   2.149388   3.406981
    26  H    5.944358   4.298011   5.333437   6.120209   5.804329
    27  H    6.615791   4.574417   5.760054   6.411360   5.901160
    28  H    7.139018   5.351872   6.573820   7.476232   7.201143
    29  H    5.583816   3.800164   5.111050   6.191118   6.350800
    30  H    6.950073   5.108326   6.459515   7.510987   7.483410
    31  H    6.436413   4.317710   5.647557   6.455918   6.223169
                   11         12         13         14         15
    11  C    0.000000
    12  C    1.396239   0.000000
    13  C    2.416208   1.396625   0.000000
    14  C    2.797221   2.421505   1.392493   0.000000
    15  N    6.963256   8.076571   8.097750   7.025911   0.000000
    16  C    7.285516   8.516665   8.726917   7.781699   1.473376
    17  C    7.667520   8.758416   8.773666   7.713859   1.472498
    18  O    8.923062   9.837798   9.544853   8.275461   2.638324
    19  H    7.681958   8.330767   7.772445   6.417011   3.416417
    20  H    4.169331   5.158099   5.148895   4.159851   3.049248
    21  H    2.156466   3.404950   3.878667   3.413011   4.834811
    22  H    1.083852   2.156516   3.400951   3.881066   7.231287
    23  H    2.155235   1.084901   2.155997   3.403347   9.062688
    24  H    3.399772   2.155221   1.083639   2.143029   9.094719
    25  H    3.879246   3.408766   2.161653   1.082170   7.323966
    26  H    6.961333   8.173494   8.388111   7.470028   2.103561
    27  H    6.965647   8.266116   8.626819   7.805179   2.074350
    28  H    8.379493   9.612377   9.807477   8.834391   2.147065
    29  H    7.623748   8.593355   8.466962   7.345821   2.103046
    30  H    8.732746   9.838649   9.848869   8.767340   2.141322
    31  H    7.360623   8.513817   8.676485   7.742033   2.077613
                   16         17         18         19         20
    16  C    0.000000
    17  C    2.466836   0.000000
    18  O    3.471631   3.035388   0.000000
    19  H    4.736018   3.766701   2.509802   0.000000
    20  H    3.897515   3.642937   4.956388   3.948680   0.000000
    21  H    5.136164   5.620466   6.910462   5.992130   2.282333
    22  H    7.370195   7.915703   9.384341   8.370999   4.646227
    23  H    9.433442   9.725341  10.893523   9.413328   6.166184
    24  H    9.768220   9.747725  10.418135   8.519692   6.150592
    25  H    8.208753   7.979447   8.250629   6.184019   4.616689
    26  H    1.087447   3.395676   3.780242   4.900600   3.953221
    27  H    1.091455   2.675226   4.429572   5.466819   3.868964
    28  H    1.096513   2.768093   3.402470   5.178683   4.929636
    29  H    3.396730   1.089372   3.078516   3.161725   3.512947
    30  H    2.765789   1.095522   2.915600   4.241811   4.715936
    31  H    2.680017   1.091379   4.104327   4.670489   3.621209
                   21         22         23         24         25
    21  H    0.000000
    22  H    2.474893   0.000000
    23  H    4.300728   2.486632   0.000000
    24  H    4.962292   4.299288   2.485286   0.000000
    25  H    4.298230   4.963063   4.306132   2.484812   0.000000
    26  H    4.858891   7.053696   9.080545   9.421618   7.912890
    27  H    4.865622   6.917958   9.118573   9.693557   8.346088
    28  H    6.231784   8.444477  10.528031  10.842326   9.218130
    29  H    5.694982   7.992656   9.586280   9.381730   7.499918
    30  H    6.659368   8.953205  10.805151  10.819711   8.997315
    31  H    5.369273   7.489681   9.418051   9.676412   8.127909
                   26         27         28         29         30
    26  H    0.000000
    27  H    1.775526   0.000000
    28  H    1.786743   1.778618   0.000000
    29  H    4.195481   3.646994   3.767473   0.000000
    30  H    3.761646   3.082982   2.616615   1.787639   0.000000
    31  H    3.651650   2.423540   3.085071   1.773930   1.782177
                   31
    31  H    0.000000
 Stoichiometry    C10H13N5O2S
 Framework group  C1[X(C10H13N5O2S)]
 Deg. of freedom    87
 Full point group                 C1      NOp   1
 Largest Abelian subgroup         C1      NOp   1
 Largest concise Abelian subgroup C1      NOp   1
                         Standard orientation:                         
 ---------------------------------------------------------------------
 Center     Atomic      Atomic             Coordinates (Angstroms)
 Number     Number       Type             X           Y           Z
 ---------------------------------------------------------------------
      1          8           0       -2.492690   -0.268917   -1.743659
      2         16           0       -2.942984   -0.301365   -0.347532
      3          7           0       -1.887984   -1.168313    0.655300
      4          6           0       -0.511428   -1.158850    0.368520
      5          7           0        0.144022   -2.283370   -0.026663
      6          7           0        1.415070   -2.001240   -0.167391
      7          6           0        0.393275   -0.124752    0.471975
      8          7           0        1.576394   -0.689132    0.118072
      9          6           0        2.860904   -0.077866    0.036891
     10          6           0        2.956533    1.301291   -0.160495
     11          6           0        4.218232    1.891378   -0.228866
     12          6           0        5.370019    1.110535   -0.114181
     13          6           0        5.257498   -0.268711    0.074448
     14          6           0        4.004642   -0.870703    0.158087
     15          7           0       -2.696648    1.237545    0.264980
     16          6           0       -3.041167    2.328860   -0.663016
     17          6           0       -3.206341    1.438794    1.631714
     18          8           0       -4.268357   -0.858974   -0.043388
     19          1           0       -2.259548   -2.109315    0.793535
     20          1           0        0.292195    0.903996    0.768447
     21          1           0        2.062191    1.902773   -0.270113
     22          1           0        4.296362    2.961744   -0.380354
     23          1           0        6.349220    1.573970   -0.172514
     24          1           0        6.147634   -0.879760    0.166926
     25          1           0        3.903676   -1.936330    0.317260
     26          1           0       -2.595212    2.133720   -1.635428
     27          1           0       -2.614579    3.245058   -0.250854
     28          1           0       -4.124230    2.461633   -0.771122
     29          1           0       -2.872074    0.619867    2.267603
     30          1           0       -4.299349    1.507720    1.659116
     31          1           0       -2.779143    2.371611    2.003819
 ---------------------------------------------------------------------
 Rotational constants (GHZ):      0.9025680      0.1860281      0.1664219
 Leave Link  202 at Thu Aug  6 21:05:14 2020, MaxMem=    33554432 cpu:         0.0
 (Enter /prod/apps/gaussian/g09d1/l301.exe)
 Standard basis: 6-31G(d) (6D, 7F)
 Ernie: Thresh=  0.10000D-02 Tol=  0.10000D-05 Strict=F.
 There are   300 symmetry adapted cartesian basis functions of A   symmetry.
 There are   300 symmetry adapted basis functions of A   symmetry.
   300 basis functions,   580 primitive gaussians,   300 cartesian basis functions
    70 alpha electrons       70 beta electrons
       nuclear repulsion energy      1470.4310200961 Hartrees.
 IExCor=  402 DFT=T Ex+Corr=B3LYP ExCW=0 ScaHFX=  0.200000
 ScaDFX=  0.800000  0.720000  1.000000  0.810000 ScalE2=  1.000000  1.000000
 IRadAn=      0 IRanWt=     -1 IRanGd=            0 ICorTp=0 IEmpDi=  4
 NAtoms=   31 NActive=   31 NUniq=   31 SFac= 1.00D+00 NAtFMM=   60 NAOKFM=F Big=F
 Integral buffers will be    131072 words long.
 Raffenetti 2 integral format.
 Two-electron integral symmetry is turned on.
 Leave Link  301 at Thu Aug  6 21:05:14 2020, MaxMem=    33554432 cpu:         0.0
 (Enter /prod/apps/gaussian/g09d1/l302.exe)
 NPDir=0 NMtPBC=     1 NCelOv=     1 NCel=       1 NClECP=     1 NCelD=      1
         NCelK=      1 NCelE2=     1 NClLst=     1 CellRange=     0.0.
 One-electron integrals computed using PRISM.
 NBasis=   300 RedAO= T EigKep=  4.68D-04  NBF=   300
 NBsUse=   300 1.00D-06 EigRej= -1.00D+00 NBFU=   300
 Precomputing XC quadrature grid using
 IXCGrd= 4 IRadAn=           0 IRanWt=          -1 IRanGd=           0 AccXCQ= 0.00D+00.
 Generated NRdTot=       0 NPtTot=           0 NUsed=           0 NTot=          32
 NSgBfM=   299   299   299   299   299 MxSgAt=    31 MxSgA2=    31.
 Leave Link  302 at Thu Aug  6 21:05:15 2020, MaxMem=    33554432 cpu:         1.1
 (Enter /prod/apps/gaussian/g09d1/l303.exe)
 DipDrv:  MaxL=1.
 Leave Link  303 at Thu Aug  6 21:05:15 2020, MaxMem=    33554432 cpu:         0.0
 (Enter /prod/apps/gaussian/g09d1/l401.exe)
 ExpMin= 1.17D-01 ExpMax= 2.19D+04 ExpMxC= 3.30D+03 IAcc=1 IRadAn=         1 AccDes= 0.00D+00
 Harris functional with IExCor=  402 and IRadAn=       1 diagonalized for initial guess.
 HarFok:  IExCor=  402 AccDes= 0.00D+00 IRadAn=         1 IDoV= 1 UseB2=F ITyADJ=14
 ICtDFT=  3500011 ScaDFX=  1.000000  1.000000  1.000000  1.000000
 FoFCou: FMM=F IPFlag=           0 FMFlag=      100000 FMFlg1=           0
         NFxFlg=           0 DoJE=T BraDBF=F KetDBF=T FulRan=T
         wScrn=  0.000000 ICntrl=     500 IOpCl=  0 I1Cent=   200000004 NGrid=           0
         NMat0=    1 NMatS0=      1 NMatT0=    0 NMatD0=    1 NMtDS0=    0 NMtDT0=    0
 Petite list used in FoFCou.
 Harris En= -1211.17199037267    
 JPrj=0 DoOrth=F DoCkMO=F.
 Leave Link  401 at Thu Aug  6 21:05:18 2020, MaxMem=    33554432 cpu:         3.0
 (Enter /prod/apps/gaussian/g09d1/l502.exe)
 Closed shell SCF:
 Using DIIS extrapolation, IDIIS=  1040.
 Integral symmetry usage will be decided dynamically.
 IVT=      292611 IEndB=      292611 NGot=    33554432 MDV=    33368762
 LenX=    33368762 LenY=    33278321
 Requested convergence on RMS density matrix=1.00D-08 within 128 cycles.
 Requested convergence on MAX density matrix=1.00D-06.
 Requested convergence on             energy=1.00D-06.
 No special actions if energy rises.
 Fock matrices will be formed incrementally for  20 cycles.
 Integral accuracy reduced to 1.0D-05 until final iterations.

 Cycle   1  Pass 0  IDiag  1:
 FoFJK:  IHMeth= 1 ICntrl=       0 DoSepK=F KAlg= 0 I1Cent=   0 FoldK=F
 IRaf= 740000000 NMat=   1 IRICut=       1 DoRegI=T DoRafI=F ISym2E= 0.
 FoFCou: FMM=F IPFlag=           0 FMFlag=      100000 FMFlg1=           0
         NFxFlg=           0 DoJE=F BraDBF=F KetDBF=F FulRan=T
         wScrn=  0.000000 ICntrl=       0 IOpCl=  0 I1Cent=           0 NGrid=           0
         NMat0=    1 NMatS0=      1 NMatT0=    0 NMatD0=    1 NMtDS0=    0 NMtDT0=    0
 Symmetry not used in FoFCou.
 E= -1210.61176831254    
 DIIS: error= 3.07D-02 at cycle   1 NSaved=   1.
 NSaved= 1 IEnMin= 1 EnMin= -1210.61176831254     IErMin= 1 ErrMin= 3.07D-02
 ErrMax= 3.07D-02  0.00D+00 EMaxC= 1.00D-01 BMatC= 6.42D-01 BMatP= 6.42D-01
 IDIUse=3 WtCom= 6.93D-01 WtEn= 3.07D-01
 Coeff-Com:  0.100D+01
 Coeff-En:   0.100D+01
 Coeff:      0.100D+01
 Gap=     0.297 Goal=   None    Shift=    0.000
 GapD=    0.297 DampG=1.000 DampE=0.500 DampFc=0.5000 IDamp=-1.
 Damping current iteration by 5.00D-01
 RMSDP=6.75D-03 MaxDP=6.12D-01              OVMax= 2.60D-01

 Cycle   2  Pass 0  IDiag  1:
 RMSU=  3.37D-03    CP:  9.93D-01
 E= -1210.72594465468     Delta-E=       -0.114176342132 Rises=F Damp=T
 DIIS: error= 1.59D-02 at cycle   2 NSaved=   2.
 NSaved= 2 IEnMin= 2 EnMin= -1210.72594465468     IErMin= 2 ErrMin= 1.59D-02
 ErrMax= 1.59D-02  0.00D+00 EMaxC= 1.00D-01 BMatC= 1.18D-01 BMatP= 6.42D-01
 IDIUse=3 WtCom= 8.41D-01 WtEn= 1.59D-01
 Coeff-Com:  0.251D+00 0.749D+00
 Coeff-En:   0.397D+00 0.603D+00
 Coeff:      0.274D+00 0.726D+00
 Gap=     0.233 Goal=   None    Shift=    0.000
 RMSDP=2.00D-03 MaxDP=1.33D-01 DE=-1.14D-01 OVMax= 2.04D-01

 Cycle   3  Pass 0  IDiag  1:
 RMSU=  1.64D-03    CP:  9.83D-01  6.67D-01
 E= -1211.11194698780     Delta-E=       -0.386002333128 Rises=F Damp=F
 DIIS: error= 9.29D-03 at cycle   3 NSaved=   3.
 NSaved= 3 IEnMin= 3 EnMin= -1211.11194698780     IErMin= 3 ErrMin= 9.29D-03
 ErrMax= 9.29D-03  0.00D+00 EMaxC= 1.00D-01 BMatC= 5.97D-02 BMatP= 1.18D-01
 IDIUse=3 WtCom= 9.07D-01 WtEn= 9.29D-02
 Coeff-Com:  0.898D-01 0.415D+00 0.495D+00
 Coeff-En:   0.000D+00 0.000D+00 0.100D+01
 Coeff:      0.814D-01 0.377D+00 0.542D+00
 Gap=     0.196 Goal=   None    Shift=    0.000
 RMSDP=1.16D-03 MaxDP=3.96D-02 DE=-3.86D-01 OVMax= 4.81D-02

 Cycle   4  Pass 0  IDiag  1:
 RMSU=  7.46D-04    CP:  9.88D-01  7.48D-01  4.89D-01
 E= -1211.15636544619     Delta-E=       -0.044418458383 Rises=F Damp=F
 DIIS: error= 4.50D-03 at cycle   4 NSaved=   4.
 NSaved= 4 IEnMin= 4 EnMin= -1211.15636544619     IErMin= 4 ErrMin= 4.50D-03
 ErrMax= 4.50D-03  0.00D+00 EMaxC= 1.00D-01 BMatC= 1.09D-02 BMatP= 5.97D-02
 IDIUse=3 WtCom= 9.55D-01 WtEn= 4.50D-02
 Coeff-Com:  0.112D-01 0.938D-01 0.313D+00 0.582D+00
 Coeff-En:   0.000D+00 0.000D+00 0.161D+00 0.839D+00
 Coeff:      0.107D-01 0.896D-01 0.306D+00 0.594D+00
 Gap=     0.194 Goal=   None    Shift=    0.000
 RMSDP=4.23D-04 MaxDP=1.59D-02 DE=-4.44D-02 OVMax= 2.59D-02

 Cycle   5  Pass 0  IDiag  1:
 RMSU=  2.18D-04    CP:  9.87D-01  7.32D-01  6.10D-01  6.00D-01
 E= -1211.16500827244     Delta-E=       -0.008642826253 Rises=F Damp=F
 DIIS: error= 1.07D-03 at cycle   5 NSaved=   5.
 NSaved= 5 IEnMin= 5 EnMin= -1211.16500827244     IErMin= 5 ErrMin= 1.07D-03
 ErrMax= 1.07D-03  0.00D+00 EMaxC= 1.00D-01 BMatC= 1.00D-03 BMatP= 1.09D-02
 IDIUse=3 WtCom= 9.89D-01 WtEn= 1.07D-02
 Coeff-Com: -0.593D-03 0.225D-01 0.131D+00 0.336D+00 0.512D+00
 Coeff-En:   0.000D+00 0.000D+00 0.000D+00 0.235D-01 0.977D+00
 Coeff:     -0.587D-03 0.223D-01 0.129D+00 0.332D+00 0.517D+00
 Gap=     0.194 Goal=   None    Shift=    0.000
 RMSDP=1.40D-04 MaxDP=6.05D-03 DE=-8.64D-03 OVMax= 1.33D-02

 Cycle   6  Pass 0  IDiag  1:
 RMSU=  6.64D-05    CP:  9.87D-01  7.35D-01  6.13D-01  6.71D-01  4.91D-01
 E= -1211.16581212701     Delta-E=       -0.000803854572 Rises=F Damp=F
 DIIS: error= 5.18D-04 at cycle   6 NSaved=   6.
 NSaved= 6 IEnMin= 6 EnMin= -1211.16581212701     IErMin= 6 ErrMin= 5.18D-04
 ErrMax= 5.18D-04  0.00D+00 EMaxC= 1.00D-01 BMatC= 1.38D-04 BMatP= 1.00D-03
 IDIUse=3 WtCom= 9.95D-01 WtEn= 5.18D-03
 Coeff-Com: -0.155D-02 0.486D-02 0.501D-01 0.150D+00 0.324D+00 0.473D+00
 Coeff-En:   0.000D+00 0.000D+00 0.000D+00 0.000D+00 0.928D-01 0.907D+00
 Coeff:     -0.154D-02 0.484D-02 0.498D-01 0.149D+00 0.323D+00 0.475D+00
 Gap=     0.194 Goal=   None    Shift=    0.000
 RMSDP=4.79D-05 MaxDP=2.53D-03 DE=-8.04D-04 OVMax= 5.10D-03

 Cycle   7  Pass 0  IDiag  1:
 RMSU=  2.93D-05    CP:  9.87D-01  7.35D-01  6.13D-01  6.65D-01  5.87D-01
                    CP:  5.30D-01
 E= -1211.16592771952     Delta-E=       -0.000115592510 Rises=F Damp=F
 DIIS: error= 1.54D-04 at cycle   7 NSaved=   7.
 NSaved= 7 IEnMin= 7 EnMin= -1211.16592771952     IErMin= 7 ErrMin= 1.54D-04
 ErrMax= 1.54D-04  0.00D+00 EMaxC= 1.00D-01 BMatC= 1.44D-05 BMatP= 1.38D-04
 IDIUse=3 WtCom= 9.98D-01 WtEn= 1.54D-03
 Coeff-Com: -0.887D-03 0.403D-03 0.149D-01 0.507D-01 0.138D+00 0.299D+00
 Coeff-Com:  0.498D+00
 Coeff-En:   0.000D+00 0.000D+00 0.000D+00 0.000D+00 0.000D+00 0.736D-01
 Coeff-En:   0.926D+00
 Coeff:     -0.886D-03 0.402D-03 0.149D-01 0.506D-01 0.138D+00 0.298D+00
 Coeff:      0.499D+00
 Gap=     0.194 Goal=   None    Shift=    0.000
 RMSDP=1.37D-05 MaxDP=6.45D-04 DE=-1.16D-04 OVMax= 1.25D-03

 Cycle   8  Pass 0  IDiag  1:
 RMSU=  6.23D-06    CP:  9.87D-01  7.35D-01  6.13D-01  6.68D-01  5.79D-01
                    CP:  5.88D-01  6.16D-01
 E= -1211.16594063463     Delta-E=       -0.000012915109 Rises=F Damp=F
 DIIS: error= 2.54D-05 at cycle   8 NSaved=   8.
 NSaved= 8 IEnMin= 8 EnMin= -1211.16594063463     IErMin= 8 ErrMin= 2.54D-05
 ErrMax= 2.54D-05  0.00D+00 EMaxC= 1.00D-01 BMatC= 5.87D-07 BMatP= 1.44D-05
 IDIUse=1 WtCom= 1.00D+00 WtEn= 0.00D+00
 Coeff-Com: -0.325D-03-0.265D-03 0.319D-02 0.127D-01 0.432D-01 0.113D+00
 Coeff-Com:  0.245D+00 0.584D+00
 Coeff:     -0.325D-03-0.265D-03 0.319D-02 0.127D-01 0.432D-01 0.113D+00
 Coeff:      0.245D+00 0.584D+00
 Gap=     0.194 Goal=   None    Shift=    0.000
 RMSDP=3.25D-06 MaxDP=1.28D-04 DE=-1.29D-05 OVMax= 2.14D-04

 Initial convergence to 1.0D-05 achieved.  Increase integral accuracy.
 Cycle   9  Pass 1  IDiag  1:
 E= -1211.16592002698     Delta-E=        0.000020607649 Rises=F Damp=F
 DIIS: error= 4.44D-05 at cycle   1 NSaved=   1.
 NSaved= 1 IEnMin= 1 EnMin= -1211.16592002698     IErMin= 1 ErrMin= 4.44D-05
 ErrMax= 4.44D-05  0.00D+00 EMaxC= 1.00D-01 BMatC= 5.24D-07 BMatP= 5.24D-07
 IDIUse=1 WtCom= 1.00D+00 WtEn= 0.00D+00
 Coeff-Com:  0.100D+01
 Coeff:      0.100D+01
 Gap=     0.194 Goal=   None    Shift=    0.000
 RMSDP=3.25D-06 MaxDP=1.28D-04 DE= 2.06D-05 OVMax= 2.25D-04

 Cycle  10  Pass 1  IDiag  1:
 RMSU=  2.78D-05    CP:  1.00D+00
 E= -1211.16592039895     Delta-E=       -0.000000371972 Rises=F Damp=F
 DIIS: error= 2.14D-05 at cycle   2 NSaved=   2.
 NSaved= 2 IEnMin= 2 EnMin= -1211.16592039895     IErMin= 2 ErrMin= 2.14D-05
 ErrMax= 2.14D-05  0.00D+00 EMaxC= 1.00D-01 BMatC= 2.55D-07 BMatP= 5.24D-07
 IDIUse=1 WtCom= 1.00D+00 WtEn= 0.00D+00
 Coeff-Com:  0.370D+00 0.630D+00
 Coeff:      0.370D+00 0.630D+00
 Gap=     0.194 Goal=   None    Shift=    0.000
 RMSDP=3.04D-06 MaxDP=1.23D-04 DE=-3.72D-07 OVMax= 2.30D-04

 Cycle  11  Pass 1  IDiag  1:
 RMSU=  3.04D-06    CP:  1.00D+00  1.00D+00
 E= -1211.16592044745     Delta-E=       -0.000000048494 Rises=F Damp=F
 DIIS: error= 2.07D-05 at cycle   3 NSaved=   3.
 NSaved= 3 IEnMin= 3 EnMin= -1211.16592044745     IErMin= 3 ErrMin= 2.07D-05
 ErrMax= 2.07D-05  0.00D+00 EMaxC= 1.00D-01 BMatC= 1.99D-07 BMatP= 2.55D-07
 IDIUse=1 WtCom= 1.00D+00 WtEn= 0.00D+00
 Coeff-Com:  0.128D-01 0.466D+00 0.521D+00
 Coeff:      0.128D-01 0.466D+00 0.521D+00
 Gap=     0.194 Goal=   None    Shift=    0.000
 RMSDP=1.67D-06 MaxDP=7.20D-05 DE=-4.85D-08 OVMax= 1.22D-04

 Cycle  12  Pass 1  IDiag  1:
 RMSU=  6.30D-07    CP:  1.00D+00  1.01D+00  4.98D-01
 E= -1211.16592062788     Delta-E=       -0.000000180430 Rises=F Damp=F
 DIIS: error= 4.32D-06 at cycle   4 NSaved=   4.
 NSaved= 4 IEnMin= 4 EnMin= -1211.16592062788     IErMin= 4 ErrMin= 4.32D-06
 ErrMax= 4.32D-06  0.00D+00 EMaxC= 1.00D-01 BMatC= 1.38D-08 BMatP= 1.99D-07
 IDIUse=1 WtCom= 1.00D+00 WtEn= 0.00D+00
 Coeff-Com: -0.756D-02 0.278D+00 0.342D+00 0.387D+00
 Coeff:     -0.756D-02 0.278D+00 0.342D+00 0.387D+00
 Gap=     0.194 Goal=   None    Shift=    0.000
 RMSDP=4.03D-07 MaxDP=2.14D-05 DE=-1.80D-07 OVMax= 2.35D-05

 Cycle  13  Pass 1  IDiag  1:
 RMSU=  1.94D-07    CP:  1.00D+00  1.01D+00  5.36D-01  4.71D-01
 E= -1211.16592063972     Delta-E=       -0.000000011845 Rises=F Damp=F
 DIIS: error= 6.81D-07 at cycle   5 NSaved=   5.
 NSaved= 5 IEnMin= 5 EnMin= -1211.16592063972     IErMin= 5 ErrMin= 6.81D-07
 ErrMax= 6.81D-07  0.00D+00 EMaxC= 1.00D-01 BMatC= 3.73D-10 BMatP= 1.38D-08
 IDIUse=1 WtCom= 1.00D+00 WtEn= 0.00D+00
 Coeff-Com: -0.479D-02 0.131D+00 0.165D+00 0.220D+00 0.489D+00
 Coeff:     -0.479D-02 0.131D+00 0.165D+00 0.220D+00 0.489D+00
 Gap=     0.194 Goal=   None    Shift=    0.000
 RMSDP=8.33D-08 MaxDP=4.64D-06 DE=-1.18D-08 OVMax= 6.17D-06

 Cycle  14  Pass 1  IDiag  1:
 RMSU=  6.83D-08    CP:  1.00D+00  1.01D+00  5.37D-01  4.87D-01  7.61D-01
 E= -1211.16592064001     Delta-E=       -0.000000000290 Rises=F Damp=F
 DIIS: error= 1.73D-07 at cycle   6 NSaved=   6.
 NSaved= 6 IEnMin= 6 EnMin= -1211.16592064001     IErMin= 6 ErrMin= 1.73D-07
 ErrMax= 1.73D-07  0.00D+00 EMaxC= 1.00D-01 BMatC= 2.88D-11 BMatP= 3.73D-10
 IDIUse=1 WtCom= 1.00D+00 WtEn= 0.00D+00
 Coeff-Com: -0.164D-02 0.372D-01 0.484D-01 0.741D-01 0.259D+00 0.583D+00
 Coeff:     -0.164D-02 0.372D-01 0.484D-01 0.741D-01 0.259D+00 0.583D+00
 Gap=     0.194 Goal=   None    Shift=    0.000
 RMSDP=2.37D-08 MaxDP=8.69D-07 DE=-2.90D-10 OVMax= 1.46D-06

 Cycle  15  Pass 1  IDiag  1:
 RMSU=  1.88D-08    CP:  1.00D+00  1.01D+00  5.37D-01  4.90D-01  8.01D-01
                    CP:  8.25D-01
 E= -1211.16592064007     Delta-E=       -0.000000000055 Rises=F Damp=F
 DIIS: error= 1.19D-07 at cycle   7 NSaved=   7.
 NSaved= 7 IEnMin= 7 EnMin= -1211.16592064007     IErMin= 7 ErrMin= 1.19D-07
 ErrMax= 1.19D-07  0.00D+00 EMaxC= 1.00D-01 BMatC= 6.22D-12 BMatP= 2.88D-11
 IDIUse=1 WtCom= 1.00D+00 WtEn= 0.00D+00
 Coeff-Com: -0.218D-03 0.137D-02 0.277D-02 0.966D-02 0.785D-01 0.359D+00
 Coeff-Com:  0.549D+00
 Coeff:     -0.218D-03 0.137D-02 0.277D-02 0.966D-02 0.785D-01 0.359D+00
 Coeff:      0.549D+00
 Gap=     0.194 Goal=   None    Shift=    0.000
 RMSDP=9.70D-09 MaxDP=4.32D-07 DE=-5.46D-11 OVMax= 5.05D-07

 SCF Done:  E(RB3LYP) =  -1211.16592064     A.U. after   15 cycles
            NFock= 15  Conv=0.97D-08     -V/T= 2.0076
 KE= 1.202084441754D+03 PE=-5.777147557552D+03 EE= 1.893466175062D+03
 Leave Link  502 at Thu Aug  6 21:08:55 2020, MaxMem=    33554432 cpu:       216.2
 (Enter /prod/apps/gaussian/g09d1/l601.exe)
 Copying SCF densities to generalized density rwf, IOpCl= 0 IROHF=0.

 **********************************************************************

            Population analysis using the SCF density.

 **********************************************************************

 Orbital symmetries:
       Occupied  (A) (A) (A) (A) (A) (A) (A) (A) (A) (A) (A) (A)
                 (A) (A) (A) (A) (A) (A) (A) (A) (A) (A) (A) (A)
                 (A) (A) (A) (A) (A) (A) (A) (A) (A) (A) (A) (A)
                 (A) (A) (A) (A) (A) (A) (A) (A) (A) (A) (A) (A)
                 (A) (A) (A) (A) (A) (A) (A) (A) (A) (A) (A) (A)
                 (A) (A) (A) (A) (A) (A) (A) (A) (A) (A)
       Virtual   (A) (A) (A) (A) (A) (A) (A) (A) (A) (A) (A) (A)
                 (A) (A) (A) (A) (A) (A) (A) (A) (A) (A) (A) (A)
                 (A) (A) (A) (A) (A) (A) (A) (A) (A) (A) (A) (A)
                 (A) (A) (A) (A) (A) (A) (A) (A) (A) (A) (A) (A)
                 (A) (A) (A) (A) (A) (A) (A) (A) (A) (A) (A) (A)
                 (A) (A) (A) (A) (A) (A) (A) (A) (A) (A) (A) (A)
                 (A) (A) (A) (A) (A) (A) (A) (A) (A) (A) (A) (A)
                 (A) (A) (A) (A) (A) (A) (A) (A) (A) (A) (A) (A)
                 (A) (A) (A) (A) (A) (A) (A) (A) (A) (A) (A) (A)
                 (A) (A) (A) (A) (A) (A) (A) (A) (A) (A) (A) (A)
                 (A) (A) (A) (A) (A) (A) (A) (A) (A) (A) (A) (A)
                 (A) (A) (A) (A) (A) (A) (A) (A) (A) (A) (A) (A)
                 (A) (A) (A) (A) (A) (A) (A) (A) (A) (A) (A) (A)
                 (A) (A) (A) (A) (A) (A) (A) (A) (A) (A) (A) (A)
                 (A) (A) (A) (A) (A) (A) (A) (A) (A) (A) (A) (A)
                 (A) (A) (A) (A) (A) (A) (A) (A) (A) (A) (A) (A)
                 (A) (A) (A) (A) (A) (A) (A) (A) (A) (A) (A) (A)
                 (A) (A) (A) (A) (A) (A) (A) (A) (A) (A) (A) (A)
                 (A) (A) (A) (A) (A) (A) (A) (A) (A) (A) (A) (A)
                 (A) (A)
 The electronic state is 1-A.
 Alpha  occ. eigenvalues --  -89.13166 -19.14650 -19.14619 -14.44331 -14.39707
 Alpha  occ. eigenvalues --  -14.38669 -14.38452 -14.36233 -10.26085 -10.25679
 Alpha  occ. eigenvalues --  -10.24238 -10.23171 -10.23112 -10.21577 -10.21202
 Alpha  occ. eigenvalues --  -10.20974 -10.20911 -10.20792  -8.15454  -6.11941
 Alpha  occ. eigenvalues --   -6.11883  -6.11815  -1.12312  -1.10836  -1.00197
 Alpha  occ. eigenvalues --   -0.96025  -0.94796  -0.92626  -0.86611  -0.80863
 Alpha  occ. eigenvalues --   -0.77000  -0.76587  -0.73662  -0.72006  -0.66855
 Alpha  occ. eigenvalues --   -0.65464  -0.62026  -0.60593  -0.59542  -0.57226
 Alpha  occ. eigenvalues --   -0.54349  -0.52373  -0.51008  -0.50170  -0.49034
 Alpha  occ. eigenvalues --   -0.48730  -0.48220  -0.46936  -0.45830  -0.45124
 Alpha  occ. eigenvalues --   -0.44282  -0.43891  -0.42535  -0.42011  -0.39841
 Alpha  occ. eigenvalues --   -0.39202  -0.38148  -0.37019  -0.36429  -0.34573
 Alpha  occ. eigenvalues --   -0.34254  -0.33721  -0.31943  -0.31111  -0.29939
 Alpha  occ. eigenvalues --   -0.28101  -0.27116  -0.26935  -0.26051  -0.23909
 Alpha virt. eigenvalues --   -0.04496  -0.02167   0.01573   0.02565   0.06010
 Alpha virt. eigenvalues --    0.06407   0.07710   0.08827   0.09506   0.10369
 Alpha virt. eigenvalues --    0.12057   0.12383   0.13423   0.13771   0.14419
 Alpha virt. eigenvalues --    0.14708   0.15005   0.15706   0.17207   0.17638
 Alpha virt. eigenvalues --    0.17655   0.18054   0.18280   0.19466   0.21441
 Alpha virt. eigenvalues --    0.21696   0.22633   0.25955   0.28460   0.29789
 Alpha virt. eigenvalues --    0.30552   0.32963   0.34440   0.35139   0.37211
 Alpha virt. eigenvalues --    0.38679   0.41918   0.43044   0.44589   0.47307
 Alpha virt. eigenvalues --    0.48279   0.48529   0.48901   0.50369   0.51977
 Alpha virt. eigenvalues --    0.53261   0.54365   0.56202   0.56342   0.57139
 Alpha virt. eigenvalues --    0.57351   0.57827   0.58460   0.58831   0.59687
 Alpha virt. eigenvalues --    0.60162   0.60553   0.61838   0.62652   0.63894
 Alpha virt. eigenvalues --    0.64301   0.66026   0.67689   0.68535   0.69224
 Alpha virt. eigenvalues --    0.70832   0.71524   0.73863   0.74698   0.76361
 Alpha virt. eigenvalues --    0.77368   0.77940   0.78766   0.79953   0.81075
 Alpha virt. eigenvalues --    0.81879   0.82548   0.82967   0.83546   0.84684
 Alpha virt. eigenvalues --    0.85118   0.86206   0.86485   0.87647   0.88859
 Alpha virt. eigenvalues --    0.89201   0.90276   0.90434   0.92463   0.92587
 Alpha virt. eigenvalues --    0.93917   0.94247   0.95385   0.96478   0.97450
 Alpha virt. eigenvalues --    0.97785   0.99234   1.01357   1.02525   1.04383
 Alpha virt. eigenvalues --    1.05559   1.06273   1.07137   1.08952   1.11250
 Alpha virt. eigenvalues --    1.11629   1.14734   1.15276   1.16489   1.16924
 Alpha virt. eigenvalues --    1.18150   1.19355   1.21857   1.24407   1.25064
 Alpha virt. eigenvalues --    1.26294   1.30242   1.33358   1.35097   1.36255
 Alpha virt. eigenvalues --    1.37300   1.39784   1.40804   1.41701   1.43280
 Alpha virt. eigenvalues --    1.43812   1.45449   1.46354   1.47292   1.49054
 Alpha virt. eigenvalues --    1.53354   1.53717   1.55468   1.56698   1.59729
 Alpha virt. eigenvalues --    1.62282   1.67137   1.68774   1.71154   1.75031
 Alpha virt. eigenvalues --    1.78875   1.79506   1.79667   1.80438   1.81215
 Alpha virt. eigenvalues --    1.82920   1.84229   1.84409   1.86498   1.87261
 Alpha virt. eigenvalues --    1.89897   1.91270   1.93372   1.93518   1.95715
 Alpha virt. eigenvalues --    1.96325   1.96854   1.98201   2.01120   2.04720
 Alpha virt. eigenvalues --    2.05327   2.06856   2.07544   2.08954   2.10185
 Alpha virt. eigenvalues --    2.11138   2.12409   2.13333   2.14203   2.15062
 Alpha virt. eigenvalues --    2.16756   2.18881   2.19151   2.20015   2.23331
 Alpha virt. eigenvalues --    2.24140   2.26013   2.28471   2.28732   2.30234
 Alpha virt. eigenvalues --    2.32026   2.32641   2.36119   2.36950   2.41281
 Alpha virt. eigenvalues --    2.41859   2.47086   2.48623   2.50125   2.54308
 Alpha virt. eigenvalues --    2.55539   2.57307   2.58549   2.60897   2.63456
 Alpha virt. eigenvalues --    2.63812   2.66630   2.68991   2.70260   2.71201
 Alpha virt. eigenvalues --    2.73389   2.75135   2.76545   2.80141   2.83228
 Alpha virt. eigenvalues --    2.85582   2.87751   2.99819   3.06951   3.13426
 Alpha virt. eigenvalues --    3.25480   3.41470   3.61939   3.80745   3.92933
 Alpha virt. eigenvalues --    3.94084   4.01589   4.03516   4.06967   4.08997
 Alpha virt. eigenvalues --    4.09737   4.13268   4.16831   4.23333   4.24532
 Alpha virt. eigenvalues --    4.30891   4.32789   4.38758   4.47400   4.70291
          Condensed to atoms (all electrons):
               1          2          3          4          5          6
     1  O    8.215830   0.443243  -0.057529   0.009422  -0.000425   0.000000
     2  S    0.443243  13.617430   0.119415   0.000790  -0.003108   0.000170
     3  N   -0.057529   0.119415   7.412403   0.237005  -0.069360   0.006611
     4  C    0.009422   0.000790   0.237005   4.655167   0.378762  -0.072226
     5  N   -0.000425  -0.003108  -0.069360   0.378762   6.844117   0.305999
     6  N    0.000000   0.000170   0.006611  -0.072226   0.305999   6.745706
     7  C   -0.000862  -0.003689  -0.061904   0.482651  -0.067117  -0.098436
     8  N   -0.000057  -0.000202   0.002751  -0.046355  -0.086698   0.204981
     9  C    0.000000  -0.000021  -0.000091   0.006512   0.007136  -0.045310
    10  C    0.000000  -0.000001   0.000003   0.000842  -0.000345   0.003051
    11  C    0.000000   0.000000   0.000000  -0.000008   0.000002  -0.000068
    12  C    0.000000   0.000000   0.000000   0.000000   0.000000   0.000016
    13  C    0.000000   0.000000   0.000000   0.000006  -0.000004   0.000376
    14  C    0.000000   0.000000   0.000000  -0.000475   0.000294   0.000640
    15  N   -0.053479   0.132134  -0.045746  -0.007026   0.000098   0.000001
    16  C   -0.003371  -0.029963   0.002264   0.000068   0.000002   0.000000
    17  C    0.001680  -0.007706  -0.009283   0.000143  -0.000009   0.000000
    18  O   -0.045950   0.446244  -0.054136   0.001255   0.000010   0.000000
    19  H   -0.000305  -0.016270   0.301562  -0.029788   0.005790  -0.000094
    20  H   -0.000051   0.000616  -0.000600  -0.026619   0.004259   0.003462
    21  H    0.000000   0.000001  -0.000001   0.000030  -0.000003  -0.000089
    22  H    0.000000   0.000000   0.000000   0.000000   0.000000   0.000001
    23  H    0.000000   0.000000   0.000000   0.000000   0.000000   0.000000
    24  H    0.000000   0.000000   0.000000   0.000000   0.000000  -0.000008
    25  H    0.000000   0.000000   0.000000   0.000038  -0.000346   0.015953
    26  H    0.012018  -0.004025   0.000112   0.000017   0.000000   0.000000
    27  H    0.000292   0.001899  -0.000075   0.000012   0.000000   0.000000
    28  H   -0.000541  -0.002129  -0.000082  -0.000009   0.000000   0.000000
    29  H    0.000029  -0.003923   0.013004  -0.000029   0.000003   0.000000
    30  H   -0.000042  -0.006372  -0.000148  -0.000023   0.000000   0.000000
    31  H   -0.000051   0.002822  -0.000022  -0.000017   0.000000   0.000000
               7          8          9         10         11         12
     1  O   -0.000862  -0.000057   0.000000   0.000000   0.000000   0.000000
     2  S   -0.003689  -0.000202  -0.000021  -0.000001   0.000000   0.000000
     3  N   -0.061904   0.002751  -0.000091   0.000003   0.000000   0.000000
     4  C    0.482651  -0.046355   0.006512   0.000842  -0.000008   0.000000
     5  N   -0.067117  -0.086698   0.007136  -0.000345   0.000002   0.000000
     6  N   -0.098436   0.204981  -0.045310   0.003051  -0.000068   0.000016
     7  C    5.050331   0.321064  -0.038182  -0.007409   0.000004   0.000017
     8  N    0.321064   6.923666   0.202975  -0.051166   0.004664   0.000398
     9  C   -0.038182   0.202975   4.610945   0.529314  -0.007399  -0.037983
    10  C   -0.007409  -0.051166   0.529314   4.994171   0.527969  -0.039338
    11  C    0.000004   0.004664  -0.007399   0.527969   4.846791   0.550131
    12  C    0.000017   0.000398  -0.037983  -0.039338   0.550131   4.849523
    13  C   -0.000082   0.004541  -0.009548  -0.042107  -0.022719   0.543571
    14  C    0.007610  -0.057352   0.519297  -0.073790  -0.041486  -0.037360
    15  N    0.005014   0.000105   0.000003  -0.000001   0.000000   0.000000
    16  C   -0.000047  -0.000001   0.000000   0.000000   0.000000   0.000000
    17  C    0.000069  -0.000004   0.000000   0.000000   0.000000   0.000000
    18  O   -0.000032   0.000000   0.000000   0.000000   0.000000   0.000000
    19  H    0.004996   0.000088  -0.000002   0.000000   0.000000   0.000000
    20  H    0.359144  -0.037251  -0.001435   0.002061   0.000165  -0.000001
    21  H    0.006204  -0.009673  -0.039881   0.348411  -0.038366   0.004464
    22  H   -0.000004  -0.000115   0.003546  -0.039529   0.359499  -0.040398
    23  H    0.000000   0.000003   0.000520   0.004988  -0.042498   0.362256
    24  H    0.000001  -0.000109   0.003475   0.000812   0.004582  -0.041493
    25  H    0.000257  -0.013565  -0.033802   0.005633   0.000155   0.004387
    26  H   -0.000038  -0.000001   0.000000   0.000000   0.000000   0.000000
    27  H   -0.000006  -0.000001   0.000000   0.000000   0.000000   0.000000
    28  H    0.000009   0.000000   0.000000   0.000000   0.000000   0.000000
    29  H   -0.000053   0.000001   0.000000   0.000000   0.000000   0.000000
    30  H    0.000018   0.000000   0.000000   0.000000   0.000000   0.000000
    31  H   -0.000019   0.000000   0.000000   0.000000   0.000000   0.000000
              13         14         15         16         17         18
     1  O    0.000000   0.000000  -0.053479  -0.003371   0.001680  -0.045950
     2  S    0.000000   0.000000   0.132134  -0.029963  -0.007706   0.446244
     3  N    0.000000   0.000000  -0.045746   0.002264  -0.009283  -0.054136
     4  C    0.000006  -0.000475  -0.007026   0.000068   0.000143   0.001255
     5  N   -0.000004   0.000294   0.000098   0.000002  -0.000009   0.000010
     6  N    0.000376   0.000640   0.000001   0.000000   0.000000   0.000000
     7  C   -0.000082   0.007610   0.005014  -0.000047   0.000069  -0.000032
     8  N    0.004541  -0.057352   0.000105  -0.000001  -0.000004   0.000000
     9  C   -0.009548   0.519297   0.000003   0.000000   0.000000   0.000000
    10  C   -0.042107  -0.073790  -0.000001   0.000000   0.000000   0.000000
    11  C   -0.022719  -0.041486   0.000000   0.000000   0.000000   0.000000
    12  C    0.543571  -0.037360   0.000000   0.000000   0.000000   0.000000
    13  C    4.866319   0.517587   0.000000   0.000000   0.000000   0.000000
    14  C    0.517587   4.980740   0.000000   0.000000   0.000000   0.000000
    15  N    0.000000   0.000000   7.212203   0.294726   0.267810  -0.054645
    16  C    0.000000   0.000000   0.294726   4.987856  -0.050127  -0.002191
    17  C    0.000000   0.000000   0.267810  -0.050127   4.994108   0.002905
    18  O    0.000000   0.000000  -0.054645  -0.002191   0.002905   8.226773
    19  H    0.000000   0.000000   0.002399  -0.000051  -0.000103   0.004219
    20  H   -0.000006  -0.000102   0.004513   0.000046  -0.000021   0.000003
    21  H    0.000261   0.005703  -0.000006   0.000004  -0.000001   0.000000
    22  H    0.004561   0.000790   0.000000   0.000000   0.000000   0.000000
    23  H   -0.042396   0.004706   0.000000   0.000000   0.000000   0.000000
    24  H    0.360646  -0.038306   0.000000   0.000000   0.000000   0.000000
    25  H   -0.040251   0.354490   0.000000   0.000000   0.000000   0.000000
    26  H    0.000000   0.000000  -0.030167   0.377680   0.004476  -0.000102
    27  H    0.000000   0.000000  -0.040365   0.376515  -0.002884  -0.000104
    28  H    0.000000   0.000000  -0.047568   0.373140  -0.002189   0.001973
    29  H    0.000000   0.000000  -0.031833   0.004577   0.377137  -0.001725
    30  H    0.000000   0.000000  -0.045514  -0.001790   0.375106   0.004915
    31  H    0.000000   0.000000  -0.035936  -0.004028   0.372015   0.000063
              19         20         21         22         23         24
     1  O   -0.000305  -0.000051   0.000000   0.000000   0.000000   0.000000
     2  S   -0.016270   0.000616   0.000001   0.000000   0.000000   0.000000
     3  N    0.301562  -0.000600  -0.000001   0.000000   0.000000   0.000000
     4  C   -0.029788  -0.026619   0.000030   0.000000   0.000000   0.000000
     5  N    0.005790   0.004259  -0.000003   0.000000   0.000000   0.000000
     6  N   -0.000094   0.003462  -0.000089   0.000001   0.000000  -0.000008
     7  C    0.004996   0.359144   0.006204  -0.000004   0.000000   0.000001
     8  N    0.000088  -0.037251  -0.009673  -0.000115   0.000003  -0.000109
     9  C   -0.000002  -0.001435  -0.039881   0.003546   0.000520   0.003475
    10  C    0.000000   0.002061   0.348411  -0.039529   0.004988   0.000812
    11  C    0.000000   0.000165  -0.038366   0.359499  -0.042498   0.004582
    12  C    0.000000  -0.000001   0.004464  -0.040398   0.362256  -0.041493
    13  C    0.000000  -0.000006   0.000261   0.004561  -0.042396   0.360646
    14  C    0.000000  -0.000102   0.005703   0.000790   0.004706  -0.038306
    15  N    0.002399   0.004513  -0.000006   0.000000   0.000000   0.000000
    16  C   -0.000051   0.000046   0.000004   0.000000   0.000000   0.000000
    17  C   -0.000103  -0.000021  -0.000001   0.000000   0.000000   0.000000
    18  O    0.004219   0.000003   0.000000   0.000000   0.000000   0.000000
    19  H    0.350672  -0.000094   0.000000   0.000000   0.000000   0.000000
    20  H   -0.000094   0.503431   0.001993  -0.000002   0.000000   0.000000
    21  H    0.000000   0.001993   0.580527  -0.005517  -0.000159   0.000015
    22  H    0.000000  -0.000002  -0.005517   0.580634  -0.005377  -0.000180
    23  H    0.000000   0.000000  -0.000159  -0.005377   0.583247  -0.005370
    24  H    0.000000   0.000000   0.000015  -0.000180  -0.005370   0.575208
    25  H    0.000000  -0.000011  -0.000138   0.000013  -0.000140  -0.005087
    26  H   -0.000004  -0.000031   0.000001   0.000000   0.000000   0.000000
    27  H    0.000001  -0.000084   0.000001   0.000000   0.000000   0.000000
    28  H    0.000006   0.000011   0.000000   0.000000   0.000000   0.000000
    29  H   -0.000368   0.000007   0.000000   0.000000   0.000000   0.000000
    30  H    0.000051   0.000018   0.000000   0.000000   0.000000   0.000000
    31  H    0.000000  -0.000037   0.000000   0.000000   0.000000   0.000000
              25         26         27         28         29         30
     1  O    0.000000   0.012018   0.000292  -0.000541   0.000029  -0.000042
     2  S    0.000000  -0.004025   0.001899  -0.002129  -0.003923  -0.006372
     3  N    0.000000   0.000112  -0.000075  -0.000082   0.013004  -0.000148
     4  C    0.000038   0.000017   0.000012  -0.000009  -0.000029  -0.000023
     5  N   -0.000346   0.000000   0.000000   0.000000   0.000003   0.000000
     6  N    0.015953   0.000000   0.000000   0.000000   0.000000   0.000000
     7  C    0.000257  -0.000038  -0.000006   0.000009  -0.000053   0.000018
     8  N   -0.013565  -0.000001  -0.000001   0.000000   0.000001   0.000000
     9  C   -0.033802   0.000000   0.000000   0.000000   0.000000   0.000000
    10  C    0.005633   0.000000   0.000000   0.000000   0.000000   0.000000
    11  C    0.000155   0.000000   0.000000   0.000000   0.000000   0.000000
    12  C    0.004387   0.000000   0.000000   0.000000   0.000000   0.000000
    13  C   -0.040251   0.000000   0.000000   0.000000   0.000000   0.000000
    14  C    0.354490   0.000000   0.000000   0.000000   0.000000   0.000000
    15  N    0.000000  -0.030167  -0.040365  -0.047568  -0.031833  -0.045514
    16  C    0.000000   0.377680   0.376515   0.373140   0.004577  -0.001790
    17  C    0.000000   0.004476  -0.002884  -0.002189   0.377137   0.375106
    18  O    0.000000  -0.000102  -0.000104   0.001973  -0.001725   0.004915
    19  H    0.000000  -0.000004   0.000001   0.000006  -0.000368   0.000051
    20  H   -0.000011  -0.000031  -0.000084   0.000011   0.000007   0.000018
    21  H   -0.000138   0.000001   0.000001   0.000000   0.000000   0.000000
    22  H    0.000013   0.000000   0.000000   0.000000   0.000000   0.000000
    23  H   -0.000140   0.000000   0.000000   0.000000   0.000000   0.000000
    24  H   -0.005087   0.000000   0.000000   0.000000   0.000000   0.000000
    25  H    0.533817   0.000000   0.000000   0.000000   0.000000   0.000000
    26  H    0.000000   0.479996  -0.021003  -0.029192  -0.000182  -0.000180
    27  H    0.000000  -0.021003   0.561871  -0.042374   0.000071  -0.001874
    28  H    0.000000  -0.029192  -0.042374   0.575952  -0.000199   0.008410
    29  H    0.000000  -0.000182   0.000071  -0.000199   0.501897  -0.029435
    30  H    0.000000  -0.000180  -0.001874   0.008410  -0.029435   0.560837
    31  H    0.000000  -0.000001   0.005498  -0.001428  -0.023764  -0.037574
              31
     1  O   -0.000051
     2  S    0.002822
     3  N   -0.000022
     4  C   -0.000017
     5  N    0.000000
     6  N    0.000000
     7  C   -0.000019
     8  N    0.000000
     9  C    0.000000
    10  C    0.000000
    11  C    0.000000
    12  C    0.000000
    13  C    0.000000
    14  C    0.000000
    15  N   -0.035936
    16  C   -0.004028
    17  C    0.372015
    18  O    0.000063
    19  H    0.000000
    20  H   -0.000037
    21  H    0.000000
    22  H    0.000000
    23  H    0.000000
    24  H    0.000000
    25  H    0.000000
    26  H   -0.000001
    27  H    0.005498
    28  H   -0.001428
    29  H   -0.023764
    30  H   -0.037574
    31  H    0.560044
 Mulliken charges:
               1
     1  O   -0.519851
     2  S    1.312646
     3  N   -0.796151
     4  C    0.409858
     5  N   -0.319057
     6  N   -0.070735
     7  C    0.040490
     8  N   -0.362686
     9  C    0.329931
    10  C   -0.163568
    11  C   -0.141420
    12  C   -0.118188
    13  C   -0.140755
    14  C   -0.142986
    15  N   -0.526719
    16  C   -0.325310
    17  C   -0.323122
    18  O   -0.529476
    19  H    0.377295
    20  H    0.186613
    21  H    0.146218
    22  H    0.142078
    23  H    0.140220
    24  H    0.145813
    25  H    0.178596
    26  H    0.210628
    27  H    0.162610
    28  H    0.166210
    29  H    0.194785
    30  H    0.173595
    31  H    0.162437
 Sum of Mulliken charges =   0.00000
 Mulliken charges with hydrogens summed into heavy atoms:
               1
     1  O   -0.519851
     2  S    1.312646
     3  N   -0.418856
     4  C    0.409858
     5  N   -0.319057
     6  N   -0.070735
     7  C    0.227103
     8  N   -0.362686
     9  C    0.329931
    10  C   -0.017349
    11  C    0.000658
    12  C    0.022032
    13  C    0.005059
    14  C    0.035609
    15  N   -0.526719
    16  C    0.214138
    17  C    0.207696
    18  O   -0.529476
 Electronic spatial extent (au):  <R**2>=           6336.7217
 Charge=              0.0000 electrons
 Dipole moment (field-independent basis, Debye):
    X=              3.1623    Y=              5.6389    Z=              3.2798  Tot=              7.2494
 Quadrupole moment (field-independent basis, Debye-Ang):
   XX=           -104.7512   YY=           -106.1439   ZZ=           -115.4077
   XY=             -5.4482   XZ=             -6.4933   YZ=             -3.6174
 Traceless Quadrupole moment (field-independent basis, Debye-Ang):
   XX=              4.0164   YY=              2.6237   ZZ=             -6.6401
   XY=             -5.4482   XZ=             -6.4933   YZ=             -3.6174
 Octapole moment (field-independent basis, Debye-Ang**2):
  XXX=            115.2150  YYY=             31.6049  ZZZ=              5.7828  XYY=            -23.9288
  XXY=             43.4507  XXZ=             17.6639  XZZ=            -23.3060  YZZ=              2.1554
  YYZ=              3.7588  XYZ=             -1.6200
 Hexadecapole moment (field-independent basis, Debye-Ang**3):
 XXXX=          -6339.1110 YYYY=          -1259.2355 ZZZZ=           -424.7625 XXXY=           -132.1134
 XXXZ=            -36.7454 YYYX=             38.9409 YYYZ=            -22.7386 ZZZX=            -15.1698
 ZZZY=              0.8032 XXYY=          -1194.5672 XXZZ=          -1247.1895 YYZZ=           -274.9346
 XXYZ=            -34.0319 YYXZ=             -5.6945 ZZXY=            -20.5869
 N-N= 1.470431020096D+03 E-N=-5.777147593266D+03  KE= 1.202084441754D+03
 No NMR shielding tensors so no spin-rotation constants.
 Leave Link  601 at Thu Aug  6 21:08:55 2020, MaxMem=    33554432 cpu:         0.3
 (Enter /prod/apps/gaussian/g09d1/l9999.exe)
 1\1\GINC-PIRINEUS24\SP\RB3LYP\6-31G(d)\C10H13N5O2S1\UBAFAR01\06-Aug-20
 20\0\\#p b3lyp/6-31G(d)\\SM46.n.1.pdb.xyz\\0,1\O,0,4.678,-1.426,-0.915
 \S,0,4.73,-0.005,-0.553\N,0,4.57,1.014,-1.897\C,0,3.769,0.6,-2.976\N,0
 ,4.302,0.321,-4.196\N,0,3.33,0.019,-5.02\C,0,2.4,0.458,-3.041\N,0,2.17
 1,0.084,-4.326\C,0,0.927,-0.211,-4.955\C,0,-0.157,-0.625,-4.178\C,0,-1
 .373,-0.902,-4.802\C,0,-1.5,-0.779,-6.187\C,0,-0.404,-0.372,-6.951\C,0
 ,0.813,-0.079,-6.341\N,0,3.286,0.339,0.222\C,0,2.824,-0.708,1.15\C,0,3
 .2,1.701,0.775\O,0,5.918,0.505,0.146\H,0,5.497,1.329,-2.187\H,0,1.618,
 0.602,-2.317\H,0,-0.051,-0.74,-3.106\H,0,-2.217,-1.222,-4.202\H,0,-2.4
 47,-1.,-6.668\H,0,-0.497,-0.272,-8.026\H,0,1.666,0.25,-6.92\H,0,2.874,
 -1.677,0.659\H,0,1.784,-0.483,1.393\H,0,3.406,-0.732,2.079\H,0,3.511,2
 .42,0.018\H,0,3.813,1.821,1.675\H,0,2.154,1.884,1.027\\Version=AM64L-G
 09RevD.01\State=1-A\HF=-1211.1659206\RMSD=9.700e-09\Dipole=-2.7001293,
 0.8123946,0.4289853\Quadrupole=-3.4999408,-3.113388,6.6133288,5.38939,
 -0.6463584,1.7860967\PG=C01 [X(C10H13N5O2S1)]\\@


 REALITY IS FOR PEOPLE WHO CAN'T FACE SCIENCE FICTION.
 Job cpu time:       0 days  0 hours  3 minutes 40.8 seconds.
 File lengths (MBytes):  RWF=     51 Int=      0 D2E=      0 Chk=      4 Scr=      1
 Normal termination of Gaussian 09 at Thu Aug  6 21:08:55 2020.
 Initial command:
 /prod/apps/gaussian/g09d1/l1.exe "/tmp/ubafar01/1448553/Gau-177208.inp" -scrdir="/tmp/ubafar01/1448553/"
 Entering Link 1 = /prod/apps/gaussian/g09d1/l1.exe PID=    179019.
  
 Copyright (c) 1988,1990,1992,1993,1995,1998,2003,2009,2013,
            Gaussian, Inc.  All Rights Reserved.
  
 This is part of the Gaussian(R) 09 program.  It is based on
 the Gaussian(R) 03 system (copyright 2003, Gaussian, Inc.),
 the Gaussian(R) 98 system (copyright 1998, Gaussian, Inc.),
 the Gaussian(R) 94 system (copyright 1995, Gaussian, Inc.),
 the Gaussian 92(TM) system (copyright 1992, Gaussian, Inc.),
 the Gaussian 90(TM) system (copyright 1990, Gaussian, Inc.),
 the Gaussian 88(TM) system (copyright 1988, Gaussian, Inc.),
 the Gaussian 86(TM) system (copyright 1986, Carnegie Mellon
 University), and the Gaussian 82(TM) system (copyright 1983,
 Carnegie Mellon University). Gaussian is a federally registered
 trademark of Gaussian, Inc.
  
 This software contains proprietary and confidential information,
 including trade secrets, belonging to Gaussian, Inc.
  
 This software is provided under written license and may be
 used, copied, transmitted, or stored only in accord with that
 written license.
  
 The following legend is applicable only to US Government
 contracts under FAR:
  
                    RESTRICTED RIGHTS LEGEND
  
 Use, reproduction and disclosure by the US Government is
 subject to restrictions as set forth in subparagraphs (a)
 and (c) of the Commercial Computer Software - Restricted
 Rights clause in FAR 52.227-19.
  
 Gaussian, Inc.
 340 Quinnipiac St., Bldg. 40, Wallingford CT 06492
  
  
 ---------------------------------------------------------------
 Warning -- This program may not be used in any manner that
 competes with the business of Gaussian, Inc. or will provide
 assistance to any competitor of Gaussian, Inc.  The licensee
 of this program is prohibited from giving any competitor of
 Gaussian, Inc. access to this program.  By using this program,
 the user acknowledges that Gaussian, Inc. is engaged in the
 business of creating and licensing software in the field of
 computational chemistry and represents and warrants to the
 licensee that it is not a competitor of Gaussian, Inc. and that
 it will not use this program in any manner prohibited above.
 ---------------------------------------------------------------
  

 Cite this work as:
 Gaussian 09, Revision D.01,
 M. J. Frisch, G. W. Trucks, H. B. Schlegel, G. E. Scuseria, 
 M. A. Robb, J. R. Cheeseman, G. Scalmani, V. Barone, B. Mennucci, 
 G. A. Petersson, H. Nakatsuji, M. Caricato, X. Li, H. P. Hratchian, 
 A. F. Izmaylov, J. Bloino, G. Zheng, J. L. Sonnenberg, M. Hada, 
 M. Ehara, K. Toyota, R. Fukuda, J. Hasegawa, M. Ishida, T. Nakajima, 
 Y. Honda, O. Kitao, H. Nakai, T. Vreven, J. A. Montgomery, Jr., 
 J. E. Peralta, F. Ogliaro, M. Bearpark, J. J. Heyd, E. Brothers, 
 K. N. Kudin, V. N. Staroverov, T. Keith, R. Kobayashi, J. Normand, 
 K. Raghavachari, A. Rendell, J. C. Burant, S. S. Iyengar, J. Tomasi, 
 M. Cossi, N. Rega, J. M. Millam, M. Klene, J. E. Knox, J. B. Cross, 
 V. Bakken, C. Adamo, J. Jaramillo, R. Gomperts, R. E. Stratmann, 
 O. Yazyev, A. J. Austin, R. Cammi, C. Pomelli, J. W. Ochterski, 
 R. L. Martin, K. Morokuma, V. G. Zakrzewski, G. A. Voth, 
 P. Salvador, J. J. Dannenberg, S. Dapprich, A. D. Daniels, 
 O. Farkas, J. B. Foresman, J. V. Ortiz, J. Cioslowski, 
 and D. J. Fox, Gaussian, Inc., Wallingford CT, 2013.
 
 ******************************************
 Gaussian 09:  AM64L-G09RevD.01 24-Apr-2013
                 6-Aug-2020 
 ******************************************
 %nproc=1
 Will use up to    1 processors via shared memory.
 %Chk=SM46.n.1.pdb.xyz.mst.n.w.chk
 %subst l502 /dades/curu/work_g09D01_MST_AddSphPartition_ReadGammas/exe-dir/
 ----------------------------------------------------------------------
 #p b3lyp/6-31G(d) scrf=(iefpcm,read,solvent=Water) geom=allcheck guess
 =read
 ----------------------------------------------------------------------
 1/29=7,38=1,40=2/1;
 2/12=2,40=1/2;
 3/5=1,6=6,7=1,11=2,14=-4,16=1,25=1,30=1,70=2203,72=1,74=-5,116=-2/1,2,3;
 4/5=1/1;
 5/5=2,38=6,53=1/2;
 6/7=2,8=2,9=2,10=2,28=1/1;
 99/5=1,9=1/99;
 Leave Link    1 at Thu Aug  6 21:08:55 2020, MaxMem=           0 cpu:         0.0
 (Enter /prod/apps/gaussian/g09d1/l101.exe)
 Structure from the checkpoint file:  "SM46.n.1.pdb.xyz.mst.n.w.chk"
 ----------------
 SM46.n.1.pdb.xyz
 ----------------
 Charge =  0 Multiplicity = 1
 Z-Matrix found in file.
 O,0,4.678,-1.426,-0.915
 S,0,4.73,-0.005,-0.553
 N,0,4.57,1.014,-1.897
 C,0,3.769,0.6,-2.976
 N,0,4.302,0.321,-4.196
 N,0,3.33,0.019,-5.02
 C,0,2.4,0.458,-3.041
 N,0,2.171,0.084,-4.326
 C,0,0.927,-0.211,-4.955
 C,0,-0.157,-0.625,-4.178
 C,0,-1.373,-0.902,-4.802
 C,0,-1.5,-0.779,-6.187
 C,0,-0.404,-0.372,-6.951
 C,0,0.813,-0.079,-6.341
 N,0,3.286,0.339,0.222
 C,0,2.824,-0.708,1.15
 C,0,3.2,1.701,0.775
 O,0,5.918,0.505,0.146
 H,0,5.497,1.329,-2.187
 H,0,1.618,0.602,-2.317
 H,0,-0.051,-0.74,-3.106
 H,0,-2.217,-1.222,-4.202
 H,0,-2.447,-1.,-6.668
 H,0,-0.497,-0.272,-8.026
 H,0,1.666,0.25,-6.92
 H,0,2.874,-1.677,0.659
 H,0,1.784,-0.483,1.393
 H,0,3.406,-0.732,2.079
 H,0,3.511,2.42,0.018
 H,0,3.813,1.821,1.675
 H,0,2.154,1.884,1.027
 Recover connectivity data from disk.
 NAtoms=     31 NQM=       31 NQMF=       0 NMMI=      0 NMMIF=      0
                NMic=       0 NMicF=      0.
                    Isotopes and Nuclear Properties:
 (Nuclear quadrupole moments (NQMom) in fm**2, nuclear magnetic moments (NMagM)
  in nuclear magnetons)

  Atom         1           2           3           4           5           6           7           8           9          10
 IAtWgt=          16          32          14          12          14          14          12          14          12          12
 AtmWgt=  15.9949146  31.9720718  14.0030740  12.0000000  14.0030740  14.0030740  12.0000000  14.0030740  12.0000000  12.0000000
 NucSpn=           0           0           2           0           2           2           0           2           0           0
 AtZEff=  -5.6000000 -13.6000000  -4.5500000  -3.6000000  -4.5500000  -4.5500000  -3.6000000  -4.5500000  -3.6000000  -3.6000000
 NQMom=    0.0000000   0.0000000   2.0440000   0.0000000   2.0440000   2.0440000   0.0000000   2.0440000   0.0000000   0.0000000
 NMagM=    0.0000000   0.0000000   0.4037610   0.0000000   0.4037610   0.4037610   0.0000000   0.4037610   0.0000000   0.0000000
 AtZNuc=   8.0000000  16.0000000   7.0000000   6.0000000   7.0000000   7.0000000   6.0000000   7.0000000   6.0000000   6.0000000

  Atom        11          12          13          14          15          16          17          18          19          20
 IAtWgt=          12          12          12          12          14          12          12          16           1           1
 AtmWgt=  12.0000000  12.0000000  12.0000000  12.0000000  14.0030740  12.0000000  12.0000000  15.9949146   1.0078250   1.0078250
 NucSpn=           0           0           0           0           2           0           0           0           1           1
 AtZEff=  -3.6000000  -3.6000000  -3.6000000  -3.6000000  -4.5500000  -3.6000000  -3.6000000  -5.6000000  -1.0000000  -1.0000000
 NQMom=    0.0000000   0.0000000   0.0000000   0.0000000   2.0440000   0.0000000   0.0000000   0.0000000   0.0000000   0.0000000
 NMagM=    0.0000000   0.0000000   0.0000000   0.0000000   0.4037610   0.0000000   0.0000000   0.0000000   2.7928460   2.7928460
 AtZNuc=   6.0000000   6.0000000   6.0000000   6.0000000   7.0000000   6.0000000   6.0000000   8.0000000   1.0000000   1.0000000

  Atom        21          22          23          24          25          26          27          28          29          30
 IAtWgt=           1           1           1           1           1           1           1           1           1           1
 AtmWgt=   1.0078250   1.0078250   1.0078250   1.0078250   1.0078250   1.0078250   1.0078250   1.0078250   1.0078250   1.0078250
 NucSpn=           1           1           1           1           1           1           1           1           1           1
 AtZEff=  -1.0000000  -1.0000000  -1.0000000  -1.0000000  -1.0000000  -1.0000000  -1.0000000  -1.0000000  -1.0000000  -1.0000000
 NQMom=    0.0000000   0.0000000   0.0000000   0.0000000   0.0000000   0.0000000   0.0000000   0.0000000   0.0000000   0.0000000
 NMagM=    2.7928460   2.7928460   2.7928460   2.7928460   2.7928460   2.7928460   2.7928460   2.7928460   2.7928460   2.7928460
 AtZNuc=   1.0000000   1.0000000   1.0000000   1.0000000   1.0000000   1.0000000   1.0000000   1.0000000   1.0000000   1.0000000

  Atom        31
 IAtWgt=           1
 AtmWgt=   1.0078250
 NucSpn=           1
 AtZEff=  -1.0000000
 NQMom=    0.0000000
 NMagM=    2.7928460
 AtZNuc=   1.0000000
 Leave Link  101 at Thu Aug  6 21:08:55 2020, MaxMem=    33554432 cpu:         0.1
 (Enter /prod/apps/gaussian/g09d1/l202.exe)
                          Input orientation:                          
 ---------------------------------------------------------------------
 Center     Atomic      Atomic             Coordinates (Angstroms)
 Number     Number       Type             X           Y           Z
 ---------------------------------------------------------------------
      1          8           0        4.678000   -1.426000   -0.915000
      2         16           0        4.730000   -0.005000   -0.553000
      3          7           0        4.570000    1.014000   -1.897000
      4          6           0        3.769000    0.600000   -2.976000
      5          7           0        4.302000    0.321000   -4.196000
      6          7           0        3.330000    0.019000   -5.020000
      7          6           0        2.400000    0.458000   -3.041000
      8          7           0        2.171000    0.084000   -4.326000
      9          6           0        0.927000   -0.211000   -4.955000
     10          6           0       -0.157000   -0.625000   -4.178000
     11          6           0       -1.373000   -0.902000   -4.802000
     12          6           0       -1.500000   -0.779000   -6.187000
     13          6           0       -0.404000   -0.372000   -6.951000
     14          6           0        0.813000   -0.079000   -6.341000
     15          7           0        3.286000    0.339000    0.222000
     16          6           0        2.824000   -0.708000    1.150000
     17          6           0        3.200000    1.701000    0.775000
     18          8           0        5.918000    0.505000    0.146000
     19          1           0        5.497000    1.329000   -2.187000
     20          1           0        1.618000    0.602000   -2.317000
     21          1           0       -0.051000   -0.740000   -3.106000
     22          1           0       -2.217000   -1.222000   -4.202000
     23          1           0       -2.447000   -1.000000   -6.668000
     24          1           0       -0.497000   -0.272000   -8.026000
     25          1           0        1.666000    0.250000   -6.920000
     26          1           0        2.874000   -1.677000    0.659000
     27          1           0        1.784000   -0.483000    1.393000
     28          1           0        3.406000   -0.732000    2.079000
     29          1           0        3.511000    2.420000    0.018000
     30          1           0        3.813000    1.821000    1.675000
     31          1           0        2.154000    1.884000    1.027000
 ---------------------------------------------------------------------
                    Distance matrix (angstroms):
                    1          2          3          4          5
     1  O    0.000000
     2  S    1.467307   0.000000
     3  N    2.632411   1.694195   0.000000
     4  C    3.029633   2.675906   1.406143   0.000000
     5  N    3.736087   3.682514   2.416087   1.360268   0.000000
     6  N    4.555892   4.681310   3.504391   2.169843   1.309566
     7  C    3.641238   3.439973   2.515308   1.377879   2.229439
     8  N    4.494449   4.559817   3.538381   2.154614   2.148076
     9  C    5.645160   5.820898   4.911562   3.556842   3.499961
    10  C    5.887784   6.116191   5.498528   4.284729   4.558280
    11  C    7.210960   7.490342   6.886896   5.659545   5.836830
    12  C    8.147409   8.435279   7.646166   6.322541   6.231957
    13  C    7.960586   8.211398   7.225274   5.844599   5.496973
    14  C    6.796625   6.989228   5.921050   4.530144   4.115112
    15  N    2.519059   1.674544   2.567965   3.244783   4.533355
    16  C    2.866542   2.650897   3.911267   4.430323   5.641191
    17  C    3.849508   2.648569   3.080333   3.950438   5.275381
    18  O    2.528257   1.469709   2.500007   3.791320   4.636623
    19  H    3.143051   2.244505   1.021104   2.034686   2.545618
    20  H    3.929629   3.628318   3.010058   2.249686   3.288382
    21  H    5.256854   5.469552   5.088402   4.050296   4.611120
    22  H    7.641139   7.940850   7.508401   6.376124   6.699123
    23  H    9.167557   9.481170   8.721062   7.404696   7.307861
    24  H    8.870099   9.123516   8.055615   6.667956   6.168545
    25  H    6.923954   7.070489   5.852131   4.483330   3.791268
    26  H    2.407258   2.776556   4.080568   4.381664   5.440792
    27  H    3.819862   3.562908   4.563650   4.919479   6.182529
    28  H    3.326207   3.034622   4.495774   5.240135   6.425516
    29  H    4.126026   2.773559   2.601066   3.513261   4.773812
    30  H    4.242562   3.023103   3.739449   4.808802   6.079290
    31  H    4.593260   3.563776   3.891495   4.503431   5.859744
                    6          7          8          9         10
     6  N    0.000000
     7  C    2.230261   0.000000
     8  N    1.352458   1.357771   0.000000
     9  C    2.414857   2.506130   1.424852   0.000000
    10  C    3.644567   3.000651   2.438067   1.396489   0.000000
    11  C    4.797288   4.380211   3.709273   2.406427   1.394547
    12  C    5.032653   5.161152   4.205274   2.780427   2.421455
    13  C    4.221895   4.882562   3.705292   2.404475   2.795451
    14  C    2.844281   3.700937   2.435356   1.396931   2.432609
    15  N    5.251942   3.383242   4.689622   5.715655   5.669528
    16  C    6.233255   4.370791   5.571378   6.412226   6.105803
    17  C    6.035565   4.092298   5.449195   6.454082   6.419652
    18  O    5.798405   4.747157   5.849447   7.172373   7.541850
    19  H    3.799721   3.328568   4.145796   5.560425   6.304753
    20  H    3.252236   1.075377   2.147141   2.845610   2.849469
    21  H    3.958616   2.728888   2.665457   2.157574   1.083349
    22  H    5.742684   5.048466   4.579908   3.387310   2.144897
    23  H    6.093274   6.226901   5.290174   3.865329   3.403649
    24  H    4.875105   5.811689   4.575474   3.385637   3.879087
    25  H    2.536189   3.953310   2.647908   2.149388   3.406981
    26  H    5.944358   4.298011   5.333437   6.120209   5.804329
    27  H    6.615791   4.574417   5.760054   6.411360   5.901160
    28  H    7.139018   5.351872   6.573820   7.476232   7.201143
    29  H    5.583816   3.800164   5.111050   6.191118   6.350800
    30  H    6.950073   5.108326   6.459515   7.510987   7.483410
    31  H    6.436413   4.317710   5.647557   6.455918   6.223169
                   11         12         13         14         15
    11  C    0.000000
    12  C    1.396239   0.000000
    13  C    2.416208   1.396625   0.000000
    14  C    2.797221   2.421505   1.392493   0.000000
    15  N    6.963256   8.076571   8.097750   7.025911   0.000000
    16  C    7.285516   8.516665   8.726917   7.781699   1.473376
    17  C    7.667520   8.758416   8.773666   7.713859   1.472498
    18  O    8.923062   9.837798   9.544853   8.275461   2.638324
    19  H    7.681958   8.330767   7.772445   6.417011   3.416417
    20  H    4.169331   5.158099   5.148895   4.159851   3.049248
    21  H    2.156466   3.404950   3.878667   3.413011   4.834811
    22  H    1.083852   2.156516   3.400951   3.881066   7.231287
    23  H    2.155235   1.084901   2.155997   3.403347   9.062688
    24  H    3.399772   2.155221   1.083639   2.143029   9.094719
    25  H    3.879246   3.408766   2.161653   1.082170   7.323966
    26  H    6.961333   8.173494   8.388111   7.470028   2.103561
    27  H    6.965647   8.266116   8.626819   7.805179   2.074350
    28  H    8.379493   9.612377   9.807477   8.834391   2.147065
    29  H    7.623748   8.593355   8.466962   7.345821   2.103046
    30  H    8.732746   9.838649   9.848869   8.767340   2.141322
    31  H    7.360623   8.513817   8.676485   7.742033   2.077613
                   16         17         18         19         20
    16  C    0.000000
    17  C    2.466836   0.000000
    18  O    3.471631   3.035388   0.000000
    19  H    4.736018   3.766701   2.509802   0.000000
    20  H    3.897515   3.642937   4.956388   3.948680   0.000000
    21  H    5.136164   5.620466   6.910462   5.992130   2.282333
    22  H    7.370195   7.915703   9.384341   8.370999   4.646227
    23  H    9.433442   9.725341  10.893523   9.413328   6.166184
    24  H    9.768220   9.747725  10.418135   8.519692   6.150592
    25  H    8.208753   7.979447   8.250629   6.184019   4.616689
    26  H    1.087447   3.395676   3.780242   4.900600   3.953221
    27  H    1.091455   2.675226   4.429572   5.466819   3.868964
    28  H    1.096513   2.768093   3.402470   5.178683   4.929636
    29  H    3.396730   1.089372   3.078516   3.161725   3.512947
    30  H    2.765789   1.095522   2.915600   4.241811   4.715936
    31  H    2.680017   1.091379   4.104327   4.670489   3.621209
                   21         22         23         24         25
    21  H    0.000000
    22  H    2.474893   0.000000
    23  H    4.300728   2.486632   0.000000
    24  H    4.962292   4.299288   2.485286   0.000000
    25  H    4.298230   4.963063   4.306132   2.484812   0.000000
    26  H    4.858891   7.053696   9.080545   9.421618   7.912890
    27  H    4.865622   6.917958   9.118573   9.693557   8.346088
    28  H    6.231784   8.444477  10.528031  10.842326   9.218130
    29  H    5.694982   7.992656   9.586280   9.381730   7.499918
    30  H    6.659368   8.953205  10.805151  10.819711   8.997315
    31  H    5.369273   7.489681   9.418051   9.676412   8.127909
                   26         27         28         29         30
    26  H    0.000000
    27  H    1.775526   0.000000
    28  H    1.786743   1.778618   0.000000
    29  H    4.195481   3.646994   3.767473   0.000000
    30  H    3.761646   3.082982   2.616615   1.787639   0.000000
    31  H    3.651650   2.423540   3.085071   1.773930   1.782177
                   31
    31  H    0.000000
 Stoichiometry    C10H13N5O2S
 Framework group  C1[X(C10H13N5O2S)]
 Deg. of freedom    87
 Full point group                 C1      NOp   1
 RotChk:  IX=0 Diff= 2.48D-15
 Largest Abelian subgroup         C1      NOp   1
 Largest concise Abelian subgroup C1      NOp   1
                         Standard orientation:                         
 ---------------------------------------------------------------------
 Center     Atomic      Atomic             Coordinates (Angstroms)
 Number     Number       Type             X           Y           Z
 ---------------------------------------------------------------------
      1          8           0       -2.492690   -0.268917   -1.743659
      2         16           0       -2.942984   -0.301365   -0.347532
      3          7           0       -1.887984   -1.168313    0.655300
      4          6           0       -0.511428   -1.158850    0.368520
      5          7           0        0.144022   -2.283370   -0.026663
      6          7           0        1.415070   -2.001240   -0.167391
      7          6           0        0.393275   -0.124752    0.471975
      8          7           0        1.576394   -0.689132    0.118072
      9          6           0        2.860904   -0.077866    0.036891
     10          6           0        2.956533    1.301291   -0.160495
     11          6           0        4.218232    1.891378   -0.228866
     12          6           0        5.370019    1.110535   -0.114181
     13          6           0        5.257498   -0.268711    0.074448
     14          6           0        4.004642   -0.870703    0.158087
     15          7           0       -2.696648    1.237545    0.264980
     16          6           0       -3.041167    2.328860   -0.663016
     17          6           0       -3.206341    1.438794    1.631714
     18          8           0       -4.268357   -0.858974   -0.043388
     19          1           0       -2.259548   -2.109315    0.793535
     20          1           0        0.292195    0.903996    0.768447
     21          1           0        2.062191    1.902773   -0.270113
     22          1           0        4.296362    2.961744   -0.380354
     23          1           0        6.349220    1.573970   -0.172514
     24          1           0        6.147634   -0.879760    0.166926
     25          1           0        3.903676   -1.936330    0.317260
     26          1           0       -2.595212    2.133720   -1.635428
     27          1           0       -2.614579    3.245058   -0.250854
     28          1           0       -4.124230    2.461633   -0.771122
     29          1           0       -2.872074    0.619867    2.267603
     30          1           0       -4.299349    1.507720    1.659116
     31          1           0       -2.779143    2.371611    2.003819
 ---------------------------------------------------------------------
 Rotational constants (GHZ):      0.9025680      0.1860281      0.1664219
 Leave Link  202 at Thu Aug  6 21:08:55 2020, MaxMem=    33554432 cpu:         0.0
 (Enter /prod/apps/gaussian/g09d1/l301.exe)
 Standard basis: 6-31G(d) (6D, 7F)
 Ernie: Thresh=  0.10000D-02 Tol=  0.10000D-05 Strict=F.
 There are   300 symmetry adapted cartesian basis functions of A   symmetry.
 There are   300 symmetry adapted basis functions of A   symmetry.
   300 basis functions,   580 primitive gaussians,   300 cartesian basis functions
    70 alpha electrons       70 beta electrons
       nuclear repulsion energy      1470.4310200961 Hartrees.
 IExCor=  402 DFT=T Ex+Corr=B3LYP ExCW=0 ScaHFX=  0.200000
 ScaDFX=  0.800000  0.720000  1.000000  0.810000 ScalE2=  1.000000  1.000000
 IRadAn=      0 IRanWt=     -1 IRanGd=            0 ICorTp=0 IEmpDi=  4
 NAtoms=   31 NActive=   31 NUniq=   31 SFac= 1.00D+00 NAtFMM=   60 NAOKFM=F Big=F
 Integral buffers will be    131072 words long.
 Raffenetti 2 integral format.
 Two-electron integral symmetry is turned on.
 Using the following non-standard input for PCM:
 MSTModel=DFT cav g03defaults OFac=0.8 Rmin=0.3
 Warning! Using old PCM defaults because the g03defaults keyword was found.
 These settings can be overridden by following keywords.
 --- end of non-standard input.
 MST model for solvation energy: B3LYP parametrization.
 MST cavity parameters:
 ISph   IAn     Re0     Alpha   Atom Type   QCorr
 ------------------------------------------------
   1      8     1.40     1.25      O          F
   2     16     1.75     1.25      S          F
   3      7     1.50     1.25      NH         F
   4      6     1.50     1.25      C          F
   5      7     1.40     1.25      N          F
   6      7     1.40     1.25      N          F
   7      6     1.50     1.25      CH         F
   8      7     1.40     1.25      N          F
   9      6     1.50     1.25      C          F
  10      6     1.50     1.25      CH         F
  11      6     1.50     1.25      CH         F
  12      6     1.50     1.25      CH         F
  13      6     1.50     1.25      CH         F
  14      6     1.50     1.25      CH         F
  15      7     1.40     1.25      N          F
  16      6     1.50     1.25      CH3        F
  17      6     1.50     1.25      CH3        F
  18      8     1.40     1.25      O          F
  19      1     0.90     1.25      NH         F
  20      1     1.20     1.25      CH         F
  21      1     1.20     1.25      CH         F
  22      1     1.20     1.25      CH         F
  23      1     1.20     1.25      CH         F
  24      1     1.20     1.25      CH         F
  25      1     1.20     1.25      CH         F
  26      1     1.20     1.25      CH3        F
  27      1     1.20     1.25      CH3        F
  28      1     1.20     1.25      CH3        F
  29      1     1.20     1.25      CH3        F
  30      1     1.20     1.25      CH3        F
  31      1     1.20     1.25      CH3        F
 ------------------------------------------------------------------------------
 Polarizable Continuum Model (PCM)
 =================================
 Model                : PCM (using non-symmetric T matrix).
 Atomic radii         : MST.
 Polarization charges : Total charges.
 Charge compensation  : None.
 Solution method      : On-the-fly selection.
 Cavity type          : Scaled SES (Solvent Excluding Surface) (Alpha=1.250).
 Cavity algorithm     : GePol (RMin=0.300 OFac=0.800).
                        Default sphere list used, NSphG=   31.
                        Tesserae with average area of 0.200 Ang**2.
                        Smoothing algorithm: None.
                        Polarization charges: point-like.
                        Self-potential: constant (ISelfS= 1).
                        Self-field    : global E.n sum rule (ISelfD= 3).
 Solvent              : Water, Eps=  78.355300 Eps(inf)=   1.777849
                        RSolv=   1.385000 Ang.
 ------------------------------------------------------------------------------
 AdVTs1: ISph=  141 is engulfed by JSph=  142 but Ae(  141) is not yet zero!
 Error termination via Lnk1e in /prod/apps/gaussian/g09d1/l301.exe at Thu Aug  6 21:08:55 2020.
 Job cpu time:       0 days  0 hours  0 minutes  0.2 seconds.
 File lengths (MBytes):  RWF=      5 Int=      0 D2E=      0 Chk=      4 Scr=      1
