 Entering Gaussian System, Link 0=g09
 Initial command:
 /prod/apps/gaussian/g09d1/l1.exe "/tmp/ubafar01/1448560/Gau-223957.inp" -scrdir="/tmp/ubafar01/1448560/"
 Entering Link 1 = /prod/apps/gaussian/g09d1/l1.exe PID=    223958.
  
 Copyright (c) 1988,1990,1992,1993,1995,1998,2003,2009,2013,
            Gaussian, Inc.  All Rights Reserved.
  
 This is part of the Gaussian(R) 09 program.  It is based on
 the Gaussian(R) 03 system (copyright 2003, Gaussian, Inc.),
 the Gaussian(R) 98 system (copyright 1998, Gaussian, Inc.),
 the Gaussian(R) 94 system (copyright 1995, Gaussian, Inc.),
 the Gaussian 92(TM) system (copyright 1992, Gaussian, Inc.),
 the Gaussian 90(TM) system (copyright 1990, Gaussian, Inc.),
 the Gaussian 88(TM) system (copyright 1988, Gaussian, Inc.),
 the Gaussian 86(TM) system (copyright 1986, Carnegie Mellon
 University), and the Gaussian 82(TM) system (copyright 1983,
 Carnegie Mellon University). Gaussian is a federally registered
 trademark of Gaussian, Inc.
  
 This software contains proprietary and confidential information,
 including trade secrets, belonging to Gaussian, Inc.
  
 This software is provided under written license and may be
 used, copied, transmitted, or stored only in accord with that
 written license.
  
 The following legend is applicable only to US Government
 contracts under FAR:
  
                    RESTRICTED RIGHTS LEGEND
  
 Use, reproduction and disclosure by the US Government is
 subject to restrictions as set forth in subparagraphs (a)
 and (c) of the Commercial Computer Software - Restricted
 Rights clause in FAR 52.227-19.
  
 Gaussian, Inc.
 340 Quinnipiac St., Bldg. 40, Wallingford CT 06492
  
  
 ---------------------------------------------------------------
 Warning -- This program may not be used in any manner that
 competes with the business of Gaussian, Inc. or will provide
 assistance to any competitor of Gaussian, Inc.  The licensee
 of this program is prohibited from giving any competitor of
 Gaussian, Inc. access to this program.  By using this program,
 the user acknowledges that Gaussian, Inc. is engaged in the
 business of creating and licensing software in the field of
 computational chemistry and represents and warrants to the
 licensee that it is not a competitor of Gaussian, Inc. and that
 it will not use this program in any manner prohibited above.
 ---------------------------------------------------------------
  

 Cite this work as:
 Gaussian 09, Revision D.01,
 M. J. Frisch, G. W. Trucks, H. B. Schlegel, G. E. Scuseria, 
 M. A. Robb, J. R. Cheeseman, G. Scalmani, V. Barone, B. Mennucci, 
 G. A. Petersson, H. Nakatsuji, M. Caricato, X. Li, H. P. Hratchian, 
 A. F. Izmaylov, J. Bloino, G. Zheng, J. L. Sonnenberg, M. Hada, 
 M. Ehara, K. Toyota, R. Fukuda, J. Hasegawa, M. Ishida, T. Nakajima, 
 Y. Honda, O. Kitao, H. Nakai, T. Vreven, J. A. Montgomery, Jr., 
 J. E. Peralta, F. Ogliaro, M. Bearpark, J. J. Heyd, E. Brothers, 
 K. N. Kudin, V. N. Staroverov, T. Keith, R. Kobayashi, J. Normand, 
 K. Raghavachari, A. Rendell, J. C. Burant, S. S. Iyengar, J. Tomasi, 
 M. Cossi, N. Rega, J. M. Millam, M. Klene, J. E. Knox, J. B. Cross, 
 V. Bakken, C. Adamo, J. Jaramillo, R. Gomperts, R. E. Stratmann, 
 O. Yazyev, A. J. Austin, R. Cammi, C. Pomelli, J. W. Ochterski, 
 R. L. Martin, K. Morokuma, V. G. Zakrzewski, G. A. Voth, 
 P. Salvador, J. J. Dannenberg, S. Dapprich, A. D. Daniels, 
 O. Farkas, J. B. Foresman, J. V. Ortiz, J. Cioslowski, 
 and D. J. Fox, Gaussian, Inc., Wallingford CT, 2013.
 
 ******************************************
 Gaussian 09:  AM64L-G09RevD.01 24-Apr-2013
                 6-Aug-2020 
 ******************************************
 %nproc=1
 Will use up to    1 processors via shared memory.
 %Chk=SM46.n.5.pdb.xyz.mst.n.o.chk
 -----------------
 #p b3lyp/6-31G(d)
 -----------------
 1/38=1/1;
 2/12=2,17=6,18=5,40=1/2;
 3/5=1,6=6,7=1,11=2,16=1,25=1,30=1,74=-5/1,2,3;
 4//1;
 5/5=2,38=5/2;
 6/7=2,8=2,9=2,10=2,28=1/1;
 99/5=1,9=1/99;
 Leave Link    1 at Thu Aug  6 21:13:13 2020, MaxMem=           0 cpu:         0.0
 (Enter /prod/apps/gaussian/g09d1/l101.exe)
 ----------------
 SM46.n.5.pdb.xyz
 ----------------
 Symbolic Z-matrix:
 Charge =  0 Multiplicity = 1
 O                     3.449     0.282     1.037 
 S                     3.619    -0.182    -0.337 
 N                     3.16      1.08     -1.354 
 C                     2.71      0.856    -2.664 
 N                     3.419     1.277    -3.749 
 N                     2.752     0.975    -4.83 
 C                     1.548     0.255    -3.093 
 N                     1.619     0.339    -4.447 
 C                     0.69     -0.132    -5.417 
 C                    -0.223    -1.131    -5.074 
 C                    -1.134    -1.575    -6.03 
 C                    -1.124    -1.038    -7.318 
 C                    -0.199    -0.045    -7.648 
 C                     0.709     0.417    -6.7 
 N                     5.284    -0.28     -0.593 
 C                     6.011    -0.952     0.496 
 C                     5.656    -0.758    -1.933 
 O                     2.893    -1.364    -0.807 
 H                     3.75      1.901    -1.239 
 H                     0.725    -0.194    -2.567 
 H                    -0.214    -1.563    -4.08 
 H                    -1.844    -2.35     -5.767 
 H                    -1.833    -1.39     -8.059 
 H                    -0.187     0.378    -8.646 
 H                     1.427     1.191    -6.934 
 H                     5.704    -0.527     1.45 
 H                     7.074    -0.758     0.344 
 H                     5.848    -2.037     0.506 
 H                     5.161    -0.152    -2.692 
 H                     5.409    -1.816    -2.085 
 H                     6.735    -0.624    -2.035 
 
 NAtoms=     31 NQM=       31 NQMF=       0 NMMI=      0 NMMIF=      0
                NMic=       0 NMicF=      0.
                    Isotopes and Nuclear Properties:
 (Nuclear quadrupole moments (NQMom) in fm**2, nuclear magnetic moments (NMagM)
  in nuclear magnetons)

  Atom         1           2           3           4           5           6           7           8           9          10
 IAtWgt=          16          32          14          12          14          14          12          14          12          12
 AtmWgt=  15.9949146  31.9720718  14.0030740  12.0000000  14.0030740  14.0030740  12.0000000  14.0030740  12.0000000  12.0000000
 NucSpn=           0           0           2           0           2           2           0           2           0           0
 AtZEff=   0.0000000   0.0000000   0.0000000   0.0000000   0.0000000   0.0000000   0.0000000   0.0000000   0.0000000   0.0000000
 NQMom=    0.0000000   0.0000000   2.0440000   0.0000000   2.0440000   2.0440000   0.0000000   2.0440000   0.0000000   0.0000000
 NMagM=    0.0000000   0.0000000   0.4037610   0.0000000   0.4037610   0.4037610   0.0000000   0.4037610   0.0000000   0.0000000
 AtZNuc=   8.0000000  16.0000000   7.0000000   6.0000000   7.0000000   7.0000000   6.0000000   7.0000000   6.0000000   6.0000000

  Atom        11          12          13          14          15          16          17          18          19          20
 IAtWgt=          12          12          12          12          14          12          12          16           1           1
 AtmWgt=  12.0000000  12.0000000  12.0000000  12.0000000  14.0030740  12.0000000  12.0000000  15.9949146   1.0078250   1.0078250
 NucSpn=           0           0           0           0           2           0           0           0           1           1
 AtZEff=   0.0000000   0.0000000   0.0000000   0.0000000   0.0000000   0.0000000   0.0000000   0.0000000   0.0000000   0.0000000
 NQMom=    0.0000000   0.0000000   0.0000000   0.0000000   2.0440000   0.0000000   0.0000000   0.0000000   0.0000000   0.0000000
 NMagM=    0.0000000   0.0000000   0.0000000   0.0000000   0.4037610   0.0000000   0.0000000   0.0000000   2.7928460   2.7928460
 AtZNuc=   6.0000000   6.0000000   6.0000000   6.0000000   7.0000000   6.0000000   6.0000000   8.0000000   1.0000000   1.0000000

  Atom        21          22          23          24          25          26          27          28          29          30
 IAtWgt=           1           1           1           1           1           1           1           1           1           1
 AtmWgt=   1.0078250   1.0078250   1.0078250   1.0078250   1.0078250   1.0078250   1.0078250   1.0078250   1.0078250   1.0078250
 NucSpn=           1           1           1           1           1           1           1           1           1           1
 AtZEff=   0.0000000   0.0000000   0.0000000   0.0000000   0.0000000   0.0000000   0.0000000   0.0000000   0.0000000   0.0000000
 NQMom=    0.0000000   0.0000000   0.0000000   0.0000000   0.0000000   0.0000000   0.0000000   0.0000000   0.0000000   0.0000000
 NMagM=    2.7928460   2.7928460   2.7928460   2.7928460   2.7928460   2.7928460   2.7928460   2.7928460   2.7928460   2.7928460
 AtZNuc=   1.0000000   1.0000000   1.0000000   1.0000000   1.0000000   1.0000000   1.0000000   1.0000000   1.0000000   1.0000000

  Atom        31
 IAtWgt=           1
 AtmWgt=   1.0078250
 NucSpn=           1
 AtZEff=   0.0000000
 NQMom=    0.0000000
 NMagM=    2.7928460
 AtZNuc=   1.0000000
 Leave Link  101 at Thu Aug  6 21:13:14 2020, MaxMem=    33554432 cpu:         0.1
 (Enter /prod/apps/gaussian/g09d1/l202.exe)
                          Input orientation:                          
 ---------------------------------------------------------------------
 Center     Atomic      Atomic             Coordinates (Angstroms)
 Number     Number       Type             X           Y           Z
 ---------------------------------------------------------------------
      1          8           0        3.449000    0.282000    1.037000
      2         16           0        3.619000   -0.182000   -0.337000
      3          7           0        3.160000    1.080000   -1.354000
      4          6           0        2.710000    0.856000   -2.664000
      5          7           0        3.419000    1.277000   -3.749000
      6          7           0        2.752000    0.975000   -4.830000
      7          6           0        1.548000    0.255000   -3.093000
      8          7           0        1.619000    0.339000   -4.447000
      9          6           0        0.690000   -0.132000   -5.417000
     10          6           0       -0.223000   -1.131000   -5.074000
     11          6           0       -1.134000   -1.575000   -6.030000
     12          6           0       -1.124000   -1.038000   -7.318000
     13          6           0       -0.199000   -0.045000   -7.648000
     14          6           0        0.709000    0.417000   -6.700000
     15          7           0        5.284000   -0.280000   -0.593000
     16          6           0        6.011000   -0.952000    0.496000
     17          6           0        5.656000   -0.758000   -1.933000
     18          8           0        2.893000   -1.364000   -0.807000
     19          1           0        3.750000    1.901000   -1.239000
     20          1           0        0.725000   -0.194000   -2.567000
     21          1           0       -0.214000   -1.563000   -4.080000
     22          1           0       -1.844000   -2.350000   -5.767000
     23          1           0       -1.833000   -1.390000   -8.059000
     24          1           0       -0.187000    0.378000   -8.646000
     25          1           0        1.427000    1.191000   -6.934000
     26          1           0        5.704000   -0.527000    1.450000
     27          1           0        7.074000   -0.758000    0.344000
     28          1           0        5.848000   -2.037000    0.506000
     29          1           0        5.161000   -0.152000   -2.692000
     30          1           0        5.409000   -1.816000   -2.085000
     31          1           0        6.735000   -0.624000   -2.035000
 ---------------------------------------------------------------------
                    Distance matrix (angstroms):
                    1          2          3          4          5
     1  O    0.000000
     2  S    1.460162   0.000000
     3  N    2.537165   1.684522   0.000000
     4  C    3.817460   2.705301   1.403131   0.000000
     5  N    4.888427   3.716238   2.417005   1.362772   0.000000
     6  N    5.948760   4.719893   3.501438   2.169673   1.305624
     7  C    4.546584   3.474989   2.510635   1.376767   2.230574
     8  N    5.781557   4.600385   3.534178   2.153290   2.146404
     9  C    7.031187   5.864123   4.906915   3.554652   3.494989
    10  C    7.268045   6.172579   5.492869   4.284712   4.562702
    11  C    8.625244   7.545973   6.881311   5.658273   5.836666
    12  C    9.615652   8.483109   7.642505   6.320325   6.223812
    13  C    9.425713   8.249037   7.222392   5.840748   5.480858
    14  C    8.208958   7.022440   5.918335   4.526148   4.097817
    15  N    2.517930   1.687414   2.634406   3.493567   3.982814
    16  C    2.894699   2.647348   3.959763   4.914373   5.450406
    17  C    3.843611   2.651106   3.153332   3.437772   3.527499
    18  O    2.533533   1.464616   2.518657   2.900058   3.988348
    19  H    2.809259   2.273687   1.017529   2.050427   2.607496
    20  H    4.542639   3.653530   3.003942   2.247695   3.289164
    21  H    6.557841   5.532549   5.079410   4.050481   4.623186
    22  H    9.013195   8.001843   7.501965   6.375418   6.702732
    23  H   10.650461   9.529578   8.717108   7.401986   7.298801
    24  H   10.343607   9.156348   8.054097   6.663739   6.147524
    25  H    8.273549   7.085930   5.843972   4.471154   3.757617
    26  H    2.431065   2.767602   4.113004   5.272734   5.958628
    27  H    3.834381   3.568272   4.645519   5.540538   5.852598
    28  H    3.378598   3.019953   4.516706   5.316521   5.915037
    29  H    4.126105   2.815082   2.704084   2.650330   2.488745
    30  H    4.241472   2.988237   3.738874   3.841800   4.036786
    31  H    4.588662   3.576035   4.018458   4.334359   4.188968
                    6          7          8          9         10
     6  N    0.000000
     7  C    2.232753   0.000000
     8  N    1.354575   1.358460   0.000000
     9  C    2.412853   2.507371   1.423300   0.000000
    10  C    3.653135   2.996965   2.438646   1.396144   0.000000
    11  C    4.800364   4.378127   3.707869   2.405201   1.393195
    12  C    5.026499   5.163532   4.202716   2.779430   2.419914
    13  C    4.205939   4.887743   3.701213   2.403175   2.793823
    14  C    2.825263   3.706833   2.431089   1.395654   2.430803
    15  N    5.092958   4.527021   5.354316   6.663161   7.150567
    16  C    6.534576   5.852874   6.737180   7.996812   8.361800
    17  C    4.452989   4.387190   4.880674   6.098466   6.675901
    18  O    4.655677   3.107408   4.215790   5.255771   5.288765
    19  H    3.840412   3.315937   4.155992   5.563486   6.299601
    20  H    3.255220   1.074991   2.148889   2.850889   2.839317
    21  H    3.975060   2.717340   2.666867   2.156976   1.083855
    22  H    5.749505   5.044003   4.578809   3.385732   2.143327
    23  H    6.086205   6.228832   5.286992   3.863710   3.401383
    24  H    4.853451   5.819035   4.571078   3.384623   3.877829
    25  H    2.495816   3.955252   2.635894   2.143545   3.402026
    26  H    7.099909   6.206666   7.225773   8.511869   8.834971
    27  H    6.960837   6.586032   7.342623   8.621859   9.096156
    28  H    6.865148   6.057728   6.932678   8.081826   8.295437
    29  H    3.412397   3.657898   3.983324   5.236016   5.968234
    30  H    4.731211   4.495823   4.958545   6.017229   6.412704
    31  H    5.121827   5.366281   5.737471   6.944207   7.609621
                   11         12         13         14         15
    11  C    0.000000
    12  C    1.395497   0.000000
    13  C    2.415171   1.396630   0.000000
    14  C    2.795284   2.420504   1.391622   0.000000
    15  N    8.510506   9.320014   8.938207   7.662368   0.000000
    16  C    9.696795  10.581787  10.281609   9.042554   1.471745
    17  C    7.972264   8.662853   8.212833   6.969772   1.470533
    18  O    6.598559   7.657394   7.622303   6.532172   2.633958
    19  H    7.673963   8.327535   7.775397   6.424364   2.743580
    20  H    4.165983   5.167508   5.166482   4.177950   4.968758
    21  H    2.156164   3.404169   3.877522   3.411265   6.635756
    22  H    1.083464   2.155306   3.399590   3.878735   9.047848
    23  H    2.153989   1.084281   2.155899   3.402043  10.374244
    24  H    3.399187   2.155599   1.084010   2.142721   9.757849
    25  H    3.876428   3.409325   2.163647   1.081368   7.566279
    26  H   10.188569  11.124771  10.855936   9.605397   2.100300
    27  H   10.424329  11.224609  10.829449   9.566179   2.076187
    28  H    9.575023  10.527192  10.345143   9.184654   2.147777
    29  H    7.265962   7.854050   7.300889   6.017319   2.106493
    30  H    7.644080   8.406525   8.095250   6.955179   2.144991
    31  H    8.876125   9.478680   8.939875   7.691462   2.074392
                   16         17         18         19         20
    16  C    0.000000
    17  C    2.462459   0.000000
    18  O    3.404332   3.044549   0.000000
    19  H    4.032611   3.344361   3.403131   0.000000
    20  H    6.156162   5.003480   3.027660   3.911935   0.000000
    21  H    7.750079   6.301947   4.517253   5.981962   2.246119
    22  H   10.143007   8.572282   6.929139   8.358626   4.635526
    23  H   11.614999   9.696000   8.656053   9.408133   6.175423
    24  H   11.124759   8.971929   8.600633   8.525441   6.173586
    25  H    8.989461   6.833231   6.798331   6.191402   4.634837
    26  H    1.088572   3.391217   3.700857   4.116312   6.406061
    27  H    1.091196   2.682434   4.378675   4.541492   7.007269
    28  H    1.097221   2.760693   3.302866   4.791083   6.251808
    29  H    3.394973   1.090111   3.188415   2.883910   4.437960
    30  H    2.787555   1.097031   2.857944   4.157413   4.980267
    31  H    2.652870   1.092063   4.100798   3.989921   6.048804
                   21         22         23         24         25
    21  H    0.000000
    22  H    2.474316   0.000000
    23  H    4.299248   2.484952   0.000000
    24  H    4.961508   4.298404   2.485902   0.000000
    25  H    4.292169   4.959840   4.307527   2.489359   0.000000
    26  H    8.165594  10.600977  12.164383  11.723998   9.567430
    27  H    8.563571  10.927466  12.261504  11.611749   9.415758
    28  H    7.616030   9.930527  11.522829  11.225531   9.236819
    29  H    5.727835   7.959702   8.902436   8.020731   5.808698
    30  H    5.971781   8.151582   9.397697   8.898066   6.957814
    31  H    7.304269   9.513472  10.501712   9.624106   7.447771
                   26         27         28         29         30
    26  H    0.000000
    27  H    1.775809   0.000000
    28  H    1.786609   1.779090   0.000000
    29  H    4.194239   3.639245   3.775235   0.000000
    30  H    3.774225   3.129158   2.637204   1.788533   0.000000
    31  H    3.635601   2.406765   3.039740   1.769720   1.783715
                   31
    31  H    0.000000
 Stoichiometry    C10H13N5O2S
 Framework group  C1[X(C10H13N5O2S)]
 Deg. of freedom    87
 Full point group                 C1      NOp   1
 Largest Abelian subgroup         C1      NOp   1
 Largest concise Abelian subgroup C1      NOp   1
                         Standard orientation:                         
 ---------------------------------------------------------------------
 Center     Atomic      Atomic             Coordinates (Angstroms)
 Number     Number       Type             X           Y           Z
 ---------------------------------------------------------------------
      1          8           0       -3.818622   -1.255928   -1.179885
      2         16           0       -2.819532   -0.658586   -0.298367
      3          7           0       -1.753503    0.215462   -1.266476
      4          6           0       -0.434498    0.483203   -0.869843
      5          7           0       -0.006432    1.750052   -0.607163
      6          7           0        1.262775    1.710407   -0.303526
      7          6           0        0.619946   -0.388123   -0.713560
      8          7           0        1.653717    0.414270   -0.349011
      9          6           0        2.995835    0.051813   -0.043845
     10          6           0        3.291721   -1.261557    0.325925
     11          6           0        4.611350   -1.605257    0.611306
     12          6           0        5.621800   -0.645229    0.542389
     13          6           0        5.308407    0.666345    0.178887
     14          6           0        3.996658    1.021496   -0.120769
     15          7           0       -3.620908    0.552545    0.560891
     16          6           0       -4.916306    0.126364    1.114377
     17          6           0       -2.770809    1.261572    1.528921
     18          8           0       -1.986284   -1.512797    0.550821
     19          1           0       -2.215737    0.977865   -1.756830
     20          1           0        0.706397   -1.453049   -0.832156
     21          1           0        2.502105   -2.000194    0.401179
     22          1           0        4.844391   -2.623677    0.898373
     23          1           0        6.646525   -0.917632    0.769109
     24          1           0        6.088661    1.416658    0.121353
     25          1           0        3.735705    2.029588   -0.412334
     26          1           0       -5.497463   -0.363290    0.334963
     27          1           0       -5.441381    1.025889    1.439741
     28          1           0       -4.807360   -0.548724    1.972444
     29          1           0       -1.877355    1.637498    1.030161
     30          1           0       -2.482529    0.628606    2.377287
     31          1           0       -3.344358    2.114733    1.897375
 ---------------------------------------------------------------------
 Rotational constants (GHZ):      1.1272347      0.1673554      0.1599879
 Leave Link  202 at Thu Aug  6 21:13:14 2020, MaxMem=    33554432 cpu:         0.0
 (Enter /prod/apps/gaussian/g09d1/l301.exe)
 Standard basis: 6-31G(d) (6D, 7F)
 Ernie: Thresh=  0.10000D-02 Tol=  0.10000D-05 Strict=F.
 There are   300 symmetry adapted cartesian basis functions of A   symmetry.
 There are   300 symmetry adapted basis functions of A   symmetry.
   300 basis functions,   580 primitive gaussians,   300 cartesian basis functions
    70 alpha electrons       70 beta electrons
       nuclear repulsion energy      1466.8887626667 Hartrees.
 IExCor=  402 DFT=T Ex+Corr=B3LYP ExCW=0 ScaHFX=  0.200000
 ScaDFX=  0.800000  0.720000  1.000000  0.810000 ScalE2=  1.000000  1.000000
 IRadAn=      0 IRanWt=     -1 IRanGd=            0 ICorTp=0 IEmpDi=  4
 NAtoms=   31 NActive=   31 NUniq=   31 SFac= 1.00D+00 NAtFMM=   60 NAOKFM=F Big=F
 Integral buffers will be    131072 words long.
 Raffenetti 2 integral format.
 Two-electron integral symmetry is turned on.
 Leave Link  301 at Thu Aug  6 21:13:14 2020, MaxMem=    33554432 cpu:         0.0
 (Enter /prod/apps/gaussian/g09d1/l302.exe)
 NPDir=0 NMtPBC=     1 NCelOv=     1 NCel=       1 NClECP=     1 NCelD=      1
         NCelK=      1 NCelE2=     1 NClLst=     1 CellRange=     0.0.
 One-electron integrals computed using PRISM.
 NBasis=   300 RedAO= T EigKep=  4.64D-04  NBF=   300
 NBsUse=   300 1.00D-06 EigRej= -1.00D+00 NBFU=   300
 Precomputing XC quadrature grid using
 IXCGrd= 4 IRadAn=           0 IRanWt=          -1 IRanGd=           0 AccXCQ= 0.00D+00.
 Generated NRdTot=       0 NPtTot=           0 NUsed=           0 NTot=          32
 NSgBfM=   297   298   298   298   298 MxSgAt=    31 MxSgA2=    31.
 Leave Link  302 at Thu Aug  6 21:13:15 2020, MaxMem=    33554432 cpu:         1.0
 (Enter /prod/apps/gaussian/g09d1/l303.exe)
 DipDrv:  MaxL=1.
 Leave Link  303 at Thu Aug  6 21:13:15 2020, MaxMem=    33554432 cpu:         0.0
 (Enter /prod/apps/gaussian/g09d1/l401.exe)
 ExpMin= 1.17D-01 ExpMax= 2.19D+04 ExpMxC= 3.30D+03 IAcc=1 IRadAn=         1 AccDes= 0.00D+00
 Harris functional with IExCor=  402 and IRadAn=       1 diagonalized for initial guess.
 HarFok:  IExCor=  402 AccDes= 0.00D+00 IRadAn=         1 IDoV= 1 UseB2=F ITyADJ=14
 ICtDFT=  3500011 ScaDFX=  1.000000  1.000000  1.000000  1.000000
 FoFCou: FMM=F IPFlag=           0 FMFlag=      100000 FMFlg1=           0
         NFxFlg=           0 DoJE=T BraDBF=F KetDBF=T FulRan=T
         wScrn=  0.000000 ICntrl=     500 IOpCl=  0 I1Cent=   200000004 NGrid=           0
         NMat0=    1 NMatS0=      1 NMatT0=    0 NMatD0=    1 NMtDS0=    0 NMtDT0=    0
 Petite list used in FoFCou.
 Harris En= -1211.17025447016    
 JPrj=0 DoOrth=F DoCkMO=F.
 Leave Link  401 at Thu Aug  6 21:13:17 2020, MaxMem=    33554432 cpu:         2.7
 (Enter /prod/apps/gaussian/g09d1/l502.exe)
 Closed shell SCF:
 Using DIIS extrapolation, IDIIS=  1040.
 Integral symmetry usage will be decided dynamically.
 IVT=      292611 IEndB=      292611 NGot=    33554432 MDV=    33368762
 LenX=    33368762 LenY=    33278321
 Requested convergence on RMS density matrix=1.00D-08 within 128 cycles.
 Requested convergence on MAX density matrix=1.00D-06.
 Requested convergence on             energy=1.00D-06.
 No special actions if energy rises.
 Fock matrices will be formed incrementally for  20 cycles.
 Integral accuracy reduced to 1.0D-05 until final iterations.

 Cycle   1  Pass 0  IDiag  1:
 FoFJK:  IHMeth= 1 ICntrl=       0 DoSepK=F KAlg= 0 I1Cent=   0 FoldK=F
 IRaf= 730000000 NMat=   1 IRICut=       1 DoRegI=T DoRafI=F ISym2E= 0.
 FoFCou: FMM=F IPFlag=           0 FMFlag=      100000 FMFlg1=           0
         NFxFlg=           0 DoJE=F BraDBF=F KetDBF=F FulRan=T
         wScrn=  0.000000 ICntrl=       0 IOpCl=  0 I1Cent=           0 NGrid=           0
         NMat0=    1 NMatS0=      1 NMatT0=    0 NMatD0=    1 NMtDS0=    0 NMtDT0=    0
 Symmetry not used in FoFCou.
 E= -1210.61113719032    
 DIIS: error= 3.26D-02 at cycle   1 NSaved=   1.
 NSaved= 1 IEnMin= 1 EnMin= -1210.61113719032     IErMin= 1 ErrMin= 3.26D-02
 ErrMax= 3.26D-02  0.00D+00 EMaxC= 1.00D-01 BMatC= 6.44D-01 BMatP= 6.44D-01
 IDIUse=3 WtCom= 6.74D-01 WtEn= 3.26D-01
 Coeff-Com:  0.100D+01
 Coeff-En:   0.100D+01
 Coeff:      0.100D+01
 Gap=     0.288 Goal=   None    Shift=    0.000
 GapD=    0.288 DampG=1.000 DampE=0.500 DampFc=0.5000 IDamp=-1.
 Damping current iteration by 5.00D-01
 RMSDP=6.66D-03 MaxDP=6.13D-01              OVMax= 2.45D-01

 Cycle   2  Pass 0  IDiag  1:
 RMSU=  3.32D-03    CP:  9.92D-01
 E= -1210.72847021435     Delta-E=       -0.117333024026 Rises=F Damp=T
 DIIS: error= 1.84D-02 at cycle   2 NSaved=   2.
 NSaved= 2 IEnMin= 2 EnMin= -1210.72847021435     IErMin= 2 ErrMin= 1.84D-02
 ErrMax= 1.84D-02  0.00D+00 EMaxC= 1.00D-01 BMatC= 1.15D-01 BMatP= 6.44D-01
 IDIUse=3 WtCom= 8.16D-01 WtEn= 1.84D-01
 Coeff-Com:  0.248D+00 0.752D+00
 Coeff-En:   0.393D+00 0.607D+00
 Coeff:      0.275D+00 0.725D+00
 Gap=     0.228 Goal=   None    Shift=    0.000
 RMSDP=1.94D-03 MaxDP=1.35D-01 DE=-1.17D-01 OVMax= 1.94D-01

 Cycle   3  Pass 0  IDiag  1:
 RMSU=  1.62D-03    CP:  9.82D-01  6.84D-01
 E= -1211.11728615420     Delta-E=       -0.388815939850 Rises=F Damp=F
 DIIS: error= 9.27D-03 at cycle   3 NSaved=   3.
 NSaved= 3 IEnMin= 3 EnMin= -1211.11728615420     IErMin= 3 ErrMin= 9.27D-03
 ErrMax= 9.27D-03  0.00D+00 EMaxC= 1.00D-01 BMatC= 5.30D-02 BMatP= 1.15D-01
 IDIUse=3 WtCom= 9.07D-01 WtEn= 9.27D-02
 Coeff-Com:  0.882D-01 0.404D+00 0.508D+00
 Coeff-En:   0.000D+00 0.000D+00 0.100D+01
 Coeff:      0.800D-01 0.367D+00 0.553D+00
 Gap=     0.198 Goal=   None    Shift=    0.000
 RMSDP=1.08D-03 MaxDP=3.57D-02 DE=-3.89D-01 OVMax= 4.90D-02

 Cycle   4  Pass 0  IDiag  1:
 RMSU=  6.95D-04    CP:  9.87D-01  7.48D-01  5.11D-01
 E= -1211.15746032729     Delta-E=       -0.040174173088 Rises=F Damp=F
 DIIS: error= 3.84D-03 at cycle   4 NSaved=   4.
 NSaved= 4 IEnMin= 4 EnMin= -1211.15746032729     IErMin= 4 ErrMin= 3.84D-03
 ErrMax= 3.84D-03  0.00D+00 EMaxC= 1.00D-01 BMatC= 9.37D-03 BMatP= 5.30D-02
 IDIUse=3 WtCom= 9.62D-01 WtEn= 3.84D-02
 Coeff-Com:  0.106D-01 0.862D-01 0.310D+00 0.594D+00
 Coeff-En:   0.000D+00 0.000D+00 0.147D+00 0.853D+00
 Coeff:      0.102D-01 0.829D-01 0.303D+00 0.603D+00
 Gap=     0.194 Goal=   None    Shift=    0.000
 RMSDP=3.61D-04 MaxDP=1.72D-02 DE=-4.02D-02 OVMax= 2.17D-02

 Cycle   5  Pass 0  IDiag  1:
 RMSU=  1.74D-04    CP:  9.87D-01  7.39D-01  6.27D-01  6.37D-01
 E= -1211.16511142276     Delta-E=       -0.007651095478 Rises=F Damp=F
 DIIS: error= 1.01D-03 at cycle   5 NSaved=   5.
 NSaved= 5 IEnMin= 5 EnMin= -1211.16511142276     IErMin= 5 ErrMin= 1.01D-03
 ErrMax= 1.01D-03  0.00D+00 EMaxC= 1.00D-01 BMatC= 6.06D-04 BMatP= 9.37D-03
 IDIUse=3 WtCom= 9.90D-01 WtEn= 1.01D-02
 Coeff-Com: -0.927D-03 0.167D-01 0.114D+00 0.307D+00 0.563D+00
 Coeff-En:   0.000D+00 0.000D+00 0.000D+00 0.000D+00 0.100D+01
 Coeff:     -0.918D-03 0.165D-01 0.113D+00 0.304D+00 0.568D+00
 Gap=     0.194 Goal=   None    Shift=    0.000
 RMSDP=9.86D-05 MaxDP=4.95D-03 DE=-7.65D-03 OVMax= 5.22D-03

 Cycle   6  Pass 0  IDiag  1:
 RMSU=  5.63D-05    CP:  9.86D-01  7.40D-01  6.27D-01  6.85D-01  5.82D-01
 E= -1211.16560526547     Delta-E=       -0.000493842710 Rises=F Damp=F
 DIIS: error= 2.67D-04 at cycle   6 NSaved=   6.
 NSaved= 6 IEnMin= 6 EnMin= -1211.16560526547     IErMin= 6 ErrMin= 2.67D-04
 ErrMax= 2.67D-04  0.00D+00 EMaxC= 1.00D-01 BMatC= 5.06D-05 BMatP= 6.06D-04
 IDIUse=3 WtCom= 9.97D-01 WtEn= 2.67D-03
 Coeff-Com: -0.127D-02 0.267D-02 0.363D-01 0.114D+00 0.301D+00 0.548D+00
 Coeff-En:   0.000D+00 0.000D+00 0.000D+00 0.000D+00 0.000D+00 0.100D+01
 Coeff:     -0.127D-02 0.266D-02 0.362D-01 0.113D+00 0.300D+00 0.549D+00
 Gap=     0.194 Goal=   None    Shift=    0.000
 RMSDP=2.75D-05 MaxDP=9.39D-04 DE=-4.94D-04 OVMax= 1.60D-03

 Cycle   7  Pass 0  IDiag  1:
 RMSU=  1.84D-05    CP:  9.86D-01  7.40D-01  6.28D-01  6.87D-01  6.17D-01
                    CP:  6.56D-01
 E= -1211.16564191167     Delta-E=       -0.000036646196 Rises=F Damp=F
 DIIS: error= 1.25D-04 at cycle   7 NSaved=   7.
 NSaved= 7 IEnMin= 7 EnMin= -1211.16564191167     IErMin= 7 ErrMin= 1.25D-04
 ErrMax= 1.25D-04  0.00D+00 EMaxC= 1.00D-01 BMatC= 7.60D-06 BMatP= 5.06D-05
 IDIUse=3 WtCom= 9.99D-01 WtEn= 1.25D-03
 Coeff-Com: -0.756D-03 0.204D-03 0.132D-01 0.457D-01 0.144D+00 0.345D+00
 Coeff-Com:  0.453D+00
 Coeff-En:   0.000D+00 0.000D+00 0.000D+00 0.000D+00 0.000D+00 0.783D-01
 Coeff-En:   0.922D+00
 Coeff:     -0.755D-03 0.204D-03 0.132D-01 0.456D-01 0.144D+00 0.344D+00
 Coeff:      0.453D+00
 Gap=     0.194 Goal=   None    Shift=    0.000
 RMSDP=1.04D-05 MaxDP=3.73D-04 DE=-3.66D-05 OVMax= 6.15D-04

 Cycle   8  Pass 0  IDiag  1:
 RMSU=  5.45D-06    CP:  9.86D-01  7.40D-01  6.28D-01  6.87D-01  6.26D-01
                    CP:  6.97D-01  5.44D-01
 E= -1211.16564814961     Delta-E=       -0.000006237944 Rises=F Damp=F
 DIIS: error= 3.21D-05 at cycle   8 NSaved=   8.
 NSaved= 8 IEnMin= 8 EnMin= -1211.16564814961     IErMin= 8 ErrMin= 3.21D-05
 ErrMax= 3.21D-05  0.00D+00 EMaxC= 1.00D-01 BMatC= 6.34D-07 BMatP= 7.60D-06
 IDIUse=1 WtCom= 1.00D+00 WtEn= 0.00D+00
 Coeff-Com: -0.266D-03-0.244D-03 0.273D-02 0.111D-01 0.450D-01 0.130D+00
 Coeff-Com:  0.264D+00 0.548D+00
 Coeff:     -0.266D-03-0.244D-03 0.273D-02 0.111D-01 0.450D-01 0.130D+00
 Coeff:      0.264D+00 0.548D+00
 Gap=     0.194 Goal=   None    Shift=    0.000
 RMSDP=3.35D-06 MaxDP=1.16D-04 DE=-6.24D-06 OVMax= 2.34D-04

 Initial convergence to 1.0D-05 achieved.  Increase integral accuracy.
 Cycle   9  Pass 1  IDiag  1:
 E= -1211.16562433723     Delta-E=        0.000023812387 Rises=F Damp=F
 DIIS: error= 3.12D-05 at cycle   1 NSaved=   1.
 NSaved= 1 IEnMin= 1 EnMin= -1211.16562433723     IErMin= 1 ErrMin= 3.12D-05
 ErrMax= 3.12D-05  0.00D+00 EMaxC= 1.00D-01 BMatC= 4.15D-07 BMatP= 4.15D-07
 IDIUse=1 WtCom= 1.00D+00 WtEn= 0.00D+00
 Coeff-Com:  0.100D+01
 Coeff:      0.100D+01
 Gap=     0.194 Goal=   None    Shift=    0.000
 RMSDP=3.35D-06 MaxDP=1.16D-04 DE= 2.38D-05 OVMax= 2.03D-04

 Cycle  10  Pass 1  IDiag  1:
 RMSU=  2.26D-05    CP:  1.00D+00
 E= -1211.16562455978     Delta-E=       -0.000000222553 Rises=F Damp=F
 DIIS: error= 1.85D-05 at cycle   2 NSaved=   2.
 NSaved= 2 IEnMin= 2 EnMin= -1211.16562455978     IErMin= 2 ErrMin= 1.85D-05
 ErrMax= 1.85D-05  0.00D+00 EMaxC= 1.00D-01 BMatC= 2.46D-07 BMatP= 4.15D-07
 IDIUse=1 WtCom= 1.00D+00 WtEn= 0.00D+00
 Coeff-Com:  0.406D+00 0.594D+00
 Coeff:      0.406D+00 0.594D+00
 Gap=     0.194 Goal=   None    Shift=    0.000
 RMSDP=3.03D-06 MaxDP=1.03D-04 DE=-2.23D-07 OVMax= 2.56D-04

 Cycle  11  Pass 1  IDiag  1:
 RMSU=  3.03D-06    CP:  1.00D+00  9.94D-01
 E= -1211.16562462686     Delta-E=       -0.000000067078 Rises=F Damp=F
 DIIS: error= 1.57D-05 at cycle   3 NSaved=   3.
 NSaved= 3 IEnMin= 3 EnMin= -1211.16562462686     IErMin= 3 ErrMin= 1.57D-05
 ErrMax= 1.57D-05  0.00D+00 EMaxC= 1.00D-01 BMatC= 1.74D-07 BMatP= 2.46D-07
 IDIUse=1 WtCom= 1.00D+00 WtEn= 0.00D+00
 Coeff-Com:  0.190D-01 0.453D+00 0.528D+00
 Coeff:      0.190D-01 0.453D+00 0.528D+00
 Gap=     0.194 Goal=   None    Shift=    0.000
 RMSDP=1.51D-06 MaxDP=6.36D-05 DE=-6.71D-08 OVMax= 1.39D-04

 Cycle  12  Pass 1  IDiag  1:
 RMSU=  5.63D-07    CP:  1.00D+00  1.01D+00  5.46D-01
 E= -1211.16562477574     Delta-E=       -0.000000148882 Rises=F Damp=F
 DIIS: error= 3.72D-06 at cycle   4 NSaved=   4.
 NSaved= 4 IEnMin= 4 EnMin= -1211.16562477574     IErMin= 4 ErrMin= 3.72D-06
 ErrMax= 3.72D-06  0.00D+00 EMaxC= 1.00D-01 BMatC= 1.00D-08 BMatP= 1.74D-07
 IDIUse=1 WtCom= 1.00D+00 WtEn= 0.00D+00
 Coeff-Com: -0.744D-02 0.258D+00 0.333D+00 0.416D+00
 Coeff:     -0.744D-02 0.258D+00 0.333D+00 0.416D+00
 Gap=     0.194 Goal=   None    Shift=    0.000
 RMSDP=3.30D-07 MaxDP=1.40D-05 DE=-1.49D-07 OVMax= 2.65D-05

 Cycle  13  Pass 1  IDiag  1:
 RMSU=  1.49D-07    CP:  1.00D+00  1.01D+00  5.67D-01  4.90D-01
 E= -1211.16562478419     Delta-E=       -0.000000008449 Rises=F Damp=F
 DIIS: error= 7.85D-07 at cycle   5 NSaved=   5.
 NSaved= 5 IEnMin= 5 EnMin= -1211.16562478419     IErMin= 5 ErrMin= 7.85D-07
 ErrMax= 7.85D-07  0.00D+00 EMaxC= 1.00D-01 BMatC= 2.40D-10 BMatP= 1.00D-08
 IDIUse=1 WtCom= 1.00D+00 WtEn= 0.00D+00
 Coeff-Com: -0.469D-02 0.120D+00 0.157D+00 0.225D+00 0.502D+00
 Coeff:     -0.469D-02 0.120D+00 0.157D+00 0.225D+00 0.502D+00
 Gap=     0.194 Goal=   None    Shift=    0.000
 RMSDP=7.13D-08 MaxDP=2.53D-06 DE=-8.45D-09 OVMax= 5.42D-06

 Cycle  14  Pass 1  IDiag  1:
 RMSU=  5.63D-08    CP:  1.00D+00  1.01D+00  5.65D-01  5.01D-01  7.14D-01
 E= -1211.16562478442     Delta-E=       -0.000000000232 Rises=F Damp=F
 DIIS: error= 2.85D-07 at cycle   6 NSaved=   6.
 NSaved= 6 IEnMin= 6 EnMin= -1211.16562478442     IErMin= 6 ErrMin= 2.85D-07
 ErrMax= 2.85D-07  0.00D+00 EMaxC= 1.00D-01 BMatC= 2.36D-11 BMatP= 2.40D-10
 IDIUse=1 WtCom= 1.00D+00 WtEn= 0.00D+00
 Coeff-Com: -0.175D-02 0.379D-01 0.502D-01 0.771D-01 0.272D+00 0.565D+00
 Coeff:     -0.175D-02 0.379D-01 0.502D-01 0.771D-01 0.272D+00 0.565D+00
 Gap=     0.194 Goal=   None    Shift=    0.000
 RMSDP=2.31D-08 MaxDP=7.73D-07 DE=-2.32D-10 OVMax= 1.62D-06

 Cycle  15  Pass 1  IDiag  1:
 RMSU=  1.78D-08    CP:  1.00D+00  1.01D+00  5.65D-01  4.99D-01  7.84D-01
                    CP:  8.18D-01
 E= -1211.16562478447     Delta-E=       -0.000000000044 Rises=F Damp=F
 DIIS: error= 1.12D-07 at cycle   7 NSaved=   7.
 NSaved= 7 IEnMin= 7 EnMin= -1211.16562478447     IErMin= 7 ErrMin= 1.12D-07
 ErrMax= 1.12D-07  0.00D+00 EMaxC= 1.00D-01 BMatC= 6.63D-12 BMatP= 2.36D-11
 IDIUse=1 WtCom= 1.00D+00 WtEn= 0.00D+00
 Coeff-Com: -0.269D-03 0.226D-02 0.337D-02 0.792D-02 0.842D-01 0.380D+00
 Coeff-Com:  0.522D+00
 Coeff:     -0.269D-03 0.226D-02 0.337D-02 0.792D-02 0.842D-01 0.380D+00
 Coeff:      0.522D+00
 Gap=     0.194 Goal=   None    Shift=    0.000
 RMSDP=1.00D-08 MaxDP=4.45D-07 DE=-4.41D-11 OVMax= 7.36D-07

 Cycle  16  Pass 1  IDiag  1:
 RMSU=  5.65D-09    CP:  1.00D+00  1.01D+00  5.65D-01  5.04D-01  7.87D-01
                    CP:  8.59D-01  5.78D-01
 E= -1211.16562478448     Delta-E=       -0.000000000010 Rises=F Damp=F
 DIIS: error= 2.62D-08 at cycle   8 NSaved=   8.
 NSaved= 8 IEnMin= 8 EnMin= -1211.16562478448     IErMin= 8 ErrMin= 2.62D-08
 ErrMax= 2.62D-08  0.00D+00 EMaxC= 1.00D-01 BMatC= 5.64D-13 BMatP= 6.63D-12
 IDIUse=1 WtCom= 1.00D+00 WtEn= 0.00D+00
 Coeff-Com: -0.195D-05-0.223D-02-0.271D-02-0.263D-02 0.239D-01 0.173D+00
 Coeff-Com:  0.311D+00 0.500D+00
 Coeff:     -0.195D-05-0.223D-02-0.271D-02-0.263D-02 0.239D-01 0.173D+00
 Coeff:      0.311D+00 0.500D+00
 Gap=     0.194 Goal=   None    Shift=    0.000
 RMSDP=3.18D-09 MaxDP=1.13D-07 DE=-1.00D-11 OVMax= 2.39D-07

 SCF Done:  E(RB3LYP) =  -1211.16562478     A.U. after   16 cycles
            NFock= 16  Conv=0.32D-08     -V/T= 2.0075
 KE= 1.202135122508D+03 PE=-5.770234277616D+03 EE= 1.890044767657D+03
 Leave Link  502 at Thu Aug  6 21:16:52 2020, MaxMem=    33554432 cpu:       214.4
 (Enter /prod/apps/gaussian/g09d1/l601.exe)
 Copying SCF densities to generalized density rwf, IOpCl= 0 IROHF=0.

 **********************************************************************

            Population analysis using the SCF density.

 **********************************************************************

 Orbital symmetries:
       Occupied  (A) (A) (A) (A) (A) (A) (A) (A) (A) (A) (A) (A)
                 (A) (A) (A) (A) (A) (A) (A) (A) (A) (A) (A) (A)
                 (A) (A) (A) (A) (A) (A) (A) (A) (A) (A) (A) (A)
                 (A) (A) (A) (A) (A) (A) (A) (A) (A) (A) (A) (A)
                 (A) (A) (A) (A) (A) (A) (A) (A) (A) (A) (A) (A)
                 (A) (A) (A) (A) (A) (A) (A) (A) (A) (A)
       Virtual   (A) (A) (A) (A) (A) (A) (A) (A) (A) (A) (A) (A)
                 (A) (A) (A) (A) (A) (A) (A) (A) (A) (A) (A) (A)
                 (A) (A) (A) (A) (A) (A) (A) (A) (A) (A) (A) (A)
                 (A) (A) (A) (A) (A) (A) (A) (A) (A) (A) (A) (A)
                 (A) (A) (A) (A) (A) (A) (A) (A) (A) (A) (A) (A)
                 (A) (A) (A) (A) (A) (A) (A) (A) (A) (A) (A) (A)
                 (A) (A) (A) (A) (A) (A) (A) (A) (A) (A) (A) (A)
                 (A) (A) (A) (A) (A) (A) (A) (A) (A) (A) (A) (A)
                 (A) (A) (A) (A) (A) (A) (A) (A) (A) (A) (A) (A)
                 (A) (A) (A) (A) (A) (A) (A) (A) (A) (A) (A) (A)
                 (A) (A) (A) (A) (A) (A) (A) (A) (A) (A) (A) (A)
                 (A) (A) (A) (A) (A) (A) (A) (A) (A) (A) (A) (A)
                 (A) (A) (A) (A) (A) (A) (A) (A) (A) (A) (A) (A)
                 (A) (A) (A) (A) (A) (A) (A) (A) (A) (A) (A) (A)
                 (A) (A) (A) (A) (A) (A) (A) (A) (A) (A) (A) (A)
                 (A) (A) (A) (A) (A) (A) (A) (A) (A) (A) (A) (A)
                 (A) (A) (A) (A) (A) (A) (A) (A) (A) (A) (A) (A)
                 (A) (A) (A) (A) (A) (A) (A) (A) (A) (A) (A) (A)
                 (A) (A) (A) (A) (A) (A) (A) (A) (A) (A) (A) (A)
                 (A) (A)
 The electronic state is 1-A.
 Alpha  occ. eigenvalues --  -89.13026 -19.14773 -19.14395 -14.44577 -14.40059
 Alpha  occ. eigenvalues --  -14.38500 -14.37590 -14.36729 -10.26354 -10.25648
 Alpha  occ. eigenvalues --  -10.24433 -10.22319 -10.22205 -10.21471 -10.21086
 Alpha  occ. eigenvalues --  -10.20930 -10.20849 -10.20719  -8.15295  -6.11794
 Alpha  occ. eigenvalues --   -6.11717  -6.11665  -1.12420  -1.11202  -1.00488
 Alpha  occ. eigenvalues --   -0.96058  -0.94122  -0.92757  -0.86662  -0.81157
 Alpha  occ. eigenvalues --   -0.77007  -0.76595  -0.72868  -0.71074  -0.67045
 Alpha  occ. eigenvalues --   -0.65381  -0.62026  -0.60650  -0.59874  -0.57275
 Alpha  occ. eigenvalues --   -0.54528  -0.52586  -0.50673  -0.50327  -0.48854
 Alpha  occ. eigenvalues --   -0.48711  -0.47664  -0.46404  -0.46049  -0.45031
 Alpha  occ. eigenvalues --   -0.44227  -0.43812  -0.42212  -0.41163  -0.39615
 Alpha  occ. eigenvalues --   -0.38755  -0.38150  -0.36920  -0.35473  -0.35062
 Alpha  occ. eigenvalues --   -0.34182  -0.33294  -0.32326  -0.31062  -0.30296
 Alpha  occ. eigenvalues --   -0.28377  -0.27104  -0.26682  -0.25745  -0.24065
 Alpha virt. eigenvalues --   -0.04673  -0.02103   0.01278   0.02347   0.06250
 Alpha virt. eigenvalues --    0.07528   0.08015   0.09171   0.09929   0.10579
 Alpha virt. eigenvalues --    0.11833   0.12950   0.13839   0.14143   0.14754
 Alpha virt. eigenvalues --    0.15062   0.15453   0.16723   0.17538   0.17721
 Alpha virt. eigenvalues --    0.18448   0.18946   0.19033   0.20049   0.21376
 Alpha virt. eigenvalues --    0.22335   0.22855   0.26615   0.28601   0.30086
 Alpha virt. eigenvalues --    0.30679   0.32801   0.34098   0.36788   0.38593
 Alpha virt. eigenvalues --    0.39691   0.41300   0.43306   0.44641   0.47755
 Alpha virt. eigenvalues --    0.48582   0.48716   0.49878   0.50612   0.52097
 Alpha virt. eigenvalues --    0.53576   0.54104   0.55655   0.56216   0.56825
 Alpha virt. eigenvalues --    0.57375   0.57726   0.58323   0.59491   0.59806
 Alpha virt. eigenvalues --    0.59925   0.60254   0.61172   0.62878   0.63995
 Alpha virt. eigenvalues --    0.64871   0.66337   0.67663   0.69077   0.69985
 Alpha virt. eigenvalues --    0.71263   0.72944   0.74180   0.75116   0.76629
 Alpha virt. eigenvalues --    0.77174   0.78139   0.79207   0.80428   0.81157
 Alpha virt. eigenvalues --    0.82523   0.82677   0.83018   0.83712   0.84210
 Alpha virt. eigenvalues --    0.85468   0.86386   0.86867   0.87782   0.88966
 Alpha virt. eigenvalues --    0.89326   0.90521   0.91551   0.92509   0.93502
 Alpha virt. eigenvalues --    0.93991   0.94951   0.95829   0.97167   0.98556
 Alpha virt. eigenvalues --    1.00160   1.00798   1.02821   1.04592   1.05083
 Alpha virt. eigenvalues --    1.06250   1.07389   1.08226   1.09965   1.11232
 Alpha virt. eigenvalues --    1.13874   1.14932   1.15499   1.16214   1.18053
 Alpha virt. eigenvalues --    1.18632   1.19961   1.22290   1.23433   1.24490
 Alpha virt. eigenvalues --    1.28687   1.30706   1.30863   1.33069   1.37403
 Alpha virt. eigenvalues --    1.38217   1.40314   1.40998   1.42532   1.43736
 Alpha virt. eigenvalues --    1.44755   1.45733   1.46816   1.47733   1.49191
 Alpha virt. eigenvalues --    1.54084   1.55494   1.56026   1.57131   1.59374
 Alpha virt. eigenvalues --    1.63144   1.63160   1.69229   1.70452   1.76699
 Alpha virt. eigenvalues --    1.78532   1.79116   1.79475   1.81613   1.82222
 Alpha virt. eigenvalues --    1.83070   1.84693   1.85713   1.86908   1.87714
 Alpha virt. eigenvalues --    1.89516   1.90059   1.93645   1.94181   1.95779
 Alpha virt. eigenvalues --    1.96085   1.98161   1.98567   2.01008   2.04640
 Alpha virt. eigenvalues --    2.05848   2.06383   2.08094   2.09100   2.10072
 Alpha virt. eigenvalues --    2.10684   2.11951   2.12311   2.14083   2.15295
 Alpha virt. eigenvalues --    2.17614   2.18090   2.19873   2.20343   2.23368
 Alpha virt. eigenvalues --    2.24126   2.25835   2.28543   2.28980   2.30541
 Alpha virt. eigenvalues --    2.32189   2.33680   2.36103   2.36385   2.40977
 Alpha virt. eigenvalues --    2.42579   2.48122   2.49324   2.50420   2.54146
 Alpha virt. eigenvalues --    2.57426   2.57600   2.59017   2.60079   2.62205
 Alpha virt. eigenvalues --    2.64230   2.66781   2.68900   2.70699   2.71755
 Alpha virt. eigenvalues --    2.73797   2.76470   2.78103   2.79890   2.83024
 Alpha virt. eigenvalues --    2.88033   2.88509   2.99990   3.06349   3.13354
 Alpha virt. eigenvalues --    3.25924   3.41820   3.61927   3.81112   3.93023
 Alpha virt. eigenvalues --    3.97057   4.00333   4.03640   4.06708   4.09066
 Alpha virt. eigenvalues --    4.09963   4.13633   4.19219   4.24443   4.26283
 Alpha virt. eigenvalues --    4.30995   4.34215   4.39108   4.49375   4.70512
          Condensed to atoms (all electrons):
               1          2          3          4          5          6
     1  O    8.195714   0.472446  -0.055231   0.000595  -0.000017   0.000000
     2  S    0.472446  13.559425   0.148039  -0.011494  -0.004295   0.000426
     3  N   -0.055231   0.148039   7.368295   0.251887  -0.070913   0.006346
     4  C    0.000595  -0.011494   0.251887   4.677448   0.341761  -0.071203
     5  N   -0.000017  -0.004295  -0.070913   0.341761   6.894439   0.300140
     6  N    0.000000   0.000426   0.006346  -0.071203   0.300140   6.752248
     7  C    0.000013  -0.000484  -0.064662   0.506912  -0.072615  -0.094632
     8  N    0.000000  -0.000358   0.003188  -0.041466  -0.085025   0.201255
     9  C    0.000000  -0.000002  -0.000095   0.006204   0.007020  -0.045428
    10  C    0.000000  -0.000004   0.000003   0.001006  -0.000331   0.003177
    11  C    0.000000   0.000000   0.000000  -0.000009   0.000002  -0.000068
    12  C    0.000000   0.000000   0.000000   0.000000   0.000000   0.000016
    13  C    0.000000   0.000000   0.000000   0.000006  -0.000005   0.000399
    14  C    0.000000   0.000000   0.000000  -0.000507   0.000338  -0.000630
    15  N   -0.059028   0.156417  -0.055990  -0.000845   0.000489  -0.000003
    16  C   -0.003951  -0.024060   0.002416  -0.000072  -0.000008   0.000000
    17  C    0.001760  -0.006339  -0.002536   0.001191  -0.006755   0.000039
    18  O   -0.045054   0.433679  -0.057851   0.000424  -0.000078   0.000006
    19  H   -0.000112  -0.007628   0.296812  -0.030676   0.003894  -0.000072
    20  H   -0.000011   0.001119  -0.000449  -0.024796   0.004115   0.003308
    21  H    0.000000   0.000001  -0.000001   0.000074  -0.000001  -0.000086
    22  H    0.000000   0.000000   0.000000   0.000000   0.000000   0.000001
    23  H    0.000000   0.000000   0.000000   0.000000   0.000000   0.000000
    24  H    0.000000   0.000000   0.000000   0.000000   0.000000  -0.000008
    25  H    0.000000   0.000000   0.000000   0.000045  -0.000363   0.017533
    26  H    0.011610  -0.003604   0.000104  -0.000001   0.000000   0.000000
    27  H    0.000241   0.001462  -0.000081   0.000001   0.000000   0.000000
    28  H   -0.000578  -0.002727  -0.000093   0.000002   0.000000   0.000000
    29  H   -0.000017  -0.003369   0.003002  -0.000999   0.015472  -0.000398
    30  H   -0.000057  -0.007738  -0.000304   0.000135   0.000164  -0.000009
    31  H   -0.000052   0.001971  -0.000130   0.000096   0.000076  -0.000001
               7          8          9         10         11         12
     1  O    0.000013   0.000000   0.000000   0.000000   0.000000   0.000000
     2  S   -0.000484  -0.000358  -0.000002  -0.000004   0.000000   0.000000
     3  N   -0.064662   0.003188  -0.000095   0.000003   0.000000   0.000000
     4  C    0.506912  -0.041466   0.006204   0.001006  -0.000009   0.000000
     5  N   -0.072615  -0.085025   0.007020  -0.000331   0.000002   0.000000
     6  N   -0.094632   0.201255  -0.045428   0.003177  -0.000068   0.000016
     7  C    5.006333   0.320216  -0.038707  -0.006675   0.000028   0.000017
     8  N    0.320216   6.931584   0.201175  -0.051692   0.004648   0.000400
     9  C   -0.038707   0.201175   4.609728   0.529739  -0.007435  -0.038010
    10  C   -0.006675  -0.051692   0.529739   4.994879   0.529092  -0.039392
    11  C    0.000028   0.004648  -0.007435   0.529092   4.844508   0.550043
    12  C    0.000017   0.000400  -0.038010  -0.039392   0.550043   4.849562
    13  C   -0.000081   0.004580  -0.009610  -0.042565  -0.022417   0.543382
    14  C    0.007657  -0.056476   0.519818  -0.074663  -0.041711  -0.037193
    15  N    0.000163   0.000000   0.000000   0.000000   0.000000   0.000000
    16  C   -0.000002   0.000000   0.000000   0.000000   0.000000   0.000000
    17  C   -0.000134  -0.000016   0.000002   0.000000   0.000000   0.000000
    18  O    0.003932  -0.000103   0.000007  -0.000005   0.000000   0.000000
    19  H    0.004017   0.000058  -0.000002   0.000000   0.000000   0.000000
    20  H    0.361670  -0.036885  -0.002024   0.002095   0.000188  -0.000001
    21  H    0.006027  -0.009638  -0.039303   0.349082  -0.037293   0.004372
    22  H   -0.000003  -0.000115   0.003506  -0.039015   0.359951  -0.040484
    23  H    0.000000   0.000004   0.000514   0.005041  -0.042467   0.362457
    24  H    0.000002  -0.000110   0.003497   0.000809   0.004590  -0.041489
    25  H    0.000251  -0.014583  -0.033600   0.005756   0.000141   0.004364
    26  H    0.000000   0.000000   0.000000   0.000000   0.000000   0.000000
    27  H    0.000000   0.000000   0.000000   0.000000   0.000000   0.000000
    28  H   -0.000001   0.000000   0.000000   0.000000   0.000000   0.000000
    29  H    0.001029   0.000068  -0.000009   0.000001   0.000000   0.000000
    30  H   -0.000056   0.000001   0.000000   0.000000   0.000000   0.000000
    31  H    0.000004   0.000000   0.000000   0.000000   0.000000   0.000000
              13         14         15         16         17         18
     1  O    0.000000   0.000000  -0.059028  -0.003951   0.001760  -0.045054
     2  S    0.000000   0.000000   0.156417  -0.024060  -0.006339   0.433679
     3  N    0.000000   0.000000  -0.055990   0.002416  -0.002536  -0.057851
     4  C    0.000006  -0.000507  -0.000845  -0.000072   0.001191   0.000424
     5  N   -0.000005   0.000338   0.000489  -0.000008  -0.006755  -0.000078
     6  N    0.000399  -0.000630  -0.000003   0.000000   0.000039   0.000006
     7  C   -0.000081   0.007657   0.000163  -0.000002  -0.000134   0.003932
     8  N    0.004580  -0.056476   0.000000   0.000000  -0.000016  -0.000103
     9  C   -0.009610   0.519818   0.000000   0.000000   0.000002   0.000007
    10  C   -0.042565  -0.074663   0.000000   0.000000   0.000000  -0.000005
    11  C   -0.022417  -0.041711   0.000000   0.000000   0.000000   0.000000
    12  C    0.543382  -0.037193   0.000000   0.000000   0.000000   0.000000
    13  C    4.867060   0.517842   0.000000   0.000000   0.000000   0.000000
    14  C    0.517842   4.984928   0.000000   0.000000   0.000000   0.000000
    15  N    0.000000   0.000000   7.201640   0.286885   0.262440  -0.053551
    16  C    0.000000   0.000000   0.286885   4.996782  -0.050600  -0.002261
    17  C    0.000000   0.000000   0.262440  -0.050600   5.035883   0.001888
    18  O    0.000000   0.000000  -0.053551  -0.002261   0.001888   8.246228
    19  H    0.000000   0.000000   0.004484  -0.000044  -0.000765   0.001643
    20  H   -0.000004  -0.000109   0.000009   0.000000   0.000010   0.001752
    21  H    0.000281   0.005585   0.000000   0.000000   0.000000  -0.000003
    22  H    0.004553   0.000802   0.000000   0.000000   0.000000   0.000000
    23  H   -0.042591   0.004727   0.000000   0.000000   0.000000   0.000000
    24  H    0.360674  -0.038609   0.000000   0.000000   0.000000   0.000000
    25  H   -0.040422   0.353766   0.000000   0.000000   0.000000   0.000000
    26  H    0.000000   0.000000  -0.031775   0.378385   0.004614  -0.000194
    27  H    0.000000   0.000000  -0.038351   0.375973  -0.003077  -0.000111
    28  H    0.000000   0.000000  -0.048084   0.369612  -0.002501   0.002618
    29  H    0.000000   0.000000  -0.031813   0.004468   0.366950  -0.001626
    30  H    0.000000   0.000000  -0.045347  -0.002610   0.367412   0.006328
    31  H    0.000000   0.000000  -0.033905  -0.004776   0.373087   0.000045
              19         20         21         22         23         24
     1  O   -0.000112  -0.000011   0.000000   0.000000   0.000000   0.000000
     2  S   -0.007628   0.001119   0.000001   0.000000   0.000000   0.000000
     3  N    0.296812  -0.000449  -0.000001   0.000000   0.000000   0.000000
     4  C   -0.030676  -0.024796   0.000074   0.000000   0.000000   0.000000
     5  N    0.003894   0.004115  -0.000001   0.000000   0.000000   0.000000
     6  N   -0.000072   0.003308  -0.000086   0.000001   0.000000  -0.000008
     7  C    0.004017   0.361670   0.006027  -0.000003   0.000000   0.000002
     8  N    0.000058  -0.036885  -0.009638  -0.000115   0.000004  -0.000110
     9  C   -0.000002  -0.002024  -0.039303   0.003506   0.000514   0.003497
    10  C    0.000000   0.002095   0.349082  -0.039015   0.005041   0.000809
    11  C    0.000000   0.000188  -0.037293   0.359951  -0.042467   0.004590
    12  C    0.000000  -0.000001   0.004372  -0.040484   0.362457  -0.041489
    13  C    0.000000  -0.000004   0.000281   0.004553  -0.042591   0.360674
    14  C    0.000000  -0.000109   0.005585   0.000802   0.004727  -0.038609
    15  N    0.004484   0.000009   0.000000   0.000000   0.000000   0.000000
    16  C   -0.000044   0.000000   0.000000   0.000000   0.000000   0.000000
    17  C   -0.000765   0.000010   0.000000   0.000000   0.000000   0.000000
    18  O    0.001643   0.001752  -0.000003   0.000000   0.000000   0.000000
    19  H    0.357163  -0.000103   0.000000   0.000000   0.000000   0.000000
    20  H   -0.000103   0.486996   0.002015  -0.000001   0.000000   0.000000
    21  H    0.000000   0.002015   0.570239  -0.005405  -0.000158   0.000015
    22  H    0.000000  -0.000001  -0.005405   0.577166  -0.005380  -0.000179
    23  H    0.000000   0.000000  -0.000158  -0.005380   0.582989  -0.005376
    24  H    0.000000   0.000000   0.000015  -0.000179  -0.005376   0.576151
    25  H    0.000000  -0.000010  -0.000139   0.000013  -0.000138  -0.005069
    26  H   -0.000012   0.000000   0.000000   0.000000   0.000000   0.000000
    27  H   -0.000006   0.000000   0.000000   0.000000   0.000000   0.000000
    28  H    0.000006   0.000000   0.000000   0.000000   0.000000   0.000000
    29  H    0.000590  -0.000010   0.000000   0.000000   0.000000   0.000000
    30  H    0.000036  -0.000004   0.000000   0.000000   0.000000   0.000000
    31  H   -0.000008   0.000000   0.000000   0.000000   0.000000   0.000000
              25         26         27         28         29         30
     1  O    0.000000   0.011610   0.000241  -0.000578  -0.000017  -0.000057
     2  S    0.000000  -0.003604   0.001462  -0.002727  -0.003369  -0.007738
     3  N    0.000000   0.000104  -0.000081  -0.000093   0.003002  -0.000304
     4  C    0.000045  -0.000001   0.000001   0.000002  -0.000999   0.000135
     5  N   -0.000363   0.000000   0.000000   0.000000   0.015472   0.000164
     6  N    0.017533   0.000000   0.000000   0.000000  -0.000398  -0.000009
     7  C    0.000251   0.000000   0.000000  -0.000001   0.001029  -0.000056
     8  N   -0.014583   0.000000   0.000000   0.000000   0.000068   0.000001
     9  C   -0.033600   0.000000   0.000000   0.000000  -0.000009   0.000000
    10  C    0.005756   0.000000   0.000000   0.000000   0.000001   0.000000
    11  C    0.000141   0.000000   0.000000   0.000000   0.000000   0.000000
    12  C    0.004364   0.000000   0.000000   0.000000   0.000000   0.000000
    13  C   -0.040422   0.000000   0.000000   0.000000   0.000000   0.000000
    14  C    0.353766   0.000000   0.000000   0.000000   0.000000   0.000000
    15  N    0.000000  -0.031775  -0.038351  -0.048084  -0.031813  -0.045347
    16  C    0.000000   0.378385   0.375973   0.369612   0.004468  -0.002610
    17  C    0.000000   0.004614  -0.003077  -0.002501   0.366950   0.367412
    18  O    0.000000  -0.000194  -0.000111   0.002618  -0.001626   0.006328
    19  H    0.000000  -0.000012  -0.000006   0.000006   0.000590   0.000036
    20  H   -0.000010   0.000000   0.000000   0.000000  -0.000010  -0.000004
    21  H   -0.000139   0.000000   0.000000   0.000000   0.000000   0.000000
    22  H    0.000013   0.000000   0.000000   0.000000   0.000000   0.000000
    23  H   -0.000138   0.000000   0.000000   0.000000   0.000000   0.000000
    24  H   -0.005069   0.000000   0.000000   0.000000   0.000000   0.000000
    25  H    0.533732   0.000000   0.000000   0.000000   0.000000   0.000000
    26  H    0.000000   0.485935  -0.020487  -0.031077  -0.000178  -0.000216
    27  H    0.000000  -0.020487   0.555541  -0.041806   0.000102  -0.001664
    28  H    0.000000  -0.031077  -0.041806   0.586620  -0.000166   0.008754
    29  H    0.000000  -0.000178   0.000102  -0.000166   0.493820  -0.029554
    30  H    0.000000  -0.000216  -0.001664   0.008754  -0.029554   0.572830
    31  H    0.000000   0.000027   0.005865  -0.001437  -0.022176  -0.036172
              31
     1  O   -0.000052
     2  S    0.001971
     3  N   -0.000130
     4  C    0.000096
     5  N    0.000076
     6  N   -0.000001
     7  C    0.000004
     8  N    0.000000
     9  C    0.000000
    10  C    0.000000
    11  C    0.000000
    12  C    0.000000
    13  C    0.000000
    14  C    0.000000
    15  N   -0.033905
    16  C   -0.004776
    17  C    0.373087
    18  O    0.000045
    19  H   -0.000008
    20  H    0.000000
    21  H    0.000000
    22  H    0.000000
    23  H    0.000000
    24  H    0.000000
    25  H    0.000000
    26  H    0.000027
    27  H    0.005865
    28  H   -0.001437
    29  H   -0.022176
    30  H   -0.036172
    31  H    0.550027
 Mulliken charges:
               1
     1  O   -0.518271
     2  S    1.297116
     3  N   -0.771755
     4  C    0.394282
     5  N   -0.327503
     6  N   -0.072356
     7  C    0.059783
     8  N   -0.370712
     9  C    0.333017
    10  C   -0.166337
    11  C   -0.141791
    12  C   -0.118043
    13  C   -0.141082
    14  C   -0.145566
    15  N   -0.513835
    16  C   -0.326135
    17  C   -0.342554
    18  O   -0.537711
    19  H    0.370727
    20  H    0.201133
    21  H    0.154336
    22  H    0.144589
    23  H    0.140378
    24  H    0.145103
    25  H    0.178723
    26  H    0.206867
    27  H    0.166398
    28  H    0.160855
    29  H    0.204813
    30  H    0.168072
    31  H    0.167459
 Sum of Mulliken charges =   0.00000
 Mulliken charges with hydrogens summed into heavy atoms:
               1
     1  O   -0.518271
     2  S    1.297116
     3  N   -0.401028
     4  C    0.394282
     5  N   -0.327503
     6  N   -0.072356
     7  C    0.260915
     8  N   -0.370712
     9  C    0.333017
    10  C   -0.012000
    11  C    0.002798
    12  C    0.022335
    13  C    0.004020
    14  C    0.033157
    15  N   -0.513835
    16  C    0.207985
    17  C    0.197790
    18  O   -0.537711
 Electronic spatial extent (au):  <R**2>=           6659.8528
 Charge=              0.0000 electrons
 Dipole moment (field-independent basis, Debye):
    X=              2.6133    Y=              0.6154    Z=              1.5555  Tot=              3.1028
 Quadrupole moment (field-independent basis, Debye-Ang):
   XX=            -90.6812   YY=           -115.2440   ZZ=           -111.2881
   XY=            -14.0302   XZ=             -7.2554   YZ=             -1.2184
 Traceless Quadrupole moment (field-independent basis, Debye-Ang):
   XX=             15.0566   YY=             -9.5063   ZZ=             -5.5503
   XY=            -14.0302   XZ=             -7.2554   YZ=             -1.2184
 Octapole moment (field-independent basis, Debye-Ang**2):
  XXX=             36.8198  YYY=            -19.0032  ZZZ=             -1.8545  XYY=             12.6333
  XXY=             30.1648  XXZ=             54.0250  XZZ=            -28.0183  YZZ=              7.7164
  YYZ=              3.9855  XYZ=             -2.3528
 Hexadecapole moment (field-independent basis, Debye-Ang**3):
 XXXX=          -6570.7774 YYYY=           -869.5255 ZZZZ=           -516.4371 XXXY=            -83.3309
 XXXZ=            -92.1081 YYYX=            -28.6325 YYYZ=              3.3445 ZZZX=            -15.3391
 ZZZY=             -7.5037 XXYY=          -1332.4870 XXZZ=          -1369.2000 YYZZ=           -224.8580
 XXYZ=            -60.4605 YYXZ=             -0.0943 ZZXY=            -23.5439
 N-N= 1.466888762667D+03 E-N=-5.770234277895D+03  KE= 1.202135122508D+03
 No NMR shielding tensors so no spin-rotation constants.
 Leave Link  601 at Thu Aug  6 21:16:52 2020, MaxMem=    33554432 cpu:         0.2
 (Enter /prod/apps/gaussian/g09d1/l9999.exe)
 1\1\GINC-PIRINEUS30\SP\RB3LYP\6-31G(d)\C10H13N5O2S1\UBAFAR01\06-Aug-20
 20\0\\#p b3lyp/6-31G(d)\\SM46.n.5.pdb.xyz\\0,1\O,0,3.449,0.282,1.037\S
 ,0,3.619,-0.182,-0.337\N,0,3.16,1.08,-1.354\C,0,2.71,0.856,-2.664\N,0,
 3.419,1.277,-3.749\N,0,2.752,0.975,-4.83\C,0,1.548,0.255,-3.093\N,0,1.
 619,0.339,-4.447\C,0,0.69,-0.132,-5.417\C,0,-0.223,-1.131,-5.074\C,0,-
 1.134,-1.575,-6.03\C,0,-1.124,-1.038,-7.318\C,0,-0.199,-0.045,-7.648\C
 ,0,0.709,0.417,-6.7\N,0,5.284,-0.28,-0.593\C,0,6.011,-0.952,0.496\C,0,
 5.656,-0.758,-1.933\O,0,2.893,-1.364,-0.807\H,0,3.75,1.901,-1.239\H,0,
 0.725,-0.194,-2.567\H,0,-0.214,-1.563,-4.08\H,0,-1.844,-2.35,-5.767\H,
 0,-1.833,-1.39,-8.059\H,0,-0.187,0.378,-8.646\H,0,1.427,1.191,-6.934\H
 ,0,5.704,-0.527,1.45\H,0,7.074,-0.758,0.344\H,0,5.848,-2.037,0.506\H,0
 ,5.161,-0.152,-2.692\H,0,5.409,-1.816,-2.085\H,0,6.735,-0.624,-2.035\\
 Version=AM64L-G09RevD.01\State=1-A\HF=-1211.1656248\RMSD=3.182e-09\Dip
 ole=-0.2011443,-0.4167738,-1.1296312\Quadrupole=10.8914478,-4.0782945,
 -6.8131533,0.0752176,11.9390798,1.2190011\PG=C01 [X(C10H13N5O2S1)]\\@


 NOT WHAT WE DID SHALL BE THE TEST
 WHEN ACT AND WILL ARE DONE,
 BUT WHAT OUR LORD INFERS WE WOULD-
 HAD WE DIVINER BEEN.
           EMILY DICKINSON  POEMS NO. CLXXV
 Job cpu time:       0 days  0 hours  3 minutes 38.6 seconds.
 File lengths (MBytes):  RWF=     51 Int=      0 D2E=      0 Chk=      4 Scr=      1
 Normal termination of Gaussian 09 at Thu Aug  6 21:16:52 2020.
 Initial command:
 /prod/apps/gaussian/g09d1/l1.exe "/tmp/ubafar01/1448560/Gau-223957.inp" -scrdir="/tmp/ubafar01/1448560/"
 Entering Link 1 = /prod/apps/gaussian/g09d1/l1.exe PID=    226006.
  
 Copyright (c) 1988,1990,1992,1993,1995,1998,2003,2009,2013,
            Gaussian, Inc.  All Rights Reserved.
  
 This is part of the Gaussian(R) 09 program.  It is based on
 the Gaussian(R) 03 system (copyright 2003, Gaussian, Inc.),
 the Gaussian(R) 98 system (copyright 1998, Gaussian, Inc.),
 the Gaussian(R) 94 system (copyright 1995, Gaussian, Inc.),
 the Gaussian 92(TM) system (copyright 1992, Gaussian, Inc.),
 the Gaussian 90(TM) system (copyright 1990, Gaussian, Inc.),
 the Gaussian 88(TM) system (copyright 1988, Gaussian, Inc.),
 the Gaussian 86(TM) system (copyright 1986, Carnegie Mellon
 University), and the Gaussian 82(TM) system (copyright 1983,
 Carnegie Mellon University). Gaussian is a federally registered
 trademark of Gaussian, Inc.
  
 This software contains proprietary and confidential information,
 including trade secrets, belonging to Gaussian, Inc.
  
 This software is provided under written license and may be
 used, copied, transmitted, or stored only in accord with that
 written license.
  
 The following legend is applicable only to US Government
 contracts under FAR:
  
                    RESTRICTED RIGHTS LEGEND
  
 Use, reproduction and disclosure by the US Government is
 subject to restrictions as set forth in subparagraphs (a)
 and (c) of the Commercial Computer Software - Restricted
 Rights clause in FAR 52.227-19.
  
 Gaussian, Inc.
 340 Quinnipiac St., Bldg. 40, Wallingford CT 06492
  
  
 ---------------------------------------------------------------
 Warning -- This program may not be used in any manner that
 competes with the business of Gaussian, Inc. or will provide
 assistance to any competitor of Gaussian, Inc.  The licensee
 of this program is prohibited from giving any competitor of
 Gaussian, Inc. access to this program.  By using this program,
 the user acknowledges that Gaussian, Inc. is engaged in the
 business of creating and licensing software in the field of
 computational chemistry and represents and warrants to the
 licensee that it is not a competitor of Gaussian, Inc. and that
 it will not use this program in any manner prohibited above.
 ---------------------------------------------------------------
  

 Cite this work as:
 Gaussian 09, Revision D.01,
 M. J. Frisch, G. W. Trucks, H. B. Schlegel, G. E. Scuseria, 
 M. A. Robb, J. R. Cheeseman, G. Scalmani, V. Barone, B. Mennucci, 
 G. A. Petersson, H. Nakatsuji, M. Caricato, X. Li, H. P. Hratchian, 
 A. F. Izmaylov, J. Bloino, G. Zheng, J. L. Sonnenberg, M. Hada, 
 M. Ehara, K. Toyota, R. Fukuda, J. Hasegawa, M. Ishida, T. Nakajima, 
 Y. Honda, O. Kitao, H. Nakai, T. Vreven, J. A. Montgomery, Jr., 
 J. E. Peralta, F. Ogliaro, M. Bearpark, J. J. Heyd, E. Brothers, 
 K. N. Kudin, V. N. Staroverov, T. Keith, R. Kobayashi, J. Normand, 
 K. Raghavachari, A. Rendell, J. C. Burant, S. S. Iyengar, J. Tomasi, 
 M. Cossi, N. Rega, J. M. Millam, M. Klene, J. E. Knox, J. B. Cross, 
 V. Bakken, C. Adamo, J. Jaramillo, R. Gomperts, R. E. Stratmann, 
 O. Yazyev, A. J. Austin, R. Cammi, C. Pomelli, J. W. Ochterski, 
 R. L. Martin, K. Morokuma, V. G. Zakrzewski, G. A. Voth, 
 P. Salvador, J. J. Dannenberg, S. Dapprich, A. D. Daniels, 
 O. Farkas, J. B. Foresman, J. V. Ortiz, J. Cioslowski, 
 and D. J. Fox, Gaussian, Inc., Wallingford CT, 2013.
 
 ******************************************
 Gaussian 09:  AM64L-G09RevD.01 24-Apr-2013
                 6-Aug-2020 
 ******************************************
 %nproc=1
 Will use up to    1 processors via shared memory.
 %Chk=SM46.n.5.pdb.xyz.mst.n.o.chk
 %subst l301 /dades/curu/work_g09D01_MST_AddSphPartition_ReadGammas/exe-dir/
 %subst l502 /dades/curu/work_g09D01_MST_AddSphPartition_ReadGammas/exe-dir/
 ----------------------------------------------------------------------
 #p b3lyp/6-31G(d) scrf=(iefpcm,read,solvent=n-Octanol) geom=allcheck g
 uess=read
 ----------------------------------------------------------------------
 1/29=7,38=1,40=2/1;
 2/12=2,40=1/2;
 3/5=1,6=6,7=1,11=2,14=-4,16=1,25=1,30=1,70=2203,72=25,74=-5,116=-2/1,2,3;
 4/5=1/1;
 5/5=2,38=6,53=25/2;
 6/7=2,8=2,9=2,10=2,28=1/1;
 99/5=1,9=1/99;
 Leave Link    1 at Thu Aug  6 21:16:52 2020, MaxMem=           0 cpu:         0.0
 (Enter /prod/apps/gaussian/g09d1/l101.exe)
 Structure from the checkpoint file:  "SM46.n.5.pdb.xyz.mst.n.o.chk"
 ----------------
 SM46.n.5.pdb.xyz
 ----------------
 Charge =  0 Multiplicity = 1
 Z-Matrix found in file.
 O,0,3.449,0.282,1.037
 S,0,3.619,-0.182,-0.337
 N,0,3.16,1.08,-1.354
 C,0,2.71,0.856,-2.664
 N,0,3.419,1.277,-3.749
 N,0,2.752,0.975,-4.83
 C,0,1.548,0.255,-3.093
 N,0,1.619,0.339,-4.447
 C,0,0.69,-0.132,-5.417
 C,0,-0.223,-1.131,-5.074
 C,0,-1.134,-1.575,-6.03
 C,0,-1.124,-1.038,-7.318
 C,0,-0.199,-0.045,-7.648
 C,0,0.709,0.417,-6.7
 N,0,5.284,-0.28,-0.593
 C,0,6.011,-0.952,0.496
 C,0,5.656,-0.758,-1.933
 O,0,2.893,-1.364,-0.807
 H,0,3.75,1.901,-1.239
 H,0,0.725,-0.194,-2.567
 H,0,-0.214,-1.563,-4.08
 H,0,-1.844,-2.35,-5.767
 H,0,-1.833,-1.39,-8.059
 H,0,-0.187,0.378,-8.646
 H,0,1.427,1.191,-6.934
 H,0,5.704,-0.527,1.45
 H,0,7.074,-0.758,0.344
 H,0,5.848,-2.037,0.506
 H,0,5.161,-0.152,-2.692
 H,0,5.409,-1.816,-2.085
 H,0,6.735,-0.624,-2.035
 Recover connectivity data from disk.
 NAtoms=     31 NQM=       31 NQMF=       0 NMMI=      0 NMMIF=      0
                NMic=       0 NMicF=      0.
                    Isotopes and Nuclear Properties:
 (Nuclear quadrupole moments (NQMom) in fm**2, nuclear magnetic moments (NMagM)
  in nuclear magnetons)

  Atom         1           2           3           4           5           6           7           8           9          10
 IAtWgt=          16          32          14          12          14          14          12          14          12          12
 AtmWgt=  15.9949146  31.9720718  14.0030740  12.0000000  14.0030740  14.0030740  12.0000000  14.0030740  12.0000000  12.0000000
 NucSpn=           0           0           2           0           2           2           0           2           0           0
 AtZEff=  -5.6000000 -13.6000000  -4.5500000  -3.6000000  -4.5500000  -4.5500000  -3.6000000  -4.5500000  -3.6000000  -3.6000000
 NQMom=    0.0000000   0.0000000   2.0440000   0.0000000   2.0440000   2.0440000   0.0000000   2.0440000   0.0000000   0.0000000
 NMagM=    0.0000000   0.0000000   0.4037610   0.0000000   0.4037610   0.4037610   0.0000000   0.4037610   0.0000000   0.0000000
 AtZNuc=   8.0000000  16.0000000   7.0000000   6.0000000   7.0000000   7.0000000   6.0000000   7.0000000   6.0000000   6.0000000

  Atom        11          12          13          14          15          16          17          18          19          20
 IAtWgt=          12          12          12          12          14          12          12          16           1           1
 AtmWgt=  12.0000000  12.0000000  12.0000000  12.0000000  14.0030740  12.0000000  12.0000000  15.9949146   1.0078250   1.0078250
 NucSpn=           0           0           0           0           2           0           0           0           1           1
 AtZEff=  -3.6000000  -3.6000000  -3.6000000  -3.6000000  -4.5500000  -3.6000000  -3.6000000  -5.6000000  -1.0000000  -1.0000000
 NQMom=    0.0000000   0.0000000   0.0000000   0.0000000   2.0440000   0.0000000   0.0000000   0.0000000   0.0000000   0.0000000
 NMagM=    0.0000000   0.0000000   0.0000000   0.0000000   0.4037610   0.0000000   0.0000000   0.0000000   2.7928460   2.7928460
 AtZNuc=   6.0000000   6.0000000   6.0000000   6.0000000   7.0000000   6.0000000   6.0000000   8.0000000   1.0000000   1.0000000

  Atom        21          22          23          24          25          26          27          28          29          30
 IAtWgt=           1           1           1           1           1           1           1           1           1           1
 AtmWgt=   1.0078250   1.0078250   1.0078250   1.0078250   1.0078250   1.0078250   1.0078250   1.0078250   1.0078250   1.0078250
 NucSpn=           1           1           1           1           1           1           1           1           1           1
 AtZEff=  -1.0000000  -1.0000000  -1.0000000  -1.0000000  -1.0000000  -1.0000000  -1.0000000  -1.0000000  -1.0000000  -1.0000000
 NQMom=    0.0000000   0.0000000   0.0000000   0.0000000   0.0000000   0.0000000   0.0000000   0.0000000   0.0000000   0.0000000
 NMagM=    2.7928460   2.7928460   2.7928460   2.7928460   2.7928460   2.7928460   2.7928460   2.7928460   2.7928460   2.7928460
 AtZNuc=   1.0000000   1.0000000   1.0000000   1.0000000   1.0000000   1.0000000   1.0000000   1.0000000   1.0000000   1.0000000

  Atom        31
 IAtWgt=           1
 AtmWgt=   1.0078250
 NucSpn=           1
 AtZEff=  -1.0000000
 NQMom=    0.0000000
 NMagM=    2.7928460
 AtZNuc=   1.0000000
 Leave Link  101 at Thu Aug  6 21:16:52 2020, MaxMem=    33554432 cpu:         0.0
 (Enter /prod/apps/gaussian/g09d1/l202.exe)
                          Input orientation:                          
 ---------------------------------------------------------------------
 Center     Atomic      Atomic             Coordinates (Angstroms)
 Number     Number       Type             X           Y           Z
 ---------------------------------------------------------------------
      1          8           0        3.449000    0.282000    1.037000
      2         16           0        3.619000   -0.182000   -0.337000
      3          7           0        3.160000    1.080000   -1.354000
      4          6           0        2.710000    0.856000   -2.664000
      5          7           0        3.419000    1.277000   -3.749000
      6          7           0        2.752000    0.975000   -4.830000
      7          6           0        1.548000    0.255000   -3.093000
      8          7           0        1.619000    0.339000   -4.447000
      9          6           0        0.690000   -0.132000   -5.417000
     10          6           0       -0.223000   -1.131000   -5.074000
     11          6           0       -1.134000   -1.575000   -6.030000
     12          6           0       -1.124000   -1.038000   -7.318000
     13          6           0       -0.199000   -0.045000   -7.648000
     14          6           0        0.709000    0.417000   -6.700000
     15          7           0        5.284000   -0.280000   -0.593000
     16          6           0        6.011000   -0.952000    0.496000
     17          6           0        5.656000   -0.758000   -1.933000
     18          8           0        2.893000   -1.364000   -0.807000
     19          1           0        3.750000    1.901000   -1.239000
     20          1           0        0.725000   -0.194000   -2.567000
     21          1           0       -0.214000   -1.563000   -4.080000
     22          1           0       -1.844000   -2.350000   -5.767000
     23          1           0       -1.833000   -1.390000   -8.059000
     24          1           0       -0.187000    0.378000   -8.646000
     25          1           0        1.427000    1.191000   -6.934000
     26          1           0        5.704000   -0.527000    1.450000
     27          1           0        7.074000   -0.758000    0.344000
     28          1           0        5.848000   -2.037000    0.506000
     29          1           0        5.161000   -0.152000   -2.692000
     30          1           0        5.409000   -1.816000   -2.085000
     31          1           0        6.735000   -0.624000   -2.035000
 ---------------------------------------------------------------------
                    Distance matrix (angstroms):
                    1          2          3          4          5
     1  O    0.000000
     2  S    1.460162   0.000000
     3  N    2.537165   1.684522   0.000000
     4  C    3.817460   2.705301   1.403131   0.000000
     5  N    4.888427   3.716238   2.417005   1.362772   0.000000
     6  N    5.948760   4.719893   3.501438   2.169673   1.305624
     7  C    4.546584   3.474989   2.510635   1.376767   2.230574
     8  N    5.781557   4.600385   3.534178   2.153290   2.146404
     9  C    7.031187   5.864123   4.906915   3.554652   3.494989
    10  C    7.268045   6.172579   5.492869   4.284712   4.562702
    11  C    8.625244   7.545973   6.881311   5.658273   5.836666
    12  C    9.615652   8.483109   7.642505   6.320325   6.223812
    13  C    9.425713   8.249037   7.222392   5.840748   5.480858
    14  C    8.208958   7.022440   5.918335   4.526148   4.097817
    15  N    2.517930   1.687414   2.634406   3.493567   3.982814
    16  C    2.894699   2.647348   3.959763   4.914373   5.450406
    17  C    3.843611   2.651106   3.153332   3.437772   3.527499
    18  O    2.533533   1.464616   2.518657   2.900058   3.988348
    19  H    2.809259   2.273687   1.017529   2.050427   2.607496
    20  H    4.542639   3.653530   3.003942   2.247695   3.289164
    21  H    6.557841   5.532549   5.079410   4.050481   4.623186
    22  H    9.013195   8.001843   7.501965   6.375418   6.702732
    23  H   10.650461   9.529578   8.717108   7.401986   7.298801
    24  H   10.343607   9.156348   8.054097   6.663739   6.147524
    25  H    8.273549   7.085930   5.843972   4.471154   3.757617
    26  H    2.431065   2.767602   4.113004   5.272734   5.958628
    27  H    3.834381   3.568272   4.645519   5.540538   5.852598
    28  H    3.378598   3.019953   4.516706   5.316521   5.915037
    29  H    4.126105   2.815082   2.704084   2.650330   2.488745
    30  H    4.241472   2.988237   3.738874   3.841800   4.036786
    31  H    4.588662   3.576035   4.018458   4.334359   4.188968
                    6          7          8          9         10
     6  N    0.000000
     7  C    2.232753   0.000000
     8  N    1.354575   1.358460   0.000000
     9  C    2.412853   2.507371   1.423300   0.000000
    10  C    3.653135   2.996965   2.438646   1.396144   0.000000
    11  C    4.800364   4.378127   3.707869   2.405201   1.393195
    12  C    5.026499   5.163532   4.202716   2.779430   2.419914
    13  C    4.205939   4.887743   3.701213   2.403175   2.793823
    14  C    2.825263   3.706833   2.431089   1.395654   2.430803
    15  N    5.092958   4.527021   5.354316   6.663161   7.150567
    16  C    6.534576   5.852874   6.737180   7.996812   8.361800
    17  C    4.452989   4.387190   4.880674   6.098466   6.675901
    18  O    4.655677   3.107408   4.215790   5.255771   5.288765
    19  H    3.840412   3.315937   4.155992   5.563486   6.299601
    20  H    3.255220   1.074991   2.148889   2.850889   2.839317
    21  H    3.975060   2.717340   2.666867   2.156976   1.083855
    22  H    5.749505   5.044003   4.578809   3.385732   2.143327
    23  H    6.086205   6.228832   5.286992   3.863710   3.401383
    24  H    4.853451   5.819035   4.571078   3.384623   3.877829
    25  H    2.495816   3.955252   2.635894   2.143545   3.402026
    26  H    7.099909   6.206666   7.225773   8.511869   8.834971
    27  H    6.960837   6.586032   7.342623   8.621859   9.096156
    28  H    6.865148   6.057728   6.932678   8.081826   8.295437
    29  H    3.412397   3.657898   3.983324   5.236016   5.968234
    30  H    4.731211   4.495823   4.958545   6.017229   6.412704
    31  H    5.121827   5.366281   5.737471   6.944207   7.609621
                   11         12         13         14         15
    11  C    0.000000
    12  C    1.395497   0.000000
    13  C    2.415171   1.396630   0.000000
    14  C    2.795284   2.420504   1.391622   0.000000
    15  N    8.510506   9.320014   8.938207   7.662368   0.000000
    16  C    9.696795  10.581787  10.281609   9.042554   1.471745
    17  C    7.972264   8.662853   8.212833   6.969772   1.470533
    18  O    6.598559   7.657394   7.622303   6.532172   2.633958
    19  H    7.673963   8.327535   7.775397   6.424364   2.743580
    20  H    4.165983   5.167508   5.166482   4.177950   4.968758
    21  H    2.156164   3.404169   3.877522   3.411265   6.635756
    22  H    1.083464   2.155306   3.399590   3.878735   9.047848
    23  H    2.153989   1.084281   2.155899   3.402043  10.374244
    24  H    3.399187   2.155599   1.084010   2.142721   9.757849
    25  H    3.876428   3.409325   2.163647   1.081368   7.566279
    26  H   10.188569  11.124771  10.855936   9.605397   2.100300
    27  H   10.424329  11.224609  10.829449   9.566179   2.076187
    28  H    9.575023  10.527192  10.345143   9.184654   2.147777
    29  H    7.265962   7.854050   7.300889   6.017319   2.106493
    30  H    7.644080   8.406525   8.095250   6.955179   2.144991
    31  H    8.876125   9.478680   8.939875   7.691462   2.074392
                   16         17         18         19         20
    16  C    0.000000
    17  C    2.462459   0.000000
    18  O    3.404332   3.044549   0.000000
    19  H    4.032611   3.344361   3.403131   0.000000
    20  H    6.156162   5.003480   3.027660   3.911935   0.000000
    21  H    7.750079   6.301947   4.517253   5.981962   2.246119
    22  H   10.143007   8.572282   6.929139   8.358626   4.635526
    23  H   11.614999   9.696000   8.656053   9.408133   6.175423
    24  H   11.124759   8.971929   8.600633   8.525441   6.173586
    25  H    8.989461   6.833231   6.798331   6.191402   4.634837
    26  H    1.088572   3.391217   3.700857   4.116312   6.406061
    27  H    1.091196   2.682434   4.378675   4.541492   7.007269
    28  H    1.097221   2.760693   3.302866   4.791083   6.251808
    29  H    3.394973   1.090111   3.188415   2.883910   4.437960
    30  H    2.787555   1.097031   2.857944   4.157413   4.980267
    31  H    2.652870   1.092063   4.100798   3.989921   6.048804
                   21         22         23         24         25
    21  H    0.000000
    22  H    2.474316   0.000000
    23  H    4.299248   2.484952   0.000000
    24  H    4.961508   4.298404   2.485902   0.000000
    25  H    4.292169   4.959840   4.307527   2.489359   0.000000
    26  H    8.165594  10.600977  12.164383  11.723998   9.567430
    27  H    8.563571  10.927466  12.261504  11.611749   9.415758
    28  H    7.616030   9.930527  11.522829  11.225531   9.236819
    29  H    5.727835   7.959702   8.902436   8.020731   5.808698
    30  H    5.971781   8.151582   9.397697   8.898066   6.957814
    31  H    7.304269   9.513472  10.501712   9.624106   7.447771
                   26         27         28         29         30
    26  H    0.000000
    27  H    1.775809   0.000000
    28  H    1.786609   1.779090   0.000000
    29  H    4.194239   3.639245   3.775235   0.000000
    30  H    3.774225   3.129158   2.637204   1.788533   0.000000
[...]
 Alpha virt. eigenvalues --    0.77133   0.77533   0.78860   0.80306   0.80635
 Alpha virt. eigenvalues --    0.82120   0.83173   0.83205   0.83661   0.83947
 Alpha virt. eigenvalues --    0.85378   0.86392   0.86914   0.87700   0.88963
 Alpha virt. eigenvalues --    0.89803   0.90552   0.91605   0.92619   0.93166
 Alpha virt. eigenvalues --    0.94055   0.94953   0.95811   0.97200   0.98185
 Alpha virt. eigenvalues --    0.99564   1.00720   1.02092   1.04447   1.04743
 Alpha virt. eigenvalues --    1.06042   1.07117   1.07898   1.09208   1.10702
 Alpha virt. eigenvalues --    1.13713   1.14886   1.15020   1.16516   1.17905
 Alpha virt. eigenvalues --    1.18170   1.19471   1.21582   1.22811   1.24651
 Alpha virt. eigenvalues --    1.28353   1.30216   1.30608   1.32711   1.37110
 Alpha virt. eigenvalues --    1.38064   1.40426   1.41213   1.42342   1.43885
 Alpha virt. eigenvalues --    1.44452   1.45952   1.46928   1.47866   1.49510
 Alpha virt. eigenvalues --    1.53686   1.55205   1.55786   1.56956   1.58901
 Alpha virt. eigenvalues --    1.62303   1.62987   1.68989   1.69845   1.76124
 Alpha virt. eigenvalues --    1.77823   1.79192   1.79492   1.80622   1.81731
 Alpha virt. eigenvalues --    1.82628   1.83998   1.85250   1.86559   1.87746
 Alpha virt. eigenvalues --    1.89085   1.89843   1.93716   1.94025   1.95484
 Alpha virt. eigenvalues --    1.96399   1.97940   1.98397   2.00618   2.04707
 Alpha virt. eigenvalues --    2.05436   2.06191   2.07645   2.08961   2.09859
 Alpha virt. eigenvalues --    2.10407   2.11953   2.12547   2.14267   2.15105
 Alpha virt. eigenvalues --    2.17224   2.17869   2.19798   2.20197   2.23282
 Alpha virt. eigenvalues --    2.24216   2.25602   2.28445   2.29097   2.30317
 Alpha virt. eigenvalues --    2.31931   2.33306   2.35813   2.36013   2.40676
 Alpha virt. eigenvalues --    2.42430   2.47986   2.49190   2.50423   2.53866
 Alpha virt. eigenvalues --    2.57328   2.57705   2.58779   2.59852   2.62169
 Alpha virt. eigenvalues --    2.64402   2.66912   2.69014   2.70291   2.71964
 Alpha virt. eigenvalues --    2.74128   2.76233   2.77525   2.79207   2.82384
 Alpha virt. eigenvalues --    2.87897   2.88253   2.99821   3.05992   3.13178
 Alpha virt. eigenvalues --    3.25866   3.42125   3.61455   3.80223   3.92210
 Alpha virt. eigenvalues --    3.96614   3.99785   4.02935   4.06880   4.08962
 Alpha virt. eigenvalues --    4.10244   4.13826   4.18837   4.24059   4.26241
 Alpha virt. eigenvalues --    4.31347   4.34111   4.39328   4.49083   4.70784
          Condensed to atoms (all electrons):
               1          2          3          4          5          6
     1  O    8.217002   0.472125  -0.055615   0.000544  -0.000017   0.000000
     2  S    0.472125  13.544470   0.158807  -0.012970  -0.004093   0.000419
     3  N   -0.055615   0.158807   7.366811   0.252247  -0.069415   0.006296
     4  C    0.000544  -0.012970   0.252247   4.660972   0.349635  -0.074776
     5  N   -0.000017  -0.004093  -0.069415   0.349635   6.903591   0.296394
     6  N    0.000000   0.000419   0.006296  -0.074776   0.296394   6.760976
     7  C    0.000009  -0.000528  -0.063198   0.515542  -0.072178  -0.095775
     8  N    0.000000  -0.000346   0.003104  -0.039732  -0.088466   0.213479
     9  C    0.000000  -0.000003  -0.000100   0.005671   0.007001  -0.045036
    10  C    0.000000  -0.000003   0.000003   0.001019  -0.000329   0.003155
    11  C    0.000000   0.000000   0.000000  -0.000010   0.000002  -0.000067
    12  C    0.000000   0.000000   0.000000   0.000000   0.000000   0.000017
    13  C    0.000000   0.000000   0.000000   0.000006  -0.000005   0.000365
    14  C    0.000000   0.000000   0.000000  -0.000495   0.000356  -0.001120
    15  N   -0.059859   0.166997  -0.056908  -0.000837   0.000501  -0.000003
    16  C   -0.004116  -0.023667   0.002328  -0.000070  -0.000008   0.000000
    17  C    0.001696  -0.007846  -0.002615   0.001133  -0.006724   0.000043
    18  O   -0.044781   0.434352  -0.058552   0.000242  -0.000078   0.000006
    19  H   -0.000243  -0.007055   0.297074  -0.028154   0.003584  -0.000067
    20  H   -0.000011   0.001161  -0.000429  -0.025407   0.004080   0.003333
    21  H    0.000000   0.000001  -0.000001   0.000084  -0.000003  -0.000087
    22  H    0.000000   0.000000   0.000000   0.000000   0.000000   0.000001
    23  H    0.000000   0.000000   0.000000   0.000000   0.000000   0.000000
    24  H    0.000000   0.000000   0.000000   0.000000   0.000000  -0.000008
    25  H    0.000000   0.000000   0.000000   0.000040  -0.000353   0.017553
    26  H    0.011238  -0.003711   0.000103  -0.000001   0.000000   0.000000
    27  H    0.000226   0.001495  -0.000083   0.000001   0.000000   0.000000
    28  H   -0.000567  -0.002905  -0.000091   0.000002   0.000000   0.000000
    29  H   -0.000017  -0.003139   0.002907  -0.000775   0.015149  -0.000403
    30  H   -0.000057  -0.008204  -0.000311   0.000134   0.000165  -0.000009
    31  H   -0.000052   0.002023  -0.000124   0.000089   0.000075  -0.000001
               7          8          9         10         11         12
     1  O    0.000009   0.000000   0.000000   0.000000   0.000000   0.000000
     2  S   -0.000528  -0.000346  -0.000003  -0.000003   0.000000   0.000000
     3  N   -0.063198   0.003104  -0.000100   0.000003   0.000000   0.000000
     4  C    0.515542  -0.039732   0.005671   0.001019  -0.000010   0.000000
     5  N   -0.072178  -0.088466   0.007001  -0.000329   0.000002   0.000000
     6  N   -0.095775   0.213479  -0.045036   0.003155  -0.000067   0.000017
     7  C    4.990463   0.327157  -0.037367  -0.006443   0.000028   0.000018
     8  N    0.327157   6.912624   0.199736  -0.051836   0.004643   0.000365
     9  C   -0.037367   0.199736   4.622462   0.528444  -0.008409  -0.038273
    10  C   -0.006443  -0.051836   0.528444   4.995238   0.529398  -0.040282
    11  C    0.000028   0.004643  -0.008409   0.529398   4.850900   0.547246
    12  C    0.000018   0.000365  -0.038273  -0.040282   0.547246   4.859623
    13  C   -0.000082   0.004584  -0.010081  -0.042575  -0.023465   0.541241
    14  C    0.007600  -0.057254   0.517090  -0.072986  -0.041605  -0.038187
    15  N    0.000149   0.000000   0.000000   0.000000   0.000000   0.000000
    16  C   -0.000002   0.000000   0.000000   0.000000   0.000000   0.000000
    17  C   -0.000111  -0.000016   0.000002   0.000000   0.000000   0.000000
    18  O    0.003863  -0.000103   0.000007  -0.000005   0.000000   0.000000
    19  H    0.003685   0.000056  -0.000002   0.000000   0.000000   0.000000
    20  H    0.361929  -0.035270  -0.002063   0.002102   0.000185  -0.000001
    21  H    0.006074  -0.009515  -0.040630   0.351327  -0.035124   0.004330
    22  H   -0.000003  -0.000111   0.003445  -0.037947   0.362117  -0.039620
    23  H    0.000000   0.000004   0.000507   0.004944  -0.041456   0.364504
    24  H    0.000001  -0.000106   0.003514   0.000762   0.004502  -0.040365
    25  H    0.000246  -0.014544  -0.036690   0.005680   0.000105   0.004441
    26  H    0.000000   0.000000   0.000000   0.000000   0.000000   0.000000
    27  H    0.000000   0.000000   0.000000   0.000000   0.000000   0.000000
    28  H   -0.000001   0.000000   0.000000   0.000000   0.000000   0.000000
    29  H    0.000953   0.000067  -0.000008   0.000001   0.000000   0.000000
    30  H   -0.000057   0.000001   0.000000   0.000000   0.000000   0.000000
    31  H    0.000004   0.000000   0.000000   0.000000   0.000000   0.000000
              13         14         15         16         17         18
     1  O    0.000000   0.000000  -0.059859  -0.004116   0.001696  -0.044781
     2  S    0.000000   0.000000   0.166997  -0.023667  -0.007846   0.434352
     3  N    0.000000   0.000000  -0.056908   0.002328  -0.002615  -0.058552
     4  C    0.000006  -0.000495  -0.000837  -0.000070   0.001133   0.000242
     5  N   -0.000005   0.000356   0.000501  -0.000008  -0.006724  -0.000078
     6  N    0.000365  -0.001120  -0.000003   0.000000   0.000043   0.000006
     7  C   -0.000082   0.007600   0.000149  -0.000002  -0.000111   0.003863
     8  N    0.004584  -0.057254   0.000000   0.000000  -0.000016  -0.000103
     9  C   -0.010081   0.517090   0.000000   0.000000   0.000002   0.000007
    10  C   -0.042575  -0.072986   0.000000   0.000000   0.000000  -0.000005
    11  C   -0.023465  -0.041605   0.000000   0.000000   0.000000   0.000000
    12  C    0.541241  -0.038187   0.000000   0.000000   0.000000   0.000000
    13  C    4.872874   0.518948   0.000000   0.000000   0.000000   0.000000
    14  C    0.518948   4.991415   0.000000   0.000000   0.000000   0.000000
    15  N    0.000000   0.000000   7.198261   0.281722   0.262103  -0.053832
    16  C    0.000000   0.000000   0.281722   5.001093  -0.050154  -0.002156
    17  C    0.000000   0.000000   0.262103  -0.050154   5.035249   0.001852
    18  O    0.000000   0.000000  -0.053832  -0.002156   0.001852   8.256876
    19  H    0.000000   0.000000   0.004023  -0.000038  -0.000707   0.001499
    20  H   -0.000004  -0.000106   0.000009   0.000000   0.000010   0.001693
    21  H    0.000254   0.005381   0.000000   0.000000   0.000000  -0.000003
    22  H    0.004458   0.000773   0.000000   0.000000   0.000000   0.000000
    23  H   -0.041701   0.004649   0.000000   0.000000   0.000000   0.000000
    24  H    0.362652  -0.038171   0.000000   0.000000   0.000000   0.000000
    25  H   -0.039397   0.355051   0.000000   0.000000   0.000000   0.000000
    26  H    0.000000   0.000000  -0.032650   0.377732   0.004605  -0.000191
    27  H    0.000000   0.000000  -0.037072   0.378544  -0.002947  -0.000108
    28  H    0.000000   0.000000  -0.047863   0.370751  -0.002327   0.002576
    29  H    0.000000   0.000000  -0.032266   0.004474   0.365830  -0.001641
    30  H    0.000000   0.000000  -0.045326  -0.002517   0.369038   0.006278
    31  H    0.000000   0.000000  -0.032940  -0.004576   0.375753   0.000041
              19         20         21         22         23         24
     1  O   -0.000243  -0.000011   0.000000   0.000000   0.000000   0.000000
     2  S   -0.007055   0.001161   0.000001   0.000000   0.000000   0.000000
     3  N    0.297074  -0.000429  -0.000001   0.000000   0.000000   0.000000
     4  C   -0.028154  -0.025407   0.000084   0.000000   0.000000   0.000000
     5  N    0.003584   0.004080  -0.000003   0.000000   0.000000   0.000000
     6  N   -0.000067   0.003333  -0.000087   0.000001   0.000000  -0.000008
     7  C    0.003685   0.361929   0.006074  -0.000003   0.000000   0.000001
     8  N    0.000056  -0.035270  -0.009515  -0.000111   0.000004  -0.000106
     9  C   -0.000002  -0.002063  -0.040630   0.003445   0.000507   0.003514
    10  C    0.000000   0.002102   0.351327  -0.037947   0.004944   0.000762
    11  C    0.000000   0.000185  -0.035124   0.362117  -0.041456   0.004502
    12  C    0.000000  -0.000001   0.004330  -0.039620   0.364504  -0.040365
    13  C    0.000000  -0.000004   0.000254   0.004458  -0.041701   0.362652
    14  C    0.000000  -0.000106   0.005381   0.000773   0.004649  -0.038171
    15  N    0.004023   0.000009   0.000000   0.000000   0.000000   0.000000
    16  C   -0.000038   0.000000   0.000000   0.000000   0.000000   0.000000
    17  C   -0.000707   0.000010   0.000000   0.000000   0.000000   0.000000
    18  O    0.001499   0.001693  -0.000003   0.000000   0.000000   0.000000
    19  H    0.332102  -0.000094   0.000000   0.000000   0.000000   0.000000
    20  H   -0.000094   0.473359   0.001900  -0.000001   0.000000   0.000000
    21  H    0.000000   0.001900   0.557702  -0.005230  -0.000151   0.000014
    22  H    0.000000  -0.000001  -0.005230   0.559565  -0.005147  -0.000170
    23  H    0.000000   0.000000  -0.000151  -0.005147   0.565869  -0.005160
    24  H    0.000000   0.000000   0.000014  -0.000170  -0.005160   0.560712
    25  H    0.000000  -0.000010  -0.000135   0.000013  -0.000135  -0.005076
    26  H   -0.000011   0.000000   0.000000   0.000000   0.000000   0.000000
    27  H   -0.000006   0.000000   0.000000   0.000000   0.000000   0.000000
    28  H    0.000006   0.000000   0.000000   0.000000   0.000000   0.000000
    29  H    0.000563  -0.000010   0.000000   0.000000   0.000000   0.000000
    30  H    0.000033  -0.000004   0.000000   0.000000   0.000000   0.000000
    31  H   -0.000010   0.000000   0.000000   0.000000   0.000000   0.000000
              25         26         27         28         29         30
     1  O    0.000000   0.011238   0.000226  -0.000567  -0.000017  -0.000057
     2  S    0.000000  -0.003711   0.001495  -0.002905  -0.003139  -0.008204
     3  N    0.000000   0.000103  -0.000083  -0.000091   0.002907  -0.000311
     4  C    0.000040  -0.000001   0.000001   0.000002  -0.000775   0.000134
     5  N   -0.000353   0.000000   0.000000   0.000000   0.015149   0.000165
     6  N    0.017553   0.000000   0.000000   0.000000  -0.000403  -0.000009
     7  C    0.000246   0.000000   0.000000  -0.000001   0.000953  -0.000057
     8  N   -0.014544   0.000000   0.000000   0.000000   0.000067   0.000001
     9  C   -0.036690   0.000000   0.000000   0.000000  -0.000008   0.000000
    10  C    0.005680   0.000000   0.000000   0.000000   0.000001   0.000000
    11  C    0.000105   0.000000   0.000000   0.000000   0.000000   0.000000
    12  C    0.004441   0.000000   0.000000   0.000000   0.000000   0.000000
    13  C   -0.039397   0.000000   0.000000   0.000000   0.000000   0.000000
    14  C    0.355051   0.000000   0.000000   0.000000   0.000000   0.000000
    15  N    0.000000  -0.032650  -0.037072  -0.047863  -0.032266  -0.045326
    16  C    0.000000   0.377732   0.378544   0.370751   0.004474  -0.002517
    17  C    0.000000   0.004605  -0.002947  -0.002327   0.365830   0.369038
    18  O    0.000000  -0.000191  -0.000108   0.002576  -0.001641   0.006278
    19  H    0.000000  -0.000011  -0.000006   0.000006   0.000563   0.000033
    20  H   -0.000010   0.000000   0.000000   0.000000  -0.000010  -0.000004
    21  H   -0.000135   0.000000   0.000000   0.000000   0.000000   0.000000
    22  H    0.000013   0.000000   0.000000   0.000000   0.000000   0.000000
    23  H   -0.000135   0.000000   0.000000   0.000000   0.000000   0.000000
    24  H   -0.005076   0.000000   0.000000   0.000000   0.000000   0.000000
    25  H    0.537266   0.000000   0.000000   0.000000   0.000000   0.000000
    26  H    0.000000   0.494604  -0.020167  -0.031485  -0.000185  -0.000210
    27  H    0.000000  -0.020167   0.534587  -0.039391   0.000101  -0.001584
    28  H    0.000000  -0.031485  -0.039391   0.578778  -0.000161   0.008475
    29  H    0.000000  -0.000185   0.000101  -0.000161   0.501924  -0.030122
    30  H    0.000000  -0.000210  -0.001584   0.008475  -0.030122   0.567707
    31  H    0.000000   0.000033   0.005513  -0.001370  -0.021897  -0.034228
              31
     1  O   -0.000052
     2  S    0.002023
     3  N   -0.000124
     4  C    0.000089
     5  N    0.000075
     6  N   -0.000001
     7  C    0.000004
     8  N    0.000000
     9  C    0.000000
    10  C    0.000000
    11  C    0.000000
    12  C    0.000000
    13  C    0.000000
    14  C    0.000000
    15  N   -0.032940
    16  C   -0.004576
    17  C    0.375753
    18  O    0.000041
    19  H   -0.000010
    20  H    0.000000
    21  H    0.000000
    22  H    0.000000
    23  H    0.000000
    24  H    0.000000
    25  H    0.000000
    26  H    0.000033
    27  H    0.005513
    28  H   -0.001370
    29  H   -0.021897
    30  H   -0.034228
    31  H    0.530183
 Mulliken charges:
               1
     1  O   -0.537506
     2  S    1.292621
     3  N   -0.782237
     4  C    0.395864
     5  N   -0.338865
     6  N   -0.084684
     7  C    0.058022
     8  N   -0.368519
     9  C    0.330782
    10  C   -0.169664
    11  C   -0.148991
    12  C   -0.125057
    13  C   -0.148073
    14  C   -0.151337
    15  N   -0.514206
    16  C   -0.329339
    17  C   -0.343866
    18  O   -0.547833
    19  H    0.393760
    20  H    0.213651
    21  H    0.163811
    22  H    0.157859
    23  H    0.153273
    24  H    0.156899
    25  H    0.175948
    26  H    0.200294
    27  H    0.180889
    28  H    0.165572
    29  H    0.198657
    30  H    0.170795
    31  H    0.181483
 Sum of Mulliken charges =   0.00000
 Mulliken charges with hydrogens summed into heavy atoms:
               1
     1  O   -0.537506
     2  S    1.292621
     3  N   -0.388478
     4  C    0.395864
     5  N   -0.338865
     6  N   -0.084684
     7  C    0.271673
     8  N   -0.368519
     9  C    0.330782
    10  C   -0.005853
    11  C    0.008868
    12  C    0.028216
    13  C    0.008827
    14  C    0.024610
    15  N   -0.514206
    16  C    0.217415
    17  C    0.207068
    18  O   -0.547833
 Electronic spatial extent (au):  <R**2>=           6657.1839
 Charge=              0.0000 electrons
 Dipole moment (field-independent basis, Debye):
    X=              2.9581    Y=              0.6392    Z=              1.7924  Tot=              3.5173
 Quadrupole moment (field-independent basis, Debye-Ang):
   XX=            -87.4721   YY=           -115.3668   ZZ=           -110.7845
   XY=            -16.5654   XZ=             -8.0719   YZ=             -1.2382
 Traceless Quadrupole moment (field-independent basis, Debye-Ang):
   XX=             17.0690   YY=            -10.8256   ZZ=             -6.2434
   XY=            -16.5654   XZ=             -8.0719   YZ=             -1.2382
 Octapole moment (field-independent basis, Debye-Ang**2):
  XXX=             51.8251  YYY=            -19.9922  ZZZ=             -0.7458  XYY=             14.7258
  XXY=             32.9248  XXZ=             61.2324  XZZ=            -29.1567  YZZ=              8.5972
  YYZ=              5.1042  XYZ=             -3.0030
 Hexadecapole moment (field-independent basis, Debye-Ang**3):
 XXXX=          -6418.3537 YYYY=           -869.4809 ZZZZ=           -512.8632 XXXY=           -123.7109
 XXXZ=           -106.9744 YYYX=            -41.0516 YYYZ=              3.7771 ZZZX=            -19.7338
 ZZZY=             -7.2824 XXYY=          -1320.5281 XXZZ=          -1359.8818 YYZZ=           -223.6581
 XXYZ=            -62.4965 YYXZ=             -1.4726 ZZXY=            -28.8724
 N-N= 1.466879494779D+03 E-N=-5.770509814864D+03  KE= 1.202136907746D+03
 No NMR shielding tensors so no spin-rotation constants.
 Leave Link  601 at Thu Aug  6 21:19:31 2020, MaxMem=    33554432 cpu:         0.2
 (Enter /prod/apps/gaussian/g09d1/l9999.exe)
 1\1\GINC-PIRINEUS30\SP\RB3LYP\6-31G(d)\C10H13N5O2S1\UBAFAR01\06-Aug-20
 20\0\\#p b3lyp/6-31G(d) scrf=(iefpcm,read,solvent=n-Octanol) geom=allc
 heck guess=read\\SM46.n.5.pdb.xyz\\0,1\O,0,3.449,0.282,1.037\S,0,3.619
 ,-0.182,-0.337\N,0,3.16,1.08,-1.354\C,0,2.71,0.856,-2.664\N,0,3.419,1.
 277,-3.749\N,0,2.752,0.975,-4.83\C,0,1.548,0.255,-3.093\N,0,1.619,0.33
 9,-4.447\C,0,0.69,-0.132,-5.417\C,0,-0.223,-1.131,-5.074\C,0,-1.134,-1
 .575,-6.03\C,0,-1.124,-1.038,-7.318\C,0,-0.199,-0.045,-7.648\C,0,0.709
 ,0.417,-6.7\N,0,5.284,-0.28,-0.593\C,0,6.011,-0.952,0.496\C,0,5.656,-0
 .758,-1.933\O,0,2.893,-1.364,-0.807\H,0,3.75,1.901,-1.239\H,0,0.725,-0
 .194,-2.567\H,0,-0.214,-1.563,-4.08\H,0,-1.844,-2.35,-5.767\H,0,-1.833
 ,-1.39,-8.059\H,0,-0.187,0.378,-8.646\H,0,1.427,1.191,-6.934\H,0,5.704
 ,-0.527,1.45\H,0,7.074,-0.758,0.344\H,0,5.848,-2.037,0.506\H,0,5.161,-
 0.152,-2.692\H,0,5.409,-1.816,-2.085\H,0,6.735,-0.624,-2.035\\Version=
 AM64L-G09RevD.01\State=1-A\HF=-1211.1847271\RMSD=6.900e-09\Dipole=-0.2
 377328,-0.4940518,-1.2705801\Quadrupole=12.7413121,-4.6885232,-8.05278
 89,0.2377215,13.5894542,1.7078389\PG=C01 [X(C10H13N5O2S1)]\\@


 WHEN IT COMES TO CASH FLOW, IT SEEMS LIKE THE TIDE IS ALWAYS GOING OUT.
 Job cpu time:       0 days  0 hours  2 minutes 39.2 seconds.
 File lengths (MBytes):  RWF=    158 Int=      0 D2E=      0 Chk=      6 Scr=      1
 Normal termination of Gaussian 09 at Thu Aug  6 21:19:31 2020.
