 Entering Gaussian System, Link 0=g09
 Initial command:
 /prod/apps/gaussian/g09d1/l1.exe "/tmp/ubafar01/1448552/Gau-77769.inp" -scrdir="/tmp/ubafar01/1448552/"
 Entering Link 1 = /prod/apps/gaussian/g09d1/l1.exe PID=     77770.
  
 Copyright (c) 1988,1990,1992,1993,1995,1998,2003,2009,2013,
            Gaussian, Inc.  All Rights Reserved.
  
 This is part of the Gaussian(R) 09 program.  It is based on
 the Gaussian(R) 03 system (copyright 2003, Gaussian, Inc.),
 the Gaussian(R) 98 system (copyright 1998, Gaussian, Inc.),
 the Gaussian(R) 94 system (copyright 1995, Gaussian, Inc.),
 the Gaussian 92(TM) system (copyright 1992, Gaussian, Inc.),
 the Gaussian 90(TM) system (copyright 1990, Gaussian, Inc.),
 the Gaussian 88(TM) system (copyright 1988, Gaussian, Inc.),
 the Gaussian 86(TM) system (copyright 1986, Carnegie Mellon
 University), and the Gaussian 82(TM) system (copyright 1983,
 Carnegie Mellon University). Gaussian is a federally registered
 trademark of Gaussian, Inc.
  
 This software contains proprietary and confidential information,
 including trade secrets, belonging to Gaussian, Inc.
  
 This software is provided under written license and may be
 used, copied, transmitted, or stored only in accord with that
 written license.
  
 The following legend is applicable only to US Government
 contracts under FAR:
  
                    RESTRICTED RIGHTS LEGEND
  
 Use, reproduction and disclosure by the US Government is
 subject to restrictions as set forth in subparagraphs (a)
 and (c) of the Commercial Computer Software - Restricted
 Rights clause in FAR 52.227-19.
  
 Gaussian, Inc.
 340 Quinnipiac St., Bldg. 40, Wallingford CT 06492
  
  
 ---------------------------------------------------------------
 Warning -- This program may not be used in any manner that
 competes with the business of Gaussian, Inc. or will provide
 assistance to any competitor of Gaussian, Inc.  The licensee
 of this program is prohibited from giving any competitor of
 Gaussian, Inc. access to this program.  By using this program,
 the user acknowledges that Gaussian, Inc. is engaged in the
 business of creating and licensing software in the field of
 computational chemistry and represents and warrants to the
 licensee that it is not a competitor of Gaussian, Inc. and that
 it will not use this program in any manner prohibited above.
 ---------------------------------------------------------------
  

 Cite this work as:
 Gaussian 09, Revision D.01,
 M. J. Frisch, G. W. Trucks, H. B. Schlegel, G. E. Scuseria, 
 M. A. Robb, J. R. Cheeseman, G. Scalmani, V. Barone, B. Mennucci, 
 G. A. Petersson, H. Nakatsuji, M. Caricato, X. Li, H. P. Hratchian, 
 A. F. Izmaylov, J. Bloino, G. Zheng, J. L. Sonnenberg, M. Hada, 
 M. Ehara, K. Toyota, R. Fukuda, J. Hasegawa, M. Ishida, T. Nakajima, 
 Y. Honda, O. Kitao, H. Nakai, T. Vreven, J. A. Montgomery, Jr., 
 J. E. Peralta, F. Ogliaro, M. Bearpark, J. J. Heyd, E. Brothers, 
 K. N. Kudin, V. N. Staroverov, T. Keith, R. Kobayashi, J. Normand, 
 K. Raghavachari, A. Rendell, J. C. Burant, S. S. Iyengar, J. Tomasi, 
 M. Cossi, N. Rega, J. M. Millam, M. Klene, J. E. Knox, J. B. Cross, 
 V. Bakken, C. Adamo, J. Jaramillo, R. Gomperts, R. E. Stratmann, 
 O. Yazyev, A. J. Austin, R. Cammi, C. Pomelli, J. W. Ochterski, 
 R. L. Martin, K. Morokuma, V. G. Zakrzewski, G. A. Voth, 
 P. Salvador, J. J. Dannenberg, S. Dapprich, A. D. Daniels, 
 O. Farkas, J. B. Foresman, J. V. Ortiz, J. Cioslowski, 
 and D. J. Fox, Gaussian, Inc., Wallingford CT, 2013.
 
 ******************************************
 Gaussian 09:  AM64L-G09RevD.01 24-Apr-2013
                 6-Aug-2020 
 ******************************************
 %nproc=1
 Will use up to    1 processors via shared memory.
 %Chk=SM46.n.1.pdb.xyz.mst.n.o.chk
 -----------------
 #p b3lyp/6-31G(d)
 -----------------
 1/38=1/1;
 2/12=2,17=6,18=5,40=1/2;
 3/5=1,6=6,7=1,11=2,16=1,25=1,30=1,74=-5/1,2,3;
 4//1;
 5/5=2,38=5/2;
 6/7=2,8=2,9=2,10=2,28=1/1;
 99/5=1,9=1/99;
 Leave Link    1 at Thu Aug  6 21:11:43 2020, MaxMem=           0 cpu:         0.0
 (Enter /prod/apps/gaussian/g09d1/l101.exe)
 ----------------
 SM46.n.1.pdb.xyz
 ----------------
 Symbolic Z-matrix:
 Charge =  0 Multiplicity = 1
 O                     4.503    -1.556    -0.902 
 S                     4.691    -0.15     -0.546 
 N                     4.62      0.88     -1.893 
 C                     3.79      0.553    -2.978 
 N                     4.294     0.439    -4.236 
 N                     3.312     0.187    -5.061 
 C                     2.428     0.357    -3.017 
 N                     2.174     0.12     -4.332 
 C                     0.927    -0.163    -4.957 
 C                    -0.136    -0.648    -4.192 
 C                    -1.356    -0.912    -4.811 
 C                    -1.51     -0.704    -6.183 
 C                    -0.436    -0.227    -6.936 
 C                     0.785     0.052    -6.33 
 N                     3.276     0.334     0.221 
 C                     2.72     -0.663     1.148 
 C                     3.319     1.699     0.767 
 O                     5.911     0.268     0.153 
 H                     5.566     1.128    -2.177 
 H                     1.668     0.38     -2.257 
 H                    -0.007    -0.831    -3.132 
 H                    -2.182    -1.288    -4.219 
 H                    -2.46     -0.914    -6.661 
 H                    -0.549    -0.063    -8.002 
 H                     1.626     0.43     -6.896 
 H                     2.698    -1.636     0.661 
 H                     1.699    -0.355     1.38 
 H                     3.288    -0.732     2.083 
 H                     3.692     2.38      0.003 
 H                     3.947     1.769     1.662 
 H                     2.296     1.98      1.023 
 
 NAtoms=     31 NQM=       31 NQMF=       0 NMMI=      0 NMMIF=      0
                NMic=       0 NMicF=      0.
                    Isotopes and Nuclear Properties:
 (Nuclear quadrupole moments (NQMom) in fm**2, nuclear magnetic moments (NMagM)
  in nuclear magnetons)

  Atom         1           2           3           4           5           6           7           8           9          10
 IAtWgt=          16          32          14          12          14          14          12          14          12          12
 AtmWgt=  15.9949146  31.9720718  14.0030740  12.0000000  14.0030740  14.0030740  12.0000000  14.0030740  12.0000000  12.0000000
 NucSpn=           0           0           2           0           2           2           0           2           0           0
 AtZEff=   0.0000000   0.0000000   0.0000000   0.0000000   0.0000000   0.0000000   0.0000000   0.0000000   0.0000000   0.0000000
 NQMom=    0.0000000   0.0000000   2.0440000   0.0000000   2.0440000   2.0440000   0.0000000   2.0440000   0.0000000   0.0000000
 NMagM=    0.0000000   0.0000000   0.4037610   0.0000000   0.4037610   0.4037610   0.0000000   0.4037610   0.0000000   0.0000000
 AtZNuc=   8.0000000  16.0000000   7.0000000   6.0000000   7.0000000   7.0000000   6.0000000   7.0000000   6.0000000   6.0000000

  Atom        11          12          13          14          15          16          17          18          19          20
 IAtWgt=          12          12          12          12          14          12          12          16           1           1
 AtmWgt=  12.0000000  12.0000000  12.0000000  12.0000000  14.0030740  12.0000000  12.0000000  15.9949146   1.0078250   1.0078250
 NucSpn=           0           0           0           0           2           0           0           0           1           1
 AtZEff=   0.0000000   0.0000000   0.0000000   0.0000000   0.0000000   0.0000000   0.0000000   0.0000000   0.0000000   0.0000000
 NQMom=    0.0000000   0.0000000   0.0000000   0.0000000   2.0440000   0.0000000   0.0000000   0.0000000   0.0000000   0.0000000
 NMagM=    0.0000000   0.0000000   0.0000000   0.0000000   0.4037610   0.0000000   0.0000000   0.0000000   2.7928460   2.7928460
 AtZNuc=   6.0000000   6.0000000   6.0000000   6.0000000   7.0000000   6.0000000   6.0000000   8.0000000   1.0000000   1.0000000

  Atom        21          22          23          24          25          26          27          28          29          30
 IAtWgt=           1           1           1           1           1           1           1           1           1           1
 AtmWgt=   1.0078250   1.0078250   1.0078250   1.0078250   1.0078250   1.0078250   1.0078250   1.0078250   1.0078250   1.0078250
 NucSpn=           1           1           1           1           1           1           1           1           1           1
 AtZEff=   0.0000000   0.0000000   0.0000000   0.0000000   0.0000000   0.0000000   0.0000000   0.0000000   0.0000000   0.0000000
 NQMom=    0.0000000   0.0000000   0.0000000   0.0000000   0.0000000   0.0000000   0.0000000   0.0000000   0.0000000   0.0000000
 NMagM=    2.7928460   2.7928460   2.7928460   2.7928460   2.7928460   2.7928460   2.7928460   2.7928460   2.7928460   2.7928460
 AtZNuc=   1.0000000   1.0000000   1.0000000   1.0000000   1.0000000   1.0000000   1.0000000   1.0000000   1.0000000   1.0000000

  Atom        31
 IAtWgt=           1
 AtmWgt=   1.0078250
 NucSpn=           1
 AtZEff=   0.0000000
 NQMom=    0.0000000
 NMagM=    2.7928460
 AtZNuc=   1.0000000
 Leave Link  101 at Thu Aug  6 21:11:43 2020, MaxMem=    33554432 cpu:         0.1
 (Enter /prod/apps/gaussian/g09d1/l202.exe)
                          Input orientation:                          
 ---------------------------------------------------------------------
 Center     Atomic      Atomic             Coordinates (Angstroms)
 Number     Number       Type             X           Y           Z
 ---------------------------------------------------------------------
      1          8           0        4.503000   -1.556000   -0.902000
      2         16           0        4.691000   -0.150000   -0.546000
      3          7           0        4.620000    0.880000   -1.893000
      4          6           0        3.790000    0.553000   -2.978000
      5          7           0        4.294000    0.439000   -4.236000
      6          7           0        3.312000    0.187000   -5.061000
      7          6           0        2.428000    0.357000   -3.017000
      8          7           0        2.174000    0.120000   -4.332000
      9          6           0        0.927000   -0.163000   -4.957000
     10          6           0       -0.136000   -0.648000   -4.192000
     11          6           0       -1.356000   -0.912000   -4.811000
     12          6           0       -1.510000   -0.704000   -6.183000
     13          6           0       -0.436000   -0.227000   -6.936000
     14          6           0        0.785000    0.052000   -6.330000
     15          7           0        3.276000    0.334000    0.221000
     16          6           0        2.720000   -0.663000    1.148000
     17          6           0        3.319000    1.699000    0.767000
     18          8           0        5.911000    0.268000    0.153000
     19          1           0        5.566000    1.128000   -2.177000
     20          1           0        1.668000    0.380000   -2.257000
     21          1           0       -0.007000   -0.831000   -3.132000
     22          1           0       -2.182000   -1.288000   -4.219000
     23          1           0       -2.460000   -0.914000   -6.661000
     24          1           0       -0.549000   -0.063000   -8.002000
     25          1           0        1.626000    0.430000   -6.896000
     26          1           0        2.698000   -1.636000    0.661000
     27          1           0        1.699000   -0.355000    1.380000
     28          1           0        3.288000   -0.732000    2.083000
     29          1           0        3.692000    2.380000    0.003000
     30          1           0        3.947000    1.769000    1.662000
     31          1           0        2.296000    1.980000    1.023000
 ---------------------------------------------------------------------
                    Distance matrix (angstroms):
                    1          2          3          4          5
     1  O    0.000000
     2  S    1.462503   0.000000
     3  N    2.632464   1.697159   0.000000
     4  C    3.044015   2.687124   1.404654   0.000000
     5  N    3.890920   3.757743   2.406326   1.359991   0.000000
     6  N    4.664098   4.732910   3.496761   2.168255   1.307078
     7  C    3.526814   3.388814   2.518287   1.376583   2.230390
     8  N    4.471925   4.554337   3.536840   2.152269   2.146014
     9  C    5.583122   5.798688   4.910621   3.553289   3.495559
    10  C    5.759243   6.069699   5.499065   4.281317   4.561623
    11  C    7.072687   7.438890   6.887566   5.655743   5.837664
    12  C    8.048045   8.398517   7.647879   6.319974   6.227654
    13  C    7.910064   8.192933   7.226371   5.842366   5.486935
    14  C    6.772915   6.982284   5.922818   4.529562   4.104593
    15  N    2.517689   1.680705   2.563874   3.247423   4.572986
    16  C    2.859902   2.649084   3.903656   4.432542   5.716584
    17  C    3.844794   2.650501   3.072289   3.944640   5.250546
    18  O    2.534258   1.466876   2.495464   3.792496   4.680518
    19  H    3.155860   2.249238   1.018369   2.031355   2.516384
    20  H    3.690711   3.513823   3.016090   2.247811   3.288738
    21  H    5.083171   5.405771   5.086430   4.044302   4.618476
    22  H    7.467499   7.875538   7.508509   6.371354   6.702342
    23  H    9.058787   9.440006   8.722308   7.401289   7.302585
    24  H    8.840914   9.113567   8.057772   6.666855   6.155437
    25  H    6.938974   7.074823   5.847781   4.477583   3.767480
    26  H    2.389015   2.763529   4.067832   4.384804   5.552788
    27  H    3.809507   3.564206   4.557411   4.918222   6.237300
    28  H    3.326474   3.036243   4.492365   5.245660   6.504847
    29  H    4.119325   2.774942   2.589595   3.497698   4.700958
    30  H    4.235429   3.018503   3.725758   4.799261   6.056048
    31  H    4.591271   3.568569   3.887677   4.502929   5.832989
                    6          7          8          9         10
     6  N    0.000000
     7  C    2.233448   0.000000
     8  N    1.353135   1.360114   0.000000
     9  C    2.412787   2.507389   1.423279   0.000000
    10  C    3.652546   2.994119   2.438345   1.396574   0.000000
    11  C    4.802138   4.375780   3.708823   2.407157   1.393290
    12  C    5.030353   5.163053   4.204406   2.781138   2.419730
    13  C    4.211238   4.888979   3.703151   2.403811   2.792271
    14  C    2.830957   3.710585   2.434327   1.396967   2.430902
    15  N    5.284168   3.347279   4.689351   5.707582   5.663977
    16  C    6.294811   4.298010   5.562518   6.382466   6.055787
    17  C    6.020945   4.112603   5.459310   6.477105   6.483604
    18  O    5.826419   4.710426   5.839717   7.151092   7.502286
    19  H    3.779346   3.338725   4.143157   5.560162   6.302952
    20  H    3.256133   1.075048   2.151572   2.852005   2.838208
    21  H    3.971539   2.711788   2.664801   2.156202   1.083388
    22  H    5.750533   5.040132   4.579298   3.387647   2.143932
    23  H    6.090007   6.227899   5.288417   3.865150   3.401131
    24  H    4.859969   5.821439   4.573524   3.385351   3.876712
    25  H    2.503771   3.961714   2.640170   2.144754   3.402697
    26  H    6.036689   4.191972   5.318662   6.071910   5.706076
    27  H    6.661983   4.513535   5.751365   6.386738   5.873692
    28  H    7.202907   5.285406   6.566515   7.447126   7.148878
    29  H    5.531523   3.848457   5.118999   6.222031   6.435868
    30  H    6.935754   5.118022   6.464578   7.527562   7.535389
    31  H    6.423563   4.355818   5.670142   6.498231   6.325918
                   11         12         13         14         15
    11  C    0.000000
    12  C    1.396196   0.000000
    13  C    2.414798   1.395713   0.000000
    14  C    2.796522   2.420779   1.391373   0.000000
    15  N    6.951904   8.061914   8.081851   7.014286   0.000000
    16  C    7.223950   8.463932   8.689159   7.757315   1.470535
    17  C    7.732207   8.797508   8.783263   7.713700   1.470779
    18  O    8.879357   9.806167   9.528030   8.267516   2.636703
    19  H    7.682034   8.335109   7.778696   6.423640   3.409537
    20  H    4.163743   5.166064   5.166073   4.180503   2.954364
    21  H    2.155320   3.403489   3.875471   3.410888   4.835072
    22  H    1.083566   2.156371   3.399460   3.880079   7.220405
    23  H    2.154372   1.084013   2.155034   3.401873   9.045503
    24  H    3.399196   2.154800   1.084445   2.142047   9.077773
    25  H    3.878210   3.410106   2.164508   1.081906   7.306395
    26  H    6.848494   8.088030   8.337964   7.441975   2.099663
    27  H    6.926165   8.223044   8.586645   7.774648   2.074833
    28  H    8.314227   9.557633   9.770648   8.812391   2.145587
    29  H    7.713246   8.650922   8.484489   7.346912   2.099213
    30  H    8.786882   9.871099   9.854964   8.764610   2.141482
    31  H    7.465676   8.579972   8.699446   7.750285   2.076757
                   16         17         18         19         20
    16  C    0.000000
    17  C    2.466375   0.000000
    18  O    3.469765   3.023776   0.000000
    19  H    4.728956   3.747290   2.507494   0.000000
    20  H    3.713297   3.689192   4.880952   3.969925   0.000000
    21  H    5.077711   5.715363   6.857241   5.983982   2.244498
    22  H    7.295541   8.002710   9.329103   8.368890   4.631864
    23  H    9.374214   9.767282  10.858239   9.417680   6.173333
    24  H    9.734930   9.744815  10.408899   8.528911   6.173845
    25  H    8.191302   7.949728   8.250810   6.187064   4.639460
    26  H    1.088293   3.393980   3.769171   4.890743   3.693221
    27  H    1.091389   2.686835   4.431095   5.459416   3.710654
    28  H    1.096180   2.764521   3.406615   5.176532   4.764089
    29  H    3.393473   1.089305   3.067084   3.135567   3.633755
    30  H    2.772066   1.095586   2.896097   4.215443   4.741490
    31  H    2.679711   1.091341   4.093418   4.653902   3.703078
                   21         22         23         24         25
    21  H    0.000000
    22  H    2.474074   0.000000
    23  H    4.298597   2.486066   0.000000
    24  H    4.959888   4.298651   2.484835   0.000000
    25  H    4.292378   4.961725   4.307779   2.489359   0.000000
    26  H    4.727779   6.910131   8.985429   9.384290   7.907325
    27  H    4.847180   6.876151   9.070140   9.651979   8.313467
    28  H    6.169526   8.363327  10.465666  10.810983   9.205158
    29  H    5.815612   8.110696   9.649168   9.382662   7.461036
    30  H    6.736212   9.027516  10.840686  10.814950   8.967682
    31  H    5.519923   7.629605   9.488869   9.680832   8.097034
                   26         27         28         29         30
    26  H    0.000000
    27  H    1.776492   0.000000
    28  H    1.785329   1.777993   0.000000
    29  H    4.189183   3.653547   3.764859   0.000000
    30  H    3.762450   3.105544   2.620405   1.786233   0.000000
    31  H    3.656242   2.436408   3.076135   1.774603   1.782875
                   31
    31  H    0.000000
 Stoichiometry    C10H13N5O2S
 Framework group  C1[X(C10H13N5O2S)]
 Deg. of freedom    87
 Full point group                 C1      NOp   1
 Largest Abelian subgroup         C1      NOp   1
 Largest concise Abelian subgroup C1      NOp   1
                         Standard orientation:                         
 ---------------------------------------------------------------------
 Center     Atomic      Atomic             Coordinates (Angstroms)
 Number     Number       Type             X           Y           Z
 ---------------------------------------------------------------------
      1          8           0       -2.430809   -0.080648   -1.776528
      2         16           0       -2.927995   -0.263193   -0.413296
      3          7           0       -1.898575   -1.223792    0.534276
      4          6           0       -0.512467   -1.192880    0.308881
      5          7           0        0.177643   -2.331473    0.031517
      6          7           0        1.446685   -2.037901   -0.077113
      7          6           0        0.366355   -0.135143    0.370871
      8          7           0        1.574357   -0.704196    0.112374
      9          6           0        2.850434   -0.078672    0.034471
     10          6           0        2.934104    1.295875   -0.197990
     11          6           0        4.187550    1.900880   -0.262009
     12          6           0        5.346983    1.138776   -0.106203
     13          6           0        5.247710   -0.235390    0.117018
     14          6           0        4.002801   -0.851883    0.194826
     15          7           0       -2.700531    1.205934    0.370730
     16          6           0       -3.017766    2.384114   -0.450079
     17          6           0       -3.255558    1.258879    1.731734
     18          8           0       -4.255576   -0.847202   -0.193781
     19          1           0       -2.272149   -2.169891    0.583417
     20          1           0        0.231662    0.910891    0.579198
     21          1           0        2.033811    1.881051   -0.342117
     22          1           0        4.254423    2.967310   -0.441929
     23          1           0        6.320192    1.613156   -0.160168
     24          1           0        6.144306   -0.833066    0.239167
     25          1           0        3.906128   -1.914234    0.375345
     26          1           0       -2.550428    2.279684   -1.427356
     27          1           0       -2.597583    3.254347    0.057141
     28          1           0       -4.096689    2.534613   -0.572085
     29          1           0       -2.931731    0.379010    2.286308
     30          1           0       -4.349788    1.313361    1.732477
     31          1           0       -2.851091    2.150313    2.214205
 ---------------------------------------------------------------------
 Rotational constants (GHZ):      0.8943240      0.1868960      0.1671307
 Leave Link  202 at Thu Aug  6 21:11:43 2020, MaxMem=    33554432 cpu:         0.0
 (Enter /prod/apps/gaussian/g09d1/l301.exe)
 Standard basis: 6-31G(d) (6D, 7F)
 Ernie: Thresh=  0.10000D-02 Tol=  0.10000D-05 Strict=F.
 There are   300 symmetry adapted cartesian basis functions of A   symmetry.
 There are   300 symmetry adapted basis functions of A   symmetry.
   300 basis functions,   580 primitive gaussians,   300 cartesian basis functions
    70 alpha electrons       70 beta electrons
       nuclear repulsion energy      1471.3639103664 Hartrees.
 IExCor=  402 DFT=T Ex+Corr=B3LYP ExCW=0 ScaHFX=  0.200000
 ScaDFX=  0.800000  0.720000  1.000000  0.810000 ScalE2=  1.000000  1.000000
 IRadAn=      0 IRanWt=     -1 IRanGd=            0 ICorTp=0 IEmpDi=  4
 NAtoms=   31 NActive=   31 NUniq=   31 SFac= 1.00D+00 NAtFMM=   60 NAOKFM=F Big=F
 Integral buffers will be    131072 words long.
 Raffenetti 2 integral format.
 Two-electron integral symmetry is turned on.
 Leave Link  301 at Thu Aug  6 21:11:43 2020, MaxMem=    33554432 cpu:         0.0
 (Enter /prod/apps/gaussian/g09d1/l302.exe)
 NPDir=0 NMtPBC=     1 NCelOv=     1 NCel=       1 NClECP=     1 NCelD=      1
         NCelK=      1 NCelE2=     1 NClLst=     1 CellRange=     0.0.
 One-electron integrals computed using PRISM.
 NBasis=   300 RedAO= T EigKep=  4.64D-04  NBF=   300
 NBsUse=   300 1.00D-06 EigRej= -1.00D+00 NBFU=   300
 Precomputing XC quadrature grid using
 IXCGrd= 4 IRadAn=           0 IRanWt=          -1 IRanGd=           0 AccXCQ= 0.00D+00.
 Generated NRdTot=       0 NPtTot=           0 NUsed=           0 NTot=          32
 NSgBfM=   299   299   299   299   299 MxSgAt=    31 MxSgA2=    31.
 Leave Link  302 at Thu Aug  6 21:11:45 2020, MaxMem=    33554432 cpu:         1.0
 (Enter /prod/apps/gaussian/g09d1/l303.exe)
 DipDrv:  MaxL=1.
 Leave Link  303 at Thu Aug  6 21:11:45 2020, MaxMem=    33554432 cpu:         0.0
 (Enter /prod/apps/gaussian/g09d1/l401.exe)
 ExpMin= 1.17D-01 ExpMax= 2.19D+04 ExpMxC= 3.30D+03 IAcc=1 IRadAn=         1 AccDes= 0.00D+00
 Harris functional with IExCor=  402 and IRadAn=       1 diagonalized for initial guess.
 HarFok:  IExCor=  402 AccDes= 0.00D+00 IRadAn=         1 IDoV= 1 UseB2=F ITyADJ=14
 ICtDFT=  3500011 ScaDFX=  1.000000  1.000000  1.000000  1.000000
 FoFCou: FMM=F IPFlag=           0 FMFlag=      100000 FMFlg1=           0
         NFxFlg=           0 DoJE=T BraDBF=F KetDBF=T FulRan=T
         wScrn=  0.000000 ICntrl=     500 IOpCl=  0 I1Cent=   200000004 NGrid=           0
         NMat0=    1 NMatS0=      1 NMatT0=    0 NMatD0=    1 NMtDS0=    0 NMtDT0=    0
 Petite list used in FoFCou.
 Harris En= -1211.17228084375    
 JPrj=0 DoOrth=F DoCkMO=F.
 Leave Link  401 at Thu Aug  6 21:11:47 2020, MaxMem=    33554432 cpu:         2.7
 (Enter /prod/apps/gaussian/g09d1/l502.exe)
 Closed shell SCF:
 Using DIIS extrapolation, IDIIS=  1040.
 Integral symmetry usage will be decided dynamically.
 IVT=      292611 IEndB=      292611 NGot=    33554432 MDV=    33368762
 LenX=    33368762 LenY=    33278321
 Requested convergence on RMS density matrix=1.00D-08 within 128 cycles.
 Requested convergence on MAX density matrix=1.00D-06.
 Requested convergence on             energy=1.00D-06.
 No special actions if energy rises.
 Fock matrices will be formed incrementally for  20 cycles.
 Integral accuracy reduced to 1.0D-05 until final iterations.

 Cycle   1  Pass 0  IDiag  1:
 FoFJK:  IHMeth= 1 ICntrl=       0 DoSepK=F KAlg= 0 I1Cent=   0 FoldK=F
 IRaf= 750000000 NMat=   1 IRICut=       1 DoRegI=T DoRafI=F ISym2E= 0.
 FoFCou: FMM=F IPFlag=           0 FMFlag=      100000 FMFlg1=           0
         NFxFlg=           0 DoJE=F BraDBF=F KetDBF=F FulRan=T
         wScrn=  0.000000 ICntrl=       0 IOpCl=  0 I1Cent=           0 NGrid=           0
         NMat0=    1 NMatS0=      1 NMatT0=    0 NMatD0=    1 NMtDS0=    0 NMtDT0=    0
 Symmetry not used in FoFCou.
 E= -1210.61266625754    
 DIIS: error= 2.80D-02 at cycle   1 NSaved=   1.
 NSaved= 1 IEnMin= 1 EnMin= -1210.61266625754     IErMin= 1 ErrMin= 2.80D-02
 ErrMax= 2.80D-02  0.00D+00 EMaxC= 1.00D-01 BMatC= 6.42D-01 BMatP= 6.42D-01
 IDIUse=3 WtCom= 7.20D-01 WtEn= 2.80D-01
 Coeff-Com:  0.100D+01
 Coeff-En:   0.100D+01
 Coeff:      0.100D+01
 Gap=     0.283 Goal=   None    Shift=    0.000
 GapD=    0.283 DampG=1.000 DampE=0.500 DampFc=0.5000 IDamp=-1.
 Damping current iteration by 5.00D-01
 RMSDP=6.69D-03 MaxDP=6.10D-01              OVMax= 2.58D-01

 Cycle   2  Pass 0  IDiag  1:
 RMSU=  3.34D-03    CP:  9.92D-01
 E= -1210.73146188202     Delta-E=       -0.118795624481 Rises=F Damp=T
 DIIS: error= 1.73D-02 at cycle   2 NSaved=   2.
 NSaved= 2 IEnMin= 2 EnMin= -1210.73146188202     IErMin= 2 ErrMin= 1.73D-02
 ErrMax= 1.73D-02  0.00D+00 EMaxC= 1.00D-01 BMatC= 1.15D-01 BMatP= 6.42D-01
 IDIUse=3 WtCom= 8.27D-01 WtEn= 1.73D-01
 Coeff-Com:  0.247D+00 0.753D+00
 Coeff-En:   0.391D+00 0.609D+00
 Coeff:      0.272D+00 0.728D+00
 Gap=     0.231 Goal=   None    Shift=    0.000
 RMSDP=1.96D-03 MaxDP=1.32D-01 DE=-1.19D-01 OVMax= 1.93D-01

 Cycle   3  Pass 0  IDiag  1:
 RMSU=  1.62D-03    CP:  9.82D-01  6.79D-01
 E= -1211.11519788673     Delta-E=       -0.383736004711 Rises=F Damp=F
 DIIS: error= 9.25D-03 at cycle   3 NSaved=   3.
 NSaved= 3 IEnMin= 3 EnMin= -1211.11519788673     IErMin= 3 ErrMin= 9.25D-03
 ErrMax= 9.25D-03  0.00D+00 EMaxC= 1.00D-01 BMatC= 5.70D-02 BMatP= 1.15D-01
 IDIUse=3 WtCom= 9.07D-01 WtEn= 9.25D-02
 Coeff-Com:  0.889D-01 0.413D+00 0.498D+00
 Coeff-En:   0.000D+00 0.000D+00 0.100D+01
 Coeff:      0.807D-01 0.375D+00 0.544D+00
 Gap=     0.192 Goal=   None    Shift=    0.000
 RMSDP=1.14D-03 MaxDP=3.95D-02 DE=-3.84D-01 OVMax= 5.18D-02

 Cycle   4  Pass 0  IDiag  1:
 RMSU=  7.41D-04    CP:  9.88D-01  7.54D-01  4.93D-01
 E= -1211.15742896163     Delta-E=       -0.042231074898 Rises=F Damp=F
 DIIS: error= 3.39D-03 at cycle   4 NSaved=   4.
 NSaved= 4 IEnMin= 4 EnMin= -1211.15742896163     IErMin= 4 ErrMin= 3.39D-03
 ErrMax= 3.39D-03  0.00D+00 EMaxC= 1.00D-01 BMatC= 1.07D-02 BMatP= 5.70D-02
 IDIUse=3 WtCom= 9.66D-01 WtEn= 3.39D-02
 Coeff-Com:  0.115D-01 0.926D-01 0.315D+00 0.581D+00
 Coeff-En:   0.000D+00 0.000D+00 0.165D+00 0.835D+00
 Coeff:      0.111D-01 0.895D-01 0.310D+00 0.589D+00
 Gap=     0.190 Goal=   None    Shift=    0.000
 RMSDP=4.15D-04 MaxDP=1.56D-02 DE=-4.22D-02 OVMax= 2.51D-02

 Cycle   5  Pass 0  IDiag  1:
 RMSU=  2.13D-04    CP:  9.87D-01  7.39D-01  6.13D-01  6.03D-01
 E= -1211.16600607111     Delta-E=       -0.008577109479 Rises=F Damp=F
 DIIS: error= 1.04D-03 at cycle   5 NSaved=   5.
 NSaved= 5 IEnMin= 5 EnMin= -1211.16600607111     IErMin= 5 ErrMin= 1.04D-03
 ErrMax= 1.04D-03  0.00D+00 EMaxC= 1.00D-01 BMatC= 9.26D-04 BMatP= 1.07D-02
 IDIUse=3 WtCom= 9.90D-01 WtEn= 1.04D-02
 Coeff-Com: -0.351D-03 0.220D-01 0.132D+00 0.330D+00 0.516D+00
 Coeff-En:   0.000D+00 0.000D+00 0.000D+00 0.917D-02 0.991D+00
 Coeff:     -0.348D-03 0.218D-01 0.131D+00 0.327D+00 0.521D+00
 Gap=     0.191 Goal=   None    Shift=    0.000
 RMSDP=1.36D-04 MaxDP=5.84D-03 DE=-8.58D-03 OVMax= 1.31D-02

 Cycle   6  Pass 0  IDiag  1:
 RMSU=  6.57D-05    CP:  9.87D-01  7.42D-01  6.17D-01  6.69D-01  4.96D-01
 E= -1211.16674116045     Delta-E=       -0.000735089346 Rises=F Damp=F
 DIIS: error= 4.38D-04 at cycle   6 NSaved=   6.
 NSaved= 6 IEnMin= 6 EnMin= -1211.16674116045     IErMin= 6 ErrMin= 4.38D-04
 ErrMax= 4.38D-04  0.00D+00 EMaxC= 1.00D-01 BMatC= 1.36D-04 BMatP= 9.26D-04
 IDIUse=3 WtCom= 9.96D-01 WtEn= 4.38D-03
 Coeff-Com: -0.141D-02 0.477D-02 0.514D-01 0.148D+00 0.328D+00 0.469D+00
 Coeff-En:   0.000D+00 0.000D+00 0.000D+00 0.000D+00 0.101D+00 0.899D+00
 Coeff:     -0.140D-02 0.475D-02 0.512D-01 0.147D+00 0.327D+00 0.471D+00
 Gap=     0.191 Goal=   None    Shift=    0.000
 RMSDP=4.77D-05 MaxDP=2.50D-03 DE=-7.35D-04 OVMax= 5.24D-03

 Cycle   7  Pass 0  IDiag  1:
 RMSU=  2.94D-05    CP:  9.87D-01  7.42D-01  6.17D-01  6.64D-01  5.92D-01
                    CP:  5.27D-01
 E= -1211.16685351512     Delta-E=       -0.000112354665 Rises=F Damp=F
 DIIS: error= 1.31D-04 at cycle   7 NSaved=   7.
 NSaved= 7 IEnMin= 7 EnMin= -1211.16685351512     IErMin= 7 ErrMin= 1.31D-04
 ErrMax= 1.31D-04  0.00D+00 EMaxC= 1.00D-01 BMatC= 1.47D-05 BMatP= 1.36D-04
 IDIUse=3 WtCom= 9.99D-01 WtEn= 1.31D-03
 Coeff-Com: -0.840D-03 0.391D-03 0.157D-01 0.508D-01 0.141D+00 0.300D+00
 Coeff-Com:  0.492D+00
 Coeff-En:   0.000D+00 0.000D+00 0.000D+00 0.000D+00 0.000D+00 0.831D-01
 Coeff-En:   0.917D+00
 Coeff:     -0.839D-03 0.391D-03 0.156D-01 0.507D-01 0.141D+00 0.300D+00
 Coeff:      0.493D+00
 Gap=     0.191 Goal=   None    Shift=    0.000
 RMSDP=1.40D-05 MaxDP=6.30D-04 DE=-1.12D-04 OVMax= 1.32D-03

 Cycle   8  Pass 0  IDiag  1:
 RMSU=  6.30D-06    CP:  9.87D-01  7.42D-01  6.17D-01  6.66D-01  5.83D-01
                    CP:  5.87D-01  6.09D-01
 E= -1211.16686684060     Delta-E=       -0.000013325479 Rises=F Damp=F
 DIIS: error= 2.71D-05 at cycle   8 NSaved=   8.
 NSaved= 8 IEnMin= 8 EnMin= -1211.16686684060     IErMin= 8 ErrMin= 2.71D-05
 ErrMax= 2.71D-05  0.00D+00 EMaxC= 1.00D-01 BMatC= 5.77D-07 BMatP= 1.47D-05
 IDIUse=1 WtCom= 1.00D+00 WtEn= 0.00D+00
 Coeff-Com: -0.313D-03-0.267D-03 0.348D-02 0.129D-01 0.447D-01 0.114D+00
 Coeff-Com:  0.242D+00 0.583D+00
 Coeff:     -0.313D-03-0.267D-03 0.348D-02 0.129D-01 0.447D-01 0.114D+00
 Coeff:      0.242D+00 0.583D+00
 Gap=     0.191 Goal=   None    Shift=    0.000
 RMSDP=3.29D-06 MaxDP=1.37D-04 DE=-1.33D-05 OVMax= 2.24D-04

 Initial convergence to 1.0D-05 achieved.  Increase integral accuracy.
 Cycle   9  Pass 1  IDiag  1:
 E= -1211.16677098724     Delta-E=        0.000095853353 Rises=F Damp=F
 DIIS: error= 3.53D-05 at cycle   1 NSaved=   1.
 NSaved= 1 IEnMin= 1 EnMin= -1211.16677098724     IErMin= 1 ErrMin= 3.53D-05
 ErrMax= 3.53D-05  0.00D+00 EMaxC= 1.00D-01 BMatC= 4.77D-07 BMatP= 4.77D-07
 IDIUse=1 WtCom= 1.00D+00 WtEn= 0.00D+00
 Coeff-Com:  0.100D+01
 Coeff:      0.100D+01
 Gap=     0.191 Goal=   None    Shift=    0.000
 RMSDP=3.29D-06 MaxDP=1.37D-04 DE= 9.59D-05 OVMax= 1.85D-04

 Cycle  10  Pass 1  IDiag  1:
 RMSU=  2.62D-05    CP:  1.00D+00
 E= -1211.16677125694     Delta-E=       -0.000000269699 Rises=F Damp=F
 DIIS: error= 2.41D-05 at cycle   2 NSaved=   2.
 NSaved= 2 IEnMin= 2 EnMin= -1211.16677125694     IErMin= 2 ErrMin= 2.41D-05
 ErrMax= 2.41D-05  0.00D+00 EMaxC= 1.00D-01 BMatC= 2.76D-07 BMatP= 4.77D-07
 IDIUse=1 WtCom= 1.00D+00 WtEn= 0.00D+00
 Coeff-Com:  0.402D+00 0.598D+00
 Coeff:      0.402D+00 0.598D+00
 Gap=     0.191 Goal=   None    Shift=    0.000
 RMSDP=3.10D-06 MaxDP=1.23D-04 DE=-2.70D-07 OVMax= 2.10D-04

 Cycle  11  Pass 1  IDiag  1:
 RMSU=  3.10D-06    CP:  1.00D+00  9.99D-01
 E= -1211.16677133062     Delta-E=       -0.000000073677 Rises=F Damp=F
 DIIS: error= 2.12D-05 at cycle   3 NSaved=   3.
 NSaved= 3 IEnMin= 3 EnMin= -1211.16677133062     IErMin= 3 ErrMin= 2.12D-05
 ErrMax= 2.12D-05  0.00D+00 EMaxC= 1.00D-01 BMatC= 1.95D-07 BMatP= 2.76D-07
 IDIUse=1 WtCom= 1.00D+00 WtEn= 0.00D+00
 Coeff-Com:  0.150D-01 0.453D+00 0.532D+00
 Coeff:      0.150D-01 0.453D+00 0.532D+00
 Gap=     0.191 Goal=   None    Shift=    0.000
 RMSDP=1.65D-06 MaxDP=6.74D-05 DE=-7.37D-08 OVMax= 1.04D-04

 Cycle  12  Pass 1  IDiag  1:
 RMSU=  6.15D-07    CP:  1.00D+00  1.01D+00  5.14D-01
 E= -1211.16677150584     Delta-E=       -0.000000175218 Rises=F Damp=F
 DIIS: error= 5.15D-06 at cycle   4 NSaved=   4.
 NSaved= 4 IEnMin= 4 EnMin= -1211.16677150584     IErMin= 4 ErrMin= 5.15D-06
 ErrMax= 5.15D-06  0.00D+00 EMaxC= 1.00D-01 BMatC= 1.28D-08 BMatP= 1.95D-07
 IDIUse=1 WtCom= 1.00D+00 WtEn= 0.00D+00
 Coeff-Com: -0.709D-02 0.271D+00 0.349D+00 0.387D+00
 Coeff:     -0.709D-02 0.271D+00 0.349D+00 0.387D+00
 Gap=     0.191 Goal=   None    Shift=    0.000
 RMSDP=3.76D-07 MaxDP=2.20D-05 DE=-1.75D-07 OVMax= 2.31D-05

 Cycle  13  Pass 1  IDiag  1:
 RMSU=  1.68D-07    CP:  1.00D+00  1.01D+00  5.44D-01  4.75D-01
 E= -1211.16677151683     Delta-E=       -0.000000010989 Rises=F Damp=F
 DIIS: error= 5.72D-07 at cycle   5 NSaved=   5.
 NSaved= 5 IEnMin= 5 EnMin= -1211.16677151683     IErMin= 5 ErrMin= 5.72D-07
 ErrMax= 5.72D-07  0.00D+00 EMaxC= 1.00D-01 BMatC= 2.84D-10 BMatP= 1.28D-08
 IDIUse=1 WtCom= 1.00D+00 WtEn= 0.00D+00
 Coeff-Com: -0.463D-02 0.126D+00 0.167D+00 0.211D+00 0.500D+00
 Coeff:     -0.463D-02 0.126D+00 0.167D+00 0.211D+00 0.500D+00
 Gap=     0.191 Goal=   None    Shift=    0.000
 RMSDP=7.78D-08 MaxDP=4.17D-06 DE=-1.10D-08 OVMax= 6.30D-06

 Cycle  14  Pass 1  IDiag  1:
 RMSU=  6.22D-08    CP:  1.00D+00  1.01D+00  5.47D-01  4.86D-01  7.31D-01
 E= -1211.16677151707     Delta-E=       -0.000000000246 Rises=F Damp=F
 DIIS: error= 1.90D-07 at cycle   6 NSaved=   6.
 NSaved= 6 IEnMin= 6 EnMin= -1211.16677151707     IErMin= 6 ErrMin= 1.90D-07
 ErrMax= 1.90D-07  0.00D+00 EMaxC= 1.00D-01 BMatC= 3.11D-11 BMatP= 2.84D-10
 IDIUse=1 WtCom= 1.00D+00 WtEn= 0.00D+00
 Coeff-Com: -0.162D-02 0.359D-01 0.488D-01 0.682D-01 0.280D+00 0.569D+00
 Coeff:     -0.162D-02 0.359D-01 0.488D-01 0.682D-01 0.280D+00 0.569D+00
 Gap=     0.191 Goal=   None    Shift=    0.000
 RMSDP=2.30D-08 MaxDP=1.03D-06 DE=-2.46D-10 OVMax= 1.66D-06

 Cycle  15  Pass 1  IDiag  1:
 RMSU=  1.74D-08    CP:  1.00D+00  1.01D+00  5.47D-01  4.83D-01  7.88D-01
                    CP:  8.16D-01
 E= -1211.16677151711     Delta-E=       -0.000000000036 Rises=F Damp=F
 DIIS: error= 1.09D-07 at cycle   7 NSaved=   7.
 NSaved= 7 IEnMin= 7 EnMin= -1211.16677151711     IErMin= 7 ErrMin= 1.09D-07
 ErrMax= 1.09D-07  0.00D+00 EMaxC= 1.00D-01 BMatC= 5.13D-12 BMatP= 3.11D-11
 IDIUse=1 WtCom= 1.00D+00 WtEn= 0.00D+00
 Coeff-Com: -0.293D-03 0.262D-02 0.439D-02 0.940D-02 0.919D-01 0.337D+00
 Coeff-Com:  0.555D+00
 Coeff:     -0.293D-03 0.262D-02 0.439D-02 0.940D-02 0.919D-01 0.337D+00
 Coeff:      0.555D+00
 Gap=     0.191 Goal=   None    Shift=    0.000
 RMSDP=9.26D-09 MaxDP=4.77D-07 DE=-3.59D-11 OVMax= 5.13D-07

 SCF Done:  E(RB3LYP) =  -1211.16677152     A.U. after   15 cycles
            NFock= 15  Conv=0.93D-08     -V/T= 2.0075
 KE= 1.202120147589D+03 PE=-5.778975340962D+03 EE= 1.894324511489D+03
 Leave Link  502 at Thu Aug  6 21:15:13 2020, MaxMem=    33554432 cpu:       205.3
 (Enter /prod/apps/gaussian/g09d1/l601.exe)
 Copying SCF densities to generalized density rwf, IOpCl= 0 IROHF=0.

 **********************************************************************

            Population analysis using the SCF density.

 **********************************************************************

 Orbital symmetries:
       Occupied  (A) (A) (A) (A) (A) (A) (A) (A) (A) (A) (A) (A)
                 (A) (A) (A) (A) (A) (A) (A) (A) (A) (A) (A) (A)
                 (A) (A) (A) (A) (A) (A) (A) (A) (A) (A) (A) (A)
                 (A) (A) (A) (A) (A) (A) (A) (A) (A) (A) (A) (A)
                 (A) (A) (A) (A) (A) (A) (A) (A) (A) (A) (A) (A)
                 (A) (A) (A) (A) (A) (A) (A) (A) (A) (A)
       Virtual   (A) (A) (A) (A) (A) (A) (A) (A) (A) (A) (A) (A)
                 (A) (A) (A) (A) (A) (A) (A) (A) (A) (A) (A) (A)
                 (A) (A) (A) (A) (A) (A) (A) (A) (A) (A) (A) (A)
                 (A) (A) (A) (A) (A) (A) (A) (A) (A) (A) (A) (A)
                 (A) (A) (A) (A) (A) (A) (A) (A) (A) (A) (A) (A)
                 (A) (A) (A) (A) (A) (A) (A) (A) (A) (A) (A) (A)
                 (A) (A) (A) (A) (A) (A) (A) (A) (A) (A) (A) (A)
                 (A) (A) (A) (A) (A) (A) (A) (A) (A) (A) (A) (A)
                 (A) (A) (A) (A) (A) (A) (A) (A) (A) (A) (A) (A)
                 (A) (A) (A) (A) (A) (A) (A) (A) (A) (A) (A) (A)
                 (A) (A) (A) (A) (A) (A) (A) (A) (A) (A) (A) (A)
                 (A) (A) (A) (A) (A) (A) (A) (A) (A) (A) (A) (A)
                 (A) (A) (A) (A) (A) (A) (A) (A) (A) (A) (A) (A)
                 (A) (A) (A) (A) (A) (A) (A) (A) (A) (A) (A) (A)
                 (A) (A) (A) (A) (A) (A) (A) (A) (A) (A) (A) (A)
                 (A) (A) (A) (A) (A) (A) (A) (A) (A) (A) (A) (A)
                 (A) (A) (A) (A) (A) (A) (A) (A) (A) (A) (A) (A)
                 (A) (A) (A) (A) (A) (A) (A) (A) (A) (A) (A) (A)
                 (A) (A) (A) (A) (A) (A) (A) (A) (A) (A) (A) (A)
                 (A) (A)
 The electronic state is 1-A.
 Alpha  occ. eigenvalues --  -89.13424 -19.15065 -19.14986 -14.44233 -14.39680
 Alpha  occ. eigenvalues --  -14.38742 -14.38487 -14.36205 -10.26151 -10.25556
 Alpha  occ. eigenvalues --  -10.24061 -10.23150 -10.23125 -10.21430 -10.21073
 Alpha  occ. eigenvalues --  -10.20838 -10.20748 -10.20644  -8.15710  -6.12200
 Alpha  occ. eigenvalues --   -6.12135  -6.12076  -1.12731  -1.10829  -1.00798
 Alpha  occ. eigenvalues --   -0.96126  -0.94853  -0.92642  -0.86520  -0.80843
 Alpha  occ. eigenvalues --   -0.76905  -0.76495  -0.73733  -0.71989  -0.66841
 Alpha  occ. eigenvalues --   -0.65459  -0.61935  -0.60630  -0.59464  -0.57169
 Alpha  occ. eigenvalues --   -0.54445  -0.52320  -0.51207  -0.50129  -0.49062
 Alpha  occ. eigenvalues --   -0.48741  -0.48167  -0.46950  -0.45834  -0.45031
 Alpha  occ. eigenvalues --   -0.44258  -0.44064  -0.42605  -0.42062  -0.39897
 Alpha  occ. eigenvalues --   -0.39260  -0.38074  -0.36994  -0.36619  -0.34924
 Alpha  occ. eigenvalues --   -0.34475  -0.33836  -0.32240  -0.31395  -0.30311
 Alpha  occ. eigenvalues --   -0.28113  -0.27042  -0.26856  -0.26032  -0.23563
 Alpha virt. eigenvalues --   -0.04476  -0.02024   0.01801   0.02867   0.05895
 Alpha virt. eigenvalues --    0.06362   0.07784   0.08684   0.09444   0.10408
 Alpha virt. eigenvalues --    0.11685   0.12344   0.13289   0.13914   0.14668
 Alpha virt. eigenvalues --    0.14822   0.15132   0.15739   0.17280   0.17710
 Alpha virt. eigenvalues --    0.17816   0.18013   0.18131   0.19416   0.21586
 Alpha virt. eigenvalues --    0.21695   0.22761   0.26424   0.28617   0.29984
 Alpha virt. eigenvalues --    0.30826   0.33077   0.34229   0.35422   0.37035
 Alpha virt. eigenvalues --    0.38625   0.42055   0.43366   0.44652   0.47097
 Alpha virt. eigenvalues --    0.48322   0.48696   0.49198   0.50375   0.52171
 Alpha virt. eigenvalues --    0.53181   0.54585   0.56151   0.56598   0.57225
 Alpha virt. eigenvalues --    0.57427   0.57950   0.58412   0.58912   0.59809
 Alpha virt. eigenvalues --    0.60283   0.60459   0.61893   0.62586   0.63857
 Alpha virt. eigenvalues --    0.64461   0.65907   0.68063   0.68741   0.69152
 Alpha virt. eigenvalues --    0.71106   0.72033   0.73883   0.74786   0.76330
 Alpha virt. eigenvalues --    0.77154   0.77938   0.79250   0.79911   0.81370
 Alpha virt. eigenvalues --    0.81533   0.82674   0.82990   0.83301   0.84909
 Alpha virt. eigenvalues --    0.85377   0.86543   0.87017   0.87439   0.88676
 Alpha virt. eigenvalues --    0.89214   0.90089   0.90339   0.92594   0.92797
 Alpha virt. eigenvalues --    0.93916   0.94283   0.95068   0.96839   0.97098
 Alpha virt. eigenvalues --    0.97699   0.99405   1.01687   1.01893   1.04289
 Alpha virt. eigenvalues --    1.05673   1.06351   1.07407   1.08943   1.12104
 Alpha virt. eigenvalues --    1.12763   1.14703   1.15723   1.16292   1.16662
 Alpha virt. eigenvalues --    1.18781   1.19892   1.21457   1.24413   1.24836
 Alpha virt. eigenvalues --    1.26906   1.30148   1.34694   1.34968   1.36428
 Alpha virt. eigenvalues --    1.37669   1.39780   1.40778   1.41565   1.43468
 Alpha virt. eigenvalues --    1.43863   1.45773   1.46352   1.47395   1.49187
 Alpha virt. eigenvalues --    1.53350   1.54058   1.55835   1.56398   1.59998
 Alpha virt. eigenvalues --    1.62018   1.67231   1.68619   1.71292   1.74436
 Alpha virt. eigenvalues --    1.78728   1.79212   1.79783   1.80674   1.80863
 Alpha virt. eigenvalues --    1.82337   1.83832   1.84679   1.86637   1.87314
 Alpha virt. eigenvalues --    1.89831   1.91711   1.93551   1.93939   1.95972
 Alpha virt. eigenvalues --    1.96439   1.97062   1.98197   2.01271   2.04649
 Alpha virt. eigenvalues --    2.05190   2.06997   2.07444   2.08664   2.10398
 Alpha virt. eigenvalues --    2.11481   2.12513   2.13769   2.14609   2.15313
 Alpha virt. eigenvalues --    2.16415   2.19188   2.19471   2.20193   2.23071
 Alpha virt. eigenvalues --    2.24104   2.25301   2.28587   2.29069   2.30751
 Alpha virt. eigenvalues --    2.32160   2.33027   2.35920   2.37055   2.41684
 Alpha virt. eigenvalues --    2.42411   2.47011   2.49554   2.50326   2.54205
 Alpha virt. eigenvalues --    2.55375   2.57529   2.58491   2.61068   2.62825
 Alpha virt. eigenvalues --    2.64338   2.66776   2.69031   2.70450   2.71421
 Alpha virt. eigenvalues --    2.73774   2.75465   2.77015   2.79903   2.83214
 Alpha virt. eigenvalues --    2.85785   2.88224   3.00208   3.07373   3.13817
 Alpha virt. eigenvalues --    3.26178   3.41822   3.62137   3.80494   3.93068
 Alpha virt. eigenvalues --    3.96133   4.01620   4.03619   4.07195   4.09888
 Alpha virt. eigenvalues --    4.10460   4.13496   4.16364   4.23284   4.24779
 Alpha virt. eigenvalues --    4.31030   4.32743   4.38722   4.47515   4.70583
          Condensed to atoms (all electrons):
               1          2          3          4          5          6
     1  O    8.211050   0.444022  -0.056723   0.008019  -0.000267   0.000005
     2  S    0.444022  13.612215   0.119521   0.002691  -0.002724   0.000146
     3  N   -0.056723   0.119521   7.420947   0.235059  -0.067942   0.006582
     4  C    0.008019   0.002691   0.235059   4.638885   0.382599  -0.072542
     5  N   -0.000267  -0.002724  -0.067942   0.382599   6.846655   0.305084
     6  N    0.000005   0.000146   0.006582  -0.072542   0.305084   6.742552
     7  C   -0.000547  -0.004624  -0.064335   0.484195  -0.065907  -0.098504
     8  N   -0.000073  -0.000303   0.002808  -0.045803  -0.087439   0.208379
     9  C    0.000001  -0.000019  -0.000092   0.006599   0.007349  -0.045823
    10  C   -0.000001  -0.000002   0.000003   0.000878  -0.000355   0.003203
    11  C    0.000000   0.000000   0.000000  -0.000009   0.000002  -0.000068
    12  C    0.000000   0.000000   0.000000   0.000000   0.000000   0.000017
    13  C    0.000000   0.000000   0.000000   0.000006  -0.000005   0.000403
    14  C    0.000000   0.000000   0.000000  -0.000468   0.000313  -0.000430
    15  N   -0.053173   0.126325  -0.045469  -0.007919   0.000075   0.000001
    16  C   -0.003807  -0.029255   0.002312   0.000088   0.000001   0.000000
    17  C    0.001673  -0.007960  -0.009574   0.000283  -0.000008   0.000000
    18  O   -0.043951   0.447165  -0.054644   0.001279   0.000003   0.000000
    19  H   -0.000218  -0.016395   0.298660  -0.027444   0.006436  -0.000139
    20  H   -0.000119   0.000883  -0.000873  -0.026717   0.004239   0.003393
    21  H    0.000000  -0.000001  -0.000001   0.000080  -0.000004  -0.000093
    22  H    0.000000   0.000000   0.000000   0.000000   0.000000   0.000001
    23  H    0.000000   0.000000   0.000000   0.000000   0.000000   0.000000
    24  H    0.000000   0.000000   0.000000   0.000000   0.000000  -0.000008
    25  H    0.000000   0.000000   0.000000   0.000046  -0.000371   0.017374
    26  H    0.012258  -0.004306   0.000120   0.000012   0.000000   0.000000
    27  H    0.000282   0.001955  -0.000080   0.000009   0.000000   0.000000
    28  H   -0.000482  -0.002521  -0.000078  -0.000009   0.000000   0.000000
    29  H    0.000029  -0.003673   0.013016   0.000006  -0.000003   0.000000
    30  H   -0.000038  -0.006973  -0.000151  -0.000025   0.000000   0.000000
    31  H   -0.000053   0.003002  -0.000024  -0.000015   0.000000   0.000000
               7          8          9         10         11         12
     1  O   -0.000547  -0.000073   0.000001  -0.000001   0.000000   0.000000
     2  S   -0.004624  -0.000303  -0.000019  -0.000002   0.000000   0.000000
     3  N   -0.064335   0.002808  -0.000092   0.000003   0.000000   0.000000
     4  C    0.484195  -0.045803   0.006599   0.000878  -0.000009   0.000000
     5  N   -0.065907  -0.087439   0.007349  -0.000355   0.000002   0.000000
     6  N   -0.098504   0.208379  -0.045823   0.003203  -0.000068   0.000017
     7  C    5.057584   0.317283  -0.039061  -0.007571  -0.000002   0.000017
     8  N    0.317283   6.930326   0.203237  -0.051187   0.004673   0.000392
     9  C   -0.039061   0.203237   4.607031   0.528633  -0.006711  -0.038142
    10  C   -0.007571  -0.051187   0.528633   4.996730   0.528935  -0.039211
    11  C   -0.000002   0.004673  -0.006711   0.528935   4.846016   0.549910
    12  C    0.000017   0.000392  -0.038142  -0.039211   0.549910   4.849754
    13  C   -0.000081   0.004578  -0.009665  -0.042513  -0.022550   0.543816
    14  C    0.007817  -0.056932   0.519360  -0.074620  -0.041812  -0.037102
    15  N    0.005367   0.000148   0.000001   0.000001   0.000000   0.000000
    16  C   -0.000068  -0.000002   0.000000  -0.000001   0.000000   0.000000
    17  C    0.000094  -0.000004   0.000000   0.000000   0.000000   0.000000
    18  O   -0.000021   0.000000   0.000000   0.000000   0.000000   0.000000
    19  H    0.005557   0.000104  -0.000002   0.000000   0.000000   0.000000
    20  H    0.357882  -0.036368  -0.001825   0.002040   0.000188  -0.000001
    21  H    0.006442  -0.010040  -0.039799   0.347784  -0.038705   0.004485
    22  H   -0.000004  -0.000114   0.003538  -0.039627   0.359589  -0.040469
    23  H    0.000000   0.000004   0.000520   0.005027  -0.042630   0.362357
    24  H    0.000001  -0.000109   0.003469   0.000820   0.004599  -0.041587
    25  H    0.000267  -0.014354  -0.033275   0.005742   0.000153   0.004343
    26  H   -0.000032  -0.000001   0.000000  -0.000001   0.000000   0.000000
    27  H   -0.000003  -0.000001   0.000000   0.000000   0.000000   0.000000
    28  H    0.000010   0.000000   0.000000   0.000000   0.000000   0.000000
    29  H   -0.000095   0.000000   0.000000   0.000000   0.000000   0.000000
    30  H    0.000020   0.000000   0.000000   0.000000   0.000000   0.000000
    31  H   -0.000024  -0.000001   0.000000   0.000000   0.000000   0.000000
              13         14         15         16         17         18
     1  O    0.000000   0.000000  -0.053173  -0.003807   0.001673  -0.043951
     2  S    0.000000   0.000000   0.126325  -0.029255  -0.007960   0.447165
     3  N    0.000000   0.000000  -0.045469   0.002312  -0.009574  -0.054644
     4  C    0.000006  -0.000468  -0.007919   0.000088   0.000283   0.001279
     5  N   -0.000005   0.000313   0.000075   0.000001  -0.000008   0.000003
     6  N    0.000403  -0.000430   0.000001   0.000000   0.000000   0.000000
     7  C   -0.000081   0.007817   0.005367  -0.000068   0.000094  -0.000021
     8  N    0.004578  -0.056932   0.000148  -0.000002  -0.000004   0.000000
     9  C   -0.009665   0.519360   0.000001   0.000000   0.000000   0.000000
    10  C   -0.042513  -0.074620   0.000001  -0.000001   0.000000   0.000000
    11  C   -0.022550  -0.041812   0.000000   0.000000   0.000000   0.000000
    12  C    0.543816  -0.037102   0.000000   0.000000   0.000000   0.000000
    13  C    4.866675   0.517601   0.000000   0.000000   0.000000   0.000000
    14  C    0.517601   4.985104   0.000000   0.000000   0.000000   0.000000
    15  N    0.000000   0.000000   7.220115   0.294039   0.268934  -0.054745
    16  C    0.000000   0.000000   0.294039   4.990296  -0.050214  -0.002125
    17  C    0.000000   0.000000   0.268934  -0.050214   4.992442   0.002953
    18  O    0.000000   0.000000  -0.054745  -0.002125   0.002953   8.221856
    19  H    0.000000   0.000000   0.002458  -0.000051  -0.000119   0.004197
    20  H   -0.000005  -0.000110   0.006099   0.000080  -0.000101   0.000005
    21  H    0.000271   0.005758  -0.000011   0.000005   0.000000   0.000000
    22  H    0.004581   0.000789   0.000000   0.000000   0.000000   0.000000
    23  H   -0.042528   0.004720   0.000000   0.000000   0.000000   0.000000
    24  H    0.360552  -0.038461   0.000000   0.000000   0.000000   0.000000
    25  H   -0.040304   0.353623   0.000000   0.000000   0.000000   0.000000
    26  H    0.000000   0.000000  -0.030616   0.377605   0.004526  -0.000105
    27  H    0.000000   0.000000  -0.040399   0.376839  -0.002895  -0.000105
    28  H    0.000000   0.000000  -0.047571   0.372898  -0.002080   0.001935
    29  H    0.000000   0.000000  -0.032229   0.004609   0.377300  -0.001743
    30  H    0.000000   0.000000  -0.045472  -0.001918   0.375322   0.005096
    31  H    0.000000   0.000000  -0.035645  -0.003920   0.372080   0.000069
              19         20         21         22         23         24
     1  O   -0.000218  -0.000119   0.000000   0.000000   0.000000   0.000000
     2  S   -0.016395   0.000883  -0.000001   0.000000   0.000000   0.000000
     3  N    0.298660  -0.000873  -0.000001   0.000000   0.000000   0.000000
     4  C   -0.027444  -0.026717   0.000080   0.000000   0.000000   0.000000
     5  N    0.006436   0.004239  -0.000004   0.000000   0.000000   0.000000
     6  N   -0.000139   0.003393  -0.000093   0.000001   0.000000  -0.000008
     7  C    0.005557   0.357882   0.006442  -0.000004   0.000000   0.000001
     8  N    0.000104  -0.036368  -0.010040  -0.000114   0.000004  -0.000109
     9  C   -0.000002  -0.001825  -0.039799   0.003538   0.000520   0.003469
    10  C    0.000000   0.002040   0.347784  -0.039627   0.005027   0.000820
    11  C    0.000000   0.000188  -0.038705   0.359589  -0.042630   0.004599
    12  C    0.000000  -0.000001   0.004485  -0.040469   0.362357  -0.041587
    13  C    0.000000  -0.000005   0.000271   0.004581  -0.042528   0.360552
    14  C    0.000000  -0.000110   0.005758   0.000789   0.004720  -0.038461
    15  N    0.002458   0.006099  -0.000011   0.000000   0.000000   0.000000
    16  C   -0.000051   0.000080   0.000005   0.000000   0.000000   0.000000
    17  C   -0.000119  -0.000101   0.000000   0.000000   0.000000   0.000000
    18  O    0.004197   0.000005   0.000000   0.000000   0.000000   0.000000
    19  H    0.350328  -0.000089   0.000000   0.000000   0.000000   0.000000
    20  H   -0.000089   0.500218   0.002054  -0.000002   0.000000   0.000000
    21  H    0.000000   0.002054   0.582305  -0.005559  -0.000161   0.000015
    22  H    0.000000  -0.000002  -0.005559   0.581206  -0.005387  -0.000181
    23  H    0.000000   0.000000  -0.000161  -0.005387   0.584125  -0.005415
    24  H    0.000000   0.000000   0.000015  -0.000181  -0.005415   0.576304
    25  H    0.000000  -0.000010  -0.000141   0.000013  -0.000138  -0.005055
    26  H   -0.000004  -0.000040   0.000003   0.000000   0.000000   0.000000
    27  H    0.000001  -0.000128   0.000002   0.000000   0.000000   0.000000
    28  H    0.000006   0.000019   0.000000   0.000000   0.000000   0.000000
    29  H   -0.000387  -0.000035   0.000000   0.000000   0.000000   0.000000
    30  H    0.000056   0.000021   0.000000   0.000000   0.000000   0.000000
    31  H    0.000000  -0.000074   0.000000   0.000000   0.000000   0.000000
              25         26         27         28         29         30
     1  O    0.000000   0.012258   0.000282  -0.000482   0.000029  -0.000038
     2  S    0.000000  -0.004306   0.001955  -0.002521  -0.003673  -0.006973
     3  N    0.000000   0.000120  -0.000080  -0.000078   0.013016  -0.000151
     4  C    0.000046   0.000012   0.000009  -0.000009   0.000006  -0.000025
     5  N   -0.000371   0.000000   0.000000   0.000000  -0.000003   0.000000
     6  N    0.017374   0.000000   0.000000   0.000000   0.000000   0.000000
     7  C    0.000267  -0.000032  -0.000003   0.000010  -0.000095   0.000020
     8  N   -0.014354  -0.000001  -0.000001   0.000000   0.000000   0.000000
     9  C   -0.033275   0.000000   0.000000   0.000000   0.000000   0.000000
    10  C    0.005742  -0.000001   0.000000   0.000000   0.000000   0.000000
    11  C    0.000153   0.000000   0.000000   0.000000   0.000000   0.000000
    12  C    0.004343   0.000000   0.000000   0.000000   0.000000   0.000000
    13  C   -0.040304   0.000000   0.000000   0.000000   0.000000   0.000000
    14  C    0.353623   0.000000   0.000000   0.000000   0.000000   0.000000
    15  N    0.000000  -0.030616  -0.040399  -0.047571  -0.032229  -0.045472
    16  C    0.000000   0.377605   0.376839   0.372898   0.004609  -0.001918
    17  C    0.000000   0.004526  -0.002895  -0.002080   0.377300   0.375322
    18  O    0.000000  -0.000105  -0.000105   0.001935  -0.001743   0.005096
    19  H    0.000000  -0.000004   0.000001   0.000006  -0.000387   0.000056
    20  H   -0.000010  -0.000040  -0.000128   0.000019  -0.000035   0.000021
    21  H   -0.000141   0.000003   0.000002   0.000000   0.000000   0.000000
    22  H    0.000013   0.000000   0.000000   0.000000   0.000000   0.000000
    23  H   -0.000138   0.000000   0.000000   0.000000   0.000000   0.000000
    24  H   -0.005055   0.000000   0.000000   0.000000   0.000000   0.000000
    25  H    0.532336   0.000000   0.000000   0.000000   0.000000   0.000000
    26  H    0.000000   0.482106  -0.020975  -0.029352  -0.000186  -0.000177
    27  H    0.000000  -0.020975   0.560899  -0.042413   0.000061  -0.001808
    28  H    0.000000  -0.029352  -0.042413   0.577258  -0.000200   0.008447
    29  H    0.000000  -0.000186   0.000061  -0.000200   0.501197  -0.029842
    30  H    0.000000  -0.000177  -0.001808   0.008447  -0.029842   0.561912
    31  H    0.000000  -0.000005   0.005386  -0.001450  -0.023375  -0.037413
              31
     1  O   -0.000053
     2  S    0.003002
     3  N   -0.000024
     4  C   -0.000015
     5  N    0.000000
     6  N    0.000000
     7  C   -0.000024
     8  N   -0.000001
     9  C    0.000000
    10  C    0.000000
    11  C    0.000000
    12  C    0.000000
    13  C    0.000000
    14  C    0.000000
    15  N   -0.035645
    16  C   -0.003920
    17  C    0.372080
    18  O    0.000069
    19  H    0.000000
    20  H   -0.000074
    21  H    0.000000
    22  H    0.000000
    23  H    0.000000
    24  H    0.000000
    25  H    0.000000
    26  H   -0.000005
    27  H    0.005386
    28  H   -0.001450
    29  H   -0.023375
    30  H   -0.037413
    31  H    0.558070
 Mulliken charges:
               1
     1  O   -0.517885
     2  S    1.320827
     3  N   -0.799040
     4  C    0.420216
     5  N   -0.327732
     6  N   -0.069532
     7  C    0.038340
     8  N   -0.369203
     9  C    0.334675
    10  C   -0.164707
    11  C   -0.141577
    12  C   -0.118578
    13  C   -0.140833
    14  C   -0.145150
    15  N   -0.530314
    16  C   -0.327413
    17  C   -0.322653
    18  O   -0.527120
    19  H    0.377044
    20  H    0.189376
    21  H    0.145314
    22  H    0.141625
    23  H    0.139506
    24  H    0.145056
    25  H    0.179753
    26  H    0.209168
    27  H    0.163373
    28  H    0.165583
    29  H    0.195547
    30  H    0.172942
    31  H    0.163392
 Sum of Mulliken charges =   0.00000
 Mulliken charges with hydrogens summed into heavy atoms:
               1
     1  O   -0.517885
     2  S    1.320827
     3  N   -0.421996
     4  C    0.420216
     5  N   -0.327732
     6  N   -0.069532
     7  C    0.227715
     8  N   -0.369203
     9  C    0.334675
    10  C   -0.019392
    11  C    0.000048
    12  C    0.020929
    13  C    0.004223
    14  C    0.034603
    15  N   -0.530314
    16  C    0.210711
    17  C    0.209228
    18  O   -0.527120
 Electronic spatial extent (au):  <R**2>=           6317.1855
 Charge=              0.0000 electrons
 Dipole moment (field-independent basis, Debye):
    X=              2.7260    Y=              5.3771    Z=              3.1664  Tot=              6.8096
 Quadrupole moment (field-independent basis, Debye-Ang):
   XX=           -104.3664   YY=           -106.5211   ZZ=           -115.6729
   XY=             -4.1554   XZ=             -7.3766   YZ=             -2.4171
 Traceless Quadrupole moment (field-independent basis, Debye-Ang):
   XX=              4.4870   YY=              2.3324   ZZ=             -6.8194
   XY=             -4.1554   XZ=             -7.3766   YZ=             -2.4171
 Octapole moment (field-independent basis, Debye-Ang**2):
  XXX=            107.3970  YYY=             33.1780  ZZZ=              6.6360  XYY=            -25.7192
  XXY=             40.9408  XXZ=             22.8142  XZZ=            -22.6758  YZZ=              1.1374
  YYZ=              0.9178  XYZ=             -4.3021
 Hexadecapole moment (field-independent basis, Debye-Ang**3):
 XXXX=          -6305.5187 YYYY=          -1269.7719 ZZZZ=           -430.8583 XXXY=           -119.4961
 XXXZ=            -46.8752 YYYX=             42.4999 YYYZ=            -17.5160 ZZZX=            -16.9545
 ZZZY=              4.3288 XXYY=          -1192.1838 XXZZ=          -1239.7184 YYZZ=           -277.6768
 XXYZ=            -31.7229 YYXZ=             -4.9681 ZZXY=            -19.1455
 N-N= 1.471363910366D+03 E-N=-5.778975378499D+03  KE= 1.202120147589D+03
 No NMR shielding tensors so no spin-rotation constants.
 Leave Link  601 at Thu Aug  6 21:15:13 2020, MaxMem=    33554432 cpu:         0.2
 (Enter /prod/apps/gaussian/g09d1/l9999.exe)
 1\1\GINC-PIRINEUS26\SP\RB3LYP\6-31G(d)\C10H13N5O2S1\UBAFAR01\06-Aug-20
 20\0\\#p b3lyp/6-31G(d)\\SM46.n.1.pdb.xyz\\0,1\O,0,4.503,-1.556,-0.902
 \S,0,4.691,-0.15,-0.546\N,0,4.62,0.88,-1.893\C,0,3.79,0.553,-2.978\N,0
 ,4.294,0.439,-4.236\N,0,3.312,0.187,-5.061\C,0,2.428,0.357,-3.017\N,0,
 2.174,0.12,-4.332\C,0,0.927,-0.163,-4.957\C,0,-0.136,-0.648,-4.192\C,0
 ,-1.356,-0.912,-4.811\C,0,-1.51,-0.704,-6.183\C,0,-0.436,-0.227,-6.936
 \C,0,0.785,0.052,-6.33\N,0,3.276,0.334,0.221\C,0,2.72,-0.663,1.148\C,0
 ,3.319,1.699,0.767\O,0,5.911,0.268,0.153\H,0,5.566,1.128,-2.177\H,0,1.
 668,0.38,-2.257\H,0,-0.007,-0.831,-3.132\H,0,-2.182,-1.288,-4.219\H,0,
 -2.46,-0.914,-6.661\H,0,-0.549,-0.063,-8.002\H,0,1.626,0.43,-6.896\H,0
 ,2.698,-1.636,0.661\H,0,1.699,-0.355,1.38\H,0,3.288,-0.732,2.083\H,0,3
 .692,2.38,0.003\H,0,3.947,1.769,1.662\H,0,2.296,1.98,1.023\\Version=AM
 64L-G09RevD.01\State=1-A\HF=-1211.1667715\RMSD=9.260e-09\Dipole=-2.515
 6726,0.7575236,0.5245449\Quadrupole=-2.5952025,-3.4586305,6.0538329,5.
 3186938,-0.2009349,2.6021225\PG=C01 [X(C10H13N5O2S1)]\\@


 At the touch of love, everyone becomves a poet.
                                -- Plato
 Job cpu time:       0 days  0 hours  3 minutes 29.6 seconds.
 File lengths (MBytes):  RWF=     51 Int=      0 D2E=      0 Chk=      4 Scr=      1
 Normal termination of Gaussian 09 at Thu Aug  6 21:15:13 2020.
 Initial command:
 /prod/apps/gaussian/g09d1/l1.exe "/tmp/ubafar01/1448552/Gau-77769.inp" -scrdir="/tmp/ubafar01/1448552/"
 Entering Link 1 = /prod/apps/gaussian/g09d1/l1.exe PID=     80098.
  
 Copyright (c) 1988,1990,1992,1993,1995,1998,2003,2009,2013,
            Gaussian, Inc.  All Rights Reserved.
  
 This is part of the Gaussian(R) 09 program.  It is based on
 the Gaussian(R) 03 system (copyright 2003, Gaussian, Inc.),
 the Gaussian(R) 98 system (copyright 1998, Gaussian, Inc.),
 the Gaussian(R) 94 system (copyright 1995, Gaussian, Inc.),
 the Gaussian 92(TM) system (copyright 1992, Gaussian, Inc.),
 the Gaussian 90(TM) system (copyright 1990, Gaussian, Inc.),
 the Gaussian 88(TM) system (copyright 1988, Gaussian, Inc.),
 the Gaussian 86(TM) system (copyright 1986, Carnegie Mellon
 University), and the Gaussian 82(TM) system (copyright 1983,
 Carnegie Mellon University). Gaussian is a federally registered
 trademark of Gaussian, Inc.
  
 This software contains proprietary and confidential information,
 including trade secrets, belonging to Gaussian, Inc.
  
 This software is provided under written license and may be
 used, copied, transmitted, or stored only in accord with that
 written license.
  
 The following legend is applicable only to US Government
 contracts under FAR:
  
                    RESTRICTED RIGHTS LEGEND
  
 Use, reproduction and disclosure by the US Government is
 subject to restrictions as set forth in subparagraphs (a)
 and (c) of the Commercial Computer Software - Restricted
 Rights clause in FAR 52.227-19.
  
 Gaussian, Inc.
 340 Quinnipiac St., Bldg. 40, Wallingford CT 06492
  
  
 ---------------------------------------------------------------
 Warning -- This program may not be used in any manner that
 competes with the business of Gaussian, Inc. or will provide
 assistance to any competitor of Gaussian, Inc.  The licensee
 of this program is prohibited from giving any competitor of
 Gaussian, Inc. access to this program.  By using this program,
 the user acknowledges that Gaussian, Inc. is engaged in the
 business of creating and licensing software in the field of
 computational chemistry and represents and warrants to the
 licensee that it is not a competitor of Gaussian, Inc. and that
 it will not use this program in any manner prohibited above.
 ---------------------------------------------------------------
  

 Cite this work as:
 Gaussian 09, Revision D.01,
 M. J. Frisch, G. W. Trucks, H. B. Schlegel, G. E. Scuseria, 
 M. A. Robb, J. R. Cheeseman, G. Scalmani, V. Barone, B. Mennucci, 
 G. A. Petersson, H. Nakatsuji, M. Caricato, X. Li, H. P. Hratchian, 
 A. F. Izmaylov, J. Bloino, G. Zheng, J. L. Sonnenberg, M. Hada, 
 M. Ehara, K. Toyota, R. Fukuda, J. Hasegawa, M. Ishida, T. Nakajima, 
 Y. Honda, O. Kitao, H. Nakai, T. Vreven, J. A. Montgomery, Jr., 
 J. E. Peralta, F. Ogliaro, M. Bearpark, J. J. Heyd, E. Brothers, 
 K. N. Kudin, V. N. Staroverov, T. Keith, R. Kobayashi, J. Normand, 
 K. Raghavachari, A. Rendell, J. C. Burant, S. S. Iyengar, J. Tomasi, 
 M. Cossi, N. Rega, J. M. Millam, M. Klene, J. E. Knox, J. B. Cross, 
 V. Bakken, C. Adamo, J. Jaramillo, R. Gomperts, R. E. Stratmann, 
 O. Yazyev, A. J. Austin, R. Cammi, C. Pomelli, J. W. Ochterski, 
 R. L. Martin, K. Morokuma, V. G. Zakrzewski, G. A. Voth, 
 P. Salvador, J. J. Dannenberg, S. Dapprich, A. D. Daniels, 
 O. Farkas, J. B. Foresman, J. V. Ortiz, J. Cioslowski, 
 and D. J. Fox, Gaussian, Inc., Wallingford CT, 2013.
 
 ******************************************
 Gaussian 09:  AM64L-G09RevD.01 24-Apr-2013
                 6-Aug-2020 
 ******************************************
 %nproc=1
 Will use up to    1 processors via shared memory.
 %Chk=SM46.n.1.pdb.xyz.mst.n.o.chk
 %subst l301 /dades/curu/work_g09D01_MST_AddSphPartition_ReadGammas/exe-dir/
 %subst l502 /dades/curu/work_g09D01_MST_AddSphPartition_ReadGammas/exe-dir/
 ----------------------------------------------------------------------
 #p b3lyp/6-31G(d) scrf=(iefpcm,read,solvent=n-Octanol) geom=allcheck g
 uess=read
 ----------------------------------------------------------------------
 1/29=7,38=1,40=2/1;
 2/12=2,40=1/2;
 3/5=1,6=6,7=1,11=2,14=-4,16=1,25=1,30=1,70=2203,72=25,74=-5,116=-2/1,2,3;
 4/5=1/1;
 5/5=2,38=6,53=25/2;
 6/7=2,8=2,9=2,10=2,28=1/1;
 99/5=1,9=1/99;
 Leave Link    1 at Thu Aug  6 21:15:13 2020, MaxMem=           0 cpu:         0.0
 (Enter /prod/apps/gaussian/g09d1/l101.exe)
 Structure from the checkpoint file:  "SM46.n.1.pdb.xyz.mst.n.o.chk"
 ----------------
 SM46.n.1.pdb.xyz
 ----------------
 Charge =  0 Multiplicity = 1
 Z-Matrix found in file.
 O,0,4.503,-1.556,-0.902
 S,0,4.691,-0.15,-0.546
 N,0,4.62,0.88,-1.893
 C,0,3.79,0.553,-2.978
 N,0,4.294,0.439,-4.236
 N,0,3.312,0.187,-5.061
 C,0,2.428,0.357,-3.017
 N,0,2.174,0.12,-4.332
 C,0,0.927,-0.163,-4.957
 C,0,-0.136,-0.648,-4.192
 C,0,-1.356,-0.912,-4.811
 C,0,-1.51,-0.704,-6.183
 C,0,-0.436,-0.227,-6.936
 C,0,0.785,0.052,-6.33
 N,0,3.276,0.334,0.221
 C,0,2.72,-0.663,1.148
 C,0,3.319,1.699,0.767
 O,0,5.911,0.268,0.153
 H,0,5.566,1.128,-2.177
 H,0,1.668,0.38,-2.257
 H,0,-0.007,-0.831,-3.132
 H,0,-2.182,-1.288,-4.219
 H,0,-2.46,-0.914,-6.661
 H,0,-0.549,-0.063,-8.002
 H,0,1.626,0.43,-6.896
 H,0,2.698,-1.636,0.661
 H,0,1.699,-0.355,1.38
 H,0,3.288,-0.732,2.083
 H,0,3.692,2.38,0.003
 H,0,3.947,1.769,1.662
 H,0,2.296,1.98,1.023
 Recover connectivity data from disk.
 NAtoms=     31 NQM=       31 NQMF=       0 NMMI=      0 NMMIF=      0
                NMic=       0 NMicF=      0.
                    Isotopes and Nuclear Properties:
 (Nuclear quadrupole moments (NQMom) in fm**2, nuclear magnetic moments (NMagM)
  in nuclear magnetons)

  Atom         1           2           3           4           5           6           7           8           9          10
 IAtWgt=          16          32          14          12          14          14          12          14          12          12
 AtmWgt=  15.9949146  31.9720718  14.0030740  12.0000000  14.0030740  14.0030740  12.0000000  14.0030740  12.0000000  12.0000000
 NucSpn=           0           0           2           0           2           2           0           2           0           0
 AtZEff=  -5.6000000 -13.6000000  -4.5500000  -3.6000000  -4.5500000  -4.5500000  -3.6000000  -4.5500000  -3.6000000  -3.6000000
 NQMom=    0.0000000   0.0000000   2.0440000   0.0000000   2.0440000   2.0440000   0.0000000   2.0440000   0.0000000   0.0000000
 NMagM=    0.0000000   0.0000000   0.4037610   0.0000000   0.4037610   0.4037610   0.0000000   0.4037610   0.0000000   0.0000000
 AtZNuc=   8.0000000  16.0000000   7.0000000   6.0000000   7.0000000   7.0000000   6.0000000   7.0000000   6.0000000   6.0000000

  Atom        11          12          13          14          15          16          17          18          19          20
 IAtWgt=          12          12          12          12          14          12          12          16           1           1
 AtmWgt=  12.0000000  12.0000000  12.0000000  12.0000000  14.0030740  12.0000000  12.0000000  15.9949146   1.0078250   1.0078250
 NucSpn=           0           0           0           0           2           0           0           0           1           1
 AtZEff=  -3.6000000  -3.6000000  -3.6000000  -3.6000000  -4.5500000  -3.6000000  -3.6000000  -5.6000000  -1.0000000  -1.0000000
 NQMom=    0.0000000   0.0000000   0.0000000   0.0000000   2.0440000   0.0000000   0.0000000   0.0000000   0.0000000   0.0000000
 NMagM=    0.0000000   0.0000000   0.0000000   0.0000000   0.4037610   0.0000000   0.0000000   0.0000000   2.7928460   2.7928460
 AtZNuc=   6.0000000   6.0000000   6.0000000   6.0000000   7.0000000   6.0000000   6.0000000   8.0000000   1.0000000   1.0000000

  Atom        21          22          23          24          25          26          27          28          29          30
 IAtWgt=           1           1           1           1           1           1           1           1           1           1
 AtmWgt=   1.0078250   1.0078250   1.0078250   1.0078250   1.0078250   1.0078250   1.0078250   1.0078250   1.0078250   1.0078250
 NucSpn=           1           1           1           1           1           1           1           1           1           1
 AtZEff=  -1.0000000  -1.0000000  -1.0000000  -1.0000000  -1.0000000  -1.0000000  -1.0000000  -1.0000000  -1.0000000  -1.0000000
 NQMom=    0.0000000   0.0000000   0.0000000   0.0000000   0.0000000   0.0000000   0.0000000   0.0000000   0.0000000   0.0000000
 NMagM=    2.7928460   2.7928460   2.7928460   2.7928460   2.7928460   2.7928460   2.7928460   2.7928460   2.7928460   2.7928460
 AtZNuc=   1.0000000   1.0000000   1.0000000   1.0000000   1.0000000   1.0000000   1.0000000   1.0000000   1.0000000   1.0000000

  Atom        31
 IAtWgt=           1
 AtmWgt=   1.0078250
 NucSpn=           1
 AtZEff=  -1.0000000
 NQMom=    0.0000000
 NMagM=    2.7928460
 AtZNuc=   1.0000000
 Leave Link  101 at Thu Aug  6 21:15:13 2020, MaxMem=    33554432 cpu:         0.0
 (Enter /prod/apps/gaussian/g09d1/l202.exe)
                          Input orientation:                          
 ---------------------------------------------------------------------
 Center     Atomic      Atomic             Coordinates (Angstroms)
 Number     Number       Type             X           Y           Z
 ---------------------------------------------------------------------
      1          8           0        4.503000   -1.556000   -0.902000
      2         16           0        4.691000   -0.150000   -0.546000
      3          7           0        4.620000    0.880000   -1.893000
      4          6           0        3.790000    0.553000   -2.978000
      5          7           0        4.294000    0.439000   -4.236000
      6          7           0        3.312000    0.187000   -5.061000
      7          6           0        2.428000    0.357000   -3.017000
      8          7           0        2.174000    0.120000   -4.332000
      9          6           0        0.927000   -0.163000   -4.957000
     10          6           0       -0.136000   -0.648000   -4.192000
     11          6           0       -1.356000   -0.912000   -4.811000
     12          6           0       -1.510000   -0.704000   -6.183000
     13          6           0       -0.436000   -0.227000   -6.936000
     14          6           0        0.785000    0.052000   -6.330000
     15          7           0        3.276000    0.334000    0.221000
     16          6           0        2.720000   -0.663000    1.148000
     17          6           0        3.319000    1.699000    0.767000
     18          8           0        5.911000    0.268000    0.153000
     19          1           0        5.566000    1.128000   -2.177000
     20          1           0        1.668000    0.380000   -2.257000
     21          1           0       -0.007000   -0.831000   -3.132000
     22          1           0       -2.182000   -1.288000   -4.219000
     23          1           0       -2.460000   -0.914000   -6.661000
     24          1           0       -0.549000   -0.063000   -8.002000
     25          1           0        1.626000    0.430000   -6.896000
     26          1           0        2.698000   -1.636000    0.661000
     27          1           0        1.699000   -0.355000    1.380000
     28          1           0        3.288000   -0.732000    2.083000
     29          1           0        3.692000    2.380000    0.003000
     30          1           0        3.947000    1.769000    1.662000
     31          1           0        2.296000    1.980000    1.023000
 ---------------------------------------------------------------------
                    Distance matrix (angstroms):
                    1          2          3          4          5
     1  O    0.000000
     2  S    1.462503   0.000000
     3  N    2.632464   1.697159   0.000000
     4  C    3.044015   2.687124   1.404654   0.000000
     5  N    3.890920   3.757743   2.406326   1.359991   0.000000
     6  N    4.664098   4.732910   3.496761   2.168255   1.307078
     7  C    3.526814   3.388814   2.518287   1.376583   2.230390
     8  N    4.471925   4.554337   3.536840   2.152269   2.146014
     9  C    5.583122   5.798688   4.910621   3.553289   3.495559
    10  C    5.759243   6.069699   5.499065   4.281317   4.561623
    11  C    7.072687   7.438890   6.887566   5.655743   5.837664
    12  C    8.048045   8.398517   7.647879   6.319974   6.227654
    13  C    7.910064   8.192933   7.226371   5.842366   5.486935
    14  C    6.772915   6.982284   5.922818   4.529562   4.104593
    15  N    2.517689   1.680705   2.563874   3.247423   4.572986
    16  C    2.859902   2.649084   3.903656   4.432542   5.716584
    17  C    3.844794   2.650501   3.072289   3.944640   5.250546
    18  O    2.534258   1.466876   2.495464   3.792496   4.680518
    19  H    3.155860   2.249238   1.018369   2.031355   2.516384
    20  H    3.690711   3.513823   3.016090   2.247811   3.288738
    21  H    5.083171   5.405771   5.086430   4.044302   4.618476
    22  H    7.467499   7.875538   7.508509   6.371354   6.702342
    23  H    9.058787   9.440006   8.722308   7.401289   7.302585
    24  H    8.840914   9.113567   8.057772   6.666855   6.155437
    25  H    6.938974   7.074823   5.847781   4.477583   3.767480
    26  H    2.389015   2.763529   4.067832   4.384804   5.552788
    27  H    3.809507   3.564206   4.557411   4.918222   6.237300
    28  H    3.326474   3.036243   4.492365   5.245660   6.504847
    29  H    4.119325   2.774942   2.589595   3.497698   4.700958
    30  H    4.235429   3.018503   3.725758   4.799261   6.056048
    31  H    4.591271   3.568569   3.887677   4.502929   5.832989
                    6          7          8          9         10
     6  N    0.000000
     7  C    2.233448   0.000000
     8  N    1.353135   1.360114   0.000000
     9  C    2.412787   2.507389   1.423279   0.000000
    10  C    3.652546   2.994119   2.438345   1.396574   0.000000
    11  C    4.802138   4.375780   3.708823   2.407157   1.393290
    12  C    5.030353   5.163053   4.204406   2.781138   2.419730
    13  C    4.211238   4.888979   3.703151   2.403811   2.792271
    14  C    2.830957   3.710585   2.434327   1.396967   2.430902
    15  N    5.284168   3.347279   4.689351   5.707582   5.663977
    16  C    6.294811   4.298010   5.562518   6.382466   6.055787
    17  C    6.020945   4.112603   5.459310   6.477105   6.483604
    18  O    5.826419   4.710426   5.839717   7.151092   7.502286
    19  H    3.779346   3.338725   4.143157   5.560162   6.302952
    20  H    3.256133   1.075048   2.151572   2.852005   2.838208
    21  H    3.971539   2.711788   2.664801   2.156202   1.083388
    22  H    5.750533   5.040132   4.579298   3.387647   2.143932
    23  H    6.090007   6.227899   5.288417   3.865150   3.401131
    24  H    4.859969   5.821439   4.573524   3.385351   3.876712
    25  H    2.503771   3.961714   2.640170   2.144754   3.402697
    26  H    6.036689   4.191972   5.318662   6.071910   5.706076
    27  H    6.661983   4.513535   5.751365   6.386738   5.873692
    28  H    7.202907   5.285406   6.566515   7.447126   7.148878
    29  H    5.531523   3.848457   5.118999   6.222031   6.435868
    30  H    6.935754   5.118022   6.464578   7.527562   7.535389
    31  H    6.423563   4.355818   5.670142   6.498231   6.325918
                   11         12         13         14         15
    11  C    0.000000
    12  C    1.396196   0.000000
    13  C    2.414798   1.395713   0.000000
    14  C    2.796522   2.420779   1.391373   0.000000
    15  N    6.951904   8.061914   8.081851   7.014286   0.000000
    16  C    7.223950   8.463932   8.689159   7.757315   1.470535
    17  C    7.732207   8.797508   8.783263   7.713700   1.470779
    18  O    8.879357   9.806167   9.528030   8.267516   2.636703
    19  H    7.682034   8.335109   7.778696   6.423640   3.409537
    20  H    4.163743   5.166064   5.166073   4.180503   2.954364
    21  H    2.155320   3.403489   3.875471   3.410888   4.835072
    22  H    1.083566   2.156371   3.399460   3.880079   7.220405
    23  H    2.154372   1.084013   2.155034   3.401873   9.045503
    24  H    3.399196   2.154800   1.084445   2.142047   9.077773
    25  H    3.878210   3.410106   2.164508   1.081906   7.306395
    26  H    6.848494   8.088030   8.337964   7.441975   2.099663
    27  H    6.926165   8.223044   8.586645   7.774648   2.074833
    28  H    8.314227   9.557633   9.770648   8.812391   2.145587
    29  H    7.713246   8.650922   8.484489   7.346912   2.099213
    30  H    8.786882   9.871099   9.854964   8.764610   2.141482
    31  H    7.465676   8.579972   8.699446   7.750285   2.076757
                   16         17         18         19         20
    16  C    0.000000
    17  C    2.466375   0.000000
    18  O    3.469765   3.023776   0.000000
    19  H    4.728956   3.747290   2.507494   0.000000
    20  H    3.713297   3.689192   4.880952   3.969925   0.000000
    21  H    5.077711   5.715363   6.857241   5.983982   2.244498
    22  H    7.295541   8.002710   9.329103   8.368890   4.631864
    23  H    9.374214   9.767282  10.858239   9.417680   6.173333
    24  H    9.734930   9.744815  10.408899   8.528911   6.173845
    25  H    8.191302   7.949728   8.250810   6.187064   4.639460
    26  H    1.088293   3.393980   3.769171   4.890743   3.693221
    27  H    1.091389   2.686835   4.431095   5.459416   3.710654
    28  H    1.096180   2.764521   3.406615   5.176532   4.764089
    29  H    3.393473   1.089305   3.067084   3.135567   3.633755
    30  H    2.772066   1.095586   2.896097   4.215443   4.741490
    31  H    2.679711   1.091341   4.093418   4.653902   3.703078
                   21         22         23         24         25
    21  H    0.000000
    22  H    2.474074   0.000000
    23  H    4.298597   2.486066   0.000000
    24  H    4.959888   4.298651   2.484835   0.000000
    25  H    4.292378   4.961725   4.307779   2.489359   0.000000
    26  H    4.727779   6.910131   8.985429   9.384290   7.907325
    27  H    4.847180   6.876151   9.070140   9.651979   8.313467
    28  H    6.169526   8.363327  10.465666  10.810983   9.205158
    29  H    5.815612   8.110696   9.649168   9.382662   7.461036
    30  H    6.736212   9.027516  10.840686  10.814950   8.967682
    31  H    5.519923   7.629605   9.488869   9.680832   8.097034
                   26         27         28         29         30
    26  H    0.000000
    27  H    1.776492   0.000000
    28  H    1.785329   1.777993   0.000000
    29  H    4.189183   3.653547   3.764859   0.000000
    30  H    3.762450   3.105544   2.620405   1.786233   0.000000
    31  H    3.656242   2.436408   3.076135   1.774603   1.782875
                   31
    31  H    0.000000
 Stoichiometry    C10H13N5O2S
 Framework group  C1[X(C10H13N5O2S)]
 Deg. of freedom    87
 Full point group                 C1      NOp   1
 RotChk:  IX=0 Diff= 1.22D-15
 Largest Abelian subgroup         C1      NOp   1
 Largest concise Abelian subgroup C1      NOp   1
                         Standard orientation:                         
 ---------------------------------------------------------------------
 Center     Atomic      Atomic             Coordinates (Angstroms)
 Number     Number       Type             X           Y           Z
 ---------------------------------------------------------------------
      1          8           0       -2.430809   -0.080648   -1.776528
      2         16           0       -2.927995   -0.263193   -0.413296
[...]
 Alpha virt. eigenvalues --    0.93970   0.94454   0.95065   0.96938   0.97245
 Alpha virt. eigenvalues --    0.97519   0.99457   1.01561   1.01746   1.03509
 Alpha virt. eigenvalues --    1.05550   1.06037   1.07090   1.08664   1.11856
 Alpha virt. eigenvalues --    1.12546   1.14560   1.15567   1.16038   1.16773
 Alpha virt. eigenvalues --    1.18480   1.19717   1.20834   1.24262   1.24653
 Alpha virt. eigenvalues --    1.26351   1.29851   1.34459   1.34939   1.36079
 Alpha virt. eigenvalues --    1.37549   1.39890   1.40641   1.41712   1.43613
 Alpha virt. eigenvalues --    1.44074   1.45984   1.46461   1.47685   1.49498
 Alpha virt. eigenvalues --    1.52791   1.53784   1.55729   1.56281   1.59535
 Alpha virt. eigenvalues --    1.61721   1.66653   1.68300   1.70824   1.74107
 Alpha virt. eigenvalues --    1.78025   1.79219   1.79437   1.80486   1.80520
 Alpha virt. eigenvalues --    1.81629   1.83280   1.84175   1.86336   1.87548
 Alpha virt. eigenvalues --    1.89563   1.91467   1.93676   1.94012   1.96172
 Alpha virt. eigenvalues --    1.96484   1.97295   1.98278   2.01218   2.04600
 Alpha virt. eigenvalues --    2.05081   2.06583   2.07220   2.08819   2.10463
 Alpha virt. eigenvalues --    2.11466   2.12723   2.13672   2.14618   2.15051
 Alpha virt. eigenvalues --    2.16162   2.19247   2.19652   2.20054   2.23143
 Alpha virt. eigenvalues --    2.24392   2.25285   2.28284   2.29194   2.30619
 Alpha virt. eigenvalues --    2.31825   2.32723   2.35667   2.36754   2.41891
 Alpha virt. eigenvalues --    2.42259   2.47323   2.49361   2.50280   2.53928
 Alpha virt. eigenvalues --    2.55055   2.57807   2.58400   2.61012   2.62703
 Alpha virt. eigenvalues --    2.64441   2.66843   2.69062   2.70363   2.71619
 Alpha virt. eigenvalues --    2.74046   2.75073   2.76635   2.79432   2.82182
 Alpha virt. eigenvalues --    2.85511   2.88317   2.99941   3.06901   3.13566
 Alpha virt. eigenvalues --    3.26023   3.42083   3.61455   3.79779   3.92849
 Alpha virt. eigenvalues --    3.95363   4.01271   4.03147   4.07495   4.10136
 Alpha virt. eigenvalues --    4.10210   4.13296   4.16120   4.23338   4.25020
 Alpha virt. eigenvalues --    4.31350   4.33037   4.38875   4.47215   4.70808
          Condensed to atoms (all electrons):
               1          2          3          4          5          6
     1  O    8.230215   0.444493  -0.056864   0.007976  -0.000269   0.000004
     2  S    0.444493  13.595267   0.128337   0.001401  -0.002775   0.000156
     3  N   -0.056864   0.128337   7.406636   0.240442  -0.066781   0.006539
     4  C    0.007976   0.001401   0.240442   4.622578   0.390636  -0.078032
     5  N   -0.000269  -0.002775  -0.066781   0.390636   6.869596   0.299617
     6  N    0.000004   0.000156   0.006539  -0.078032   0.299617   6.755912
     7  C   -0.000538  -0.004318  -0.062292   0.496616  -0.067316  -0.098984
     8  N   -0.000074  -0.000290   0.002726  -0.043002  -0.091941   0.222782
     9  C    0.000001  -0.000019  -0.000097   0.005870   0.007341  -0.045525
    10  C   -0.000001  -0.000001   0.000003   0.000915  -0.000355   0.003178
    11  C    0.000000   0.000000   0.000000  -0.000010   0.000002  -0.000068
    12  C    0.000000   0.000000   0.000000   0.000000   0.000000   0.000017
    13  C    0.000000   0.000000   0.000000   0.000006  -0.000005   0.000366
    14  C    0.000000   0.000000   0.000000  -0.000464   0.000339  -0.000966
    15  N   -0.054166   0.141223  -0.046923  -0.007965   0.000080   0.000001
    16  C   -0.003970  -0.028921   0.002212   0.000084   0.000001   0.000000
    17  C    0.001589  -0.009406  -0.009253   0.000242  -0.000008   0.000000
    18  O   -0.043574   0.445786  -0.054978   0.001213   0.000003   0.000000
    19  H   -0.000250  -0.015020   0.298187  -0.026257   0.005820  -0.000119
    20  H   -0.000114   0.000866  -0.000907  -0.026410   0.004198   0.003375
    21  H    0.000000  -0.000001  -0.000001   0.000092  -0.000005  -0.000092
    22  H    0.000000   0.000000   0.000000   0.000000   0.000000   0.000001
    23  H    0.000000   0.000000   0.000000   0.000000   0.000000   0.000000
    24  H    0.000000   0.000000   0.000000   0.000000   0.000000  -0.000008
    25  H    0.000000   0.000000   0.000000   0.000040  -0.000359   0.017399
    26  H    0.011623  -0.004539   0.000116   0.000007   0.000000   0.000000
    27  H    0.000261   0.002063  -0.000083   0.000008   0.000000   0.000000
    28  H   -0.000465  -0.002826  -0.000077  -0.000009   0.000000   0.000000
    29  H    0.000028  -0.003178   0.012219  -0.000001  -0.000004   0.000000
    30  H   -0.000038  -0.007614  -0.000163  -0.000023   0.000000   0.000000
    31  H   -0.000052   0.002991  -0.000022  -0.000015   0.000000   0.000000
               7          8          9         10         11         12
     1  O   -0.000538  -0.000074   0.000001  -0.000001   0.000000   0.000000
     2  S   -0.004318  -0.000290  -0.000019  -0.000001   0.000000   0.000000
     3  N   -0.062292   0.002726  -0.000097   0.000003   0.000000   0.000000
     4  C    0.496616  -0.043002   0.005870   0.000915  -0.000010   0.000000
     5  N   -0.067316  -0.091941   0.007341  -0.000355   0.000002   0.000000
     6  N   -0.098984   0.222782  -0.045525   0.003178  -0.000068   0.000017
     7  C    5.033780   0.323795  -0.037487  -0.007177   0.000009   0.000019
     8  N    0.323795   6.909316   0.201785  -0.051362   0.004655   0.000356
     9  C   -0.037487   0.201785   4.621498   0.527481  -0.007908  -0.038365
    10  C   -0.007177  -0.051362   0.527481   4.995558   0.529405  -0.040139
    11  C    0.000009   0.004655  -0.007908   0.529405   4.851906   0.546827
    12  C    0.000019   0.000356  -0.038365  -0.040139   0.546827   4.860021
    13  C   -0.000081   0.004583  -0.010185  -0.042562  -0.023576   0.541668
    14  C    0.007694  -0.057811   0.516757  -0.072792  -0.041648  -0.038136
    15  N    0.005538   0.000149   0.000001   0.000001   0.000000   0.000000
    16  C   -0.000062  -0.000002   0.000000  -0.000001   0.000000   0.000000
    17  C    0.000100  -0.000004   0.000000   0.000000   0.000000   0.000000
    18  O   -0.000020   0.000000   0.000000   0.000000   0.000000   0.000000
    19  H    0.005202   0.000096  -0.000002   0.000000   0.000000   0.000000
    20  H    0.359019  -0.034839  -0.001872   0.002013   0.000184  -0.000001
    21  H    0.006438  -0.009812  -0.041075   0.350855  -0.035881   0.004403
    22  H   -0.000004  -0.000110   0.003452  -0.038129   0.362047  -0.039605
    23  H    0.000000   0.000003   0.000512   0.004930  -0.041515   0.364479
    24  H    0.000001  -0.000106   0.003502   0.000765   0.004511  -0.040431
    25  H    0.000255  -0.014339  -0.036642   0.005674   0.000110   0.004435
    26  H   -0.000032  -0.000001   0.000000  -0.000001   0.000000   0.000000
    27  H   -0.000006  -0.000001   0.000000   0.000000   0.000000   0.000000
    28  H    0.000010   0.000000   0.000000   0.000000   0.000000   0.000000
    29  H   -0.000075   0.000000   0.000000   0.000000   0.000000   0.000000
    30  H    0.000019   0.000000   0.000000   0.000000   0.000000   0.000000
    31  H   -0.000025  -0.000001   0.000000   0.000000   0.000000   0.000000
              13         14         15         16         17         18
     1  O    0.000000   0.000000  -0.054166  -0.003970   0.001589  -0.043574
     2  S    0.000000   0.000000   0.141223  -0.028921  -0.009406   0.445786
     3  N    0.000000   0.000000  -0.046923   0.002212  -0.009253  -0.054978
     4  C    0.000006  -0.000464  -0.007965   0.000084   0.000242   0.001213
     5  N   -0.000005   0.000339   0.000080   0.000001  -0.000008   0.000003
     6  N    0.000366  -0.000966   0.000001   0.000000   0.000000   0.000000
     7  C   -0.000081   0.007694   0.005538  -0.000062   0.000100  -0.000020
     8  N    0.004583  -0.057811   0.000149  -0.000002  -0.000004   0.000000
     9  C   -0.010185   0.516757   0.000001   0.000000   0.000000   0.000000
    10  C   -0.042562  -0.072792   0.000001  -0.000001   0.000000   0.000000
    11  C   -0.023576  -0.041648   0.000000   0.000000   0.000000   0.000000
    12  C    0.541668  -0.038136   0.000000   0.000000   0.000000   0.000000
    13  C    4.872672   0.518903   0.000000   0.000000   0.000000   0.000000
    14  C    0.518903   4.991885   0.000000   0.000000   0.000000   0.000000
    15  N    0.000000   0.000000   7.213194   0.288263   0.266670  -0.055196
    16  C    0.000000   0.000000   0.288263   4.994589  -0.049477  -0.002019
    17  C    0.000000   0.000000   0.266670  -0.049477   4.995331   0.002789
    18  O    0.000000   0.000000  -0.055196  -0.002019   0.002789   8.241091
    19  H    0.000000   0.000000   0.002335  -0.000046  -0.000138   0.003852
    20  H   -0.000004  -0.000103   0.005781   0.000059  -0.000103   0.000005
    21  H    0.000248   0.005477  -0.000010   0.000005   0.000000   0.000000
    22  H    0.004466   0.000763   0.000000   0.000000   0.000000   0.000000
    23  H   -0.041697   0.004646   0.000000   0.000000   0.000000   0.000000
    24  H    0.362542  -0.038165   0.000000   0.000000   0.000000   0.000000
    25  H   -0.039372   0.354915   0.000000   0.000000   0.000000   0.000000
    26  H    0.000000   0.000000  -0.031289   0.377163   0.004477  -0.000106
    27  H    0.000000   0.000000  -0.038604   0.380046  -0.002727  -0.000102
    28  H    0.000000   0.000000  -0.047423   0.373570  -0.001924   0.001908
    29  H    0.000000   0.000000  -0.032614   0.004534   0.376796  -0.001748
    30  H    0.000000   0.000000  -0.045575  -0.001859   0.375935   0.005094
    31  H    0.000000   0.000000  -0.034209  -0.003717   0.375706   0.000062
              19         20         21         22         23         24
     1  O   -0.000250  -0.000114   0.000000   0.000000   0.000000   0.000000
     2  S   -0.015020   0.000866  -0.000001   0.000000   0.000000   0.000000
     3  N    0.298187  -0.000907  -0.000001   0.000000   0.000000   0.000000
     4  C   -0.026257  -0.026410   0.000092   0.000000   0.000000   0.000000
     5  N    0.005820   0.004198  -0.000005   0.000000   0.000000   0.000000
     6  N   -0.000119   0.003375  -0.000092   0.000001   0.000000  -0.000008
     7  C    0.005202   0.359019   0.006438  -0.000004   0.000000   0.000001
     8  N    0.000096  -0.034839  -0.009812  -0.000110   0.000003  -0.000106
     9  C   -0.000002  -0.001872  -0.041075   0.003452   0.000512   0.003502
    10  C    0.000000   0.002013   0.350855  -0.038129   0.004930   0.000765
    11  C    0.000000   0.000184  -0.035881   0.362047  -0.041515   0.004511
    12  C    0.000000  -0.000001   0.004403  -0.039605   0.364479  -0.040431
    13  C    0.000000  -0.000004   0.000248   0.004466  -0.041697   0.362542
    14  C    0.000000  -0.000103   0.005477   0.000763   0.004646  -0.038165
    15  N    0.002335   0.005781  -0.000010   0.000000   0.000000   0.000000
    16  C   -0.000046   0.000059   0.000005   0.000000   0.000000   0.000000
    17  C   -0.000138  -0.000103   0.000000   0.000000   0.000000   0.000000
    18  O    0.003852   0.000005   0.000000   0.000000   0.000000   0.000000
    19  H    0.333016  -0.000079   0.000000   0.000000   0.000000   0.000000
    20  H   -0.000079   0.479026   0.001945  -0.000002   0.000000   0.000000
    21  H    0.000000   0.001945   0.564162  -0.005317  -0.000153   0.000014
    22  H    0.000000  -0.000002  -0.005317   0.560803  -0.005128  -0.000171
    23  H    0.000000   0.000000  -0.000153  -0.005128   0.566437  -0.005198
    24  H    0.000000   0.000000   0.000014  -0.000171  -0.005198   0.561254
    25  H    0.000000  -0.000010  -0.000137   0.000013  -0.000135  -0.005086
    26  H   -0.000004  -0.000037   0.000003   0.000000   0.000000   0.000000
    27  H    0.000001  -0.000118   0.000001   0.000000   0.000000   0.000000
    28  H    0.000006   0.000018   0.000000   0.000000   0.000000   0.000000
    29  H   -0.000367  -0.000031   0.000000   0.000000   0.000000   0.000000
    30  H    0.000055   0.000020   0.000000   0.000000   0.000000   0.000000
    31  H    0.000000  -0.000069   0.000000   0.000000   0.000000   0.000000
              25         26         27         28         29         30
     1  O    0.000000   0.011623   0.000261  -0.000465   0.000028  -0.000038
     2  S    0.000000  -0.004539   0.002063  -0.002826  -0.003178  -0.007614
     3  N    0.000000   0.000116  -0.000083  -0.000077   0.012219  -0.000163
     4  C    0.000040   0.000007   0.000008  -0.000009  -0.000001  -0.000023
     5  N   -0.000359   0.000000   0.000000   0.000000  -0.000004   0.000000
     6  N    0.017399   0.000000   0.000000   0.000000   0.000000   0.000000
     7  C    0.000255  -0.000032  -0.000006   0.000010  -0.000075   0.000019
     8  N   -0.014339  -0.000001  -0.000001   0.000000   0.000000   0.000000
     9  C   -0.036642   0.000000   0.000000   0.000000   0.000000   0.000000
    10  C    0.005674  -0.000001   0.000000   0.000000   0.000000   0.000000
    11  C    0.000110   0.000000   0.000000   0.000000   0.000000   0.000000
    12  C    0.004435   0.000000   0.000000   0.000000   0.000000   0.000000
    13  C   -0.039372   0.000000   0.000000   0.000000   0.000000   0.000000
    14  C    0.354915   0.000000   0.000000   0.000000   0.000000   0.000000
    15  N    0.000000  -0.031289  -0.038604  -0.047423  -0.032614  -0.045575
    16  C    0.000000   0.377163   0.380046   0.373570   0.004534  -0.001859
    17  C    0.000000   0.004477  -0.002727  -0.001924   0.376796   0.375935
    18  O    0.000000  -0.000106  -0.000102   0.001908  -0.001748   0.005094
    19  H    0.000000  -0.000004   0.000001   0.000006  -0.000367   0.000055
    20  H   -0.000010  -0.000037  -0.000118   0.000018  -0.000031   0.000020
    21  H   -0.000137   0.000003   0.000001   0.000000   0.000000   0.000000
    22  H    0.000013   0.000000   0.000000   0.000000   0.000000   0.000000
    23  H   -0.000135   0.000000   0.000000   0.000000   0.000000   0.000000
    24  H   -0.005086   0.000000   0.000000   0.000000   0.000000   0.000000
    25  H    0.537598   0.000000   0.000000   0.000000   0.000000   0.000000
    26  H    0.000000   0.490081  -0.020265  -0.030021  -0.000190  -0.000168
    27  H    0.000000  -0.020265   0.534735  -0.039825   0.000061  -0.001714
    28  H    0.000000  -0.030021  -0.039825   0.571594  -0.000189   0.008154
    29  H    0.000000  -0.000190   0.000061  -0.000189   0.501398  -0.030248
    30  H    0.000000  -0.000168  -0.001714   0.008154  -0.030248   0.560222
    31  H    0.000000   0.000004   0.004984  -0.001368  -0.022325  -0.035327
              31
     1  O   -0.000052
     2  S    0.002991
     3  N   -0.000022
     4  C   -0.000015
     5  N    0.000000
     6  N    0.000000
     7  C   -0.000025
     8  N   -0.000001
     9  C    0.000000
    10  C    0.000000
    11  C    0.000000
    12  C    0.000000
    13  C    0.000000
    14  C    0.000000
    15  N   -0.034209
    16  C   -0.003717
    17  C    0.375706
    18  O    0.000062
    19  H    0.000000
    20  H   -0.000069
    21  H    0.000000
    22  H    0.000000
    23  H    0.000000
    24  H    0.000000
    25  H    0.000000
    26  H    0.000004
    27  H    0.004984
    28  H   -0.001368
    29  H   -0.022325
    30  H   -0.035327
    31  H    0.532647
 Mulliken charges:
               1
     1  O   -0.535817
     2  S    1.316325
     3  N   -0.798976
     4  C    0.414063
     5  N   -0.347817
     6  N   -0.085553
     7  C    0.039923
     8  N   -0.366555
     9  C    0.330975
    10  C   -0.168257
    11  C   -0.149051
    12  C   -0.125549
    13  C   -0.147972
    14  C   -0.151294
    15  N   -0.529261
    16  C   -0.330452
    17  C   -0.326594
    18  O   -0.544061
    19  H    0.393712
    20  H    0.208189
    21  H    0.158841
    22  H    0.156919
    23  H    0.152819
    24  H    0.156574
    25  H    0.175641
    26  H    0.203178
    27  H    0.181285
    28  H    0.168867
    29  H    0.195933
    30  H    0.173229
    31  H    0.180734
 Sum of Mulliken charges =   0.00000
 Mulliken charges with hydrogens summed into heavy atoms:
               1
     1  O   -0.535817
     2  S    1.316325
     3  N   -0.405265
     4  C    0.414063
     5  N   -0.347817
     6  N   -0.085553
     7  C    0.248111
     8  N   -0.366555
     9  C    0.330975
    10  C   -0.009415
    11  C    0.007869
    12  C    0.027270
    13  C    0.008602
    14  C    0.024347
    15  N   -0.529261
    16  C    0.222877
    17  C    0.223303
    18  O   -0.544061
 Electronic spatial extent (au):  <R**2>=           6315.6056
 Charge=              0.0000 electrons
 Dipole moment (field-independent basis, Debye):
    X=              3.1478    Y=              6.4878    Z=              3.7295  Tot=              8.1185
 Quadrupole moment (field-independent basis, Debye-Ang):
   XX=           -103.0103   YY=           -105.7339   ZZ=           -115.6912
   XY=             -3.8665   XZ=             -8.5750   YZ=             -2.3740
 Traceless Quadrupole moment (field-independent basis, Debye-Ang):
   XX=              5.1348   YY=              2.4112   ZZ=             -7.5461
   XY=             -3.8665   XZ=             -8.5750   YZ=             -2.3740
 Octapole moment (field-independent basis, Debye-Ang**2):
  XXX=            128.7757  YYY=             42.0747  ZZZ=              9.0471  XYY=            -26.8530
  XXY=             50.6920  XXZ=             26.7495  XZZ=            -22.4778  YZZ=              2.4603
  YYZ=              2.2711  XYZ=             -5.3204
 Hexadecapole moment (field-independent basis, Debye-Ang**3):
 XXXX=          -6225.8085 YYYY=          -1259.3751 ZZZZ=           -430.4350 XXXY=           -111.4125
 XXXZ=            -59.0624 YYYX=             44.4005 YYYZ=            -17.1228 ZZZX=            -23.1645
 ZZZY=              5.9858 XXYY=          -1171.9290 XXZZ=          -1238.7009 YYZZ=           -275.7069
 XXYZ=            -31.8933 YYXZ=             -9.0934 ZZXY=            -21.0260
 N-N= 1.471354758844D+03 E-N=-5.779243212453D+03  KE= 1.202125593959D+03
 No NMR shielding tensors so no spin-rotation constants.
 Leave Link  601 at Thu Aug  6 21:18:00 2020, MaxMem=    33554432 cpu:         0.2
 (Enter /prod/apps/gaussian/g09d1/l9999.exe)
 1\1\GINC-PIRINEUS26\SP\RB3LYP\6-31G(d)\C10H13N5O2S1\UBAFAR01\06-Aug-20
 20\0\\#p b3lyp/6-31G(d) scrf=(iefpcm,read,solvent=n-Octanol) geom=allc
 heck guess=read\\SM46.n.1.pdb.xyz\\0,1\O,0,4.503,-1.556,-0.902\S,0,4.6
 91,-0.15,-0.546\N,0,4.62,0.88,-1.893\C,0,3.79,0.553,-2.978\N,0,4.294,0
 .439,-4.236\N,0,3.312,0.187,-5.061\C,0,2.428,0.357,-3.017\N,0,2.174,0.
 12,-4.332\C,0,0.927,-0.163,-4.957\C,0,-0.136,-0.648,-4.192\C,0,-1.356,
 -0.912,-4.811\C,0,-1.51,-0.704,-6.183\C,0,-0.436,-0.227,-6.936\C,0,0.7
 85,0.052,-6.33\N,0,3.276,0.334,0.221\C,0,2.72,-0.663,1.148\C,0,3.319,1
 .699,0.767\O,0,5.911,0.268,0.153\H,0,5.566,1.128,-2.177\H,0,1.668,0.38
 ,-2.257\H,0,-0.007,-0.831,-3.132\H,0,-2.182,-1.288,-4.219\H,0,-2.46,-0
 .914,-6.661\H,0,-0.549,-0.063,-8.002\H,0,1.626,0.43,-6.896\H,0,2.698,-
 1.636,0.661\H,0,1.699,-0.355,1.38\H,0,3.288,-0.732,2.083\H,0,3.692,2.3
 8,0.003\H,0,3.947,1.769,1.662\H,0,2.296,1.98,1.023\\Version=AM64L-G09R
 evD.01\State=1-A\HF=-1211.1868922\RMSD=6.381e-09\Dipole=-2.9945504,0.8
 829342,0.6746172\Quadrupole=-2.393363,-3.8528357,6.2461987,5.9836764,-
 0.0480188,3.3249581\PG=C01 [X(C10H13N5O2S1)]\\@


 WE'RE IN THE POSITION OF A VISITOR FROM ANOTHER
 DIMENSION WHO COMES TO EARTH AND SEES A CHESS MATCH.
 ASSUMING HE KNOWS IT'S A GAME, HE'S GOT TWO PROBLEMS:
 FIRST, FIGURE OUT THE RULES, AND SECOND, FIGURE OUT HOW TO WIN.
 NINETY PERCENT OF SCIENCE (INCLUDING VIRTUALLY ALL OF CHEMISRY)
 IS IN THAT SECOND CATEGORY.  THEY'RE TRYING TO APPLY
 THE LAWS THAT ARE ALREADY KNOWN.

                     -- SHELDON GLASHOW, 1979
 Job cpu time:       0 days  0 hours  2 minutes 47.2 seconds.
 File lengths (MBytes):  RWF=    165 Int=      0 D2E=      0 Chk=      6 Scr=      1
 Normal termination of Gaussian 09 at Thu Aug  6 21:18:00 2020.
