 Entering Gaussian System, Link 0=g09
 Initial command:
 /prod/apps/gaussian/g09d1/l1.exe "/tmp/ubafar01/1448551/Gau-177204.inp" -scrdir="/tmp/ubafar01/1448551/"
 Entering Link 1 = /prod/apps/gaussian/g09d1/l1.exe PID=    177205.
  
 Copyright (c) 1988,1990,1992,1993,1995,1998,2003,2009,2013,
            Gaussian, Inc.  All Rights Reserved.
  
 This is part of the Gaussian(R) 09 program.  It is based on
 the Gaussian(R) 03 system (copyright 2003, Gaussian, Inc.),
 the Gaussian(R) 98 system (copyright 1998, Gaussian, Inc.),
 the Gaussian(R) 94 system (copyright 1995, Gaussian, Inc.),
 the Gaussian 92(TM) system (copyright 1992, Gaussian, Inc.),
 the Gaussian 90(TM) system (copyright 1990, Gaussian, Inc.),
 the Gaussian 88(TM) system (copyright 1988, Gaussian, Inc.),
 the Gaussian 86(TM) system (copyright 1986, Carnegie Mellon
 University), and the Gaussian 82(TM) system (copyright 1983,
 Carnegie Mellon University). Gaussian is a federally registered
 trademark of Gaussian, Inc.
  
 This software contains proprietary and confidential information,
 including trade secrets, belonging to Gaussian, Inc.
  
 This software is provided under written license and may be
 used, copied, transmitted, or stored only in accord with that
 written license.
  
 The following legend is applicable only to US Government
 contracts under FAR:
  
                    RESTRICTED RIGHTS LEGEND
  
 Use, reproduction and disclosure by the US Government is
 subject to restrictions as set forth in subparagraphs (a)
 and (c) of the Commercial Computer Software - Restricted
 Rights clause in FAR 52.227-19.
  
 Gaussian, Inc.
 340 Quinnipiac St., Bldg. 40, Wallingford CT 06492
  
  
 ---------------------------------------------------------------
 Warning -- This program may not be used in any manner that
 competes with the business of Gaussian, Inc. or will provide
 assistance to any competitor of Gaussian, Inc.  The licensee
 of this program is prohibited from giving any competitor of
 Gaussian, Inc. access to this program.  By using this program,
 the user acknowledges that Gaussian, Inc. is engaged in the
 business of creating and licensing software in the field of
 computational chemistry and represents and warrants to the
 licensee that it is not a competitor of Gaussian, Inc. and that
 it will not use this program in any manner prohibited above.
 ---------------------------------------------------------------
  

 Cite this work as:
 Gaussian 09, Revision D.01,
 M. J. Frisch, G. W. Trucks, H. B. Schlegel, G. E. Scuseria, 
 M. A. Robb, J. R. Cheeseman, G. Scalmani, V. Barone, B. Mennucci, 
 G. A. Petersson, H. Nakatsuji, M. Caricato, X. Li, H. P. Hratchian, 
 A. F. Izmaylov, J. Bloino, G. Zheng, J. L. Sonnenberg, M. Hada, 
 M. Ehara, K. Toyota, R. Fukuda, J. Hasegawa, M. Ishida, T. Nakajima, 
 Y. Honda, O. Kitao, H. Nakai, T. Vreven, J. A. Montgomery, Jr., 
 J. E. Peralta, F. Ogliaro, M. Bearpark, J. J. Heyd, E. Brothers, 
 K. N. Kudin, V. N. Staroverov, T. Keith, R. Kobayashi, J. Normand, 
 K. Raghavachari, A. Rendell, J. C. Burant, S. S. Iyengar, J. Tomasi, 
 M. Cossi, N. Rega, J. M. Millam, M. Klene, J. E. Knox, J. B. Cross, 
 V. Bakken, C. Adamo, J. Jaramillo, R. Gomperts, R. E. Stratmann, 
 O. Yazyev, A. J. Austin, R. Cammi, C. Pomelli, J. W. Ochterski, 
 R. L. Martin, K. Morokuma, V. G. Zakrzewski, G. A. Voth, 
 P. Salvador, J. J. Dannenberg, S. Dapprich, A. D. Daniels, 
 O. Farkas, J. B. Foresman, J. V. Ortiz, J. Cioslowski, 
 and D. J. Fox, Gaussian, Inc., Wallingford CT, 2013.
 
 ******************************************
 Gaussian 09:  AM64L-G09RevD.01 24-Apr-2013
                 6-Aug-2020 
 ******************************************
 %nproc=1
 Will use up to    1 processors via shared memory.
 %Chk=SM46.n.10.pdb.xyz.mst.n.w.chk
 -----------------
 #p b3lyp/6-31G(d)
 -----------------
 1/38=1/1;
 2/12=2,17=6,18=5,40=1/2;
 3/5=1,6=6,7=1,11=2,16=1,25=1,30=1,74=-5/1,2,3;
 4//1;
 5/5=2,38=5/2;
 6/7=2,8=2,9=2,10=2,28=1/1;
 99/5=1,9=1/99;
 Leave Link    1 at Thu Aug  6 21:05:14 2020, MaxMem=           0 cpu:         0.0
 (Enter /prod/apps/gaussian/g09d1/l101.exe)
 -----------------
 SM46.n.10.pdb.xyz
 -----------------
 Symbolic Z-matrix:
 Charge =  0 Multiplicity = 1
 O                     1.222     3.287    -0.766 
 S                     1.82      2.307     0.149 
 N                     1.65      0.716    -0.409 
 C                     1.706     0.476    -1.798 
 N                     2.893     0.308    -2.443 
 N                     2.656     0.07     -3.705 
 C                     0.68      0.333    -2.708 
 N                     1.311     0.072    -3.879 
 C                     0.742    -0.181    -5.161 
 C                    -0.551    -0.7      -5.252 
 C                    -1.102    -0.935    -6.511 
 C                    -0.364    -0.667    -7.665 
 C                     0.931    -0.155    -7.558 
 C                     1.49      0.097    -6.307 
 N                     3.475     2.479     0.016 
 C                     3.948     3.87     -0.066 
 C                     4.257     1.633     0.931 
 O                     1.336     2.256     1.536 
 H                     0.845     0.295     0.056 
 H                    -0.39      0.404    -2.614 
 H                    -1.113    -0.928    -4.354 
 H                    -2.106    -1.337    -6.585 
 H                    -0.795    -0.855    -8.642 
 H                     1.508     0.059    -8.45 
 H                     2.487     0.506    -6.211 
 H                     3.358     4.412    -0.802 
 H                     4.987     3.836    -0.397 
 H                     3.901     4.387     0.9 
 H                     3.882     0.611     0.886 
 H                     4.223     1.997     1.964 
 H                     5.291     1.645     0.58 
 
 NAtoms=     31 NQM=       31 NQMF=       0 NMMI=      0 NMMIF=      0
                NMic=       0 NMicF=      0.
                    Isotopes and Nuclear Properties:
 (Nuclear quadrupole moments (NQMom) in fm**2, nuclear magnetic moments (NMagM)
  in nuclear magnetons)

  Atom         1           2           3           4           5           6           7           8           9          10
 IAtWgt=          16          32          14          12          14          14          12          14          12          12
 AtmWgt=  15.9949146  31.9720718  14.0030740  12.0000000  14.0030740  14.0030740  12.0000000  14.0030740  12.0000000  12.0000000
 NucSpn=           0           0           2           0           2           2           0           2           0           0
 AtZEff=   0.0000000   0.0000000   0.0000000   0.0000000   0.0000000   0.0000000   0.0000000   0.0000000   0.0000000   0.0000000
 NQMom=    0.0000000   0.0000000   2.0440000   0.0000000   2.0440000   2.0440000   0.0000000   2.0440000   0.0000000   0.0000000
 NMagM=    0.0000000   0.0000000   0.4037610   0.0000000   0.4037610   0.4037610   0.0000000   0.4037610   0.0000000   0.0000000
 AtZNuc=   8.0000000  16.0000000   7.0000000   6.0000000   7.0000000   7.0000000   6.0000000   7.0000000   6.0000000   6.0000000

  Atom        11          12          13          14          15          16          17          18          19          20
 IAtWgt=          12          12          12          12          14          12          12          16           1           1
 AtmWgt=  12.0000000  12.0000000  12.0000000  12.0000000  14.0030740  12.0000000  12.0000000  15.9949146   1.0078250   1.0078250
 NucSpn=           0           0           0           0           2           0           0           0           1           1
 AtZEff=   0.0000000   0.0000000   0.0000000   0.0000000   0.0000000   0.0000000   0.0000000   0.0000000   0.0000000   0.0000000
 NQMom=    0.0000000   0.0000000   0.0000000   0.0000000   2.0440000   0.0000000   0.0000000   0.0000000   0.0000000   0.0000000
 NMagM=    0.0000000   0.0000000   0.0000000   0.0000000   0.4037610   0.0000000   0.0000000   0.0000000   2.7928460   2.7928460
 AtZNuc=   6.0000000   6.0000000   6.0000000   6.0000000   7.0000000   6.0000000   6.0000000   8.0000000   1.0000000   1.0000000

  Atom        21          22          23          24          25          26          27          28          29          30
 IAtWgt=           1           1           1           1           1           1           1           1           1           1
 AtmWgt=   1.0078250   1.0078250   1.0078250   1.0078250   1.0078250   1.0078250   1.0078250   1.0078250   1.0078250   1.0078250
 NucSpn=           1           1           1           1           1           1           1           1           1           1
 AtZEff=   0.0000000   0.0000000   0.0000000   0.0000000   0.0000000   0.0000000   0.0000000   0.0000000   0.0000000   0.0000000
 NQMom=    0.0000000   0.0000000   0.0000000   0.0000000   0.0000000   0.0000000   0.0000000   0.0000000   0.0000000   0.0000000
 NMagM=    2.7928460   2.7928460   2.7928460   2.7928460   2.7928460   2.7928460   2.7928460   2.7928460   2.7928460   2.7928460
 AtZNuc=   1.0000000   1.0000000   1.0000000   1.0000000   1.0000000   1.0000000   1.0000000   1.0000000   1.0000000   1.0000000

  Atom        31
 IAtWgt=           1
 AtmWgt=   1.0078250
 NucSpn=           1
 AtZEff=   0.0000000
 NQMom=    0.0000000
 NMagM=    2.7928460
 AtZNuc=   1.0000000
 Leave Link  101 at Thu Aug  6 21:05:14 2020, MaxMem=    33554432 cpu:         0.1
 (Enter /prod/apps/gaussian/g09d1/l202.exe)
                          Input orientation:                          
 ---------------------------------------------------------------------
 Center     Atomic      Atomic             Coordinates (Angstroms)
 Number     Number       Type             X           Y           Z
 ---------------------------------------------------------------------
      1          8           0        1.222000    3.287000   -0.766000
      2         16           0        1.820000    2.307000    0.149000
      3          7           0        1.650000    0.716000   -0.409000
      4          6           0        1.706000    0.476000   -1.798000
      5          7           0        2.893000    0.308000   -2.443000
      6          7           0        2.656000    0.070000   -3.705000
      7          6           0        0.680000    0.333000   -2.708000
      8          7           0        1.311000    0.072000   -3.879000
      9          6           0        0.742000   -0.181000   -5.161000
     10          6           0       -0.551000   -0.700000   -5.252000
     11          6           0       -1.102000   -0.935000   -6.511000
     12          6           0       -0.364000   -0.667000   -7.665000
     13          6           0        0.931000   -0.155000   -7.558000
     14          6           0        1.490000    0.097000   -6.307000
     15          7           0        3.475000    2.479000    0.016000
     16          6           0        3.948000    3.870000   -0.066000
     17          6           0        4.257000    1.633000    0.931000
     18          8           0        1.336000    2.256000    1.536000
     19          1           0        0.845000    0.295000    0.056000
     20          1           0       -0.390000    0.404000   -2.614000
     21          1           0       -1.113000   -0.928000   -4.354000
     22          1           0       -2.106000   -1.337000   -6.585000
     23          1           0       -0.795000   -0.855000   -8.642000
     24          1           0        1.508000    0.059000   -8.450000
     25          1           0        2.487000    0.506000   -6.211000
     26          1           0        3.358000    4.412000   -0.802000
     27          1           0        4.987000    3.836000   -0.397000
     28          1           0        3.901000    4.387000    0.900000
     29          1           0        3.882000    0.611000    0.886000
     30          1           0        4.223000    1.997000    1.964000
     31          1           0        5.291000    1.645000    0.580000
 ---------------------------------------------------------------------
                    Distance matrix (angstroms):
                    1          2          3          4          5
     1  O    0.000000
     2  S    1.468070   0.000000
     3  N    2.630717   1.694563   0.000000
     4  C    3.033315   2.675139   1.410694   0.000000
     5  N    3.805130   3.444676   2.418402   1.361329   0.000000
     6  N    4.587283   4.533915   3.506133   2.168867   1.305931
     7  C    3.576485   3.654959   2.524478   1.378849   2.228950
     8  N    4.476038   4.634554   3.545498   2.156340   2.149539
     9  C    5.619026   5.962242   4.920424   3.559595   3.500492
    10  C    6.258106   6.620762   5.504917   4.290354   4.557157
    11  C    7.498752   7.962678   6.894469   5.664641   5.835555
    12  C    8.108373   8.641361   7.656267   6.325586   6.231208
    13  C    7.619928   8.139387   7.237666   5.846057   5.497912
    14  C    6.399266   6.831759   5.932551   4.530053   4.116239
    15  N    2.518014   1.669221   2.572823   3.229855   3.331463
    16  C    2.874189   2.649071   3.917419   4.421043   4.410329
    17  C    3.850552   2.646652   3.071309   3.910715   3.872983
    18  O    2.524908   1.469907   2.500644   3.797480   4.695891
    19  H    3.125680   2.237726   1.020535   2.052169   3.231017
    20  H    3.784883   4.017422   3.020094   2.250390   3.288852
    21  H    6.007678   6.272537   5.089197   4.055997   4.607348
    22  H    8.143569   8.604590   7.514341   6.382294   6.697178
    23  H    9.124463   9.701451   8.730885   7.407219   7.306265
    24  H    8.339403   8.893461   8.069045   6.667998   6.169625
    25  H    6.243574   6.643650   5.865822   4.481677   3.794979
    26  H    2.414419   2.775044   4.090493   4.383288   4.444313
    27  H    3.822668   3.558911   4.568382   4.900751   4.584510
    28  H    3.341047   3.036604   4.500747   5.233847   5.369353
    29  H    4.118942   2.769734   2.582610   3.457898   3.485996
    30  H    4.257112   3.027331   3.727254   4.775078   4.903394
    31  H    4.589623   3.559754   3.885620   4.457989   4.083687
                    6          7          8          9         10
     6  N    0.000000
     7  C    2.228846   0.000000
     8  N    1.356210   1.355553   0.000000
     9  C    2.417919   2.507040   1.425235   0.000000
    10  C    3.642933   3.009051   2.438884   1.396242   0.000000
    11  C    4.796480   4.387044   3.709992   2.406523   1.394241
    12  C    5.034399   5.163505   4.205418   2.780188   2.420460
    13  C    4.227512   4.880947   3.705532   2.404580   2.794814
    14  C    2.851436   3.696566   2.434718   1.396461   2.431854
    15  N    4.507758   4.453933   5.064343   6.430102   7.352995
    16  C    5.417710   5.492755   5.993125   7.255898   8.247454
    17  C    5.147685   5.265667   5.852498   7.263490   8.172469
    18  O    5.830015   4.705295   5.838896   7.151337   7.640396
    19  H    4.180367   2.769181   3.968767   5.239683   5.577966
    20  H    3.252684   1.076465   2.145658   2.847957   2.864224
    21  H    3.952539   2.741220   2.664845   2.156451   1.083620
    22  H    5.740269   5.057848   4.580787   3.387509   2.144920
    23  H    6.094177   6.228910   5.289682   3.864454   3.402302
    24  H    4.881910   5.807859   4.575262   3.385539   3.878500
    25  H    2.549253   3.945401   2.647557   2.149301   3.406400
    26  H    5.270026   5.238584   5.700328   6.851276   7.824022
    27  H    5.528036   6.013483   6.309120   7.540027   8.649611
    28  H    6.433703   6.310897   6.940185   8.220804   9.140294
    29  H    4.782577   4.821506   5.441120   6.859524   7.684091
    30  H    6.189215   6.095025   6.806322   8.223544   9.062866
    31  H    5.271155   5.813227   6.180405   7.548957   8.581388
                   11         12         13         14         15
    11  C    0.000000
    12  C    1.395774   0.000000
    13  C    2.416133   1.396645   0.000000
    14  C    2.797339   2.421813   1.393193   0.000000
    15  N    8.672142   9.145108   8.412810   7.042335   0.000000
    16  C    9.493606   9.844923   9.024022   7.695932   1.471507
    17  C    9.523490  10.026707   9.290982   7.899635   1.471212
    18  O    8.993361   9.802670   9.416888   8.136194   2.633524
    19  H    6.959109   7.874069   7.627771   6.398672   3.418824
    20  H    4.181683   5.163363   5.147879   4.155346   5.114758
    21  H    2.157039   3.404680   3.878283   3.411809   7.194046
    22  H    1.084018   2.156354   3.401062   3.881347   9.448948
    23  H    2.154486   1.084267   2.155025   3.402904  10.213198
    24  H    3.399979   2.155849   1.083692   2.143412   9.022120
    25  H    3.879098   3.408555   2.161589   1.081899   6.606391
    26  H    9.004148   9.313984   8.508311   7.239729   2.102214
    27  H    9.859988  10.086329   9.146537   7.819030   2.073201
    28  H   10.405605  10.820923  10.049300   8.726848   2.145553
    29  H    9.052402   9.632310   8.977544   7.597704   2.100470
    30  H   10.429663  10.993412  10.302274   8.915645   2.141619
    31  H    9.889850  10.261793   9.406202   8.017149   2.076417
                   16         17         18         19         20
    16  C    0.000000
    17  C    2.468534   0.000000
    18  O    3.463227   3.047359   0.000000
    19  H    4.735411   3.767972   2.505395   0.000000
    20  H    6.109313   5.972610   4.861222   2.943808   0.000000
    21  H    8.186664   7.957817   7.129345   4.977710   2.307499
    22  H   10.308304  10.285860   9.524057   7.448134   4.663108
    23  H   10.879773  11.106538  10.854085   8.925654   6.171377
    24  H    9.527265   9.901396  10.226270   8.535063   6.146570
    25  H    7.156259   7.443869   8.025167   6.481973   4.607162
    26  H    1.087915   3.396223   3.768695   4.899084   5.778833
    27  H    1.090980   2.673891   4.422973   5.468094   6.753210
    28  H    1.096656   2.777087   3.394832   5.176479   6.828262
    29  H    3.395842   1.089557   3.100103   3.164194   5.526557
    30  H    2.775726   1.095783   2.930023   4.236526   6.691450
    31  H    2.677982   1.092017   4.114521   4.675895   6.634416
                   21         22         23         24         25
    21  H    0.000000
    22  H    2.476023   0.000000
    23  H    4.300395   2.486422   0.000000
    24  H    4.961958   4.299772   2.485170   0.000000
    25  H    4.297069   4.963081   4.305067   2.484224   0.000000
    26  H    7.818065   9.815772  10.317669   8.992386   6.728503
    27  H    8.692729  10.740667  11.109322   9.550915   7.151328
    28  H    8.999663  11.174679  11.856675  10.577359   8.223617
    29  H    7.401091   9.770706  10.714769   9.648911   7.233565
    30  H    8.771867  11.147071  12.074828  10.935194   8.489252
    31  H    8.483861  10.721248  11.328490   9.918033   7.434878
                   26         27         28         29         30
    26  H    0.000000
    27  H    1.774667   0.000000
    28  H    1.786695   1.779103   0.000000
    29  H    4.191840   3.642491   3.776074   0.000000
    30  H    3.772427   3.088679   2.635883   1.788676   0.000000
    31  H    3.647287   2.418145   3.090803   1.774281   1.783251
                   31
    31  H    0.000000
 Stoichiometry    C10H13N5O2S
 Framework group  C1[X(C10H13N5O2S)]
 Deg. of freedom    87
 Full point group                 C1      NOp   1
 Largest Abelian subgroup         C1      NOp   1
 Largest concise Abelian subgroup C1      NOp   1
                         Standard orientation:                         
 ---------------------------------------------------------------------
 Center     Atomic      Atomic             Coordinates (Angstroms)
 Number     Number       Type             X           Y           Z
 ---------------------------------------------------------------------
      1          8           0        2.215568   -0.768050    1.669589
      2         16           0        2.841366   -0.713037    0.342721
      3          7           0        1.710126   -0.858700   -0.910524
      4          6           0        0.429461   -0.293536   -0.735751
      5          7           0        0.187889    1.017908   -1.009569
      6          7           0       -1.075847    1.266798   -0.793975
      7          6           0       -0.746713   -0.888409   -0.330824
      8          7           0       -1.660039    0.111533   -0.389760
      9          6           0       -3.053742    0.064190   -0.095405
     10          6           0       -3.742271   -1.145238   -0.208118
     11          6           0       -5.103463   -1.182863    0.091295
     12          6           0       -5.771161   -0.022318    0.485628
     13          6           0       -5.070652    1.181716    0.586662
     14          6           0       -3.707539    1.232012    0.303147
     15          7           0        3.322676    0.867979    0.108142
     16          6           0        3.919968    1.514473    1.287389
     17          6           0        4.057501    1.108138   -1.143585
     18          8           0        3.874365   -1.705345    0.012776
     19          1           0        1.699421   -1.829634   -1.224631
     20          1           0       -0.983288   -1.889644   -0.014063
     21          1           0       -3.225954   -2.039724   -0.536057
     22          1           0       -5.640636   -2.120525    0.005678
     23          1           0       -6.830656   -0.055370    0.713687
     24          1           0       -5.582106    2.085643    0.896048
     25          1           0       -3.150865    2.155583    0.390532
     26          1           0        3.290063    1.338496    2.156764
     27          1           0        3.953892    2.585538    1.082678
     28          1           0        4.937968    1.160363    1.489714
     29          1           0        3.518148    0.649507   -1.971770
     30          1           0        5.081251    0.719303   -1.105053
     31          1           0        4.089471    2.188594   -1.298809
 ---------------------------------------------------------------------
 Rotational constants (GHZ):      1.1326643      0.1640180      0.1570958
 Leave Link  202 at Thu Aug  6 21:05:14 2020, MaxMem=    33554432 cpu:         0.0
 (Enter /prod/apps/gaussian/g09d1/l301.exe)
 Standard basis: 6-31G(d) (6D, 7F)
 Ernie: Thresh=  0.10000D-02 Tol=  0.10000D-05 Strict=F.
 There are   300 symmetry adapted cartesian basis functions of A   symmetry.
 There are   300 symmetry adapted basis functions of A   symmetry.
   300 basis functions,   580 primitive gaussians,   300 cartesian basis functions
    70 alpha electrons       70 beta electrons
       nuclear repulsion energy      1461.1010175258 Hartrees.
 IExCor=  402 DFT=T Ex+Corr=B3LYP ExCW=0 ScaHFX=  0.200000
 ScaDFX=  0.800000  0.720000  1.000000  0.810000 ScalE2=  1.000000  1.000000
 IRadAn=      0 IRanWt=     -1 IRanGd=            0 ICorTp=0 IEmpDi=  4
 NAtoms=   31 NActive=   31 NUniq=   31 SFac= 1.00D+00 NAtFMM=   60 NAOKFM=F Big=F
 Integral buffers will be    131072 words long.
 Raffenetti 2 integral format.
 Two-electron integral symmetry is turned on.
 Leave Link  301 at Thu Aug  6 21:05:14 2020, MaxMem=    33554432 cpu:         0.0
 (Enter /prod/apps/gaussian/g09d1/l302.exe)
 NPDir=0 NMtPBC=     1 NCelOv=     1 NCel=       1 NClECP=     1 NCelD=      1
         NCelK=      1 NCelE2=     1 NClLst=     1 CellRange=     0.0.
 One-electron integrals computed using PRISM.
 NBasis=   300 RedAO= T EigKep=  4.67D-04  NBF=   300
 NBsUse=   300 1.00D-06 EigRej= -1.00D+00 NBFU=   300
 Precomputing XC quadrature grid using
 IXCGrd= 4 IRadAn=           0 IRanWt=          -1 IRanGd=           0 AccXCQ= 0.00D+00.
 Generated NRdTot=       0 NPtTot=           0 NUsed=           0 NTot=          32
 NSgBfM=   296   296   296   297   297 MxSgAt=    31 MxSgA2=    31.
 Leave Link  302 at Thu Aug  6 21:05:15 2020, MaxMem=    33554432 cpu:         1.0
 (Enter /prod/apps/gaussian/g09d1/l303.exe)
 DipDrv:  MaxL=1.
 Leave Link  303 at Thu Aug  6 21:05:15 2020, MaxMem=    33554432 cpu:         0.0
 (Enter /prod/apps/gaussian/g09d1/l401.exe)
 ExpMin= 1.17D-01 ExpMax= 2.19D+04 ExpMxC= 3.30D+03 IAcc=1 IRadAn=         1 AccDes= 0.00D+00
 Harris functional with IExCor=  402 and IRadAn=       1 diagonalized for initial guess.
 HarFok:  IExCor=  402 AccDes= 0.00D+00 IRadAn=         1 IDoV= 1 UseB2=F ITyADJ=14
 ICtDFT=  3500011 ScaDFX=  1.000000  1.000000  1.000000  1.000000
 FoFCou: FMM=F IPFlag=           0 FMFlag=      100000 FMFlg1=           0
         NFxFlg=           0 DoJE=T BraDBF=F KetDBF=T FulRan=T
         wScrn=  0.000000 ICntrl=     500 IOpCl=  0 I1Cent=   200000004 NGrid=           0
         NMat0=    1 NMatS0=      1 NMatT0=    0 NMatD0=    1 NMtDS0=    0 NMtDT0=    0
 Petite list used in FoFCou.
 Harris En= -1211.17104356836    
 JPrj=0 DoOrth=F DoCkMO=F.
 Leave Link  401 at Thu Aug  6 21:05:18 2020, MaxMem=    33554432 cpu:         2.9
 (Enter /prod/apps/gaussian/g09d1/l502.exe)
 Closed shell SCF:
 Using DIIS extrapolation, IDIIS=  1040.
 Integral symmetry usage will be decided dynamically.
 IVT=      292611 IEndB=      292611 NGot=    33554432 MDV=    33368762
 LenX=    33368762 LenY=    33278321
 Requested convergence on RMS density matrix=1.00D-08 within 128 cycles.
 Requested convergence on MAX density matrix=1.00D-06.
 Requested convergence on             energy=1.00D-06.
 No special actions if energy rises.
 Fock matrices will be formed incrementally for  20 cycles.
 Integral accuracy reduced to 1.0D-05 until final iterations.

 Cycle   1  Pass 0  IDiag  1:
 FoFJK:  IHMeth= 1 ICntrl=       0 DoSepK=F KAlg= 0 I1Cent=   0 FoldK=F
 IRaf= 720000000 NMat=   1 IRICut=       1 DoRegI=T DoRafI=F ISym2E= 0.
 FoFCou: FMM=F IPFlag=           0 FMFlag=      100000 FMFlg1=           0
         NFxFlg=           0 DoJE=F BraDBF=F KetDBF=F FulRan=T
         wScrn=  0.000000 ICntrl=       0 IOpCl=  0 I1Cent=           0 NGrid=           0
         NMat0=    1 NMatS0=      1 NMatT0=    0 NMatD0=    1 NMtDS0=    0 NMtDT0=    0
 Symmetry not used in FoFCou.
 E= -1210.60814870372    
 DIIS: error= 2.88D-02 at cycle   1 NSaved=   1.
 NSaved= 1 IEnMin= 1 EnMin= -1210.60814870372     IErMin= 1 ErrMin= 2.88D-02
 ErrMax= 2.88D-02  0.00D+00 EMaxC= 1.00D-01 BMatC= 6.42D-01 BMatP= 6.42D-01
 IDIUse=3 WtCom= 7.12D-01 WtEn= 2.88D-01
 Coeff-Com:  0.100D+01
 Coeff-En:   0.100D+01
 Coeff:      0.100D+01
 Gap=     0.311 Goal=   None    Shift=    0.000
 GapD=    0.311 DampG=1.000 DampE=0.500 DampFc=0.5000 IDamp=-1.
 Damping current iteration by 5.00D-01
 RMSDP=6.67D-03 MaxDP=6.06D-01              OVMax= 2.42D-01

 Cycle   2  Pass 0  IDiag  1:
 RMSU=  3.33D-03    CP:  9.93D-01
 E= -1210.73058142974     Delta-E=       -0.122432726020 Rises=F Damp=T
 DIIS: error= 1.67D-02 at cycle   2 NSaved=   2.
 NSaved= 2 IEnMin= 2 EnMin= -1210.73058142974     IErMin= 2 ErrMin= 1.67D-02
 ErrMax= 1.67D-02  0.00D+00 EMaxC= 1.00D-01 BMatC= 1.12D-01 BMatP= 6.42D-01
 IDIUse=3 WtCom= 8.33D-01 WtEn= 1.67D-01
 Coeff-Com:  0.244D+00 0.756D+00
 Coeff-En:   0.387D+00 0.613D+00
 Coeff:      0.268D+00 0.732D+00
 Gap=     0.234 Goal=   None    Shift=    0.000
 RMSDP=1.93D-03 MaxDP=1.31D-01 DE=-1.22D-01 OVMax= 1.76D-01

 Cycle   3  Pass 0  IDiag  1:
 RMSU=  1.60D-03    CP:  9.83D-01  6.87D-01
 E= -1211.11356982940     Delta-E=       -0.382988399658 Rises=F Damp=F
 DIIS: error= 1.01D-02 at cycle   3 NSaved=   3.
 NSaved= 3 IEnMin= 3 EnMin= -1211.11356982940     IErMin= 3 ErrMin= 1.01D-02
 ErrMax= 1.01D-02  0.00D+00 EMaxC= 1.00D-01 BMatC= 5.35D-02 BMatP= 1.12D-01
 IDIUse=3 WtCom= 8.99D-01 WtEn= 1.01D-01
 Coeff-Com:  0.859D-01 0.410D+00 0.505D+00
 Coeff-En:   0.000D+00 0.000D+00 0.100D+01
 Coeff:      0.772D-01 0.368D+00 0.555D+00
 Gap=     0.200 Goal=   None    Shift=    0.000
 RMSDP=1.12D-03 MaxDP=3.80D-02 DE=-3.83D-01 OVMax= 5.10D-02

 Cycle   4  Pass 0  IDiag  1:
 RMSU=  7.13D-04    CP:  9.88D-01  7.57D-01  4.89D-01
 E= -1211.15345035630     Delta-E=       -0.039880526906 Rises=F Damp=F
 DIIS: error= 4.21D-03 at cycle   4 NSaved=   4.
 NSaved= 4 IEnMin= 4 EnMin= -1211.15345035630     IErMin= 4 ErrMin= 4.21D-03
 ErrMax= 4.21D-03  0.00D+00 EMaxC= 1.00D-01 BMatC= 1.03D-02 BMatP= 5.35D-02
 IDIUse=3 WtCom= 9.58D-01 WtEn= 4.21D-02
 Coeff-Com:  0.107D-01 0.860D-01 0.318D+00 0.585D+00
 Coeff-En:   0.000D+00 0.000D+00 0.167D+00 0.833D+00
 Coeff:      0.103D-01 0.824D-01 0.312D+00 0.596D+00
 Gap=     0.196 Goal=   None    Shift=    0.000
 RMSDP=3.81D-04 MaxDP=1.67D-02 DE=-3.99D-02 OVMax= 2.00D-02

 Cycle   5  Pass 0  IDiag  1:
 RMSU=  1.74D-04    CP:  9.88D-01  7.44D-01  6.17D-01  6.29D-01
 E= -1211.16195416041     Delta-E=       -0.008503804109 Rises=F Damp=F
 DIIS: error= 7.77D-04 at cycle   5 NSaved=   5.
 NSaved= 5 IEnMin= 5 EnMin= -1211.16195416041     IErMin= 5 ErrMin= 7.77D-04
 ErrMax= 7.77D-04  0.00D+00 EMaxC= 1.00D-01 BMatC= 5.88D-04 BMatP= 1.03D-02
 IDIUse=3 WtCom= 9.92D-01 WtEn= 7.77D-03
 Coeff-Com: -0.714D-03 0.155D-01 0.117D+00 0.300D+00 0.568D+00
 Coeff-En:   0.000D+00 0.000D+00 0.000D+00 0.000D+00 0.100D+01
 Coeff:     -0.708D-03 0.154D-01 0.116D+00 0.298D+00 0.572D+00
 Gap=     0.198 Goal=   None    Shift=    0.000
 RMSDP=9.42D-05 MaxDP=5.54D-03 DE=-8.50D-03 OVMax= 5.20D-03

 Cycle   6  Pass 0  IDiag  1:
 RMSU=  5.14D-05    CP:  9.87D-01  7.45D-01  6.17D-01  6.76D-01  5.95D-01
 E= -1211.16244382403     Delta-E=       -0.000489663615 Rises=F Damp=F
 DIIS: error= 2.29D-04 at cycle   6 NSaved=   6.
 NSaved= 6 IEnMin= 6 EnMin= -1211.16244382403     IErMin= 6 ErrMin= 2.29D-04
 ErrMax= 2.29D-04  0.00D+00 EMaxC= 1.00D-01 BMatC= 3.82D-05 BMatP= 5.88D-04
 IDIUse=3 WtCom= 9.98D-01 WtEn= 2.29D-03
 Coeff-Com: -0.109D-02 0.197D-02 0.347D-01 0.103D+00 0.283D+00 0.579D+00
 Coeff-En:   0.000D+00 0.000D+00 0.000D+00 0.000D+00 0.000D+00 0.100D+01
 Coeff:     -0.108D-02 0.197D-02 0.346D-01 0.103D+00 0.282D+00 0.580D+00
 Gap=     0.197 Goal=   None    Shift=    0.000
 RMSDP=2.36D-05 MaxDP=1.05D-03 DE=-4.90D-04 OVMax= 1.47D-03

 Cycle   7  Pass 0  IDiag  1:
 RMSU=  1.66D-05    CP:  9.87D-01  7.45D-01  6.19D-01  6.76D-01  6.29D-01
                    CP:  7.02D-01
 E= -1211.16247276326     Delta-E=       -0.000028939237 Rises=F Damp=F
 DIIS: error= 7.86D-05 at cycle   7 NSaved=   7.
 NSaved= 7 IEnMin= 7 EnMin= -1211.16247276326     IErMin= 7 ErrMin= 7.86D-05
 ErrMax= 7.86D-05  0.00D+00 EMaxC= 1.00D-01 BMatC= 5.10D-06 BMatP= 3.82D-05
 IDIUse=1 WtCom= 1.00D+00 WtEn= 0.00D+00
 Coeff-Com: -0.641D-03-0.110D-03 0.122D-01 0.399D-01 0.131D+00 0.346D+00
 Coeff-Com:  0.471D+00
 Coeff:     -0.641D-03-0.110D-03 0.122D-01 0.399D-01 0.131D+00 0.346D+00
 Coeff:      0.471D+00
 Gap=     0.197 Goal=   None    Shift=    0.000
 RMSDP=9.38D-06 MaxDP=4.19D-04 DE=-2.89D-05 OVMax= 6.89D-04

 Initial convergence to 1.0D-05 achieved.  Increase integral accuracy.
 Cycle   8  Pass 1  IDiag  1:
 E= -1211.16240686195     Delta-E=        0.000065901311 Rises=F Damp=F
 DIIS: error= 7.49D-05 at cycle   1 NSaved=   1.
 NSaved= 1 IEnMin= 1 EnMin= -1211.16240686195     IErMin= 1 ErrMin= 7.49D-05
 ErrMax= 7.49D-05  0.00D+00 EMaxC= 1.00D-01 BMatC= 1.05D-06 BMatP= 1.05D-06
 IDIUse=1 WtCom= 1.00D+00 WtEn= 0.00D+00
 Coeff-Com:  0.100D+01
 Coeff:      0.100D+01
 Gap=     0.197 Goal=   None    Shift=    0.000
 RMSDP=9.38D-06 MaxDP=4.19D-04 DE= 6.59D-05 OVMax= 5.73D-04

 Cycle   9  Pass 1  IDiag  1:
 RMSU=  3.58D-05    CP:  1.00D+00
 E= -1211.16240503783     Delta-E=        0.000001824122 Rises=F Damp=F
 DIIS: error= 7.45D-05 at cycle   2 NSaved=   2.
 NSaved= 2 IEnMin= 1 EnMin= -1211.16240686195     IErMin= 2 ErrMin= 7.45D-05
 ErrMax= 7.45D-05  0.00D+00 EMaxC= 1.00D-01 BMatC= 3.30D-06 BMatP= 1.05D-06
 IDIUse=1 WtCom= 1.00D+00 WtEn= 0.00D+00
 Coeff-Com:  0.657D+00 0.343D+00
 Coeff:      0.657D+00 0.343D+00
 Gap=     0.197 Goal=   None    Shift=    0.000
 RMSDP=6.34D-06 MaxDP=3.30D-04 DE= 1.82D-06 OVMax= 4.51D-04

 Cycle  10  Pass 1  IDiag  1:
 RMSU=  6.19D-06    CP:  1.00D+00  9.63D-01
 E= -1211.16240778716     Delta-E=       -0.000002749332 Rises=F Damp=F
 DIIS: error= 1.35D-05 at cycle   3 NSaved=   3.
 NSaved= 3 IEnMin= 3 EnMin= -1211.16240778716     IErMin= 3 ErrMin= 1.35D-05
 ErrMax= 1.35D-05  0.00D+00 EMaxC= 1.00D-01 BMatC= 9.05D-08 BMatP= 1.05D-06
 IDIUse=1 WtCom= 1.00D+00 WtEn= 0.00D+00
 Coeff-Com:  0.647D-01 0.147D+00 0.788D+00
 Coeff:      0.647D-01 0.147D+00 0.788D+00
 Gap=     0.197 Goal=   None    Shift=    0.000
 RMSDP=1.44D-06 MaxDP=5.34D-05 DE=-2.75D-06 OVMax= 8.79D-05

 Cycle  11  Pass 1  IDiag  1:
 RMSU=  9.49D-07    CP:  1.00D+00  9.76D-01  8.43D-01
 E= -1211.16240784584     Delta-E=       -0.000000058680 Rises=F Damp=F
 DIIS: error= 7.47D-06 at cycle   4 NSaved=   4.
 NSaved= 4 IEnMin= 4 EnMin= -1211.16240784584     IErMin= 4 ErrMin= 7.47D-06
 ErrMax= 7.47D-06  0.00D+00 EMaxC= 1.00D-01 BMatC= 2.62D-08 BMatP= 9.05D-08
 IDIUse=1 WtCom= 1.00D+00 WtEn= 0.00D+00
 Coeff-Com: -0.277D-02 0.681D-01 0.498D+00 0.437D+00
 Coeff:     -0.277D-02 0.681D-01 0.498D+00 0.437D+00
 Gap=     0.197 Goal=   None    Shift=    0.000
 RMSDP=5.88D-07 MaxDP=2.06D-05 DE=-5.87D-08 OVMax= 4.30D-05

 Cycle  12  Pass 1  IDiag  1:
 RMSU=  2.53D-07    CP:  1.00D+00  9.77D-01  8.71D-01  4.71D-01
 E= -1211.16240786961     Delta-E=       -0.000000023769 Rises=F Damp=F
 DIIS: error= 1.52D-06 at cycle   5 NSaved=   5.
 NSaved= 5 IEnMin= 5 EnMin= -1211.16240786961     IErMin= 5 ErrMin= 1.52D-06
 ErrMax= 1.52D-06  0.00D+00 EMaxC= 1.00D-01 BMatC= 1.19D-09 BMatP= 2.62D-08
 IDIUse=1 WtCom= 1.00D+00 WtEn= 0.00D+00
 Coeff-Com: -0.441D-02 0.353D-01 0.271D+00 0.270D+00 0.427D+00
 Coeff:     -0.441D-02 0.353D-01 0.271D+00 0.270D+00 0.427D+00
 Gap=     0.197 Goal=   None    Shift=    0.000
 RMSDP=1.33D-07 MaxDP=5.39D-06 DE=-2.38D-08 OVMax= 1.03D-05

 Cycle  13  Pass 1  IDiag  1:
 RMSU=  8.71D-08    CP:  1.00D+00  9.77D-01  8.70D-01  5.03D-01  6.24D-01
 E= -1211.16240787070     Delta-E=       -0.000000001087 Rises=F Damp=F
 DIIS: error= 3.29D-07 at cycle   6 NSaved=   6.
 NSaved= 6 IEnMin= 6 EnMin= -1211.16240787070     IErMin= 6 ErrMin= 3.29D-07
 ErrMax= 3.29D-07  0.00D+00 EMaxC= 1.00D-01 BMatC= 6.19D-11 BMatP= 1.19D-09
 IDIUse=1 WtCom= 1.00D+00 WtEn= 0.00D+00
 Coeff-Com: -0.225D-02 0.123D-01 0.990D-01 0.105D+00 0.235D+00 0.551D+00
 Coeff:     -0.225D-02 0.123D-01 0.990D-01 0.105D+00 0.235D+00 0.551D+00
 Gap=     0.197 Goal=   None    Shift=    0.000
 RMSDP=3.25D-08 MaxDP=1.14D-06 DE=-1.09D-09 OVMax= 2.14D-06

 Cycle  14  Pass 1  IDiag  1:
 RMSU=  2.69D-08    CP:  1.00D+00  9.77D-01  8.69D-01  5.00D-01  6.61D-01
                    CP:  8.24D-01
 E= -1211.16240787077     Delta-E=       -0.000000000070 Rises=F Damp=F
 DIIS: error= 1.39D-07 at cycle   7 NSaved=   7.
 NSaved= 7 IEnMin= 7 EnMin= -1211.16240787077     IErMin= 7 ErrMin= 1.39D-07
 ErrMax= 1.39D-07  0.00D+00 EMaxC= 1.00D-01 BMatC= 8.29D-12 BMatP= 6.19D-11
 IDIUse=1 WtCom= 1.00D+00 WtEn= 0.00D+00
 Coeff-Com: -0.731D-03 0.296D-02 0.255D-01 0.293D-01 0.849D-01 0.311D+00
 Coeff-Com:  0.547D+00
 Coeff:     -0.731D-03 0.296D-02 0.255D-01 0.293D-01 0.849D-01 0.311D+00
 Coeff:      0.547D+00
 Gap=     0.197 Goal=   None    Shift=    0.000
 RMSDP=1.35D-08 MaxDP=4.83D-07 DE=-7.00D-11 OVMax= 1.09D-06

 Cycle  15  Pass 1  IDiag  1:
 RMSU=  8.35D-09    CP:  1.00D+00  9.77D-01  8.70D-01  5.02D-01  6.72D-01
                    CP:  8.71D-01  6.60D-01
 E= -1211.16240787073     Delta-E=        0.000000000035 Rises=F Damp=F
 DIIS: error= 5.40D-08 at cycle   8 NSaved=   8.
 NSaved= 8 IEnMin= 7 EnMin= -1211.16240787077     IErMin= 8 ErrMin= 5.40D-08
 ErrMax= 5.40D-08  0.00D+00 EMaxC= 1.00D-01 BMatC= 1.19D-12 BMatP= 8.29D-12
 IDIUse=1 WtCom= 1.00D+00 WtEn= 0.00D+00
 Coeff-Com: -0.167D-04-0.514D-03-0.291D-02-0.184D-02 0.617D-02 0.708D-01
 Coeff-Com:  0.312D+00 0.617D+00
 Coeff:     -0.167D-04-0.514D-03-0.291D-02-0.184D-02 0.617D-02 0.708D-01
 Coeff:      0.312D+00 0.617D+00
 Gap=     0.197 Goal=   None    Shift=    0.000
 RMSDP=4.51D-09 MaxDP=1.64D-07 DE= 3.50D-11 OVMax= 3.99D-07

 SCF Done:  E(RB3LYP) =  -1211.16240787     A.U. after   15 cycles
            NFock= 15  Conv=0.45D-08     -V/T= 2.0075
 KE= 1.202090244541D+03 PE=-5.758976163212D+03 EE= 1.884622493275D+03
 Leave Link  502 at Thu Aug  6 21:08:58 2020, MaxMem=    33554432 cpu:       219.5
 (Enter /prod/apps/gaussian/g09d1/l601.exe)
 Copying SCF densities to generalized density rwf, IOpCl= 0 IROHF=0.

 **********************************************************************

            Population analysis using the SCF density.

 **********************************************************************

 Orbital symmetries:
       Occupied  (A) (A) (A) (A) (A) (A) (A) (A) (A) (A) (A) (A)
                 (A) (A) (A) (A) (A) (A) (A) (A) (A) (A) (A) (A)
                 (A) (A) (A) (A) (A) (A) (A) (A) (A) (A) (A) (A)
                 (A) (A) (A) (A) (A) (A) (A) (A) (A) (A) (A) (A)
                 (A) (A) (A) (A) (A) (A) (A) (A) (A) (A) (A) (A)
                 (A) (A) (A) (A) (A) (A) (A) (A) (A) (A)
       Virtual   (A) (A) (A) (A) (A) (A) (A) (A) (A) (A) (A) (A)
                 (A) (A) (A) (A) (A) (A) (A) (A) (A) (A) (A) (A)
                 (A) (A) (A) (A) (A) (A) (A) (A) (A) (A) (A) (A)
                 (A) (A) (A) (A) (A) (A) (A) (A) (A) (A) (A) (A)
                 (A) (A) (A) (A) (A) (A) (A) (A) (A) (A) (A) (A)
                 (A) (A) (A) (A) (A) (A) (A) (A) (A) (A) (A) (A)
                 (A) (A) (A) (A) (A) (A) (A) (A) (A) (A) (A) (A)
                 (A) (A) (A) (A) (A) (A) (A) (A) (A) (A) (A) (A)
                 (A) (A) (A) (A) (A) (A) (A) (A) (A) (A) (A) (A)
                 (A) (A) (A) (A) (A) (A) (A) (A) (A) (A) (A) (A)
                 (A) (A) (A) (A) (A) (A) (A) (A) (A) (A) (A) (A)
                 (A) (A) (A) (A) (A) (A) (A) (A) (A) (A) (A) (A)
                 (A) (A) (A) (A) (A) (A) (A) (A) (A) (A) (A) (A)
                 (A) (A) (A) (A) (A) (A) (A) (A) (A) (A) (A) (A)
                 (A) (A) (A) (A) (A) (A) (A) (A) (A) (A) (A) (A)
                 (A) (A) (A) (A) (A) (A) (A) (A) (A) (A) (A) (A)
                 (A) (A) (A) (A) (A) (A) (A) (A) (A) (A) (A) (A)
                 (A) (A) (A) (A) (A) (A) (A) (A) (A) (A) (A) (A)
                 (A) (A) (A) (A) (A) (A) (A) (A) (A) (A) (A) (A)
                 (A) (A)
 The electronic state is 1-A.
 Alpha  occ. eigenvalues --  -89.12553 -19.14100 -19.14050 -14.44357 -14.39750
 Alpha  occ. eigenvalues --  -14.38484 -14.37162 -14.36165 -10.25998 -10.25700
 Alpha  occ. eigenvalues --  -10.24630 -10.21943 -10.21777 -10.21629 -10.21219
 Alpha  occ. eigenvalues --  -10.20999 -10.20939 -10.20806  -8.14843  -6.11339
 Alpha  occ. eigenvalues --   -6.11262  -6.11208  -1.11783  -1.10831  -0.99628
 Alpha  occ. eigenvalues --   -0.95669  -0.93790  -0.92674  -0.86673  -0.80870
 Alpha  occ. eigenvalues --   -0.77008  -0.76561  -0.72465  -0.71080  -0.67028
 Alpha  occ. eigenvalues --   -0.65292  -0.61930  -0.60876  -0.58590  -0.56768
 Alpha  occ. eigenvalues --   -0.53435  -0.53252  -0.50754  -0.49885  -0.48947
 Alpha  occ. eigenvalues --   -0.48693  -0.47485  -0.46011  -0.45613  -0.45308
 Alpha  occ. eigenvalues --   -0.44285  -0.43443  -0.41372  -0.40676  -0.39113
 Alpha  occ. eigenvalues --   -0.38566  -0.38237  -0.36968  -0.34996  -0.34592
 Alpha  occ. eigenvalues --   -0.33864  -0.33406  -0.31762  -0.30488  -0.29305
 Alpha  occ. eigenvalues --   -0.27874  -0.27095  -0.26770  -0.25344  -0.24185
 Alpha virt. eigenvalues --   -0.04500  -0.02191   0.01478   0.02214   0.05838
 Alpha virt. eigenvalues --    0.07415   0.07908   0.09595   0.09837   0.10714
 Alpha virt. eigenvalues --    0.12471   0.12755   0.13736   0.14219   0.14508
 Alpha virt. eigenvalues --    0.14829   0.15845   0.16844   0.17364   0.17629
 Alpha virt. eigenvalues --    0.18298   0.19013   0.19576   0.20259   0.21507
 Alpha virt. eigenvalues --    0.22489   0.22851   0.25143   0.28412   0.30000
 Alpha virt. eigenvalues --    0.30669   0.32629   0.34562   0.36176   0.38080
 Alpha virt. eigenvalues --    0.39507   0.41974   0.42950   0.44719   0.47654
 Alpha virt. eigenvalues --    0.48375   0.49458   0.49763   0.50835   0.51781
 Alpha virt. eigenvalues --    0.53303   0.54334   0.54986   0.56347   0.56656
 Alpha virt. eigenvalues --    0.57443   0.57672   0.58626   0.59242   0.59648
 Alpha virt. eigenvalues --    0.60078   0.61050   0.61645   0.62969   0.64407
 Alpha virt. eigenvalues --    0.64552   0.66118   0.66631   0.67848   0.69929
 Alpha virt. eigenvalues --    0.71586   0.73361   0.73783   0.74908   0.77096
 Alpha virt. eigenvalues --    0.77245   0.78275   0.79367   0.80751   0.81303
 Alpha virt. eigenvalues --    0.82333   0.82538   0.82884   0.83830   0.84556
 Alpha virt. eigenvalues --    0.85156   0.85454   0.86319   0.88377   0.88755
 Alpha virt. eigenvalues --    0.89262   0.90011   0.91516   0.92601   0.93022
 Alpha virt. eigenvalues --    0.94356   0.95686   0.95785   0.97266   0.98178
 Alpha virt. eigenvalues --    0.98749   1.00039   1.00992   1.02129   1.04670
 Alpha virt. eigenvalues --    1.05466   1.07142   1.07169   1.08885   1.09692
 Alpha virt. eigenvalues --    1.12145   1.13937   1.15013   1.15465   1.17800
 Alpha virt. eigenvalues --    1.18576   1.19646   1.21751   1.24109   1.24988
 Alpha virt. eigenvalues --    1.27377   1.29623   1.31555   1.36417   1.37844
 Alpha virt. eigenvalues --    1.38887   1.40803   1.41269   1.42452   1.43298
 Alpha virt. eigenvalues --    1.45110   1.45454   1.47105   1.48370   1.49153
 Alpha virt. eigenvalues --    1.50372   1.53688   1.56176   1.58434   1.58653
 Alpha virt. eigenvalues --    1.62300   1.67952   1.69126   1.71661   1.77523
 Alpha virt. eigenvalues --    1.78699   1.79382   1.79765   1.81114   1.82073
 Alpha virt. eigenvalues --    1.83185   1.83833   1.85517   1.86544   1.87780
 Alpha virt. eigenvalues --    1.90074   1.91490   1.93482   1.94133   1.95492
 Alpha virt. eigenvalues --    1.96273   1.98255   1.99526   2.01143   2.04612
 Alpha virt. eigenvalues --    2.06369   2.07473   2.08623   2.09462   2.10236
 Alpha virt. eigenvalues --    2.10677   2.12240   2.12755   2.14115   2.14859
 Alpha virt. eigenvalues --    2.17027   2.19499   2.19716   2.21258   2.22983
 Alpha virt. eigenvalues --    2.24429   2.25881   2.28376   2.28989   2.30477
 Alpha virt. eigenvalues --    2.31629   2.34699   2.36876   2.38372   2.39459
 Alpha virt. eigenvalues --    2.43013   2.48128   2.48369   2.50512   2.53680
 Alpha virt. eigenvalues --    2.56245   2.57331   2.59388   2.62117   2.63229
 Alpha virt. eigenvalues --    2.63549   2.66600   2.69146   2.71080   2.71498
 Alpha virt. eigenvalues --    2.73138   2.75385   2.77015   2.80059   2.83686
 Alpha virt. eigenvalues --    2.86841   2.88371   3.00311   3.06495   3.13166
 Alpha virt. eigenvalues --    3.25111   3.41438   3.61577   3.81317   3.93188
 Alpha virt. eigenvalues --    3.98965   4.03042   4.04436   4.06711   4.09107
 Alpha virt. eigenvalues --    4.09779   4.11113   4.14801   4.21806   4.25146
 Alpha virt. eigenvalues --    4.30885   4.33150   4.38950   4.49855   4.70268
          Condensed to atoms (all electrons):
               1          2          3          4          5          6
     1  O    8.229552   0.443148  -0.057538   0.007266  -0.000651   0.000001
     2  S    0.443148  13.611298   0.121375  -0.007608  -0.003244   0.000250
     3  N   -0.057538   0.121375   7.397159   0.242742  -0.055149   0.005642
     4  C    0.007266  -0.007608   0.242742   4.690460   0.355817  -0.066595
     5  N   -0.000651  -0.003244  -0.055149   0.355817   6.828374   0.300640
     6  N    0.000001   0.000250   0.005642  -0.066595   0.300640   6.762602
     7  C    0.001460  -0.002216  -0.081163   0.491529  -0.069822  -0.101786
     8  N   -0.000051   0.000033   0.003703  -0.048862  -0.082411   0.190907
     9  C   -0.000001  -0.000020  -0.000108   0.006161   0.006256  -0.043655
    10  C    0.000000   0.000000   0.000004   0.000827  -0.000311   0.002903
    11  C    0.000000   0.000000   0.000000  -0.000008   0.000002  -0.000069
    12  C    0.000000   0.000000   0.000000   0.000000   0.000000   0.000016
    13  C    0.000000   0.000000   0.000000   0.000006  -0.000004   0.000346
    14  C    0.000000   0.000000   0.000000  -0.000423   0.000293   0.001229
    15  N   -0.054262   0.156271  -0.045709  -0.003975   0.002075   0.000044
    16  C   -0.003756  -0.029263   0.002093   0.000047   0.000007   0.000001
    17  C    0.001662  -0.009028  -0.008975  -0.000316   0.000427  -0.000009
    18  O   -0.046464   0.442762  -0.054182   0.001463  -0.000017   0.000000
    19  H   -0.000367  -0.018085   0.310390  -0.030103   0.001936  -0.000094
    20  H    0.000079   0.000289  -0.000071  -0.026024   0.004048   0.003527
    21  H    0.000000   0.000000   0.000001  -0.000001  -0.000003  -0.000084
    22  H    0.000000   0.000000   0.000000   0.000000   0.000000   0.000001
    23  H    0.000000   0.000000   0.000000   0.000000   0.000000   0.000000
    24  H    0.000000   0.000000   0.000000   0.000000   0.000000  -0.000008
    25  H    0.000000   0.000000   0.000000   0.000053  -0.000345   0.015289
    26  H    0.011859  -0.004457   0.000114   0.000006  -0.000008   0.000000
    27  H    0.000267   0.001767  -0.000067   0.000002   0.000003  -0.000001
    28  H   -0.000540  -0.002319  -0.000086  -0.000008   0.000001   0.000000
    29  H    0.000024  -0.003225   0.011723  -0.000131   0.000707  -0.000003
    30  H   -0.000047  -0.006701  -0.000172  -0.000010   0.000015   0.000000
    31  H   -0.000050   0.002729  -0.000012  -0.000016   0.000040   0.000000
               7          8          9         10         11         12
     1  O    0.001460  -0.000051  -0.000001   0.000000   0.000000   0.000000
     2  S   -0.002216   0.000033  -0.000020   0.000000   0.000000   0.000000
     3  N   -0.081163   0.003703  -0.000108   0.000004   0.000000   0.000000
     4  C    0.491529  -0.048862   0.006161   0.000827  -0.000008   0.000000
     5  N   -0.069822  -0.082411   0.006256  -0.000311   0.000002   0.000000
     6  N   -0.101786   0.190907  -0.043655   0.002903  -0.000069   0.000016
     7  C    5.075880   0.323295  -0.035429  -0.007746  -0.000029   0.000020
     8  N    0.323295   6.936694   0.198084  -0.051669   0.004689   0.000393
     9  C   -0.035429   0.198084   4.613651   0.530153  -0.007398  -0.038076
    10  C   -0.007746  -0.051669   0.530153   4.991237   0.529368  -0.039466
    11  C   -0.000029   0.004689  -0.007398   0.529368   4.844251   0.550278
    12  C    0.000020   0.000393  -0.038076  -0.039466   0.550278   4.849043
    13  C   -0.000086   0.004567  -0.009457  -0.042231  -0.022753   0.543540
    14  C    0.007633  -0.057034   0.519051  -0.073089  -0.041422  -0.037248
    15  N   -0.000058   0.000003   0.000000   0.000000   0.000000   0.000000
    16  C    0.000009   0.000000   0.000000   0.000000   0.000000   0.000000
    17  C   -0.000027   0.000001   0.000000   0.000000   0.000000   0.000000
    18  O   -0.000019   0.000000   0.000000   0.000000   0.000000   0.000000
    19  H   -0.001259  -0.000005   0.000003   0.000000   0.000000   0.000000
    20  H    0.358585  -0.035385  -0.001254   0.002096   0.000157  -0.000001
    21  H    0.006251  -0.009684  -0.040912   0.347977  -0.037991   0.004517
    22  H   -0.000004  -0.000114   0.003558  -0.039346   0.359618  -0.040341
    23  H    0.000000   0.000004   0.000534   0.004996  -0.042424   0.362334
    24  H    0.000001  -0.000109   0.003474   0.000816   0.004564  -0.041413
    25  H    0.000260  -0.013339  -0.034055   0.005595   0.000163   0.004395
    26  H   -0.000003   0.000000   0.000000   0.000000   0.000000   0.000000
    27  H    0.000000   0.000000   0.000000   0.000000   0.000000   0.000000
    28  H    0.000000   0.000000   0.000000   0.000000   0.000000   0.000000
    29  H    0.000033   0.000001   0.000000   0.000000   0.000000   0.000000
    30  H    0.000001   0.000000   0.000000   0.000000   0.000000   0.000000
    31  H    0.000001   0.000000   0.000000   0.000000   0.000000   0.000000
              13         14         15         16         17         18
     1  O    0.000000   0.000000  -0.054262  -0.003756   0.001662  -0.046464
     2  S    0.000000   0.000000   0.156271  -0.029263  -0.009028   0.442762
     3  N    0.000000   0.000000  -0.045709   0.002093  -0.008975  -0.054182
     4  C    0.000006  -0.000423  -0.003975   0.000047  -0.000316   0.001463
     5  N   -0.000004   0.000293   0.002075   0.000007   0.000427  -0.000017
     6  N    0.000346   0.001229   0.000044   0.000001  -0.000009   0.000000
     7  C   -0.000086   0.007633  -0.000058   0.000009  -0.000027  -0.000019
     8  N    0.004567  -0.057034   0.000003   0.000000   0.000001   0.000000
     9  C   -0.009457   0.519051   0.000000   0.000000   0.000000   0.000000
    10  C   -0.042231  -0.073089   0.000000   0.000000   0.000000   0.000000
    11  C   -0.022753  -0.041422   0.000000   0.000000   0.000000   0.000000
    12  C    0.543540  -0.037248   0.000000   0.000000   0.000000   0.000000
    13  C    4.866305   0.517640   0.000000   0.000000   0.000000   0.000000
    14  C    0.517640   4.977123   0.000000   0.000000   0.000000   0.000000
    15  N    0.000000   0.000000   7.159172   0.300589   0.273672  -0.056126
    16  C    0.000000   0.000000   0.300589   4.979781  -0.049753  -0.002244
    17  C    0.000000   0.000000   0.273672  -0.049753   4.984981   0.002517
    18  O    0.000000   0.000000  -0.056126  -0.002244   0.002517   8.236651
    19  H    0.000000   0.000000   0.002762  -0.000058  -0.000085   0.005400
    20  H   -0.000006  -0.000100  -0.000001   0.000000   0.000000  -0.000002
    21  H    0.000252   0.005773   0.000000   0.000000   0.000000   0.000000
    22  H    0.004551   0.000781   0.000000   0.000000   0.000000   0.000000
    23  H   -0.042423   0.004694   0.000000   0.000000   0.000000   0.000000
    24  H    0.360593  -0.038210   0.000000   0.000000   0.000000   0.000000
    25  H   -0.040207   0.354959   0.000000   0.000000   0.000000   0.000000
    26  H    0.000000   0.000000  -0.030113   0.377640   0.004488  -0.000136
    27  H    0.000000   0.000000  -0.039696   0.378208  -0.002731  -0.000108
    28  H    0.000000   0.000000  -0.048832   0.371037  -0.002173   0.002099
    29  H    0.000000   0.000000  -0.031326   0.004484   0.376978  -0.001757
    30  H    0.000000   0.000000  -0.046703  -0.001767   0.371552   0.004912
    31  H    0.000000   0.000000  -0.034860  -0.003947   0.374283   0.000040
              19         20         21         22         23         24
     1  O   -0.000367   0.000079   0.000000   0.000000   0.000000   0.000000
     2  S   -0.018085   0.000289   0.000000   0.000000   0.000000   0.000000
     3  N    0.310390  -0.000071   0.000001   0.000000   0.000000   0.000000
     4  C   -0.030103  -0.026024  -0.000001   0.000000   0.000000   0.000000
     5  N    0.001936   0.004048  -0.000003   0.000000   0.000000   0.000000
     6  N   -0.000094   0.003527  -0.000084   0.000001   0.000000  -0.000008
     7  C   -0.001259   0.358585   0.006251  -0.000004   0.000000   0.000001
     8  N   -0.000005  -0.035385  -0.009684  -0.000114   0.000004  -0.000109
     9  C    0.000003  -0.001254  -0.040912   0.003558   0.000534   0.003474
    10  C    0.000000   0.002096   0.347977  -0.039346   0.004996   0.000816
    11  C    0.000000   0.000157  -0.037991   0.359618  -0.042424   0.004564
    12  C    0.000000  -0.000001   0.004517  -0.040341   0.362334  -0.041413
    13  C    0.000000  -0.000006   0.000252   0.004551  -0.042423   0.360593
    14  C    0.000000  -0.000100   0.005773   0.000781   0.004694  -0.038210
    15  N    0.002762  -0.000001   0.000000   0.000000   0.000000   0.000000
    16  C   -0.000058   0.000000   0.000000   0.000000   0.000000   0.000000
    17  C   -0.000085   0.000000   0.000000   0.000000   0.000000   0.000000
    18  O    0.005400  -0.000002   0.000000   0.000000   0.000000   0.000000
    19  H    0.363596   0.000870   0.000000   0.000000   0.000000   0.000000
    20  H    0.000870   0.502160   0.002072  -0.000002   0.000000   0.000000
    21  H    0.000000   0.002072   0.584728  -0.005565  -0.000161   0.000015
    22  H    0.000000  -0.000002  -0.005565   0.579236  -0.005372  -0.000179
    23  H    0.000000   0.000000  -0.000161  -0.005372   0.582578  -0.005359
    24  H    0.000000   0.000000   0.000015  -0.000179  -0.005359   0.574841
    25  H    0.000000  -0.000011  -0.000140   0.000013  -0.000140  -0.005091
    26  H   -0.000005   0.000000   0.000000   0.000000   0.000000   0.000000
    27  H    0.000001   0.000000   0.000000   0.000000   0.000000   0.000000
    28  H    0.000007   0.000000   0.000000   0.000000   0.000000   0.000000
    29  H   -0.000405   0.000000   0.000000   0.000000   0.000000   0.000000
    30  H    0.000060   0.000000   0.000000   0.000000   0.000000   0.000000
    31  H   -0.000001   0.000000   0.000000   0.000000   0.000000   0.000000
              25         26         27         28         29         30
     1  O    0.000000   0.011859   0.000267  -0.000540   0.000024  -0.000047
     2  S    0.000000  -0.004457   0.001767  -0.002319  -0.003225  -0.006701
     3  N    0.000000   0.000114  -0.000067  -0.000086   0.011723  -0.000172
     4  C    0.000053   0.000006   0.000002  -0.000008  -0.000131  -0.000010
     5  N   -0.000345  -0.000008   0.000003   0.000001   0.000707   0.000015
     6  N    0.015289   0.000000  -0.000001   0.000000  -0.000003   0.000000
     7  C    0.000260  -0.000003   0.000000   0.000000   0.000033   0.000001
     8  N   -0.013339   0.000000   0.000000   0.000000   0.000001   0.000000
     9  C   -0.034055   0.000000   0.000000   0.000000   0.000000   0.000000
    10  C    0.005595   0.000000   0.000000   0.000000   0.000000   0.000000
    11  C    0.000163   0.000000   0.000000   0.000000   0.000000   0.000000
    12  C    0.004395   0.000000   0.000000   0.000000   0.000000   0.000000
    13  C   -0.040207   0.000000   0.000000   0.000000   0.000000   0.000000
    14  C    0.354959   0.000000   0.000000   0.000000   0.000000   0.000000
    15  N    0.000000  -0.030113  -0.039696  -0.048832  -0.031326  -0.046703
    16  C    0.000000   0.377640   0.378208   0.371037   0.004484  -0.001767
    17  C    0.000000   0.004488  -0.002731  -0.002173   0.376978   0.371552
    18  O    0.000000  -0.000136  -0.000108   0.002099  -0.001757   0.004912
    19  H    0.000000  -0.000005   0.000001   0.000007  -0.000405   0.000060
    20  H   -0.000011   0.000000   0.000000   0.000000   0.000000   0.000000
    21  H   -0.000140   0.000000   0.000000   0.000000   0.000000   0.000000
    22  H    0.000013   0.000000   0.000000   0.000000   0.000000   0.000000
    23  H   -0.000140   0.000000   0.000000   0.000000   0.000000   0.000000
    24  H   -0.005091   0.000000   0.000000   0.000000   0.000000   0.000000
    25  H    0.534145   0.000000   0.000000   0.000000   0.000000   0.000000
    26  H    0.000000   0.484811  -0.019941  -0.030875  -0.000182  -0.000192
    27  H    0.000000  -0.019941   0.552667  -0.043525   0.000098  -0.001917
    28  H    0.000000  -0.030875  -0.043525   0.589726  -0.000211   0.008309
    29  H    0.000000  -0.000182   0.000098  -0.000211   0.499059  -0.030956
    30  H    0.000000  -0.000192  -0.001917   0.008309  -0.030956   0.579118
    31  H    0.000000   0.000017   0.005575  -0.001464  -0.021592  -0.038809
              31
     1  O   -0.000050
     2  S    0.002729
     3  N   -0.000012
     4  C   -0.000016
     5  N    0.000040
     6  N    0.000000
     7  C    0.000001
     8  N    0.000000
     9  C    0.000000
    10  C    0.000000
    11  C    0.000000
    12  C    0.000000
    13  C    0.000000
    14  C    0.000000
    15  N   -0.034860
    16  C   -0.003947
    17  C    0.374283
    18  O    0.000040
    19  H   -0.000001
    20  H    0.000000
    21  H    0.000000
    22  H    0.000000
    23  H    0.000000
    24  H    0.000000
    25  H    0.000000
    26  H    0.000017
    27  H    0.005575
    28  H   -0.001464
    29  H   -0.021592
    30  H   -0.038809
    31  H    0.548699
 Mulliken charges:
               1
     1  O   -0.531591
     2  S    1.306244
     3  N   -0.791717
     4  C    0.387702
     5  N   -0.288675
     6  N   -0.071093
     7  C    0.034690
     8  N   -0.363709
     9  C    0.329442
    10  C   -0.162114
    11  C   -0.140994
    12  C   -0.117991
    13  C   -0.140634
    14  C   -0.141649
    15  N   -0.502927
    16  C   -0.323107
    17  C   -0.317465
    18  O   -0.534789
    19  H    0.365441
    20  H    0.188975
    21  H    0.142958
    22  H    0.143165
    23  H    0.140739
    24  H    0.146062
    25  H    0.178456
    26  H    0.206976
    27  H    0.169398
    28  H    0.158855
    29  H    0.196682
    30  H    0.163307
    31  H    0.169366
 Sum of Mulliken charges =   0.00000
 Mulliken charges with hydrogens summed into heavy atoms:
               1
     1  O   -0.531591
     2  S    1.306244
     3  N   -0.426276
     4  C    0.387702
     5  N   -0.288675
     6  N   -0.071093
     7  C    0.223666
     8  N   -0.363709
     9  C    0.329442
    10  C   -0.019156
    11  C    0.002171
    12  C    0.022748
    13  C    0.005428
    14  C    0.036806
    15  N   -0.502927
    16  C    0.212122
    17  C    0.211890
    18  O   -0.534789
 Electronic spatial extent (au):  <R**2>=           6783.4508
 Charge=              0.0000 electrons
 Dipole moment (field-independent basis, Debye):
    X=             -3.5422    Y=             -0.3954    Z=             -0.7442  Tot=              3.6410
 Quadrupole moment (field-independent basis, Debye-Ang):
   XX=            -93.0203   YY=           -106.1285   ZZ=           -115.5332
   XY=             15.5524   XZ=             -6.0850   YZ=              8.6957
 Traceless Quadrupole moment (field-independent basis, Debye-Ang):
   XX=             11.8737   YY=             -1.2345   ZZ=            -10.6392
   XY=             15.5524   XZ=             -6.0850   YZ=              8.6957
 Octapole moment (field-independent basis, Debye-Ang**2):
  XXX=            -61.5249  YYY=            -11.1599  ZZZ=             -2.3939  XYY=             -9.9078
  XXY=             58.7987  XXZ=             14.6544  XZZ=             26.1142  YZZ=              0.8668
  YYZ=              1.7679  XYZ=              0.8017
 Hexadecapole moment (field-independent basis, Debye-Ang**3):
 XXXX=          -6892.5495 YYYY=           -820.2424 ZZZZ=           -513.1409 XXXY=            241.3787
 XXXZ=           -108.7182 YYYX=             25.2128 YYYZ=             26.6124 ZZZX=             10.1061
 ZZZY=             12.5058 XXYY=          -1348.1660 XXZZ=          -1389.1111 YYZZ=           -227.5607
 XXYZ=             53.8407 YYXZ=            -13.2654 ZZXY=              4.0092
 N-N= 1.461101017526D+03 E-N=-5.758976160739D+03  KE= 1.202090244541D+03
 No NMR shielding tensors so no spin-rotation constants.
 Leave Link  601 at Thu Aug  6 21:08:58 2020, MaxMem=    33554432 cpu:         0.3
 (Enter /prod/apps/gaussian/g09d1/l9999.exe)
 1\1\GINC-PIRINEUS24\SP\RB3LYP\6-31G(d)\C10H13N5O2S1\UBAFAR01\06-Aug-20
 20\0\\#p b3lyp/6-31G(d)\\SM46.n.10.pdb.xyz\\0,1\O,0,1.222,3.287,-0.766
 \S,0,1.82,2.307,0.149\N,0,1.65,0.716,-0.409\C,0,1.706,0.476,-1.798\N,0
 ,2.893,0.308,-2.443\N,0,2.656,0.07,-3.705\C,0,0.68,0.333,-2.708\N,0,1.
 311,0.072,-3.879\C,0,0.742,-0.181,-5.161\C,0,-0.551,-0.7,-5.252\C,0,-1
 .102,-0.935,-6.511\C,0,-0.364,-0.667,-7.665\C,0,0.931,-0.155,-7.558\C,
 0,1.49,0.097,-6.307\N,0,3.475,2.479,0.016\C,0,3.948,3.87,-0.066\C,0,4.
 257,1.633,0.931\O,0,1.336,2.256,1.536\H,0,0.845,0.295,0.056\H,0,-0.39,
 0.404,-2.614\H,0,-1.113,-0.928,-4.354\H,0,-2.106,-1.337,-6.585\H,0,-0.
 795,-0.855,-8.642\H,0,1.508,0.059,-8.45\H,0,2.487,0.506,-6.211\H,0,3.3
 58,4.412,-0.802\H,0,4.987,3.836,-0.397\H,0,3.901,4.387,0.9\H,0,3.882,0
 .611,0.886\H,0,4.223,1.997,1.964\H,0,5.291,1.645,0.58\\Version=AM64L-G
 09RevD.01\State=1-A\HF=-1211.1624079\RMSD=4.508e-09\Dipole=-0.5142192,
 -0.8069359,-1.0660558\Quadrupole=4.0890993,-5.863522,1.7744227,11.5230
 964,10.280185,-1.0221063\PG=C01 [X(C10H13N5O2S1)]\\@


 THE MORE PROGRESS PHYSICAL SCIENCES MAKE, THE MORE THEY TEND TO ENTER
 THE DOMAIN OF MATHEMATICS, WHICH IS A KIND OF CENTRE TO WHICH THEY ALL
 CONVERGE.  WE MAY EVEN JUDGE THE DEGREE OF PERFECTION TO WHICH A 
 SCIENCE HAS ARRIVED BY THE FACILITY WITH WHICH IT MAY BE SUBMITTED
 TO CALCULATION.

                               -- ADOLPHE QUETELET, 1796-1874
 Job cpu time:       0 days  0 hours  3 minutes 44.0 seconds.
 File lengths (MBytes):  RWF=     51 Int=      0 D2E=      0 Chk=      4 Scr=      1
 Normal termination of Gaussian 09 at Thu Aug  6 21:08:58 2020.
 Initial command:
 /prod/apps/gaussian/g09d1/l1.exe "/tmp/ubafar01/1448551/Gau-177204.inp" -scrdir="/tmp/ubafar01/1448551/"
 Entering Link 1 = /prod/apps/gaussian/g09d1/l1.exe PID=    179053.
  
 Copyright (c) 1988,1990,1992,1993,1995,1998,2003,2009,2013,
            Gaussian, Inc.  All Rights Reserved.
  
 This is part of the Gaussian(R) 09 program.  It is based on
 the Gaussian(R) 03 system (copyright 2003, Gaussian, Inc.),
 the Gaussian(R) 98 system (copyright 1998, Gaussian, Inc.),
 the Gaussian(R) 94 system (copyright 1995, Gaussian, Inc.),
 the Gaussian 92(TM) system (copyright 1992, Gaussian, Inc.),
 the Gaussian 90(TM) system (copyright 1990, Gaussian, Inc.),
 the Gaussian 88(TM) system (copyright 1988, Gaussian, Inc.),
 the Gaussian 86(TM) system (copyright 1986, Carnegie Mellon
 University), and the Gaussian 82(TM) system (copyright 1983,
 Carnegie Mellon University). Gaussian is a federally registered
 trademark of Gaussian, Inc.
  
 This software contains proprietary and confidential information,
 including trade secrets, belonging to Gaussian, Inc.
  
 This software is provided under written license and may be
 used, copied, transmitted, or stored only in accord with that
 written license.
  
 The following legend is applicable only to US Government
 contracts under FAR:
  
                    RESTRICTED RIGHTS LEGEND
  
 Use, reproduction and disclosure by the US Government is
 subject to restrictions as set forth in subparagraphs (a)
 and (c) of the Commercial Computer Software - Restricted
 Rights clause in FAR 52.227-19.
  
 Gaussian, Inc.
 340 Quinnipiac St., Bldg. 40, Wallingford CT 06492
  
  
 ---------------------------------------------------------------
 Warning -- This program may not be used in any manner that
 competes with the business of Gaussian, Inc. or will provide
 assistance to any competitor of Gaussian, Inc.  The licensee
 of this program is prohibited from giving any competitor of
 Gaussian, Inc. access to this program.  By using this program,
 the user acknowledges that Gaussian, Inc. is engaged in the
 business of creating and licensing software in the field of
 computational chemistry and represents and warrants to the
 licensee that it is not a competitor of Gaussian, Inc. and that
 it will not use this program in any manner prohibited above.
 ---------------------------------------------------------------
  

 Cite this work as:
 Gaussian 09, Revision D.01,
 M. J. Frisch, G. W. Trucks, H. B. Schlegel, G. E. Scuseria, 
 M. A. Robb, J. R. Cheeseman, G. Scalmani, V. Barone, B. Mennucci, 
 G. A. Petersson, H. Nakatsuji, M. Caricato, X. Li, H. P. Hratchian, 
 A. F. Izmaylov, J. Bloino, G. Zheng, J. L. Sonnenberg, M. Hada, 
 M. Ehara, K. Toyota, R. Fukuda, J. Hasegawa, M. Ishida, T. Nakajima, 
 Y. Honda, O. Kitao, H. Nakai, T. Vreven, J. A. Montgomery, Jr., 
 J. E. Peralta, F. Ogliaro, M. Bearpark, J. J. Heyd, E. Brothers, 
 K. N. Kudin, V. N. Staroverov, T. Keith, R. Kobayashi, J. Normand, 
 K. Raghavachari, A. Rendell, J. C. Burant, S. S. Iyengar, J. Tomasi, 
 M. Cossi, N. Rega, J. M. Millam, M. Klene, J. E. Knox, J. B. Cross, 
 V. Bakken, C. Adamo, J. Jaramillo, R. Gomperts, R. E. Stratmann, 
 O. Yazyev, A. J. Austin, R. Cammi, C. Pomelli, J. W. Ochterski, 
 R. L. Martin, K. Morokuma, V. G. Zakrzewski, G. A. Voth, 
 P. Salvador, J. J. Dannenberg, S. Dapprich, A. D. Daniels, 
 O. Farkas, J. B. Foresman, J. V. Ortiz, J. Cioslowski, 
 and D. J. Fox, Gaussian, Inc., Wallingford CT, 2013.
 
 ******************************************
 Gaussian 09:  AM64L-G09RevD.01 24-Apr-2013
                 6-Aug-2020 
 ******************************************
 %nproc=1
 Will use up to    1 processors via shared memory.
 %Chk=SM46.n.10.pdb.xyz.mst.n.w.chk
 %subst l502 /dades/curu/work_g09D01_MST_AddSphPartition_ReadGammas/exe-dir/
 ----------------------------------------------------------------------
 #p b3lyp/6-31G(d) scrf=(iefpcm,read,solvent=Water) geom=allcheck guess
 =read
 ----------------------------------------------------------------------
 1/29=7,38=1,40=2/1;
 2/12=2,40=1/2;
 3/5=1,6=6,7=1,11=2,14=-4,16=1,25=1,30=1,70=2203,72=1,74=-5,116=-2/1,2,3;
 4/5=1/1;
 5/5=2,38=6,53=1/2;
 6/7=2,8=2,9=2,10=2,28=1/1;
 99/5=1,9=1/99;
 Leave Link    1 at Thu Aug  6 21:08:58 2020, MaxMem=           0 cpu:         0.0
 (Enter /prod/apps/gaussian/g09d1/l101.exe)
 Structure from the checkpoint file:  "SM46.n.10.pdb.xyz.mst.n.w.chk"
 -----------------
 SM46.n.10.pdb.xyz
 -----------------
 Charge =  0 Multiplicity = 1
 Z-Matrix found in file.
 O,0,1.222,3.287,-0.766
 S,0,1.82,2.307,0.149
 N,0,1.65,0.716,-0.409
 C,0,1.706,0.476,-1.798
 N,0,2.893,0.308,-2.443
 N,0,2.656,0.07,-3.705
 C,0,0.68,0.333,-2.708
 N,0,1.311,0.072,-3.879
 C,0,0.742,-0.181,-5.161
 C,0,-0.551,-0.7,-5.252
 C,0,-1.102,-0.935,-6.511
 C,0,-0.364,-0.667,-7.665
 C,0,0.931,-0.155,-7.558
 C,0,1.49,0.097,-6.307
 N,0,3.475,2.479,0.016
 C,0,3.948,3.87,-0.066
 C,0,4.257,1.633,0.931
 O,0,1.336,2.256,1.536
 H,0,0.845,0.295,0.056
 H,0,-0.39,0.404,-2.614
 H,0,-1.113,-0.928,-4.354
 H,0,-2.106,-1.337,-6.585
 H,0,-0.795,-0.855,-8.642
 H,0,1.508,0.059,-8.45
 H,0,2.487,0.506,-6.211
 H,0,3.358,4.412,-0.802
 H,0,4.987,3.836,-0.397
 H,0,3.901,4.387,0.9
 H,0,3.882,0.611,0.886
 H,0,4.223,1.997,1.964
 H,0,5.291,1.645,0.58
 Recover connectivity data from disk.
 NAtoms=     31 NQM=       31 NQMF=       0 NMMI=      0 NMMIF=      0
                NMic=       0 NMicF=      0.
                    Isotopes and Nuclear Properties:
 (Nuclear quadrupole moments (NQMom) in fm**2, nuclear magnetic moments (NMagM)
  in nuclear magnetons)

  Atom         1           2           3           4           5           6           7           8           9          10
 IAtWgt=          16          32          14          12          14          14          12          14          12          12
 AtmWgt=  15.9949146  31.9720718  14.0030740  12.0000000  14.0030740  14.0030740  12.0000000  14.0030740  12.0000000  12.0000000
 NucSpn=           0           0           2           0           2           2           0           2           0           0
 AtZEff=  -5.6000000 -13.6000000  -4.5500000  -3.6000000  -4.5500000  -4.5500000  -3.6000000  -4.5500000  -3.6000000  -3.6000000
 NQMom=    0.0000000   0.0000000   2.0440000   0.0000000   2.0440000   2.0440000   0.0000000   2.0440000   0.0000000   0.0000000
 NMagM=    0.0000000   0.0000000   0.4037610   0.0000000   0.4037610   0.4037610   0.0000000   0.4037610   0.0000000   0.0000000
 AtZNuc=   8.0000000  16.0000000   7.0000000   6.0000000   7.0000000   7.0000000   6.0000000   7.0000000   6.0000000   6.0000000

  Atom        11          12          13          14          15          16          17          18          19          20
 IAtWgt=          12          12          12          12          14          12          12          16           1           1
 AtmWgt=  12.0000000  12.0000000  12.0000000  12.0000000  14.0030740  12.0000000  12.0000000  15.9949146   1.0078250   1.0078250
 NucSpn=           0           0           0           0           2           0           0           0           1           1
 AtZEff=  -3.6000000  -3.6000000  -3.6000000  -3.6000000  -4.5500000  -3.6000000  -3.6000000  -5.6000000  -1.0000000  -1.0000000
 NQMom=    0.0000000   0.0000000   0.0000000   0.0000000   2.0440000   0.0000000   0.0000000   0.0000000   0.0000000   0.0000000
 NMagM=    0.0000000   0.0000000   0.0000000   0.0000000   0.4037610   0.0000000   0.0000000   0.0000000   2.7928460   2.7928460
 AtZNuc=   6.0000000   6.0000000   6.0000000   6.0000000   7.0000000   6.0000000   6.0000000   8.0000000   1.0000000   1.0000000

  Atom        21          22          23          24          25          26          27          28          29          30
 IAtWgt=           1           1           1           1           1           1           1           1           1           1
 AtmWgt=   1.0078250   1.0078250   1.0078250   1.0078250   1.0078250   1.0078250   1.0078250   1.0078250   1.0078250   1.0078250
 NucSpn=           1           1           1           1           1           1           1           1           1           1
 AtZEff=  -1.0000000  -1.0000000  -1.0000000  -1.0000000  -1.0000000  -1.0000000  -1.0000000  -1.0000000  -1.0000000  -1.0000000
 NQMom=    0.0000000   0.0000000   0.0000000   0.0000000   0.0000000   0.0000000   0.0000000   0.0000000   0.0000000   0.0000000
 NMagM=    2.7928460   2.7928460   2.7928460   2.7928460   2.7928460   2.7928460   2.7928460   2.7928460   2.7928460   2.7928460
 AtZNuc=   1.0000000   1.0000000   1.0000000   1.0000000   1.0000000   1.0000000   1.0000000   1.0000000   1.0000000   1.0000000

  Atom        31
 IAtWgt=           1
 AtmWgt=   1.0078250
 NucSpn=           1
 AtZEff=  -1.0000000
 NQMom=    0.0000000
 NMagM=    2.7928460
 AtZNuc=   1.0000000
 Leave Link  101 at Thu Aug  6 21:08:58 2020, MaxMem=    33554432 cpu:         0.1
 (Enter /prod/apps/gaussian/g09d1/l202.exe)
                          Input orientation:                          
 ---------------------------------------------------------------------
 Center     Atomic      Atomic             Coordinates (Angstroms)
 Number     Number       Type             X           Y           Z
 ---------------------------------------------------------------------
      1          8           0        1.222000    3.287000   -0.766000
      2         16           0        1.820000    2.307000    0.149000
      3          7           0        1.650000    0.716000   -0.409000
      4          6           0        1.706000    0.476000   -1.798000
      5          7           0        2.893000    0.308000   -2.443000
      6          7           0        2.656000    0.070000   -3.705000
      7          6           0        0.680000    0.333000   -2.708000
      8          7           0        1.311000    0.072000   -3.879000
      9          6           0        0.742000   -0.181000   -5.161000
     10          6           0       -0.551000   -0.700000   -5.252000
     11          6           0       -1.102000   -0.935000   -6.511000
     12          6           0       -0.364000   -0.667000   -7.665000
     13          6           0        0.931000   -0.155000   -7.558000
     14          6           0        1.490000    0.097000   -6.307000
     15          7           0        3.475000    2.479000    0.016000
     16          6           0        3.948000    3.870000   -0.066000
     17          6           0        4.257000    1.633000    0.931000
     18          8           0        1.336000    2.256000    1.536000
     19          1           0        0.845000    0.295000    0.056000
     20          1           0       -0.390000    0.404000   -2.614000
     21          1           0       -1.113000   -0.928000   -4.354000
     22          1           0       -2.106000   -1.337000   -6.585000
     23          1           0       -0.795000   -0.855000   -8.642000
     24          1           0        1.508000    0.059000   -8.450000
     25          1           0        2.487000    0.506000   -6.211000
     26          1           0        3.358000    4.412000   -0.802000
     27          1           0        4.987000    3.836000   -0.397000
     28          1           0        3.901000    4.387000    0.900000
     29          1           0        3.882000    0.611000    0.886000
     30          1           0        4.223000    1.997000    1.964000
     31          1           0        5.291000    1.645000    0.580000
 ---------------------------------------------------------------------
                    Distance matrix (angstroms):
                    1          2          3          4          5
     1  O    0.000000
     2  S    1.468070   0.000000
     3  N    2.630717   1.694563   0.000000
     4  C    3.033315   2.675139   1.410694   0.000000
     5  N    3.805130   3.444676   2.418402   1.361329   0.000000
     6  N    4.587283   4.533915   3.506133   2.168867   1.305931
     7  C    3.576485   3.654959   2.524478   1.378849   2.228950
     8  N    4.476038   4.634554   3.545498   2.156340   2.149539
     9  C    5.619026   5.962242   4.920424   3.559595   3.500492
    10  C    6.258106   6.620762   5.504917   4.290354   4.557157
    11  C    7.498752   7.962678   6.894469   5.664641   5.835555
    12  C    8.108373   8.641361   7.656267   6.325586   6.231208
    13  C    7.619928   8.139387   7.237666   5.846057   5.497912
    14  C    6.399266   6.831759   5.932551   4.530053   4.116239
    15  N    2.518014   1.669221   2.572823   3.229855   3.331463
    16  C    2.874189   2.649071   3.917419   4.421043   4.410329
    17  C    3.850552   2.646652   3.071309   3.910715   3.872983
    18  O    2.524908   1.469907   2.500644   3.797480   4.695891
    19  H    3.125680   2.237726   1.020535   2.052169   3.231017
    20  H    3.784883   4.017422   3.020094   2.250390   3.288852
    21  H    6.007678   6.272537   5.089197   4.055997   4.607348
    22  H    8.143569   8.604590   7.514341   6.382294   6.697178
    23  H    9.124463   9.701451   8.730885   7.407219   7.306265
    24  H    8.339403   8.893461   8.069045   6.667998   6.169625
    25  H    6.243574   6.643650   5.865822   4.481677   3.794979
    26  H    2.414419   2.775044   4.090493   4.383288   4.444313
    27  H    3.822668   3.558911   4.568382   4.900751   4.584510
    28  H    3.341047   3.036604   4.500747   5.233847   5.369353
    29  H    4.118942   2.769734   2.582610   3.457898   3.485996
    30  H    4.257112   3.027331   3.727254   4.775078   4.903394
    31  H    4.589623   3.559754   3.885620   4.457989   4.083687
                    6          7          8          9         10
     6  N    0.000000
     7  C    2.228846   0.000000
     8  N    1.356210   1.355553   0.000000
     9  C    2.417919   2.507040   1.425235   0.000000
    10  C    3.642933   3.009051   2.438884   1.396242   0.000000
    11  C    4.796480   4.387044   3.709992   2.406523   1.394241
    12  C    5.034399   5.163505   4.205418   2.780188   2.420460
    13  C    4.227512   4.880947   3.705532   2.404580   2.794814
    14  C    2.851436   3.696566   2.434718   1.396461   2.431854
    15  N    4.507758   4.453933   5.064343   6.430102   7.352995
    16  C    5.417710   5.492755   5.993125   7.255898   8.247454
    17  C    5.147685   5.265667   5.852498   7.263490   8.172469
    18  O    5.830015   4.705295   5.838896   7.151337   7.640396
    19  H    4.180367   2.769181   3.968767   5.239683   5.577966
    20  H    3.252684   1.076465   2.145658   2.847957   2.864224
    21  H    3.952539   2.741220   2.664845   2.156451   1.083620
    22  H    5.740269   5.057848   4.580787   3.387509   2.144920
    23  H    6.094177   6.228910   5.289682   3.864454   3.402302
    24  H    4.881910   5.807859   4.575262   3.385539   3.878500
    25  H    2.549253   3.945401   2.647557   2.149301   3.406400
    26  H    5.270026   5.238584   5.700328   6.851276   7.824022
    27  H    5.528036   6.013483   6.309120   7.540027   8.649611
    28  H    6.433703   6.310897   6.940185   8.220804   9.140294
    29  H    4.782577   4.821506   5.441120   6.859524   7.684091
    30  H    6.189215   6.095025   6.806322   8.223544   9.062866
    31  H    5.271155   5.813227   6.180405   7.548957   8.581388
                   11         12         13         14         15
    11  C    0.000000
    12  C    1.395774   0.000000
    13  C    2.416133   1.396645   0.000000
    14  C    2.797339   2.421813   1.393193   0.000000
    15  N    8.672142   9.145108   8.412810   7.042335   0.000000
    16  C    9.493606   9.844923   9.024022   7.695932   1.471507
    17  C    9.523490  10.026707   9.290982   7.899635   1.471212
    18  O    8.993361   9.802670   9.416888   8.136194   2.633524
    19  H    6.959109   7.874069   7.627771   6.398672   3.418824
    20  H    4.181683   5.163363   5.147879   4.155346   5.114758
    21  H    2.157039   3.404680   3.878283   3.411809   7.194046
    22  H    1.084018   2.156354   3.401062   3.881347   9.448948
    23  H    2.154486   1.084267   2.155025   3.402904  10.213198
    24  H    3.399979   2.155849   1.083692   2.143412   9.022120
    25  H    3.879098   3.408555   2.161589   1.081899   6.606391
    26  H    9.004148   9.313984   8.508311   7.239729   2.102214
    27  H    9.859988  10.086329   9.146537   7.819030   2.073201
    28  H   10.405605  10.820923  10.049300   8.726848   2.145553
    29  H    9.052402   9.632310   8.977544   7.597704   2.100470
    30  H   10.429663  10.993412  10.302274   8.915645   2.141619
    31  H    9.889850  10.261793   9.406202   8.017149   2.076417
                   16         17         18         19         20
    16  C    0.000000
    17  C    2.468534   0.000000
    18  O    3.463227   3.047359   0.000000
    19  H    4.735411   3.767972   2.505395   0.000000
    20  H    6.109313   5.972610   4.861222   2.943808   0.000000
    21  H    8.186664   7.957817   7.129345   4.977710   2.307499
    22  H   10.308304  10.285860   9.524057   7.448134   4.663108
    23  H   10.879773  11.106538  10.854085   8.925654   6.171377
    24  H    9.527265   9.901396  10.226270   8.535063   6.146570
    25  H    7.156259   7.443869   8.025167   6.481973   4.607162
    26  H    1.087915   3.396223   3.768695   4.899084   5.778833
    27  H    1.090980   2.673891   4.422973   5.468094   6.753210
    28  H    1.096656   2.777087   3.394832   5.176479   6.828262
    29  H    3.395842   1.089557   3.100103   3.164194   5.526557
    30  H    2.775726   1.095783   2.930023   4.236526   6.691450
    31  H    2.677982   1.092017   4.114521   4.675895   6.634416
                   21         22         23         24         25
    21  H    0.000000
    22  H    2.476023   0.000000
    23  H    4.300395   2.486422   0.000000
    24  H    4.961958   4.299772   2.485170   0.000000
    25  H    4.297069   4.963081   4.305067   2.484224   0.000000
    26  H    7.818065   9.815772  10.317669   8.992386   6.728503
    27  H    8.692729  10.740667  11.109322   9.550915   7.151328
    28  H    8.999663  11.174679  11.856675  10.577359   8.223617
    29  H    7.401091   9.770706  10.714769   9.648911   7.233565
    30  H    8.771867  11.147071  12.074828  10.935194   8.489252
    31  H    8.483861  10.721248  11.328490   9.918033   7.434878
                   26         27         28         29         30
    26  H    0.000000
    27  H    1.774667   0.000000
    28  H    1.786695   1.779103   0.000000
    29  H    4.191840   3.642491   3.776074   0.000000
    30  H    3.772427   3.088679   2.635883   1.788676   0.000000
    31  H    3.647287   2.418145   3.090803   1.774281   1.783251
                   31
    31  H    0.000000
 Stoichiometry    C10H13N5O2S
 Framework group  C1[X(C10H13N5O2S)]
 Deg. of freedom    87
 Full point group                 C1      NOp   1
 RotChk:  IX=0 Diff= 4.19D-15
 Largest Abelian subgroup         C1      NOp   1
 Largest concise Abelian subgroup C1      NOp   1
                         Standard orientation:                         
 ---------------------------------------------------------------------
 Center     Atomic      Atomic             Coordinates (Angstroms)
 Number     Number       Type             X           Y           Z
 ---------------------------------------------------------------------
      1          8           0        2.215568   -0.768050    1.669589
[...]
 Alpha virt. eigenvalues --    0.84592   0.85881   0.86301   0.88485   0.88968
 Alpha virt. eigenvalues --    0.89607   0.90135   0.91684   0.92748   0.93598
 Alpha virt. eigenvalues --    0.94304   0.95290   0.95813   0.96962   0.97597
 Alpha virt. eigenvalues --    0.98651   1.00030   1.00533   1.01427   1.02983
 Alpha virt. eigenvalues --    1.05675   1.06403   1.06492   1.08370   1.08683
 Alpha virt. eigenvalues --    1.11801   1.13839   1.14666   1.15778   1.17524
 Alpha virt. eigenvalues --    1.17956   1.19180   1.20310   1.23771   1.25164
 Alpha virt. eigenvalues --    1.26715   1.28952   1.31249   1.35896   1.37407
 Alpha virt. eigenvalues --    1.38489   1.41265   1.41478   1.42085   1.43758
 Alpha virt. eigenvalues --    1.44923   1.45860   1.47726   1.48030   1.49735
 Alpha virt. eigenvalues --    1.49868   1.52922   1.55530   1.57736   1.58472
 Alpha virt. eigenvalues --    1.62034   1.67569   1.68329   1.70327   1.77364
 Alpha virt. eigenvalues --    1.77795   1.78866   1.79506   1.80030   1.81266
 Alpha virt. eigenvalues --    1.82075   1.83001   1.84253   1.86304   1.87962
 Alpha virt. eigenvalues --    1.89604   1.90937   1.93379   1.94216   1.95691
 Alpha virt. eigenvalues --    1.96620   1.97816   1.99067   2.00302   2.04780
 Alpha virt. eigenvalues --    2.05910   2.07276   2.08147   2.09083   2.09710
 Alpha virt. eigenvalues --    2.10910   2.11983   2.13133   2.13924   2.14597
 Alpha virt. eigenvalues --    2.16872   2.19436   2.19613   2.20884   2.22963
 Alpha virt. eigenvalues --    2.24455   2.25876   2.27882   2.29018   2.30300
 Alpha virt. eigenvalues --    2.31565   2.34361   2.36295   2.38037   2.38867
 Alpha virt. eigenvalues --    2.42641   2.47812   2.48166   2.50753   2.53146
 Alpha virt. eigenvalues --    2.55854   2.57915   2.59019   2.61709   2.63280
 Alpha virt. eigenvalues --    2.63962   2.66884   2.69155   2.70549   2.71767
 Alpha virt. eigenvalues --    2.73719   2.74635   2.76483   2.79569   2.81886
 Alpha virt. eigenvalues --    2.86402   2.88599   3.00046   3.05829   3.13150
 Alpha virt. eigenvalues --    3.25117   3.42092   3.60601   3.79835   3.92456
 Alpha virt. eigenvalues --    3.98067   4.01644   4.03240   4.07009   4.08989
 Alpha virt. eigenvalues --    4.10424   4.10610   4.15178   4.21542   4.25003
 Alpha virt. eigenvalues --    4.31597   4.32860   4.39421   4.49634   4.70872
          Condensed to atoms (all electrons):
               1          2          3          4          5          6
     1  O    8.265657   0.443447  -0.057711   0.006618  -0.000685   0.000002
     2  S    0.443447  13.560089   0.149458  -0.008382  -0.002570   0.000244
     3  N   -0.057711   0.149458   7.369916   0.253972  -0.055319   0.005469
     4  C    0.006618  -0.008382   0.253972   4.632360   0.374329  -0.083727
     5  N   -0.000685  -0.002570  -0.055319   0.374329   6.879140   0.300550
     6  N    0.000002   0.000244   0.005469  -0.083727   0.300550   6.778982
     7  C    0.001577  -0.002162  -0.072958   0.524521  -0.070866  -0.100025
     8  N   -0.000050  -0.000003   0.003415  -0.036163  -0.095987   0.226997
     9  C   -0.000001  -0.000021  -0.000123   0.004388   0.006428  -0.043159
    10  C    0.000000   0.000001   0.000004   0.000916  -0.000321   0.002881
    11  C    0.000000   0.000000   0.000000  -0.000008   0.000002  -0.000067
    12  C    0.000000   0.000000   0.000000   0.000000   0.000000   0.000017
    13  C    0.000000   0.000000   0.000000   0.000006  -0.000004   0.000278
    14  C    0.000000   0.000000   0.000001  -0.000412   0.000356   0.000109
    15  N   -0.055148   0.173047  -0.048801  -0.003508   0.001997   0.000057
    16  C   -0.003889  -0.028541   0.002058   0.000001   0.000000   0.000001
    17  C    0.001547  -0.010867  -0.009438  -0.000436   0.000471  -0.000008
    18  O   -0.045932   0.443991  -0.055029   0.001272  -0.000016   0.000000
    19  H   -0.000416  -0.015772   0.306524  -0.024214   0.001555  -0.000070
    20  H    0.000064   0.000255  -0.000335  -0.025150   0.004058   0.003502
    21  H    0.000000   0.000000   0.000000   0.000031  -0.000006  -0.000082
    22  H    0.000000   0.000000   0.000000   0.000000   0.000000   0.000001
    23  H    0.000000   0.000000   0.000000   0.000000   0.000000   0.000000
    24  H    0.000000   0.000000   0.000000   0.000000   0.000000  -0.000008
    25  H    0.000000   0.000000   0.000000   0.000038  -0.000316   0.015539
    26  H    0.011327  -0.004399   0.000116  -0.000010  -0.000008   0.000000
    27  H    0.000249   0.001896  -0.000074   0.000001   0.000003  -0.000001
    28  H   -0.000521  -0.002408  -0.000087  -0.000006   0.000001   0.000000
    29  H    0.000031  -0.002538   0.012265  -0.000263   0.000726  -0.000002
    30  H   -0.000045  -0.006693  -0.000185  -0.000004   0.000015   0.000000
    31  H   -0.000049   0.002669   0.000009  -0.000013   0.000036   0.000000
               7          8          9         10         11         12
     1  O    0.001577  -0.000050  -0.000001   0.000000   0.000000   0.000000
     2  S   -0.002162  -0.000003  -0.000021   0.000001   0.000000   0.000000
     3  N   -0.072958   0.003415  -0.000123   0.000004   0.000000   0.000000
     4  C    0.524521  -0.036163   0.004388   0.000916  -0.000008   0.000000
     5  N   -0.070866  -0.095987   0.006428  -0.000321   0.000002   0.000000
     6  N   -0.100025   0.226997  -0.043159   0.002881  -0.000067   0.000017
     7  C    4.994422   0.335080  -0.031176  -0.006823   0.000002   0.000020
     8  N    0.335080   6.878954   0.198336  -0.050718   0.004695   0.000329
     9  C   -0.031176   0.198336   4.626711   0.529361  -0.009921  -0.038246
    10  C   -0.006823  -0.050718   0.529361   4.992621   0.527246  -0.041011
    11  C    0.000002   0.004695  -0.009921   0.527246   4.864151   0.544023
    12  C    0.000020   0.000329  -0.038246  -0.041011   0.544023   4.871384
    13  C   -0.000086   0.004552  -0.010691  -0.042249  -0.024856   0.539544
    14  C    0.007172  -0.059084   0.513411  -0.071047  -0.041395  -0.039349
    15  N   -0.000046   0.000003   0.000000   0.000000   0.000000   0.000000
    16  C    0.000008   0.000000   0.000000   0.000000   0.000000   0.000000
    17  C   -0.000029   0.000001   0.000000   0.000000   0.000000   0.000000
    18  O   -0.000016   0.000000   0.000000   0.000000   0.000000   0.000000
    19  H   -0.001054   0.000003   0.000003   0.000000   0.000000   0.000000
    20  H    0.361761  -0.034158  -0.001659   0.002133   0.000156  -0.000001
    21  H    0.005809  -0.009141  -0.039650   0.353914  -0.034665   0.004302
    22  H   -0.000004  -0.000108   0.003430  -0.037483   0.363484  -0.039407
    23  H    0.000000   0.000003   0.000483   0.004878  -0.041183   0.365797
    24  H    0.000001  -0.000104   0.003554   0.000709   0.004467  -0.039978
    25  H    0.000224  -0.013309  -0.039561   0.005467   0.000092   0.004529
    26  H   -0.000004   0.000000   0.000000   0.000000   0.000000   0.000000
    27  H    0.000000   0.000000   0.000000   0.000000   0.000000   0.000000
    28  H    0.000000   0.000000   0.000000   0.000000   0.000000   0.000000
    29  H    0.000028   0.000001   0.000000   0.000000   0.000000   0.000000
    30  H    0.000001   0.000000   0.000000   0.000000   0.000000   0.000000
    31  H    0.000001   0.000000   0.000000   0.000000   0.000000   0.000000
              13         14         15         16         17         18
     1  O    0.000000   0.000000  -0.055148  -0.003889   0.001547  -0.045932
     2  S    0.000000   0.000000   0.173047  -0.028541  -0.010867   0.443991
     3  N    0.000000   0.000001  -0.048801   0.002058  -0.009438  -0.055029
     4  C    0.000006  -0.000412  -0.003508   0.000001  -0.000436   0.001272
     5  N   -0.000004   0.000356   0.001997   0.000000   0.000471  -0.000016
     6  N    0.000278   0.000109   0.000057   0.000001  -0.000008   0.000000
     7  C   -0.000086   0.007172  -0.000046   0.000008  -0.000029  -0.000016
     8  N    0.004552  -0.059084   0.000003   0.000000   0.000001   0.000000
     9  C   -0.010691   0.513411   0.000000   0.000000   0.000000   0.000000
    10  C   -0.042249  -0.071047   0.000000   0.000000   0.000000   0.000000
    11  C   -0.024856  -0.041395   0.000000   0.000000   0.000000   0.000000
    12  C    0.539544  -0.039349   0.000000   0.000000   0.000000   0.000000
    13  C    4.879736   0.519635   0.000000   0.000000   0.000000   0.000000
    14  C    0.519635   4.995985   0.000000   0.000000   0.000000   0.000000
    15  N    0.000000   0.000000   7.178767   0.287331   0.266827  -0.056215
    16  C    0.000000   0.000000   0.287331   4.988910  -0.048601  -0.002042
    17  C    0.000000   0.000000   0.266827  -0.048601   4.995610   0.002533
    18  O    0.000000   0.000000  -0.056215  -0.002042   0.002533   8.271444
    19  H    0.000000   0.000000   0.002193  -0.000043  -0.000102   0.004301
    20  H   -0.000004  -0.000093  -0.000001   0.000000   0.000000  -0.000002
    21  H    0.000209   0.005273   0.000000   0.000000   0.000000   0.000000
    22  H    0.004420   0.000728   0.000000   0.000000   0.000000   0.000000
    23  H   -0.041351   0.004666   0.000000   0.000000   0.000000   0.000000
    24  H    0.363947  -0.037737   0.000000   0.000000   0.000000   0.000000
    25  H   -0.038050   0.357033   0.000000   0.000000   0.000000   0.000000
    26  H    0.000000   0.000000  -0.031826   0.376879   0.004437  -0.000128
    27  H    0.000000   0.000000  -0.037904   0.380988  -0.002722  -0.000102
    28  H    0.000000   0.000000  -0.047577   0.374023  -0.001861   0.002021
    29  H    0.000000   0.000000  -0.032788   0.004461   0.375117  -0.001797
    30  H    0.000000   0.000000  -0.046393  -0.001594   0.374960   0.004853
    31  H    0.000000   0.000000  -0.033834  -0.003824   0.377539   0.000038
              19         20         21         22         23         24
     1  O   -0.000416   0.000064   0.000000   0.000000   0.000000   0.000000
     2  S   -0.015772   0.000255   0.000000   0.000000   0.000000   0.000000
     3  N    0.306524  -0.000335   0.000000   0.000000   0.000000   0.000000
     4  C   -0.024214  -0.025150   0.000031   0.000000   0.000000   0.000000
     5  N    0.001555   0.004058  -0.000006   0.000000   0.000000   0.000000
     6  N   -0.000070   0.003502  -0.000082   0.000001   0.000000  -0.000008
     7  C   -0.001054   0.361761   0.005809  -0.000004   0.000000   0.000001
     8  N    0.000003  -0.034158  -0.009141  -0.000108   0.000003  -0.000104
     9  C    0.000003  -0.001659  -0.039650   0.003430   0.000483   0.003554
    10  C    0.000000   0.002133   0.353914  -0.037483   0.004878   0.000709
    11  C    0.000000   0.000156  -0.034665   0.363484  -0.041183   0.004467
    12  C    0.000000  -0.000001   0.004302  -0.039407   0.365797  -0.039978
    13  C    0.000000  -0.000004   0.000209   0.004420  -0.041351   0.363947
    14  C    0.000000  -0.000093   0.005273   0.000728   0.004666  -0.037737
    15  N    0.002193  -0.000001   0.000000   0.000000   0.000000   0.000000
    16  C   -0.000043   0.000000   0.000000   0.000000   0.000000   0.000000
    17  C   -0.000102   0.000000   0.000000   0.000000   0.000000   0.000000
    18  O    0.004301  -0.000002   0.000000   0.000000   0.000000   0.000000
    19  H    0.303069   0.000667   0.000000   0.000000   0.000000   0.000000
    20  H    0.000667   0.458819   0.001584  -0.000001   0.000000   0.000000
    21  H    0.000000   0.001584   0.542965  -0.005077  -0.000144   0.000013
    22  H    0.000000  -0.000001  -0.005077   0.549898  -0.005042  -0.000164
    23  H    0.000000   0.000000  -0.000144  -0.005042   0.556332  -0.005070
    24  H    0.000000   0.000000   0.000013  -0.000164  -0.005070   0.550981
    25  H    0.000000  -0.000010  -0.000129   0.000013  -0.000135  -0.005133
    26  H   -0.000004   0.000000   0.000000   0.000000   0.000000   0.000000
    27  H    0.000001   0.000000   0.000000   0.000000   0.000000   0.000000
    28  H    0.000006   0.000000   0.000000   0.000000   0.000000   0.000000
    29  H   -0.000320   0.000000   0.000000   0.000000   0.000000   0.000000
    30  H    0.000050   0.000000   0.000000   0.000000   0.000000   0.000000
    31  H   -0.000001   0.000000   0.000000   0.000000   0.000000   0.000000
              25         26         27         28         29         30
     1  O    0.000000   0.011327   0.000249  -0.000521   0.000031  -0.000045
     2  S    0.000000  -0.004399   0.001896  -0.002408  -0.002538  -0.006693
     3  N    0.000000   0.000116  -0.000074  -0.000087   0.012265  -0.000185
     4  C    0.000038  -0.000010   0.000001  -0.000006  -0.000263  -0.000004
     5  N   -0.000316  -0.000008   0.000003   0.000001   0.000726   0.000015
     6  N    0.015539   0.000000  -0.000001   0.000000  -0.000002   0.000000
     7  C    0.000224  -0.000004   0.000000   0.000000   0.000028   0.000001
     8  N   -0.013309   0.000000   0.000000   0.000000   0.000001   0.000000
     9  C   -0.039561   0.000000   0.000000   0.000000   0.000000   0.000000
    10  C    0.005467   0.000000   0.000000   0.000000   0.000000   0.000000
    11  C    0.000092   0.000000   0.000000   0.000000   0.000000   0.000000
    12  C    0.004529   0.000000   0.000000   0.000000   0.000000   0.000000
    13  C   -0.038050   0.000000   0.000000   0.000000   0.000000   0.000000
    14  C    0.357033   0.000000   0.000000   0.000000   0.000000   0.000000
    15  N    0.000000  -0.031826  -0.037904  -0.047577  -0.032788  -0.046393
    16  C    0.000000   0.376879   0.380988   0.374023   0.004461  -0.001594
    17  C    0.000000   0.004437  -0.002722  -0.001861   0.375117   0.374960
    18  O    0.000000  -0.000128  -0.000102   0.002021  -0.001797   0.004853
    19  H    0.000000  -0.000004   0.000001   0.000006  -0.000320   0.000050
    20  H   -0.000010   0.000000   0.000000   0.000000   0.000000   0.000000
    21  H   -0.000129   0.000000   0.000000   0.000000   0.000000   0.000000
    22  H    0.000013   0.000000   0.000000   0.000000   0.000000   0.000000
    23  H   -0.000135   0.000000   0.000000   0.000000   0.000000   0.000000
    24  H   -0.005133   0.000000   0.000000   0.000000   0.000000   0.000000
    25  H    0.538601   0.000000   0.000000   0.000000   0.000000   0.000000
    26  H    0.000000   0.496672  -0.020078  -0.030593  -0.000190  -0.000179
    27  H    0.000000  -0.020078   0.525474  -0.039019   0.000082  -0.001748
    28  H    0.000000  -0.030593  -0.039019   0.568817  -0.000196   0.007756
    29  H    0.000000  -0.000190   0.000082  -0.000196   0.501712  -0.030343
    30  H    0.000000  -0.000179  -0.001748   0.007756  -0.030343   0.562578
    31  H    0.000000   0.000021   0.005122  -0.001333  -0.021510  -0.034728
              31
     1  O   -0.000049
     2  S    0.002669
     3  N    0.000009
     4  C   -0.000013
     5  N    0.000036
     6  N    0.000000
     7  C    0.000001
     8  N    0.000000
     9  C    0.000000
    10  C    0.000000
    11  C    0.000000
    12  C    0.000000
    13  C    0.000000
    14  C    0.000000
    15  N   -0.033834
    16  C   -0.003824
    17  C    0.377539
    18  O    0.000038
    19  H   -0.000001
    20  H    0.000000
    21  H    0.000000
    22  H    0.000000
    23  H    0.000000
    24  H    0.000000
    25  H    0.000000
    26  H    0.000021
    27  H    0.005122
    28  H   -0.001333
    29  H   -0.021510
    30  H   -0.034728
    31  H    0.523009
 Mulliken charges:
               1
     1  O   -0.566072
     2  S    1.309260
     3  N   -0.803145
     4  C    0.383844
     5  N   -0.343570
     6  N   -0.107479
     7  C    0.054624
     8  N   -0.353548
     9  C    0.328100
    10  C   -0.170477
    11  C   -0.156222
    12  C   -0.131953
    13  C   -0.155036
    14  C   -0.155252
    15  N   -0.516182
    16  C   -0.326125
    17  C   -0.324977
    18  O   -0.569175
    19  H    0.423623
    20  H    0.228415
    21  H    0.174793
    22  H    0.165313
    23  H    0.160767
    24  H    0.164520
    25  H    0.175108
    26  H    0.197965
    27  H    0.187831
    28  H    0.170978
    29  H    0.195522
    30  H    0.171701
    31  H    0.186849
 Sum of Mulliken charges =   0.00000
 Mulliken charges with hydrogens summed into heavy atoms:
               1
     1  O   -0.566072
     2  S    1.309260
     3  N   -0.379522
     4  C    0.383844
     5  N   -0.343570
     6  N   -0.107479
     7  C    0.283039
     8  N   -0.353548
     9  C    0.328100
    10  C    0.004316
    11  C    0.009091
    12  C    0.028814
    13  C    0.009485
    14  C    0.019856
    15  N   -0.516182
    16  C    0.230649
    17  C    0.229095
    18  O   -0.569175
 Electronic spatial extent (au):  <R**2>=           6779.0718
 Charge=              0.0000 electrons
 Dipole moment (field-independent basis, Debye):
    X=             -4.3735    Y=             -1.4440    Z=             -1.0177  Tot=              4.7168
 Quadrupole moment (field-independent basis, Debye-Ang):
   XX=            -88.1201   YY=           -104.7637   ZZ=           -115.9083
   XY=             19.3547   XZ=             -7.5360   YZ=             10.4109
 Traceless Quadrupole moment (field-independent basis, Debye-Ang):
   XX=             14.8106   YY=             -1.8329   ZZ=            -12.9776
   XY=             19.3547   XZ=             -7.5360   YZ=             10.4109
 Octapole moment (field-independent basis, Debye-Ang**2):
  XXX=            -84.0770  YYY=            -14.5546  ZZZ=             -3.9654  XYY=            -12.1241
  XXY=             64.0206  XXZ=             14.5657  XZZ=             25.7215  YZZ=              0.0747
  YYZ=              1.3503  XYZ=              1.2804
 Hexadecapole moment (field-independent basis, Debye-Ang**3):
 XXXX=          -6655.5501 YYYY=           -807.1772 ZZZZ=           -515.9236 XXXY=            314.4673
 XXXZ=           -133.5807 YYYX=             46.3838 YYYZ=             33.5956 ZZZX=              4.7082
 ZZZY=             16.9647 XXYY=          -1319.6661 XXZZ=          -1381.2275 YYZZ=           -225.8655
 XXYZ=             62.7179 YYXZ=            -16.4332 ZZXY=              8.3092
 N-N= 1.461104521614D+03 E-N=-5.759506061630D+03  KE= 1.202082685557D+03
 No NMR shielding tensors so no spin-rotation constants.
 Leave Link  601 at Thu Aug  6 21:11:51 2020, MaxMem=    33554432 cpu:         0.2
 (Enter /prod/apps/gaussian/g09d1/l9999.exe)
 1\1\GINC-PIRINEUS24\SP\RB3LYP\6-31G(d)\C10H13N5O2S1\UBAFAR01\06-Aug-20
 20\0\\#p b3lyp/6-31G(d) scrf=(iefpcm,read,solvent=Water) geom=allcheck
  guess=read\\SM46.n.10.pdb.xyz\\0,1\O,0,1.222,3.287,-0.766\S,0,1.82,2.
 307,0.149\N,0,1.65,0.716,-0.409\C,0,1.706,0.476,-1.798\N,0,2.893,0.308
 ,-2.443\N,0,2.656,0.07,-3.705\C,0,0.68,0.333,-2.708\N,0,1.311,0.072,-3
 .879\C,0,0.742,-0.181,-5.161\C,0,-0.551,-0.7,-5.252\C,0,-1.102,-0.935,
 -6.511\C,0,-0.364,-0.667,-7.665\C,0,0.931,-0.155,-7.558\C,0,1.49,0.097
 ,-6.307\N,0,3.475,2.479,0.016\C,0,3.948,3.87,-0.066\C,0,4.257,1.633,0.
 931\O,0,1.336,2.256,1.536\H,0,0.845,0.295,0.056\H,0,-0.39,0.404,-2.614
 \H,0,-1.113,-0.928,-4.354\H,0,-2.106,-1.337,-6.585\H,0,-0.795,-0.855,-
 8.642\H,0,1.508,0.059,-8.45\H,0,2.487,0.506,-6.211\H,0,3.358,4.412,-0.
 802\H,0,4.987,3.836,-0.397\H,0,3.901,4.387,0.9\H,0,3.882,0.611,0.886\H
 ,0,4.223,1.997,1.964\H,0,5.291,1.645,0.58\\Version=AM64L-G09RevD.01\St
 ate=1-A\HF=-1211.1857898\RMSD=8.733e-09\Dipole=-0.9669429,-1.0817323,-
 1.1569985\Quadrupole=5.062537,-7.1880465,2.1255095,14.0304666,12.93638
 17,-1.1643181\PG=C01 [X(C10H13N5O2S1)]\\@


 Human beings, who are almost unique in having the
 ability to learn from the experience of others, are
 also remarkable for their apparent disinclination to do so.
                               -- Douglas Adams,
                                Last Chance to See
 Job cpu time:       0 days  0 hours  2 minutes 52.9 seconds.
 File lengths (MBytes):  RWF=    156 Int=      0 D2E=      0 Chk=      6 Scr=      1
 Normal termination of Gaussian 09 at Thu Aug  6 21:11:51 2020.
