 Entering Gaussian System, Link 0=g09
 Initial command:
 /prod/apps/gaussian/g09d1/l1.exe "/tmp/ubafar01/1448555/Gau-177203.inp" -scrdir="/tmp/ubafar01/1448555/"
 Entering Link 1 = /prod/apps/gaussian/g09d1/l1.exe PID=    177206.
  
 Copyright (c) 1988,1990,1992,1993,1995,1998,2003,2009,2013,
            Gaussian, Inc.  All Rights Reserved.
  
 This is part of the Gaussian(R) 09 program.  It is based on
 the Gaussian(R) 03 system (copyright 2003, Gaussian, Inc.),
 the Gaussian(R) 98 system (copyright 1998, Gaussian, Inc.),
 the Gaussian(R) 94 system (copyright 1995, Gaussian, Inc.),
 the Gaussian 92(TM) system (copyright 1992, Gaussian, Inc.),
 the Gaussian 90(TM) system (copyright 1990, Gaussian, Inc.),
 the Gaussian 88(TM) system (copyright 1988, Gaussian, Inc.),
 the Gaussian 86(TM) system (copyright 1986, Carnegie Mellon
 University), and the Gaussian 82(TM) system (copyright 1983,
 Carnegie Mellon University). Gaussian is a federally registered
 trademark of Gaussian, Inc.
  
 This software contains proprietary and confidential information,
 including trade secrets, belonging to Gaussian, Inc.
  
 This software is provided under written license and may be
 used, copied, transmitted, or stored only in accord with that
 written license.
  
 The following legend is applicable only to US Government
 contracts under FAR:
  
                    RESTRICTED RIGHTS LEGEND
  
 Use, reproduction and disclosure by the US Government is
 subject to restrictions as set forth in subparagraphs (a)
 and (c) of the Commercial Computer Software - Restricted
 Rights clause in FAR 52.227-19.
  
 Gaussian, Inc.
 340 Quinnipiac St., Bldg. 40, Wallingford CT 06492
  
  
 ---------------------------------------------------------------
 Warning -- This program may not be used in any manner that
 competes with the business of Gaussian, Inc. or will provide
 assistance to any competitor of Gaussian, Inc.  The licensee
 of this program is prohibited from giving any competitor of
 Gaussian, Inc. access to this program.  By using this program,
 the user acknowledges that Gaussian, Inc. is engaged in the
 business of creating and licensing software in the field of
 computational chemistry and represents and warrants to the
 licensee that it is not a competitor of Gaussian, Inc. and that
 it will not use this program in any manner prohibited above.
 ---------------------------------------------------------------
  

 Cite this work as:
 Gaussian 09, Revision D.01,
 M. J. Frisch, G. W. Trucks, H. B. Schlegel, G. E. Scuseria, 
 M. A. Robb, J. R. Cheeseman, G. Scalmani, V. Barone, B. Mennucci, 
 G. A. Petersson, H. Nakatsuji, M. Caricato, X. Li, H. P. Hratchian, 
 A. F. Izmaylov, J. Bloino, G. Zheng, J. L. Sonnenberg, M. Hada, 
 M. Ehara, K. Toyota, R. Fukuda, J. Hasegawa, M. Ishida, T. Nakajima, 
 Y. Honda, O. Kitao, H. Nakai, T. Vreven, J. A. Montgomery, Jr., 
 J. E. Peralta, F. Ogliaro, M. Bearpark, J. J. Heyd, E. Brothers, 
 K. N. Kudin, V. N. Staroverov, T. Keith, R. Kobayashi, J. Normand, 
 K. Raghavachari, A. Rendell, J. C. Burant, S. S. Iyengar, J. Tomasi, 
 M. Cossi, N. Rega, J. M. Millam, M. Klene, J. E. Knox, J. B. Cross, 
 V. Bakken, C. Adamo, J. Jaramillo, R. Gomperts, R. E. Stratmann, 
 O. Yazyev, A. J. Austin, R. Cammi, C. Pomelli, J. W. Ochterski, 
 R. L. Martin, K. Morokuma, V. G. Zakrzewski, G. A. Voth, 
 P. Salvador, J. J. Dannenberg, S. Dapprich, A. D. Daniels, 
 O. Farkas, J. B. Foresman, J. V. Ortiz, J. Cioslowski, 
 and D. J. Fox, Gaussian, Inc., Wallingford CT, 2013.
 
 ******************************************
 Gaussian 09:  AM64L-G09RevD.01 24-Apr-2013
                 6-Aug-2020 
 ******************************************
 %nproc=1
 Will use up to    1 processors via shared memory.
 %Chk=SM46.n.2.pdb.xyz.mst.n.w.chk
 -----------------
 #p b3lyp/6-31G(d)
 -----------------
 1/38=1/1;
 2/12=2,17=6,18=5,40=1/2;
 3/5=1,6=6,7=1,11=2,16=1,25=1,30=1,74=-5/1,2,3;
 4//1;
 5/5=2,38=5/2;
 6/7=2,8=2,9=2,10=2,28=1/1;
 99/5=1,9=1/99;
 Leave Link    1 at Thu Aug  6 21:05:14 2020, MaxMem=           0 cpu:         0.0
 (Enter /prod/apps/gaussian/g09d1/l101.exe)
 ----------------
 SM46.n.2.pdb.xyz
 ----------------
 Symbolic Z-matrix:
 Charge =  0 Multiplicity = 1
 O                     3.252     3.34     -1.749 
 S                     2.69      2.599    -0.622 
 N                     2.681     0.951    -1.099 
 C                     2.391     0.665    -2.45 
 N                     3.373     0.633    -3.394 
 N                     2.844     0.31     -4.542 
 C                     1.191     0.34     -3.048 
 N                     1.515     0.118    -4.345 
 C                     0.665    -0.263    -5.423 
 C                    -0.51     -0.968    -5.159 
 C                    -1.34     -1.327    -6.22 
 C                    -0.992    -0.996    -7.531 
 C                     0.191    -0.298    -7.78 
 C                     1.024     0.079    -6.729 
 N                     3.768     2.675     0.638 
 C                     3.316     2.126     1.924 
 C                     5.162     2.356     0.296 
 O                     1.376     2.974    -0.086 
 H                     2.106     0.415    -0.448 
 H                     0.187     0.267    -2.667 
 H                    -0.766    -1.242    -4.142 
 H                    -2.254    -1.874    -6.018 
 H                    -1.639    -1.281    -8.354 
 H                     0.466    -0.034    -8.795 
 H                     1.936     0.633    -6.906 
 H                     2.287     2.428     2.106 
 H                     3.953     2.551     2.702 
 H                     3.397     1.033     1.962 
 H                     5.428     2.854    -0.635 
 H                     5.324     1.276     0.198 
 H                     5.792     2.744     1.098 
 
 NAtoms=     31 NQM=       31 NQMF=       0 NMMI=      0 NMMIF=      0
                NMic=       0 NMicF=      0.
                    Isotopes and Nuclear Properties:
 (Nuclear quadrupole moments (NQMom) in fm**2, nuclear magnetic moments (NMagM)
  in nuclear magnetons)

  Atom         1           2           3           4           5           6           7           8           9          10
 IAtWgt=          16          32          14          12          14          14          12          14          12          12
 AtmWgt=  15.9949146  31.9720718  14.0030740  12.0000000  14.0030740  14.0030740  12.0000000  14.0030740  12.0000000  12.0000000
 NucSpn=           0           0           2           0           2           2           0           2           0           0
 AtZEff=   0.0000000   0.0000000   0.0000000   0.0000000   0.0000000   0.0000000   0.0000000   0.0000000   0.0000000   0.0000000
 NQMom=    0.0000000   0.0000000   2.0440000   0.0000000   2.0440000   2.0440000   0.0000000   2.0440000   0.0000000   0.0000000
 NMagM=    0.0000000   0.0000000   0.4037610   0.0000000   0.4037610   0.4037610   0.0000000   0.4037610   0.0000000   0.0000000
 AtZNuc=   8.0000000  16.0000000   7.0000000   6.0000000   7.0000000   7.0000000   6.0000000   7.0000000   6.0000000   6.0000000

  Atom        11          12          13          14          15          16          17          18          19          20
 IAtWgt=          12          12          12          12          14          12          12          16           1           1
 AtmWgt=  12.0000000  12.0000000  12.0000000  12.0000000  14.0030740  12.0000000  12.0000000  15.9949146   1.0078250   1.0078250
 NucSpn=           0           0           0           0           2           0           0           0           1           1
 AtZEff=   0.0000000   0.0000000   0.0000000   0.0000000   0.0000000   0.0000000   0.0000000   0.0000000   0.0000000   0.0000000
 NQMom=    0.0000000   0.0000000   0.0000000   0.0000000   2.0440000   0.0000000   0.0000000   0.0000000   0.0000000   0.0000000
 NMagM=    0.0000000   0.0000000   0.0000000   0.0000000   0.4037610   0.0000000   0.0000000   0.0000000   2.7928460   2.7928460
 AtZNuc=   6.0000000   6.0000000   6.0000000   6.0000000   7.0000000   6.0000000   6.0000000   8.0000000   1.0000000   1.0000000

  Atom        21          22          23          24          25          26          27          28          29          30
 IAtWgt=           1           1           1           1           1           1           1           1           1           1
 AtmWgt=   1.0078250   1.0078250   1.0078250   1.0078250   1.0078250   1.0078250   1.0078250   1.0078250   1.0078250   1.0078250
 NucSpn=           1           1           1           1           1           1           1           1           1           1
 AtZEff=   0.0000000   0.0000000   0.0000000   0.0000000   0.0000000   0.0000000   0.0000000   0.0000000   0.0000000   0.0000000
 NQMom=    0.0000000   0.0000000   0.0000000   0.0000000   0.0000000   0.0000000   0.0000000   0.0000000   0.0000000   0.0000000
 NMagM=    2.7928460   2.7928460   2.7928460   2.7928460   2.7928460   2.7928460   2.7928460   2.7928460   2.7928460   2.7928460
 AtZNuc=   1.0000000   1.0000000   1.0000000   1.0000000   1.0000000   1.0000000   1.0000000   1.0000000   1.0000000   1.0000000

  Atom        31
 IAtWgt=           1
 AtmWgt=   1.0078250
 NucSpn=           1
 AtZEff=   0.0000000
 NQMom=    0.0000000
 NMagM=    2.7928460
 AtZNuc=   1.0000000
 Leave Link  101 at Thu Aug  6 21:05:14 2020, MaxMem=    33554432 cpu:         0.1
 (Enter /prod/apps/gaussian/g09d1/l202.exe)
                          Input orientation:                          
 ---------------------------------------------------------------------
 Center     Atomic      Atomic             Coordinates (Angstroms)
 Number     Number       Type             X           Y           Z
 ---------------------------------------------------------------------
      1          8           0        3.252000    3.340000   -1.749000
      2         16           0        2.690000    2.599000   -0.622000
      3          7           0        2.681000    0.951000   -1.099000
      4          6           0        2.391000    0.665000   -2.450000
      5          7           0        3.373000    0.633000   -3.394000
      6          7           0        2.844000    0.310000   -4.542000
      7          6           0        1.191000    0.340000   -3.048000
      8          7           0        1.515000    0.118000   -4.345000
      9          6           0        0.665000   -0.263000   -5.423000
     10          6           0       -0.510000   -0.968000   -5.159000
     11          6           0       -1.340000   -1.327000   -6.220000
     12          6           0       -0.992000   -0.996000   -7.531000
     13          6           0        0.191000   -0.298000   -7.780000
     14          6           0        1.024000    0.079000   -6.729000
     15          7           0        3.768000    2.675000    0.638000
     16          6           0        3.316000    2.126000    1.924000
     17          6           0        5.162000    2.356000    0.296000
     18          8           0        1.376000    2.974000   -0.086000
     19          1           0        2.106000    0.415000   -0.448000
     20          1           0        0.187000    0.267000   -2.667000
     21          1           0       -0.766000   -1.242000   -4.142000
     22          1           0       -2.254000   -1.874000   -6.018000
     23          1           0       -1.639000   -1.281000   -8.354000
     24          1           0        0.466000   -0.034000   -8.795000
     25          1           0        1.936000    0.633000   -6.906000
     26          1           0        2.287000    2.428000    2.106000
     27          1           0        3.953000    2.551000    2.702000
     28          1           0        3.397000    1.033000    1.962000
     29          1           0        5.428000    2.854000   -0.635000
     30          1           0        5.324000    1.276000    0.198000
     31          1           0        5.792000    2.744000    1.098000
 ---------------------------------------------------------------------
                    Distance matrix (angstroms):
                    1          2          3          4          5
     1  O    0.000000
     2  S    1.461182   0.000000
     3  N    2.540839   1.715667   0.000000
     4  C    2.896264   2.677936   1.411062   0.000000
     5  N    3.169939   3.466357   2.418060   1.362529   0.000000
     6  N    4.141040   4.541986   3.505952   2.169723   1.304636
     7  C    3.864599   3.638071   2.528245   1.379576   2.228607
     8  N    4.487501   4.625658   3.548234   2.158150   2.149835
     9  C    5.759553   5.944852   4.922908   3.560757   3.500417
    10  C    6.658799   6.599080   5.508960   4.291989   4.555888
    11  C    7.928253   7.936749   6.897997   5.665803   5.834402
    12  C    8.381167   8.614838   7.658483   6.326150   6.230701
    13  C    7.679696   8.116315   7.238499   5.846047   5.498080
    14  C    6.355982   6.813326   5.933206   4.530113   4.116666
    15  N    2.531057   1.659958   2.677856   3.933443   4.536829
    16  C    3.868956   2.664155   3.304902   4.703405   5.523896
    17  C    2.966206   2.648123   3.174179   4.251875   4.448073
    18  O    2.533555   1.467827   2.611843   3.456906   4.517871
    19  H    3.400227   2.267419   1.020648   2.037579   3.214301
    20  H    4.436246   3.985631   3.024321   2.250135   3.288325
    21  H    6.547175   6.252009   5.094203   4.057852   4.605046
    22  H    8.702080   8.577160   7.518737   6.383821   6.695786
    23  H    9.428762   9.673596   8.733799   7.408443   7.306514
    24  H    8.294082   8.869994   8.068759   6.667327   6.169792
    25  H    5.971127   6.627392   5.863224   4.479284   3.794616
    26  H    4.077253   2.762903   3.550886   4.886320   5.886546
    27  H    4.574421   3.556185   4.315737   5.704379   6.416879
    28  H    4.372047   3.103105   3.144694   4.540177   5.370969
    29  H    2.492422   2.749880   3.373828   4.160446   4.094868
    30  H    3.513416   3.059524   2.961973   3.998464   4.137912
    31  H    3.861635   3.549905   4.209511   5.336417   5.521408
                    6          7          8          9         10
     6  N    0.000000
     7  C    2.228305   0.000000
     8  N    1.357171   1.355164   0.000000
     9  C    2.419200   2.506174   1.424691   0.000000
    10  C    3.641880   3.010081   2.437748   1.395473   0.000000
    11  C    4.795968   4.387076   3.708730   2.405687   1.394095
    12  C    5.035340   5.162139   4.204360   2.779677   2.420639
    13  C    4.229978   4.878408   3.704761   2.404444   2.794627
    14  C    2.854598   3.694018   2.434350   1.396954   2.431926
    15  N    5.768830   5.067519   6.036932   7.415941   8.073286
    16  C    6.732741   5.694401   6.824663   8.167835   8.624384
    17  C    5.741558   5.569150   6.312538   7.732343   8.542692
    18  O    5.395170   3.968076   5.129828   6.282297   6.695647
    19  H    4.161310   2.757327   3.952733   5.223676   5.563242
    20  H    3.252249   1.076339   2.145103   2.846914   2.867246
    21  H    3.949785   2.743977   2.663413   2.155728   1.083929
    22  H    5.739167   5.058727   4.579558   3.386725   2.144820
    23  H    6.095893   6.228176   5.289329   3.864648   3.403033
    24  H    4.884796   5.804611   4.574495   3.385620   3.878844
    25  H    2.552898   3.940182   2.645976   2.148848   3.405602
    26  H    6.999434   5.667863   6.895468   8.158321   8.493306
    27  H    7.663387   6.751271   7.843694   9.205714   9.700363
    28  H    6.567386   5.517861   6.645103   7.980079   8.365243
    29  H    5.330445   5.485885   6.046599   7.438199   8.386543
    30  H    5.436097   5.338005   6.040554   7.461263   8.232165
    31  H    6.813564   6.643623   7.403705   8.823356   9.625186
                   11         12         13         14         15
    11  C    0.000000
    12  C    1.396204   0.000000
    13  C    2.415865   1.395956   0.000000
    14  C    2.797215   2.421381   1.393061   0.000000
    15  N    9.441389  10.142308   9.617504   8.278976   0.000000
    16  C    9.996313  10.849091  10.478980   9.182477   1.469524
    17  C    9.914573  10.505691   9.847656   8.465128   1.470361
    18  O    7.968765   8.763353   8.444397   7.254955   2.516990
    19  H    6.944456   7.858589   7.611427   6.382365   3.008195
    20  H    4.182867   5.161754   5.144124   4.151597   5.435536
    21  H    2.157495   3.405424   3.878405   3.411995   7.664753
    22  H    1.084163   2.157011   3.400948   3.881368  10.062814
    23  H    2.155336   1.084971   2.155148   3.403203  11.213458
    24  H    3.400604   2.156132   1.084226   2.143009  10.354872
    25  H    3.878708   3.408438   2.162328   1.081660   8.027324
    26  H    9.827382  10.739990  10.466962   9.228770   2.099856
    27  H   11.075054  11.905819  11.495293  10.180058   2.075981
    28  H    9.744429  10.653507  10.341981   9.059510   2.141677
    29  H    9.720021  10.178100   9.402781   8.014529   2.099564
    30  H    9.611203  10.236761   9.616322   8.240518   2.138209
    31  H   10.999618  11.596116  10.929037   9.544526   2.076761
                   16         17         18         19         20
    16  C    0.000000
    17  C    2.472044   0.000000
    18  O    2.919384   3.855080   0.000000
    19  H    3.165123   3.695964   2.685596   0.000000
    20  H    5.858652   6.155803   3.924682   2.937418   0.000000
    21  H    8.050000   8.233021   6.230085   4.963836   2.315365
    22  H   10.492867  10.618689   8.477537   7.434650   4.666001
    23  H   11.907853  11.588955   9.775228   8.911020   6.170296
    24  H   11.299781  10.507654   9.258663   8.518428   6.141728
    25  H    9.061035   8.077414   7.232308   6.463914   4.600226
    26  H    1.087736   3.398074   2.435755   3.256969   5.644595
    27  H    1.091640   2.699730   3.820053   4.230414   6.944463
    28  H    1.096656   2.764256   3.470767   2.802981   5.684936
    29  H    3.396912   1.088816   4.090783   4.125454   6.187865
    30  H    2.780942   1.096471   4.307037   3.393252   5.967837
    31  H    2.682308   1.091168   4.577752   4.626116   7.192133
                   21         22         23         24         25
    21  H    0.000000
    22  H    2.476478   0.000000
    23  H    4.301697   2.487322   0.000000
    24  H    4.962610   4.300666   2.486064   0.000000
    25  H    4.296059   4.962831   4.305894   2.484776   0.000000
    26  H    7.863028  10.253159  11.772075  11.322954   9.195726
    27  H    9.137623  11.582136  12.968802  12.289117  10.003033
    28  H    7.730783  10.201218  11.710497  11.200103   8.996441
    29  H    8.212302  10.504466  11.252719   9.977354   7.513478
    30  H    7.890756  10.295010  11.320703  10.304868   7.896759
    31  H    9.292640  11.691941  12.679144  11.573893   9.131762
                   26         27         28         29         30
    26  H    0.000000
    27  H    1.773669   0.000000
    28  H    1.788536   1.777937   0.000000
    29  H    4.190518   3.661011   3.766352   0.000000
    30  H    3.767086   3.126545   2.623752   1.787397   0.000000
    31  H    3.660730   2.447853   3.067579   1.774228   1.784390
                   31
    31  H    0.000000
 Stoichiometry    C10H13N5O2S
 Framework group  C1[X(C10H13N5O2S)]
 Deg. of freedom    87
 Full point group                 C1      NOp   1
 Largest Abelian subgroup         C1      NOp   1
 Largest concise Abelian subgroup C1      NOp   1
                         Standard orientation:                         
 ---------------------------------------------------------------------
 Center     Atomic      Atomic             Coordinates (Angstroms)
 Number     Number       Type             X           Y           Z
 ---------------------------------------------------------------------
      1          8           0       -2.314496   -0.876746    1.438460
      2         16           0       -2.724521    0.265846    0.625184
      3          7           0       -1.708148    0.249521   -0.756928
      4          6           0       -0.365097   -0.142630   -0.573819
      5          7           0        0.006423   -1.451718   -0.642708
      6          7           0        1.297921   -1.532829   -0.476797
      7          6           0        0.759751    0.626215   -0.357434
      8          7           0        1.773158   -0.272336   -0.311809
      9          6           0        3.165362   -0.036234   -0.122678
     10          6           0        3.712911    1.193137   -0.491709
     11          6           0        5.074340    1.417787   -0.292845
     12          6           0        5.881060    0.419480    0.256676
     13          6           0        5.320393   -0.808296    0.612923
     14          6           0        3.959150   -1.042877    0.432344
     15          7           0       -4.248787   -0.034156    0.040315
     16          6           0       -4.908700    1.069025   -0.671729
     17          6           0       -4.440095   -1.356232   -0.574077
     18          8           0       -2.748000    1.609479    1.215620
     19          1           0       -1.797910    1.137752   -1.251610
     20          1           0        0.900544    1.685488   -0.228498
     21          1           0        3.087648    1.957878   -0.937933
     22          1           0        5.502502    2.372213   -0.577725
     23          1           0        6.940907    0.597312    0.405884
     24          1           0        5.939692   -1.586978    1.043816
     25          1           0        3.508626   -1.983969    0.717584
     26          1           0       -4.734511    2.000916   -0.138431
     27          1           0       -5.979910    0.858898   -0.677575
     28          1           0       -4.563309    1.161527   -1.708456
     29          1           0       -3.974135   -2.115647    0.051775
     30          1           0       -4.022085   -1.402906   -1.586666
     31          1           0       -5.514168   -1.543506   -0.618178
 ---------------------------------------------------------------------
 Rotational constants (GHZ):      1.3108860      0.1538688      0.1477097
 Leave Link  202 at Thu Aug  6 21:05:14 2020, MaxMem=    33554432 cpu:         0.0
 (Enter /prod/apps/gaussian/g09d1/l301.exe)
 Standard basis: 6-31G(d) (6D, 7F)
 Ernie: Thresh=  0.10000D-02 Tol=  0.10000D-05 Strict=F.
 There are   300 symmetry adapted cartesian basis functions of A   symmetry.
 There are   300 symmetry adapted basis functions of A   symmetry.
   300 basis functions,   580 primitive gaussians,   300 cartesian basis functions
    70 alpha electrons       70 beta electrons
       nuclear repulsion energy      1450.5452194164 Hartrees.
 IExCor=  402 DFT=T Ex+Corr=B3LYP ExCW=0 ScaHFX=  0.200000
 ScaDFX=  0.800000  0.720000  1.000000  0.810000 ScalE2=  1.000000  1.000000
 IRadAn=      0 IRanWt=     -1 IRanGd=            0 ICorTp=0 IEmpDi=  4
 NAtoms=   31 NActive=   31 NUniq=   31 SFac= 1.00D+00 NAtFMM=   60 NAOKFM=F Big=F
 Integral buffers will be    131072 words long.
 Raffenetti 2 integral format.
 Two-electron integral symmetry is turned on.
 Leave Link  301 at Thu Aug  6 21:05:14 2020, MaxMem=    33554432 cpu:         0.0
 (Enter /prod/apps/gaussian/g09d1/l302.exe)
 NPDir=0 NMtPBC=     1 NCelOv=     1 NCel=       1 NClECP=     1 NCelD=      1
         NCelK=      1 NCelE2=     1 NClLst=     1 CellRange=     0.0.
 One-electron integrals computed using PRISM.
 NBasis=   300 RedAO= T EigKep=  4.67D-04  NBF=   300
 NBsUse=   300 1.00D-06 EigRej= -1.00D+00 NBFU=   300
 Precomputing XC quadrature grid using
 IXCGrd= 4 IRadAn=           0 IRanWt=          -1 IRanGd=           0 AccXCQ= 0.00D+00.
 Generated NRdTot=       0 NPtTot=           0 NUsed=           0 NTot=          32
 NSgBfM=   296   296   296   296   296 MxSgAt=    31 MxSgA2=    31.
 Leave Link  302 at Thu Aug  6 21:05:15 2020, MaxMem=    33554432 cpu:         1.0
 (Enter /prod/apps/gaussian/g09d1/l303.exe)
 DipDrv:  MaxL=1.
 Leave Link  303 at Thu Aug  6 21:05:15 2020, MaxMem=    33554432 cpu:         0.0
 (Enter /prod/apps/gaussian/g09d1/l401.exe)
 ExpMin= 1.17D-01 ExpMax= 2.19D+04 ExpMxC= 3.30D+03 IAcc=1 IRadAn=         1 AccDes= 0.00D+00
 Harris functional with IExCor=  402 and IRadAn=       1 diagonalized for initial guess.
 HarFok:  IExCor=  402 AccDes= 0.00D+00 IRadAn=         1 IDoV= 1 UseB2=F ITyADJ=14
 ICtDFT=  3500011 ScaDFX=  1.000000  1.000000  1.000000  1.000000
 FoFCou: FMM=F IPFlag=           0 FMFlag=      100000 FMFlg1=           0
         NFxFlg=           0 DoJE=T BraDBF=F KetDBF=T FulRan=T
         wScrn=  0.000000 ICntrl=     500 IOpCl=  0 I1Cent=   200000004 NGrid=           0
         NMat0=    1 NMatS0=      1 NMatT0=    0 NMatD0=    1 NMtDS0=    0 NMtDT0=    0
 Petite list used in FoFCou.
 Harris En= -1211.17003712693    
 JPrj=0 DoOrth=F DoCkMO=F.
 Leave Link  401 at Thu Aug  6 21:05:18 2020, MaxMem=    33554432 cpu:         2.8
 (Enter /prod/apps/gaussian/g09d1/l502.exe)
 Closed shell SCF:
 Using DIIS extrapolation, IDIIS=  1040.
 Integral symmetry usage will be decided dynamically.
 IVT=      292611 IEndB=      292611 NGot=    33554432 MDV=    33368762
 LenX=    33368762 LenY=    33278321
 Requested convergence on RMS density matrix=1.00D-08 within 128 cycles.
 Requested convergence on MAX density matrix=1.00D-06.
 Requested convergence on             energy=1.00D-06.
 No special actions if energy rises.
 Fock matrices will be formed incrementally for  20 cycles.
 Integral accuracy reduced to 1.0D-05 until final iterations.

 Cycle   1  Pass 0  IDiag  1:
 FoFJK:  IHMeth= 1 ICntrl=       0 DoSepK=F KAlg= 0 I1Cent=   0 FoldK=F
 IRaf= 700000000 NMat=   1 IRICut=       1 DoRegI=T DoRafI=F ISym2E= 0.
 FoFCou: FMM=F IPFlag=           0 FMFlag=      100000 FMFlg1=           0
         NFxFlg=           0 DoJE=F BraDBF=F KetDBF=F FulRan=T
         wScrn=  0.000000 ICntrl=       0 IOpCl=  0 I1Cent=           0 NGrid=           0
         NMat0=    1 NMatS0=      1 NMatT0=    0 NMatD0=    1 NMtDS0=    0 NMtDT0=    0
 Symmetry not used in FoFCou.
 E= -1210.60206430387    
 DIIS: error= 3.40D-02 at cycle   1 NSaved=   1.
 NSaved= 1 IEnMin= 1 EnMin= -1210.60206430387     IErMin= 1 ErrMin= 3.40D-02
 ErrMax= 3.40D-02  0.00D+00 EMaxC= 1.00D-01 BMatC= 6.44D-01 BMatP= 6.44D-01
 IDIUse=3 WtCom= 6.60D-01 WtEn= 3.40D-01
 Coeff-Com:  0.100D+01
 Coeff-En:   0.100D+01
 Coeff:      0.100D+01
 Gap=     0.310 Goal=   None    Shift=    0.000
 GapD=    0.310 DampG=1.000 DampE=0.500 DampFc=0.5000 IDamp=-1.
 Damping current iteration by 5.00D-01
 RMSDP=6.83D-03 MaxDP=6.18D-01              OVMax= 2.40D-01

 Cycle   2  Pass 0  IDiag  1:
 RMSU=  3.41D-03    CP:  9.93D-01
 E= -1210.71515330300     Delta-E=       -0.113088999129 Rises=F Damp=T
 DIIS: error= 1.49D-02 at cycle   2 NSaved=   2.
 NSaved= 2 IEnMin= 2 EnMin= -1210.71515330300     IErMin= 2 ErrMin= 1.49D-02
 ErrMax= 1.49D-02  0.00D+00 EMaxC= 1.00D-01 BMatC= 1.19D-01 BMatP= 6.44D-01
 IDIUse=3 WtCom= 8.51D-01 WtEn= 1.49D-01
 Coeff-Com:  0.252D+00 0.748D+00
 Coeff-En:   0.399D+00 0.601D+00
 Coeff:      0.274D+00 0.726D+00
 Gap=     0.235 Goal=   None    Shift=    0.000
 RMSDP=2.00D-03 MaxDP=1.41D-01 DE=-1.13D-01 OVMax= 2.11D-01

 Cycle   3  Pass 0  IDiag  1:
 RMSU=  1.62D-03    CP:  9.83D-01  6.62D-01
 E= -1211.10737092676     Delta-E=       -0.392217623755 Rises=F Damp=F
 DIIS: error= 8.90D-03 at cycle   3 NSaved=   3.
 NSaved= 3 IEnMin= 3 EnMin= -1211.10737092676     IErMin= 3 ErrMin= 8.90D-03
 ErrMax= 8.90D-03  0.00D+00 EMaxC= 1.00D-01 BMatC= 5.73D-02 BMatP= 1.19D-01
 IDIUse=3 WtCom= 9.11D-01 WtEn= 8.90D-02
 Coeff-Com:  0.872D-01 0.411D+00 0.502D+00
 Coeff-En:   0.000D+00 0.000D+00 0.100D+01
 Coeff:      0.794D-01 0.374D+00 0.546D+00
 Gap=     0.200 Goal=   None    Shift=    0.000
 RMSDP=1.09D-03 MaxDP=3.62D-02 DE=-3.92D-01 OVMax= 5.12D-02

 Cycle   4  Pass 0  IDiag  1:
 RMSU=  6.99D-04    CP:  9.89D-01  7.41D-01  5.16D-01
 E= -1211.15090332446     Delta-E=       -0.043532397705 Rises=F Damp=F
 DIIS: error= 3.91D-03 at cycle   4 NSaved=   4.
 NSaved= 4 IEnMin= 4 EnMin= -1211.15090332446     IErMin= 4 ErrMin= 3.91D-03
 ErrMax= 3.91D-03  0.00D+00 EMaxC= 1.00D-01 BMatC= 9.25D-03 BMatP= 5.73D-02
 IDIUse=3 WtCom= 9.61D-01 WtEn= 3.91D-02
 Coeff-Com:  0.847D-02 0.880D-01 0.303D+00 0.600D+00
 Coeff-En:   0.000D+00 0.000D+00 0.136D+00 0.864D+00
 Coeff:      0.814D-02 0.846D-01 0.296D+00 0.611D+00
 Gap=     0.199 Goal=   None    Shift=    0.000
 RMSDP=3.74D-04 MaxDP=1.35D-02 DE=-4.35D-02 OVMax= 1.87D-02

 Cycle   5  Pass 0  IDiag  1:
 RMSU=  2.01D-04    CP:  9.88D-01  7.27D-01  6.24D-01  6.30D-01
 E= -1211.15832555821     Delta-E=       -0.007422233753 Rises=F Damp=F
 DIIS: error= 1.04D-03 at cycle   5 NSaved=   5.
 NSaved= 5 IEnMin= 5 EnMin= -1211.15832555821     IErMin= 5 ErrMin= 1.04D-03
 ErrMax= 1.04D-03  0.00D+00 EMaxC= 1.00D-01 BMatC= 7.76D-04 BMatP= 9.25D-03
 IDIUse=3 WtCom= 9.90D-01 WtEn= 1.04D-02
 Coeff-Com: -0.129D-02 0.218D-01 0.122D+00 0.330D+00 0.527D+00
 Coeff-En:   0.000D+00 0.000D+00 0.000D+00 0.000D+00 0.100D+01
 Coeff:     -0.128D-02 0.216D-01 0.121D+00 0.327D+00 0.532D+00
 Gap=     0.198 Goal=   None    Shift=    0.000
 RMSDP=1.23D-04 MaxDP=6.33D-03 DE=-7.42D-03 OVMax= 8.62D-03

 Cycle   6  Pass 0  IDiag  1:
 RMSU=  6.29D-05    CP:  9.88D-01  7.30D-01  6.27D-01  6.88D-01  5.19D-01
 E= -1211.15891861088     Delta-E=       -0.000593052661 Rises=F Damp=F
 DIIS: error= 4.87D-04 at cycle   6 NSaved=   6.
 NSaved= 6 IEnMin= 6 EnMin= -1211.15891861088     IErMin= 6 ErrMin= 4.87D-04
 ErrMax= 4.87D-04  0.00D+00 EMaxC= 1.00D-01 BMatC= 1.33D-04 BMatP= 7.76D-04
 IDIUse=3 WtCom= 9.95D-01 WtEn= 4.87D-03
 Coeff-Com: -0.183D-02 0.508D-02 0.485D-01 0.153D+00 0.344D+00 0.452D+00
 Coeff-En:   0.000D+00 0.000D+00 0.000D+00 0.000D+00 0.111D+00 0.889D+00
 Coeff:     -0.182D-02 0.505D-02 0.483D-01 0.152D+00 0.342D+00 0.454D+00
 Gap=     0.199 Goal=   None    Shift=    0.000
 RMSDP=4.58D-05 MaxDP=1.99D-03 DE=-5.93D-04 OVMax= 3.30D-03

 Cycle   7  Pass 0  IDiag  1:
 RMSU=  2.93D-05    CP:  9.88D-01  7.30D-01  6.27D-01  6.86D-01  6.08D-01
                    CP:  5.21D-01
 E= -1211.15902057262     Delta-E=       -0.000101961743 Rises=F Damp=F
 DIIS: error= 1.67D-04 at cycle   7 NSaved=   7.
 NSaved= 7 IEnMin= 7 EnMin= -1211.15902057262     IErMin= 7 ErrMin= 1.67D-04
 ErrMax= 1.67D-04  0.00D+00 EMaxC= 1.00D-01 BMatC= 1.41D-05 BMatP= 1.33D-04
 IDIUse=3 WtCom= 9.98D-01 WtEn= 1.67D-03
 Coeff-Com: -0.975D-03 0.561D-03 0.143D-01 0.517D-01 0.148D+00 0.293D+00
 Coeff-Com:  0.494D+00
 Coeff-En:   0.000D+00 0.000D+00 0.000D+00 0.000D+00 0.000D+00 0.908D-01
 Coeff-En:   0.909D+00
 Coeff:     -0.974D-03 0.560D-03 0.143D-01 0.517D-01 0.148D+00 0.292D+00
 Coeff:      0.495D+00
 Gap=     0.198 Goal=   None    Shift=    0.000
 RMSDP=1.43D-05 MaxDP=6.30D-04 DE=-1.02D-04 OVMax= 9.66D-04

 Cycle   8  Pass 0  IDiag  1:
 RMSU=  5.90D-06    CP:  9.88D-01  7.30D-01  6.27D-01  6.88D-01  6.03D-01
                    CP:  5.84D-01  5.82D-01
 E= -1211.15903314622     Delta-E=       -0.000012573598 Rises=F Damp=F
 DIIS: error= 3.25D-05 at cycle   8 NSaved=   8.
 NSaved= 8 IEnMin= 8 EnMin= -1211.15903314622     IErMin= 8 ErrMin= 3.25D-05
 ErrMax= 3.25D-05  0.00D+00 EMaxC= 1.00D-01 BMatC= 5.64D-07 BMatP= 1.41D-05
 IDIUse=1 WtCom= 1.00D+00 WtEn= 0.00D+00
 Coeff-Com: -0.355D-03-0.189D-03 0.322D-02 0.136D-01 0.482D-01 0.111D+00
 Coeff-Com:  0.246D+00 0.578D+00
 Coeff:     -0.355D-03-0.189D-03 0.322D-02 0.136D-01 0.482D-01 0.111D+00
 Coeff:      0.246D+00 0.578D+00
 Gap=     0.199 Goal=   None    Shift=    0.000
 RMSDP=3.45D-06 MaxDP=1.73D-04 DE=-1.26D-05 OVMax= 2.42D-04

 Initial convergence to 1.0D-05 achieved.  Increase integral accuracy.
 Cycle   9  Pass 1  IDiag  1:
 E= -1211.15891142963     Delta-E=        0.000121716586 Rises=F Damp=F
 DIIS: error= 6.88D-05 at cycle   1 NSaved=   1.
 NSaved= 1 IEnMin= 1 EnMin= -1211.15891142963     IErMin= 1 ErrMin= 6.88D-05
 ErrMax= 6.88D-05  0.00D+00 EMaxC= 1.00D-01 BMatC= 4.43D-07 BMatP= 4.43D-07
 IDIUse=1 WtCom= 1.00D+00 WtEn= 0.00D+00
 Coeff-Com:  0.100D+01
 Coeff:      0.100D+01
 Gap=     0.199 Goal=   None    Shift=    0.000
 RMSDP=3.45D-06 MaxDP=1.73D-04 DE= 1.22D-04 OVMax= 2.54D-04

 Cycle  10  Pass 1  IDiag  1:
 RMSU=  2.84D-05    CP:  1.00D+00
 E= -1211.15891149756     Delta-E=       -0.000000067927 Rises=F Damp=F
 DIIS: error= 3.97D-05 at cycle   2 NSaved=   2.
 NSaved= 2 IEnMin= 2 EnMin= -1211.15891149756     IErMin= 2 ErrMin= 3.97D-05
 ErrMax= 3.97D-05  0.00D+00 EMaxC= 1.00D-01 BMatC= 4.43D-07 BMatP= 4.43D-07
 IDIUse=1 WtCom= 1.00D+00 WtEn= 0.00D+00
 Coeff-Com:  0.500D+00 0.500D+00
 Coeff:      0.500D+00 0.500D+00
 Gap=     0.199 Goal=   None    Shift=    0.000
 RMSDP=3.51D-06 MaxDP=1.92D-04 DE=-6.79D-08 OVMax= 2.62D-04

 Cycle  11  Pass 1  IDiag  1:
 RMSU=  3.50D-06    CP:  1.00D+00  9.91D-01
 E= -1211.15891177128     Delta-E=       -0.000000273724 Rises=F Damp=F
 DIIS: error= 2.53D-05 at cycle   3 NSaved=   3.
 NSaved= 3 IEnMin= 3 EnMin= -1211.15891177128     IErMin= 3 ErrMin= 2.53D-05
 ErrMax= 2.53D-05  0.00D+00 EMaxC= 1.00D-01 BMatC= 1.59D-07 BMatP= 4.43D-07
 IDIUse=1 WtCom= 1.00D+00 WtEn= 0.00D+00
 Coeff-Com:  0.254D-01 0.369D+00 0.605D+00
 Coeff:      0.254D-01 0.369D+00 0.605D+00
 Gap=     0.199 Goal=   None    Shift=    0.000
 RMSDP=1.47D-06 MaxDP=9.19D-05 DE=-2.74D-07 OVMax= 1.09D-04

 Cycle  12  Pass 1  IDiag  1:
 RMSU=  6.01D-07    CP:  1.00D+00  1.00D+00  6.31D-01
 E= -1211.15891190988     Delta-E=       -0.000000138601 Rises=F Damp=F
 DIIS: error= 5.32D-06 at cycle   4 NSaved=   4.
 NSaved= 4 IEnMin= 4 EnMin= -1211.15891190988     IErMin= 4 ErrMin= 5.32D-06
 ErrMax= 5.32D-06  0.00D+00 EMaxC= 1.00D-01 BMatC= 1.28D-08 BMatP= 1.59D-07
 IDIUse=1 WtCom= 1.00D+00 WtEn= 0.00D+00
 Coeff-Com: -0.581D-02 0.215D+00 0.387D+00 0.404D+00
 Coeff:     -0.581D-02 0.215D+00 0.387D+00 0.404D+00
 Gap=     0.199 Goal=   None    Shift=    0.000
 RMSDP=3.59D-07 MaxDP=2.36D-05 DE=-1.39D-07 OVMax= 2.20D-05

 Cycle  13  Pass 1  IDiag  1:
 RMSU=  1.61D-07    CP:  1.00D+00  1.00D+00  6.42D-01  4.71D-01
 E= -1211.15891192043     Delta-E=       -0.000000010552 Rises=F Damp=F
 DIIS: error= 8.94D-07 at cycle   5 NSaved=   5.
 NSaved= 5 IEnMin= 5 EnMin= -1211.15891192043     IErMin= 5 ErrMin= 8.94D-07
 ErrMax= 8.94D-07  0.00D+00 EMaxC= 1.00D-01 BMatC= 3.21D-10 BMatP= 1.28D-08
 IDIUse=1 WtCom= 1.00D+00 WtEn= 0.00D+00
 Coeff-Com: -0.420D-02 0.104D+00 0.189D+00 0.225D+00 0.486D+00
 Coeff:     -0.420D-02 0.104D+00 0.189D+00 0.225D+00 0.486D+00
 Gap=     0.199 Goal=   None    Shift=    0.000
 RMSDP=8.29D-08 MaxDP=4.26D-06 DE=-1.06D-08 OVMax= 7.20D-06

 Cycle  14  Pass 1  IDiag  1:
 RMSU=  6.22D-08    CP:  1.00D+00  1.00D+00  6.43D-01  4.88D-01  6.66D-01
 E= -1211.15891192068     Delta-E=       -0.000000000245 Rises=F Damp=F
 DIIS: error= 3.48D-07 at cycle   6 NSaved=   6.
 NSaved= 6 IEnMin= 6 EnMin= -1211.15891192068     IErMin= 6 ErrMin= 3.48D-07
 ErrMax= 3.48D-07  0.00D+00 EMaxC= 1.00D-01 BMatC= 4.98D-11 BMatP= 3.21D-10
 IDIUse=1 WtCom= 1.00D+00 WtEn= 0.00D+00
 Coeff-Com: -0.188D-02 0.388D-01 0.708D-01 0.919D-01 0.311D+00 0.490D+00
 Coeff:     -0.188D-02 0.388D-01 0.708D-01 0.919D-01 0.311D+00 0.490D+00
 Gap=     0.199 Goal=   None    Shift=    0.000
 RMSDP=2.85D-08 MaxDP=1.43D-06 DE=-2.45D-10 OVMax= 2.38D-06

 Cycle  15  Pass 1  IDiag  1:
 RMSU=  2.06D-08    CP:  1.00D+00  1.00D+00  6.43D-01  4.83D-01  7.31D-01
                    CP:  7.40D-01
 E= -1211.15891192073     Delta-E=       -0.000000000048 Rises=F Damp=F
 DIIS: error= 1.02D-07 at cycle   7 NSaved=   7.
 NSaved= 7 IEnMin= 7 EnMin= -1211.15891192073     IErMin= 7 ErrMin= 1.02D-07
 ErrMax= 1.02D-07  0.00D+00 EMaxC= 1.00D-01 BMatC= 4.69D-12 BMatP= 4.98D-11
 IDIUse=1 WtCom= 1.00D+00 WtEn= 0.00D+00
 Coeff-Com: -0.456D-03 0.690D-02 0.126D-01 0.194D-01 0.106D+00 0.280D+00
 Coeff-Com:  0.576D+00
 Coeff:     -0.456D-03 0.690D-02 0.126D-01 0.194D-01 0.106D+00 0.280D+00
 Coeff:      0.576D+00
 Gap=     0.199 Goal=   None    Shift=    0.000
 RMSDP=9.62D-09 MaxDP=4.25D-07 DE=-4.82D-11 OVMax= 7.32D-07

 SCF Done:  E(RB3LYP) =  -1211.15891192     A.U. after   15 cycles
            NFock= 15  Conv=0.96D-08     -V/T= 2.0075
 KE= 1.202099236680D+03 PE=-5.737816487432D+03 EE= 1.874013119415D+03
 Leave Link  502 at Thu Aug  6 21:08:43 2020, MaxMem=    33554432 cpu:       204.9
 (Enter /prod/apps/gaussian/g09d1/l601.exe)
 Copying SCF densities to generalized density rwf, IOpCl= 0 IROHF=0.

 **********************************************************************

            Population analysis using the SCF density.

 **********************************************************************

 Orbital symmetries:
       Occupied  (A) (A) (A) (A) (A) (A) (A) (A) (A) (A) (A) (A)
                 (A) (A) (A) (A) (A) (A) (A) (A) (A) (A) (A) (A)
                 (A) (A) (A) (A) (A) (A) (A) (A) (A) (A) (A) (A)
                 (A) (A) (A) (A) (A) (A) (A) (A) (A) (A) (A) (A)
                 (A) (A) (A) (A) (A) (A) (A) (A) (A) (A) (A) (A)
                 (A) (A) (A) (A) (A) (A) (A) (A) (A) (A)
       Virtual   (A) (A) (A) (A) (A) (A) (A) (A) (A) (A) (A) (A)
                 (A) (A) (A) (A) (A) (A) (A) (A) (A) (A) (A) (A)
                 (A) (A) (A) (A) (A) (A) (A) (A) (A) (A) (A) (A)
                 (A) (A) (A) (A) (A) (A) (A) (A) (A) (A) (A) (A)
                 (A) (A) (A) (A) (A) (A) (A) (A) (A) (A) (A) (A)
                 (A) (A) (A) (A) (A) (A) (A) (A) (A) (A) (A) (A)
                 (A) (A) (A) (A) (A) (A) (A) (A) (A) (A) (A) (A)
                 (A) (A) (A) (A) (A) (A) (A) (A) (A) (A) (A) (A)
                 (A) (A) (A) (A) (A) (A) (A) (A) (A) (A) (A) (A)
                 (A) (A) (A) (A) (A) (A) (A) (A) (A) (A) (A) (A)
                 (A) (A) (A) (A) (A) (A) (A) (A) (A) (A) (A) (A)
                 (A) (A) (A) (A) (A) (A) (A) (A) (A) (A) (A) (A)
                 (A) (A) (A) (A) (A) (A) (A) (A) (A) (A) (A) (A)
                 (A) (A) (A) (A) (A) (A) (A) (A) (A) (A) (A) (A)
                 (A) (A) (A) (A) (A) (A) (A) (A) (A) (A) (A) (A)
                 (A) (A) (A) (A) (A) (A) (A) (A) (A) (A) (A) (A)
                 (A) (A) (A) (A) (A) (A) (A) (A) (A) (A) (A) (A)
                 (A) (A) (A) (A) (A) (A) (A) (A) (A) (A) (A) (A)
                 (A) (A) (A) (A) (A) (A) (A) (A) (A) (A) (A) (A)
                 (A) (A)
 The electronic state is 1-A.
 Alpha  occ. eigenvalues --  -89.12647 -19.14438 -19.14032 -14.44043 -14.39455
 Alpha  occ. eigenvalues --  -14.38295 -14.37887 -14.35805 -10.25858 -10.25474
 Alpha  occ. eigenvalues --  -10.24388 -10.23134 -10.22200 -10.21432 -10.21044
 Alpha  occ. eigenvalues --  -10.20790 -10.20718 -10.20623  -8.14942  -6.11428
 Alpha  occ. eigenvalues --   -6.11354  -6.11325  -1.12022  -1.10541  -1.00047
 Alpha  occ. eigenvalues --   -0.95307  -0.94454  -0.92478  -0.86466  -0.80564
 Alpha  occ. eigenvalues --   -0.76808  -0.76341  -0.73274  -0.71388  -0.66718
 Alpha  occ. eigenvalues --   -0.65014  -0.61934  -0.60909  -0.58621  -0.56585
 Alpha  occ. eigenvalues --   -0.54763  -0.52589  -0.50371  -0.50209  -0.48701
 Alpha  occ. eigenvalues --   -0.48495  -0.48186  -0.46815  -0.45713  -0.45113
 Alpha  occ. eigenvalues --   -0.44093  -0.43403  -0.41987  -0.41467  -0.39252
 Alpha  occ. eigenvalues --   -0.38891  -0.38047  -0.36762  -0.35125  -0.34485
 Alpha  occ. eigenvalues --   -0.33700  -0.32749  -0.31526  -0.30645  -0.29472
 Alpha  occ. eigenvalues --   -0.27546  -0.26901  -0.26532  -0.26220  -0.24105
 Alpha virt. eigenvalues --   -0.04251  -0.01992   0.01712   0.02050   0.04925
 Alpha virt. eigenvalues --    0.07563   0.08672   0.09285   0.10068   0.10235
 Alpha virt. eigenvalues --    0.11032   0.12198   0.13561   0.13887   0.14521
 Alpha virt. eigenvalues --    0.14999   0.15325   0.16252   0.17615   0.17858
 Alpha virt. eigenvalues --    0.18190   0.18721   0.19946   0.20088   0.21175
 Alpha virt. eigenvalues --    0.21928   0.22821   0.25775   0.28601   0.30182
 Alpha virt. eigenvalues --    0.30532   0.32424   0.34596   0.35878   0.36234
 Alpha virt. eigenvalues --    0.40784   0.41540   0.43418   0.46024   0.48035
 Alpha virt. eigenvalues --    0.48668   0.49296   0.49970   0.51060   0.52049
 Alpha virt. eigenvalues --    0.53845   0.54486   0.55424   0.56489   0.56965
 Alpha virt. eigenvalues --    0.57641   0.57841   0.58134   0.58521   0.59725
 Alpha virt. eigenvalues --    0.60263   0.60895   0.61416   0.62483   0.63516
 Alpha virt. eigenvalues --    0.64643   0.65732   0.66842   0.68846   0.70146
 Alpha virt. eigenvalues --    0.70860   0.72298   0.72876   0.73747   0.75848
 Alpha virt. eigenvalues --    0.77340   0.77942   0.79652   0.81200   0.81327
 Alpha virt. eigenvalues --    0.82083   0.82705   0.83134   0.83793   0.84083
 Alpha virt. eigenvalues --    0.84752   0.85780   0.86065   0.87441   0.88339
 Alpha virt. eigenvalues --    0.89217   0.89823   0.91026   0.92042   0.92999
 Alpha virt. eigenvalues --    0.93527   0.94148   0.95721   0.97123   0.98118
 Alpha virt. eigenvalues --    0.99741   1.00348   1.01035   1.03151   1.04918
 Alpha virt. eigenvalues --    1.05647   1.06594   1.07862   1.09161   1.10371
 Alpha virt. eigenvalues --    1.13371   1.14427   1.15138   1.15643   1.16438
 Alpha virt. eigenvalues --    1.18439   1.20272   1.20728   1.22995   1.25097
 Alpha virt. eigenvalues --    1.25672   1.28140   1.32057   1.36362   1.37004
 Alpha virt. eigenvalues --    1.38520   1.40211   1.41026   1.41518   1.43450
 Alpha virt. eigenvalues --    1.44621   1.45509   1.47292   1.48728   1.49310
 Alpha virt. eigenvalues --    1.51302   1.53819   1.57411   1.58721   1.60481
 Alpha virt. eigenvalues --    1.62047   1.68130   1.69101   1.69618   1.76339
 Alpha virt. eigenvalues --    1.79000   1.79277   1.79829   1.80989   1.81400
 Alpha virt. eigenvalues --    1.82071   1.84679   1.87129   1.87473   1.88279
 Alpha virt. eigenvalues --    1.91202   1.92557   1.93427   1.93700   1.95691
 Alpha virt. eigenvalues --    1.96099   1.97048   1.97773   1.99264   2.03750
 Alpha virt. eigenvalues --    2.05883   2.06807   2.07926   2.09146   2.10281
 Alpha virt. eigenvalues --    2.10760   2.10970   2.12431   2.14330   2.14418
 Alpha virt. eigenvalues --    2.17344   2.19345   2.20027   2.22371   2.23638
 Alpha virt. eigenvalues --    2.23979   2.26844   2.28003   2.28634   2.30169
 Alpha virt. eigenvalues --    2.32469   2.34034   2.36334   2.38247   2.40008
 Alpha virt. eigenvalues --    2.42364   2.47028   2.48504   2.50621   2.53562
 Alpha virt. eigenvalues --    2.56350   2.57403   2.59230   2.60742   2.63614
 Alpha virt. eigenvalues --    2.63832   2.66800   2.69627   2.71134   2.71812
 Alpha virt. eigenvalues --    2.73299   2.76026   2.76527   2.79051   2.85168
 Alpha virt. eigenvalues --    2.86338   2.88229   3.00391   3.07275   3.13109
 Alpha virt. eigenvalues --    3.25265   3.41648   3.61551   3.84271   3.90364
 Alpha virt. eigenvalues --    3.96994   4.01055   4.03289   4.07241   4.09807
 Alpha virt. eigenvalues --    4.11680   4.13388   4.16281   4.21732   4.27366
 Alpha virt. eigenvalues --    4.29901   4.31084   4.38455   4.47276   4.70445
          Condensed to atoms (all electrons):
               1          2          3          4          5          6
     1  O    8.209354   0.453510  -0.052815   0.006944  -0.000818   0.000020
     2  S    0.453510  13.582078   0.098189  -0.021256   0.001208  -0.000053
     3  N   -0.052815   0.098189   7.396710   0.281116  -0.058118   0.005795
     4  C    0.006944  -0.021256   0.281116   4.689370   0.354498  -0.064081
     5  N   -0.000818   0.001208  -0.058118   0.354498   6.823275   0.303452
     6  N    0.000020  -0.000053   0.005795  -0.064081   0.303452   6.757766
     7  C   -0.000799   0.000268  -0.084927   0.477822  -0.073469  -0.100407
     8  N   -0.000023   0.000263   0.003790  -0.050232  -0.080962   0.188241
     9  C    0.000000  -0.000015  -0.000112   0.005985   0.006235  -0.043194
    10  C    0.000000   0.000000   0.000003   0.000817  -0.000317   0.002869
    11  C    0.000000   0.000000   0.000000  -0.000008   0.000002  -0.000070
    12  C    0.000000   0.000000   0.000000   0.000000   0.000000   0.000016
    13  C    0.000000   0.000000   0.000000   0.000005  -0.000004   0.000339
    14  C    0.000000   0.000000   0.000000  -0.000408   0.000305   0.001370
    15  N   -0.051334   0.158579  -0.054407   0.001254   0.000025   0.000000
    16  C    0.001499  -0.009268   0.000051   0.000005  -0.000001   0.000000
    17  C   -0.006783  -0.014082   0.000266  -0.000124  -0.000006   0.000001
    18  O   -0.043885   0.453162  -0.055790  -0.002198   0.000025   0.000001
    19  H    0.001862  -0.007043   0.295245  -0.033491   0.002195  -0.000113
    20  H    0.000006   0.000253  -0.000295  -0.025629   0.004016   0.003521
    21  H    0.000000  -0.000001   0.000001  -0.000001  -0.000003  -0.000085
    22  H    0.000000   0.000000   0.000000   0.000000   0.000000   0.000001
    23  H    0.000000   0.000000   0.000000   0.000000   0.000000   0.000000
    24  H    0.000000   0.000000   0.000000   0.000000   0.000000  -0.000008
    25  H    0.000000   0.000000   0.000000   0.000055  -0.000336   0.015054
    26  H    0.000050   0.000191  -0.000255  -0.000005   0.000000   0.000000
    27  H   -0.000043   0.002290  -0.000111   0.000002   0.000000   0.000000
    28  H   -0.000065  -0.009749   0.003756  -0.000009  -0.000002   0.000000
    29  H    0.010834   0.000510  -0.001000  -0.000128   0.000089   0.000000
    30  H   -0.000258  -0.008787   0.007411  -0.000024   0.000043   0.000001
    31  H    0.000089   0.002400   0.000004   0.000003   0.000000   0.000000
               7          8          9         10         11         12
     1  O   -0.000799  -0.000023   0.000000   0.000000   0.000000   0.000000
     2  S    0.000268   0.000263  -0.000015   0.000000   0.000000   0.000000
     3  N   -0.084927   0.003790  -0.000112   0.000003   0.000000   0.000000
     4  C    0.477822  -0.050232   0.005985   0.000817  -0.000008   0.000000
     5  N   -0.073469  -0.080962   0.006235  -0.000317   0.000002   0.000000
     6  N   -0.100407   0.188241  -0.043194   0.002869  -0.000070   0.000016
     7  C    5.105292   0.318294  -0.034742  -0.007985  -0.000042   0.000020
     8  N    0.318294   6.942911   0.198130  -0.051762   0.004686   0.000399
     9  C   -0.034742   0.198130   4.612180   0.530481  -0.007471  -0.038056
    10  C   -0.007985  -0.051762   0.530481   4.991831   0.529343  -0.039554
    11  C   -0.000042   0.004686  -0.007471   0.529343   4.845202   0.550205
    12  C    0.000020   0.000399  -0.038056  -0.039554   0.550205   4.849626
    13  C   -0.000087   0.004584  -0.009489  -0.042212  -0.022746   0.543703
    14  C    0.007594  -0.057179   0.519709  -0.073222  -0.041476  -0.037325
    15  N   -0.000097   0.000000   0.000000   0.000000   0.000000   0.000000
    16  C    0.000001   0.000000   0.000000   0.000000   0.000000   0.000000
    17  C    0.000001   0.000000   0.000000   0.000000   0.000000   0.000000
    18  O    0.000692  -0.000001   0.000000   0.000000   0.000000   0.000000
    19  H   -0.001821  -0.000023   0.000002   0.000000   0.000000   0.000000
    20  H    0.358539  -0.035604  -0.001074   0.002085   0.000153  -0.000001
    21  H    0.006270  -0.009702  -0.040963   0.347759  -0.038233   0.004529
    22  H   -0.000004  -0.000115   0.003575  -0.039501   0.359421  -0.040397
    23  H    0.000000   0.000004   0.000533   0.004989  -0.042485   0.362207
    24  H    0.000001  -0.000110   0.003461   0.000821   0.004556  -0.041484
    25  H    0.000262  -0.013247  -0.033767   0.005580   0.000168   0.004372
    26  H    0.000000   0.000000   0.000000   0.000000   0.000000   0.000000
    27  H    0.000000   0.000000   0.000000   0.000000   0.000000   0.000000
    28  H    0.000005   0.000000   0.000000   0.000000   0.000000   0.000000
    29  H    0.000000   0.000000   0.000000   0.000000   0.000000   0.000000
    30  H    0.000015   0.000000   0.000000   0.000000   0.000000   0.000000
    31  H    0.000000   0.000000   0.000000   0.000000   0.000000   0.000000
              13         14         15         16         17         18
     1  O    0.000000   0.000000  -0.051334   0.001499  -0.006783  -0.043885
     2  S    0.000000   0.000000   0.158579  -0.009268  -0.014082   0.453162
     3  N    0.000000   0.000000  -0.054407   0.000051   0.000266  -0.055790
     4  C    0.000005  -0.000408   0.001254   0.000005  -0.000124  -0.002198
     5  N   -0.000004   0.000305   0.000025  -0.000001  -0.000006   0.000025
     6  N    0.000339   0.001370   0.000000   0.000000   0.000001   0.000001
     7  C   -0.000087   0.007594  -0.000097   0.000001   0.000001   0.000692
     8  N    0.004584  -0.057179   0.000000   0.000000   0.000000  -0.000001
     9  C   -0.009489   0.519709   0.000000   0.000000   0.000000   0.000000
    10  C   -0.042212  -0.073222   0.000000   0.000000   0.000000   0.000000
    11  C   -0.022746  -0.041476   0.000000   0.000000   0.000000   0.000000
    12  C    0.543703  -0.037325   0.000000   0.000000   0.000000   0.000000
    13  C    4.866318   0.517535   0.000000   0.000000   0.000000   0.000000
    14  C    0.517535   4.976229   0.000000   0.000000   0.000000   0.000000
    15  N    0.000000   0.000000   7.173138   0.277192   0.275605  -0.055136
    16  C    0.000000   0.000000   0.277192   5.007545  -0.052253  -0.007705
    17  C    0.000000   0.000000   0.275605  -0.052253   4.999604   0.001568
    18  O    0.000000   0.000000  -0.055136  -0.007705   0.001568   8.225641
    19  H    0.000000   0.000000   0.000540   0.000369   0.000196   0.001917
    20  H   -0.000006  -0.000098   0.000001   0.000000   0.000000   0.000055
    21  H    0.000246   0.005804   0.000000   0.000000   0.000000   0.000000
    22  H    0.004557   0.000779   0.000000   0.000000   0.000000   0.000000
    23  H   -0.042412   0.004690   0.000000   0.000000   0.000000   0.000000
    24  H    0.360482  -0.038083   0.000000   0.000000   0.000000   0.000000
    25  H   -0.040050   0.355156   0.000000   0.000000   0.000000   0.000000
    26  H    0.000000   0.000000  -0.031556   0.374363   0.004420   0.011545
    27  H    0.000000   0.000000  -0.036640   0.376776  -0.003202   0.000175
    28  H    0.000000   0.000000  -0.048926   0.366709  -0.001306   0.000076
    29  H    0.000000   0.000000  -0.030885   0.004481   0.377046   0.000028
    30  H    0.000000   0.000000  -0.047110  -0.002040   0.372493  -0.000027
    31  H    0.000000   0.000000  -0.035513  -0.004078   0.372902  -0.000048
              19         20         21         22         23         24
     1  O    0.001862   0.000006   0.000000   0.000000   0.000000   0.000000
     2  S   -0.007043   0.000253  -0.000001   0.000000   0.000000   0.000000
     3  N    0.295245  -0.000295   0.000001   0.000000   0.000000   0.000000
     4  C   -0.033491  -0.025629  -0.000001   0.000000   0.000000   0.000000
     5  N    0.002195   0.004016  -0.000003   0.000000   0.000000   0.000000
     6  N   -0.000113   0.003521  -0.000085   0.000001   0.000000  -0.000008
     7  C   -0.001821   0.358539   0.006270  -0.000004   0.000000   0.000001
     8  N   -0.000023  -0.035604  -0.009702  -0.000115   0.000004  -0.000110
     9  C    0.000002  -0.001074  -0.040963   0.003575   0.000533   0.003461
    10  C    0.000000   0.002085   0.347759  -0.039501   0.004989   0.000821
    11  C    0.000000   0.000153  -0.038233   0.359421  -0.042485   0.004556
    12  C    0.000000  -0.000001   0.004529  -0.040397   0.362207  -0.041484
    13  C    0.000000  -0.000006   0.000246   0.004557  -0.042412   0.360482
    14  C    0.000000  -0.000098   0.005804   0.000779   0.004690  -0.038083
    15  N    0.000540   0.000001   0.000000   0.000000   0.000000   0.000000
    16  C    0.000369   0.000000   0.000000   0.000000   0.000000   0.000000
    17  C    0.000196   0.000000   0.000000   0.000000   0.000000   0.000000
    18  O    0.001917   0.000055   0.000000   0.000000   0.000000   0.000000
    19  H    0.389982   0.000924   0.000000   0.000000   0.000000   0.000000
    20  H    0.000924   0.502978   0.002061  -0.000002   0.000000   0.000000
    21  H    0.000000   0.002061   0.586697  -0.005595  -0.000161   0.000015
    22  H    0.000000  -0.000002  -0.005595   0.580870  -0.005376  -0.000179
    23  H    0.000000   0.000000  -0.000161  -0.005376   0.583481  -0.005367
    24  H    0.000000   0.000000   0.000015  -0.000179  -0.005367   0.574872
    25  H    0.000000  -0.000011  -0.000140   0.000013  -0.000140  -0.005056
    26  H    0.000064   0.000000   0.000000   0.000000   0.000000   0.000000
    27  H   -0.000019   0.000000   0.000000   0.000000   0.000000   0.000000
    28  H    0.000976   0.000000   0.000000   0.000000   0.000000   0.000000
    29  H   -0.000010   0.000000   0.000000   0.000000   0.000000   0.000000
    30  H    0.000002   0.000000   0.000000   0.000000   0.000000   0.000000
    31  H   -0.000006   0.000000   0.000000   0.000000   0.000000   0.000000
              25         26         27         28         29         30
     1  O    0.000000   0.000050  -0.000043  -0.000065   0.010834  -0.000258
     2  S    0.000000   0.000191   0.002290  -0.009749   0.000510  -0.008787
     3  N    0.000000  -0.000255  -0.000111   0.003756  -0.001000   0.007411
     4  C    0.000055  -0.000005   0.000002  -0.000009  -0.000128  -0.000024
     5  N   -0.000336   0.000000   0.000000  -0.000002   0.000089   0.000043
     6  N    0.015054   0.000000   0.000000   0.000000   0.000000   0.000001
     7  C    0.000262   0.000000   0.000000   0.000005   0.000000   0.000015
     8  N   -0.013247   0.000000   0.000000   0.000000   0.000000   0.000000
     9  C   -0.033767   0.000000   0.000000   0.000000   0.000000   0.000000
    10  C    0.005580   0.000000   0.000000   0.000000   0.000000   0.000000
    11  C    0.000168   0.000000   0.000000   0.000000   0.000000   0.000000
    12  C    0.004372   0.000000   0.000000   0.000000   0.000000   0.000000
    13  C   -0.040050   0.000000   0.000000   0.000000   0.000000   0.000000
    14  C    0.355156   0.000000   0.000000   0.000000   0.000000   0.000000
    15  N    0.000000  -0.031556  -0.036640  -0.048926  -0.030885  -0.047110
    16  C    0.000000   0.374363   0.376776   0.366709   0.004481  -0.002040
    17  C    0.000000   0.004420  -0.003202  -0.001306   0.377046   0.372493
    18  O    0.000000   0.011545   0.000175   0.000076   0.000028  -0.000027
    19  H    0.000000   0.000064  -0.000019   0.000976  -0.000010   0.000002
    20  H   -0.000011   0.000000   0.000000   0.000000   0.000000   0.000000
    21  H   -0.000140   0.000000   0.000000   0.000000   0.000000   0.000000
    22  H    0.000013   0.000000   0.000000   0.000000   0.000000   0.000000
    23  H   -0.000140   0.000000   0.000000   0.000000   0.000000   0.000000
    24  H   -0.005056   0.000000   0.000000   0.000000   0.000000   0.000000
    25  H    0.531703   0.000000   0.000000   0.000000   0.000000   0.000000
    26  H    0.000000   0.485471  -0.019718  -0.031347  -0.000188  -0.000156
    27  H    0.000000  -0.019718   0.541713  -0.040614  -0.000019  -0.001557
    28  H    0.000000  -0.031347  -0.040614   0.607255  -0.000180   0.008663
    29  H    0.000000  -0.000188  -0.000019  -0.000180   0.475231  -0.028005
    30  H    0.000000  -0.000156  -0.001557   0.008663  -0.028005   0.573443
    31  H    0.000000  -0.000002   0.005565  -0.001552  -0.021601  -0.038744
              31
     1  O    0.000089
     2  S    0.002400
     3  N    0.000004
     4  C    0.000003
     5  N    0.000000
     6  N    0.000000
     7  C    0.000000
     8  N    0.000000
     9  C    0.000000
    10  C    0.000000
    11  C    0.000000
    12  C    0.000000
    13  C    0.000000
    14  C    0.000000
    15  N   -0.035513
    16  C   -0.004078
    17  C    0.372902
    18  O   -0.000048
    19  H   -0.000006
    20  H    0.000000
    21  H    0.000000
    22  H    0.000000
    23  H    0.000000
    24  H    0.000000
    25  H    0.000000
    26  H   -0.000002
    27  H    0.005565
    28  H   -0.001552
    29  H   -0.021601
    30  H   -0.038744
    31  H    0.554761
 Mulliken charges:
               1
     1  O   -0.527344
     2  S    1.317357
     3  N   -0.784509
     4  C    0.379718
     5  N   -0.281332
     6  N   -0.070435
     7  C    0.029304
     8  N   -0.362341
     9  C    0.328595
    10  C   -0.162024
    11  C   -0.141203
    12  C   -0.118258
    13  C   -0.140763
    14  C   -0.141378
    15  N   -0.494730
    16  C   -0.333645
    17  C   -0.326346
    18  O   -0.530095
    19  H    0.348252
    20  H    0.188128
    21  H    0.141503
    22  H    0.141953
    23  H    0.140038
    24  H    0.146078
    25  H    0.180384
    26  H    0.207123
    27  H    0.175402
    28  H    0.146311
    29  H    0.213797
    30  H    0.164637
    31  H    0.165822
 Sum of Mulliken charges =   0.00000
 Mulliken charges with hydrogens summed into heavy atoms:
               1
     1  O   -0.527344
     2  S    1.317357
     3  N   -0.436257
     4  C    0.379718
     5  N   -0.281332
     6  N   -0.070435
     7  C    0.217432
     8  N   -0.362341
     9  C    0.328595
    10  C   -0.020520
    11  C    0.000750
    12  C    0.021780
    13  C    0.005315
    14  C    0.039006
    15  N   -0.494730
    16  C    0.195191
    17  C    0.217910
    18  O   -0.530095
 Electronic spatial extent (au):  <R**2>=           7139.2491
 Charge=              0.0000 electrons
 Dipole moment (field-independent basis, Debye):
    X=              1.3978    Y=              3.5357    Z=             -3.6601  Tot=              5.2774
 Quadrupole moment (field-independent basis, Debye-Ang):
   XX=            -78.0802   YY=           -111.2689   ZZ=           -116.9761
   XY=              3.5890   XZ=             15.0435   YZ=             -7.6105
 Traceless Quadrupole moment (field-independent basis, Debye-Ang):
   XX=             24.0282   YY=             -9.1605   ZZ=            -14.8677
   XY=              3.5890   XZ=             15.0435   YZ=             -7.6105
 Octapole moment (field-independent basis, Debye-Ang**2):
  XXX=            -24.6039  YYY=             12.5412  ZZZ=             -0.3852  XYY=             -0.1740
  XXY=              0.7795  XXZ=            -25.1593  XZZ=            -10.5880  YZZ=              1.9503
  YYZ=             -4.1609  XYZ=             -6.0808
 Hexadecapole moment (field-independent basis, Debye-Ang**3):
 XXXX=          -6996.4330 YYYY=           -784.9346 ZZZZ=           -421.8354 XXXY=             42.7885
 XXXZ=            246.7296 YYYX=             24.1122 YYYZ=            -31.9412 ZZZX=             -4.1188
 ZZZY=             -2.8382 XXYY=          -1406.1748 XXZZ=          -1531.9456 YYZZ=           -206.9097
 XXYZ=            -76.2259 YYXZ=             19.0422 ZZXY=            -12.4990
 N-N= 1.450545219416D+03 E-N=-5.737816524313D+03  KE= 1.202099236680D+03
 No NMR shielding tensors so no spin-rotation constants.
 Leave Link  601 at Thu Aug  6 21:08:43 2020, MaxMem=    33554432 cpu:         0.2
 (Enter /prod/apps/gaussian/g09d1/l9999.exe)
 1\1\GINC-PIRINEUS24\SP\RB3LYP\6-31G(d)\C10H13N5O2S1\UBAFAR01\06-Aug-20
 20\0\\#p b3lyp/6-31G(d)\\SM46.n.2.pdb.xyz\\0,1\O,0,3.252,3.34,-1.749\S
 ,0,2.69,2.599,-0.622\N,0,2.681,0.951,-1.099\C,0,2.391,0.665,-2.45\N,0,
 3.373,0.633,-3.394\N,0,2.844,0.31,-4.542\C,0,1.191,0.34,-3.048\N,0,1.5
 15,0.118,-4.345\C,0,0.665,-0.263,-5.423\C,0,-0.51,-0.968,-5.159\C,0,-1
 .34,-1.327,-6.22\C,0,-0.992,-0.996,-7.531\C,0,0.191,-0.298,-7.78\C,0,1
 .024,0.079,-6.729\N,0,3.768,2.675,0.638\C,0,3.316,2.126,1.924\C,0,5.16
 2,2.356,0.296\O,0,1.376,2.974,-0.086\H,0,2.106,0.415,-0.448\H,0,0.187,
 0.267,-2.667\H,0,-0.766,-1.242,-4.142\H,0,-2.254,-1.874,-6.018\H,0,-1.
 639,-1.281,-8.354\H,0,0.466,-0.034,-8.795\H,0,1.936,0.633,-6.906\H,0,2
 .287,2.428,2.106\H,0,3.953,2.551,2.702\H,0,3.397,1.033,1.962\H,0,5.428
 ,2.854,-0.635\H,0,5.324,1.276,0.198\H,0,5.792,2.744,1.098\\Version=AM6
 4L-G09RevD.01\State=1-A\HF=-1211.1589119\RMSD=9.624e-09\Dipole=-0.9971
 788,-1.709417,0.6281576\Quadrupole=-0.827965,-12.9906115,13.8185765,7.
 2091023,13.1581275,-1.6658448\PG=C01 [X(C10H13N5O2S1)]\\@


 THE DIFFICULTY IN SCIENCE IS OFTEN NOT SO MUCH HOW
 TO MAKE A DISCOVERY BUT RATHER TO KNOW ONE HAS MADE IT.

                                                   -- J. D. BERNAL
 Job cpu time:       0 days  0 hours  3 minutes 29.3 seconds.
 File lengths (MBytes):  RWF=     51 Int=      0 D2E=      0 Chk=      4 Scr=      1
 Normal termination of Gaussian 09 at Thu Aug  6 21:08:44 2020.
 Initial command:
 /prod/apps/gaussian/g09d1/l1.exe "/tmp/ubafar01/1448555/Gau-177203.inp" -scrdir="/tmp/ubafar01/1448555/"
 Entering Link 1 = /prod/apps/gaussian/g09d1/l1.exe PID=    179018.
  
 Copyright (c) 1988,1990,1992,1993,1995,1998,2003,2009,2013,
            Gaussian, Inc.  All Rights Reserved.
  
 This is part of the Gaussian(R) 09 program.  It is based on
 the Gaussian(R) 03 system (copyright 2003, Gaussian, Inc.),
 the Gaussian(R) 98 system (copyright 1998, Gaussian, Inc.),
 the Gaussian(R) 94 system (copyright 1995, Gaussian, Inc.),
 the Gaussian 92(TM) system (copyright 1992, Gaussian, Inc.),
 the Gaussian 90(TM) system (copyright 1990, Gaussian, Inc.),
 the Gaussian 88(TM) system (copyright 1988, Gaussian, Inc.),
 the Gaussian 86(TM) system (copyright 1986, Carnegie Mellon
 University), and the Gaussian 82(TM) system (copyright 1983,
 Carnegie Mellon University). Gaussian is a federally registered
 trademark of Gaussian, Inc.
  
 This software contains proprietary and confidential information,
 including trade secrets, belonging to Gaussian, Inc.
  
 This software is provided under written license and may be
 used, copied, transmitted, or stored only in accord with that
 written license.
  
 The following legend is applicable only to US Government
 contracts under FAR:
  
                    RESTRICTED RIGHTS LEGEND
  
 Use, reproduction and disclosure by the US Government is
 subject to restrictions as set forth in subparagraphs (a)
 and (c) of the Commercial Computer Software - Restricted
 Rights clause in FAR 52.227-19.
  
 Gaussian, Inc.
 340 Quinnipiac St., Bldg. 40, Wallingford CT 06492
  
  
 ---------------------------------------------------------------
 Warning -- This program may not be used in any manner that
 competes with the business of Gaussian, Inc. or will provide
 assistance to any competitor of Gaussian, Inc.  The licensee
 of this program is prohibited from giving any competitor of
 Gaussian, Inc. access to this program.  By using this program,
 the user acknowledges that Gaussian, Inc. is engaged in the
 business of creating and licensing software in the field of
 computational chemistry and represents and warrants to the
 licensee that it is not a competitor of Gaussian, Inc. and that
 it will not use this program in any manner prohibited above.
 ---------------------------------------------------------------
  

 Cite this work as:
 Gaussian 09, Revision D.01,
 M. J. Frisch, G. W. Trucks, H. B. Schlegel, G. E. Scuseria, 
 M. A. Robb, J. R. Cheeseman, G. Scalmani, V. Barone, B. Mennucci, 
 G. A. Petersson, H. Nakatsuji, M. Caricato, X. Li, H. P. Hratchian, 
 A. F. Izmaylov, J. Bloino, G. Zheng, J. L. Sonnenberg, M. Hada, 
 M. Ehara, K. Toyota, R. Fukuda, J. Hasegawa, M. Ishida, T. Nakajima, 
 Y. Honda, O. Kitao, H. Nakai, T. Vreven, J. A. Montgomery, Jr., 
 J. E. Peralta, F. Ogliaro, M. Bearpark, J. J. Heyd, E. Brothers, 
 K. N. Kudin, V. N. Staroverov, T. Keith, R. Kobayashi, J. Normand, 
 K. Raghavachari, A. Rendell, J. C. Burant, S. S. Iyengar, J. Tomasi, 
 M. Cossi, N. Rega, J. M. Millam, M. Klene, J. E. Knox, J. B. Cross, 
 V. Bakken, C. Adamo, J. Jaramillo, R. Gomperts, R. E. Stratmann, 
 O. Yazyev, A. J. Austin, R. Cammi, C. Pomelli, J. W. Ochterski, 
 R. L. Martin, K. Morokuma, V. G. Zakrzewski, G. A. Voth, 
 P. Salvador, J. J. Dannenberg, S. Dapprich, A. D. Daniels, 
 O. Farkas, J. B. Foresman, J. V. Ortiz, J. Cioslowski, 
 and D. J. Fox, Gaussian, Inc., Wallingford CT, 2013.
 
 ******************************************
 Gaussian 09:  AM64L-G09RevD.01 24-Apr-2013
                 6-Aug-2020 
 ******************************************
 %nproc=1
 Will use up to    1 processors via shared memory.
 %Chk=SM46.n.2.pdb.xyz.mst.n.w.chk
 %subst l502 /dades/curu/work_g09D01_MST_AddSphPartition_ReadGammas/exe-dir/
 ----------------------------------------------------------------------
 #p b3lyp/6-31G(d) scrf=(iefpcm,read,solvent=Water) geom=allcheck guess
 =read
 ----------------------------------------------------------------------
 1/29=7,38=1,40=2/1;
 2/12=2,40=1/2;
 3/5=1,6=6,7=1,11=2,14=-4,16=1,25=1,30=1,70=2203,72=1,74=-5,116=-2/1,2,3;
 4/5=1/1;
 5/5=2,38=6,53=1/2;
 6/7=2,8=2,9=2,10=2,28=1/1;
 99/5=1,9=1/99;
 Leave Link    1 at Thu Aug  6 21:08:44 2020, MaxMem=           0 cpu:         0.0
 (Enter /prod/apps/gaussian/g09d1/l101.exe)
 Structure from the checkpoint file:  "SM46.n.2.pdb.xyz.mst.n.w.chk"
 ----------------
 SM46.n.2.pdb.xyz
 ----------------
 Charge =  0 Multiplicity = 1
 Z-Matrix found in file.
 O,0,3.252,3.34,-1.749
 S,0,2.69,2.599,-0.622
 N,0,2.681,0.951,-1.099
 C,0,2.391,0.665,-2.45
 N,0,3.373,0.633,-3.394
 N,0,2.844,0.31,-4.542
 C,0,1.191,0.34,-3.048
 N,0,1.515,0.118,-4.345
 C,0,0.665,-0.263,-5.423
 C,0,-0.51,-0.968,-5.159
 C,0,-1.34,-1.327,-6.22
 C,0,-0.992,-0.996,-7.531
 C,0,0.191,-0.298,-7.78
 C,0,1.024,0.079,-6.729
 N,0,3.768,2.675,0.638
 C,0,3.316,2.126,1.924
 C,0,5.162,2.356,0.296
 O,0,1.376,2.974,-0.086
 H,0,2.106,0.415,-0.448
 H,0,0.187,0.267,-2.667
 H,0,-0.766,-1.242,-4.142
 H,0,-2.254,-1.874,-6.018
 H,0,-1.639,-1.281,-8.354
 H,0,0.466,-0.034,-8.795
 H,0,1.936,0.633,-6.906
 H,0,2.287,2.428,2.106
 H,0,3.953,2.551,2.702
 H,0,3.397,1.033,1.962
 H,0,5.428,2.854,-0.635
 H,0,5.324,1.276,0.198
 H,0,5.792,2.744,1.098
 Recover connectivity data from disk.
 NAtoms=     31 NQM=       31 NQMF=       0 NMMI=      0 NMMIF=      0
                NMic=       0 NMicF=      0.
                    Isotopes and Nuclear Properties:
 (Nuclear quadrupole moments (NQMom) in fm**2, nuclear magnetic moments (NMagM)
  in nuclear magnetons)

  Atom         1           2           3           4           5           6           7           8           9          10
 IAtWgt=          16          32          14          12          14          14          12          14          12          12
 AtmWgt=  15.9949146  31.9720718  14.0030740  12.0000000  14.0030740  14.0030740  12.0000000  14.0030740  12.0000000  12.0000000
 NucSpn=           0           0           2           0           2           2           0           2           0           0
 AtZEff=  -5.6000000 -13.6000000  -4.5500000  -3.6000000  -4.5500000  -4.5500000  -3.6000000  -4.5500000  -3.6000000  -3.6000000
 NQMom=    0.0000000   0.0000000   2.0440000   0.0000000   2.0440000   2.0440000   0.0000000   2.0440000   0.0000000   0.0000000
 NMagM=    0.0000000   0.0000000   0.4037610   0.0000000   0.4037610   0.4037610   0.0000000   0.4037610   0.0000000   0.0000000
 AtZNuc=   8.0000000  16.0000000   7.0000000   6.0000000   7.0000000   7.0000000   6.0000000   7.0000000   6.0000000   6.0000000

  Atom        11          12          13          14          15          16          17          18          19          20
 IAtWgt=          12          12          12          12          14          12          12          16           1           1
 AtmWgt=  12.0000000  12.0000000  12.0000000  12.0000000  14.0030740  12.0000000  12.0000000  15.9949146   1.0078250   1.0078250
 NucSpn=           0           0           0           0           2           0           0           0           1           1
 AtZEff=  -3.6000000  -3.6000000  -3.6000000  -3.6000000  -4.5500000  -3.6000000  -3.6000000  -5.6000000  -1.0000000  -1.0000000
 NQMom=    0.0000000   0.0000000   0.0000000   0.0000000   2.0440000   0.0000000   0.0000000   0.0000000   0.0000000   0.0000000
 NMagM=    0.0000000   0.0000000   0.0000000   0.0000000   0.4037610   0.0000000   0.0000000   0.0000000   2.7928460   2.7928460
 AtZNuc=   6.0000000   6.0000000   6.0000000   6.0000000   7.0000000   6.0000000   6.0000000   8.0000000   1.0000000   1.0000000

  Atom        21          22          23          24          25          26          27          28          29          30
 IAtWgt=           1           1           1           1           1           1           1           1           1           1
 AtmWgt=   1.0078250   1.0078250   1.0078250   1.0078250   1.0078250   1.0078250   1.0078250   1.0078250   1.0078250   1.0078250
 NucSpn=           1           1           1           1           1           1           1           1           1           1
 AtZEff=  -1.0000000  -1.0000000  -1.0000000  -1.0000000  -1.0000000  -1.0000000  -1.0000000  -1.0000000  -1.0000000  -1.0000000
 NQMom=    0.0000000   0.0000000   0.0000000   0.0000000   0.0000000   0.0000000   0.0000000   0.0000000   0.0000000   0.0000000
 NMagM=    2.7928460   2.7928460   2.7928460   2.7928460   2.7928460   2.7928460   2.7928460   2.7928460   2.7928460   2.7928460
 AtZNuc=   1.0000000   1.0000000   1.0000000   1.0000000   1.0000000   1.0000000   1.0000000   1.0000000   1.0000000   1.0000000

  Atom        31
 IAtWgt=           1
 AtmWgt=   1.0078250
 NucSpn=           1
 AtZEff=  -1.0000000
 NQMom=    0.0000000
 NMagM=    2.7928460
 AtZNuc=   1.0000000
 Leave Link  101 at Thu Aug  6 21:08:44 2020, MaxMem=    33554432 cpu:         0.1
 (Enter /prod/apps/gaussian/g09d1/l202.exe)
                          Input orientation:                          
 ---------------------------------------------------------------------
 Center     Atomic      Atomic             Coordinates (Angstroms)
 Number     Number       Type             X           Y           Z
 ---------------------------------------------------------------------
      1          8           0        3.252000    3.340000   -1.749000
      2         16           0        2.690000    2.599000   -0.622000
      3          7           0        2.681000    0.951000   -1.099000
      4          6           0        2.391000    0.665000   -2.450000
      5          7           0        3.373000    0.633000   -3.394000
      6          7           0        2.844000    0.310000   -4.542000
      7          6           0        1.191000    0.340000   -3.048000
      8          7           0        1.515000    0.118000   -4.345000
      9          6           0        0.665000   -0.263000   -5.423000
     10          6           0       -0.510000   -0.968000   -5.159000
     11          6           0       -1.340000   -1.327000   -6.220000
     12          6           0       -0.992000   -0.996000   -7.531000
     13          6           0        0.191000   -0.298000   -7.780000
     14          6           0        1.024000    0.079000   -6.729000
     15          7           0        3.768000    2.675000    0.638000
     16          6           0        3.316000    2.126000    1.924000
     17          6           0        5.162000    2.356000    0.296000
     18          8           0        1.376000    2.974000   -0.086000
     19          1           0        2.106000    0.415000   -0.448000
     20          1           0        0.187000    0.267000   -2.667000
     21          1           0       -0.766000   -1.242000   -4.142000
     22          1           0       -2.254000   -1.874000   -6.018000
     23          1           0       -1.639000   -1.281000   -8.354000
     24          1           0        0.466000   -0.034000   -8.795000
     25          1           0        1.936000    0.633000   -6.906000
     26          1           0        2.287000    2.428000    2.106000
     27          1           0        3.953000    2.551000    2.702000
     28          1           0        3.397000    1.033000    1.962000
     29          1           0        5.428000    2.854000   -0.635000
     30          1           0        5.324000    1.276000    0.198000
     31          1           0        5.792000    2.744000    1.098000
 ---------------------------------------------------------------------
                    Distance matrix (angstroms):
                    1          2          3          4          5
     1  O    0.000000
     2  S    1.461182   0.000000
     3  N    2.540839   1.715667   0.000000
     4  C    2.896264   2.677936   1.411062   0.000000
     5  N    3.169939   3.466357   2.418060   1.362529   0.000000
     6  N    4.141040   4.541986   3.505952   2.169723   1.304636
     7  C    3.864599   3.638071   2.528245   1.379576   2.228607
     8  N    4.487501   4.625658   3.548234   2.158150   2.149835
     9  C    5.759553   5.944852   4.922908   3.560757   3.500417
    10  C    6.658799   6.599080   5.508960   4.291989   4.555888
    11  C    7.928253   7.936749   6.897997   5.665803   5.834402
    12  C    8.381167   8.614838   7.658483   6.326150   6.230701
    13  C    7.679696   8.116315   7.238499   5.846047   5.498080
    14  C    6.355982   6.813326   5.933206   4.530113   4.116666
    15  N    2.531057   1.659958   2.677856   3.933443   4.536829
    16  C    3.868956   2.664155   3.304902   4.703405   5.523896
    17  C    2.966206   2.648123   3.174179   4.251875   4.448073
    18  O    2.533555   1.467827   2.611843   3.456906   4.517871
    19  H    3.400227   2.267419   1.020648   2.037579   3.214301
    20  H    4.436246   3.985631   3.024321   2.250135   3.288325
    21  H    6.547175   6.252009   5.094203   4.057852   4.605046
    22  H    8.702080   8.577160   7.518737   6.383821   6.695786
    23  H    9.428762   9.673596   8.733799   7.408443   7.306514
    24  H    8.294082   8.869994   8.068759   6.667327   6.169792
    25  H    5.971127   6.627392   5.863224   4.479284   3.794616
    26  H    4.077253   2.762903   3.550886   4.886320   5.886546
    27  H    4.574421   3.556185   4.315737   5.704379   6.416879
    28  H    4.372047   3.103105   3.144694   4.540177   5.370969
    29  H    2.492422   2.749880   3.373828   4.160446   4.094868
    30  H    3.513416   3.059524   2.961973   3.998464   4.137912
    31  H    3.861635   3.549905   4.209511   5.336417   5.521408
                    6          7          8          9         10
     6  N    0.000000
     7  C    2.228305   0.000000
     8  N    1.357171   1.355164   0.000000
     9  C    2.419200   2.506174   1.424691   0.000000
    10  C    3.641880   3.010081   2.437748   1.395473   0.000000
    11  C    4.795968   4.387076   3.708730   2.405687   1.394095
    12  C    5.035340   5.162139   4.204360   2.779677   2.420639
    13  C    4.229978   4.878408   3.704761   2.404444   2.794627
    14  C    2.854598   3.694018   2.434350   1.396954   2.431926
    15  N    5.768830   5.067519   6.036932   7.415941   8.073286
    16  C    6.732741   5.694401   6.824663   8.167835   8.624384
    17  C    5.741558   5.569150   6.312538   7.732343   8.542692
    18  O    5.395170   3.968076   5.129828   6.282297   6.695647
    19  H    4.161310   2.757327   3.952733   5.223676   5.563242
    20  H    3.252249   1.076339   2.145103   2.846914   2.867246
    21  H    3.949785   2.743977   2.663413   2.155728   1.083929
    22  H    5.739167   5.058727   4.579558   3.386725   2.144820
    23  H    6.095893   6.228176   5.289329   3.864648   3.403033
    24  H    4.884796   5.804611   4.574495   3.385620   3.878844
    25  H    2.552898   3.940182   2.645976   2.148848   3.405602
    26  H    6.999434   5.667863   6.895468   8.158321   8.493306
    27  H    7.663387   6.751271   7.843694   9.205714   9.700363
    28  H    6.567386   5.517861   6.645103   7.980079   8.365243
    29  H    5.330445   5.485885   6.046599   7.438199   8.386543
    30  H    5.436097   5.338005   6.040554   7.461263   8.232165
    31  H    6.813564   6.643623   7.403705   8.823356   9.625186
                   11         12         13         14         15
    11  C    0.000000
    12  C    1.396204   0.000000
    13  C    2.415865   1.395956   0.000000
    14  C    2.797215   2.421381   1.393061   0.000000
    15  N    9.441389  10.142308   9.617504   8.278976   0.000000
    16  C    9.996313  10.849091  10.478980   9.182477   1.469524
    17  C    9.914573  10.505691   9.847656   8.465128   1.470361
    18  O    7.968765   8.763353   8.444397   7.254955   2.516990
    19  H    6.944456   7.858589   7.611427   6.382365   3.008195
    20  H    4.182867   5.161754   5.144124   4.151597   5.435536
    21  H    2.157495   3.405424   3.878405   3.411995   7.664753
    22  H    1.084163   2.157011   3.400948   3.881368  10.062814
    23  H    2.155336   1.084971   2.155148   3.403203  11.213458
    24  H    3.400604   2.156132   1.084226   2.143009  10.354872
    25  H    3.878708   3.408438   2.162328   1.081660   8.027324
    26  H    9.827382  10.739990  10.466962   9.228770   2.099856
    27  H   11.075054  11.905819  11.495293  10.180058   2.075981
    28  H    9.744429  10.653507  10.341981   9.059510   2.141677
    29  H    9.720021  10.178100   9.402781   8.014529   2.099564
    30  H    9.611203  10.236761   9.616322   8.240518   2.138209
    31  H   10.999618  11.596116  10.929037   9.544526   2.076761
                   16         17         18         19         20
    16  C    0.000000
    17  C    2.472044   0.000000
    18  O    2.919384   3.855080   0.000000
    19  H    3.165123   3.695964   2.685596   0.000000
    20  H    5.858652   6.155803   3.924682   2.937418   0.000000
    21  H    8.050000   8.233021   6.230085   4.963836   2.315365
    22  H   10.492867  10.618689   8.477537   7.434650   4.666001
    23  H   11.907853  11.588955   9.775228   8.911020   6.170296
    24  H   11.299781  10.507654   9.258663   8.518428   6.141728
    25  H    9.061035   8.077414   7.232308   6.463914   4.600226
    26  H    1.087736   3.398074   2.435755   3.256969   5.644595
    27  H    1.091640   2.699730   3.820053   4.230414   6.944463
    28  H    1.096656   2.764256   3.470767   2.802981   5.684936
    29  H    3.396912   1.088816   4.090783   4.125454   6.187865
    30  H    2.780942   1.096471   4.307037   3.393252   5.967837
    31  H    2.682308   1.091168   4.577752   4.626116   7.192133
                   21         22         23         24         25
    21  H    0.000000
    22  H    2.476478   0.000000
    23  H    4.301697   2.487322   0.000000
    24  H    4.962610   4.300666   2.486064   0.000000
    25  H    4.296059   4.962831   4.305894   2.484776   0.000000
    26  H    7.863028  10.253159  11.772075  11.322954   9.195726
    27  H    9.137623  11.582136  12.968802  12.289117  10.003033
    28  H    7.730783  10.201218  11.710497  11.200103   8.996441
    29  H    8.212302  10.504466  11.252719   9.977354   7.513478
    30  H    7.890756  10.295010  11.320703  10.304868   7.896759
    31  H    9.292640  11.691941  12.679144  11.573893   9.131762
                   26         27         28         29         30
    26  H    0.000000
    27  H    1.773669   0.000000
    28  H    1.788536   1.777937   0.000000
    29  H    4.190518   3.661011   3.766352   0.000000
    30  H    3.767086   3.126545   2.623752   1.787397   0.000000
    31  H    3.660730   2.447853   3.067579   1.774228   1.784390
                   31
    31  H    0.000000
 Stoichiometry    C10H13N5O2S
 Framework group  C1[X(C10H13N5O2S)]
 Deg. of freedom    87
 Full point group                 C1      NOp   1
 RotChk:  IX=0 Diff= 1.01D-15
 Largest Abelian subgroup         C1      NOp   1
 Largest concise Abelian subgroup C1      NOp   1
                         Standard orientation:                         
 ---------------------------------------------------------------------
 Center     Atomic      Atomic             Coordinates (Angstroms)
 Number     Number       Type             X           Y           Z
 ---------------------------------------------------------------------
      1          8           0       -2.314496   -0.876746    1.438460
      2         16           0       -2.724521    0.265846    0.625184
[...]
 Alpha virt. eigenvalues --    0.93975   0.94363   0.95605   0.96751   0.98470
 Alpha virt. eigenvalues --    0.99619   1.00052   1.00461   1.02241   1.04346
 Alpha virt. eigenvalues --    1.05083   1.05716   1.07083   1.08410   1.10036
 Alpha virt. eigenvalues --    1.13373   1.13571   1.14376   1.15929   1.16326
 Alpha virt. eigenvalues --    1.17856   1.18783   1.19657   1.22032   1.24953
 Alpha virt. eigenvalues --    1.25306   1.27126   1.31505   1.35825   1.36649
 Alpha virt. eigenvalues --    1.38320   1.39766   1.41440   1.41749   1.43816
 Alpha virt. eigenvalues --    1.44714   1.45854   1.47785   1.48114   1.49740
 Alpha virt. eigenvalues --    1.50740   1.52711   1.57330   1.57992   1.59907
 Alpha virt. eigenvalues --    1.61723   1.67099   1.68645   1.68772   1.75753
 Alpha virt. eigenvalues --    1.77691   1.78477   1.79514   1.79963   1.80542
 Alpha virt. eigenvalues --    1.81055   1.84103   1.86463   1.87315   1.87948
 Alpha virt. eigenvalues --    1.90650   1.91941   1.92822   1.94203   1.95485
 Alpha virt. eigenvalues --    1.96307   1.96724   1.97048   1.99020   2.03353
 Alpha virt. eigenvalues --    2.05883   2.06548   2.07643   2.09064   2.09572
 Alpha virt. eigenvalues --    2.10444   2.10912   2.12664   2.14304   2.14611
 Alpha virt. eigenvalues --    2.16635   2.19313   2.19762   2.21981   2.23607
 Alpha virt. eigenvalues --    2.24383   2.26783   2.27019   2.29057   2.29982
 Alpha virt. eigenvalues --    2.32146   2.33683   2.35581   2.37811   2.39567
 Alpha virt. eigenvalues --    2.42484   2.47078   2.48087   2.50685   2.52978
 Alpha virt. eigenvalues --    2.55940   2.57840   2.58861   2.60286   2.63586
 Alpha virt. eigenvalues --    2.63987   2.66875   2.69755   2.70932   2.71927
 Alpha virt. eigenvalues --    2.73625   2.74722   2.75670   2.78411   2.83764
 Alpha virt. eigenvalues --    2.85379   2.88377   2.99905   3.06353   3.12917
 Alpha virt. eigenvalues --    3.25053   3.42111   3.60268   3.82697   3.89610
 Alpha virt. eigenvalues --    3.96181   3.99657   4.02533   4.07611   4.10198
 Alpha virt. eigenvalues --    4.11299   4.12724   4.16150   4.21248   4.27497
 Alpha virt. eigenvalues --    4.30117   4.31621   4.38745   4.47059   4.70859
          Condensed to atoms (all electrons):
               1          2          3          4          5          6
     1  O    8.258387   0.453494  -0.055433   0.006454  -0.000708   0.000029
     2  S    0.453494  13.530006   0.129585  -0.019620   0.001730  -0.000054
     3  N   -0.055433   0.129585   7.371151   0.285908  -0.058482   0.005596
     4  C    0.006454  -0.019620   0.285908   4.632282   0.373766  -0.083302
     5  N   -0.000708   0.001730  -0.058482   0.373766   6.884661   0.304714
     6  N    0.000029  -0.000054   0.005596  -0.083302   0.304714   6.773202
     7  C   -0.000763  -0.000073  -0.074845   0.512741  -0.075254  -0.097688
     8  N   -0.000023   0.000255   0.003460  -0.035618  -0.096112   0.227748
     9  C    0.000000  -0.000016  -0.000124   0.004109   0.006456  -0.042870
    10  C    0.000000   0.000000   0.000004   0.000913  -0.000332   0.002855
    11  C    0.000000   0.000000   0.000000  -0.000008   0.000002  -0.000068
    12  C    0.000000   0.000000   0.000000   0.000000   0.000000   0.000017
    13  C    0.000000   0.000000   0.000000   0.000005  -0.000004   0.000270
    14  C    0.000000   0.000000   0.000001  -0.000404   0.000372   0.000118
    15  N   -0.052098   0.185143  -0.057585   0.001133   0.000017   0.000000
    16  C    0.001349  -0.013834   0.000297   0.000016  -0.000001   0.000000
    17  C   -0.006958  -0.015256   0.000324  -0.000162  -0.000012   0.000001
    18  O   -0.042910   0.455854  -0.056040  -0.002124   0.000024   0.000001
    19  H    0.001402  -0.006916   0.298361  -0.026590   0.001726  -0.000083
    20  H    0.000004   0.000202  -0.000541  -0.024962   0.004055   0.003508
    21  H    0.000000  -0.000001   0.000000   0.000030  -0.000007  -0.000083
    22  H    0.000000   0.000000   0.000000   0.000000   0.000000   0.000001
    23  H    0.000000   0.000000   0.000000   0.000000   0.000000   0.000000
    24  H    0.000000   0.000000   0.000000   0.000000   0.000000  -0.000008
    25  H    0.000000   0.000000   0.000000   0.000038  -0.000311   0.015402
    26  H    0.000051  -0.000436  -0.000274  -0.000007   0.000000   0.000000
    27  H   -0.000042   0.002165  -0.000112   0.000001   0.000000   0.000000
    28  H   -0.000064  -0.008622   0.003533   0.000002  -0.000002   0.000000
    29  H    0.010389   0.000523  -0.001151  -0.000128   0.000090   0.000000
    30  H   -0.000282  -0.008114   0.007444  -0.000027   0.000049   0.000001
    31  H    0.000077   0.002289   0.000018   0.000002   0.000000   0.000000
               7          8          9         10         11         12
     1  O   -0.000763  -0.000023   0.000000   0.000000   0.000000   0.000000
     2  S   -0.000073   0.000255  -0.000016   0.000000   0.000000   0.000000
     3  N   -0.074845   0.003460  -0.000124   0.000004   0.000000   0.000000
     4  C    0.512741  -0.035618   0.004109   0.000913  -0.000008   0.000000
     5  N   -0.075254  -0.096112   0.006456  -0.000332   0.000002   0.000000
     6  N   -0.097688   0.227748  -0.042870   0.002855  -0.000068   0.000017
     7  C    5.013650   0.330752  -0.030375  -0.006994  -0.000009   0.000020
     8  N    0.330752   6.880774   0.198754  -0.050740   0.004692   0.000333
     9  C   -0.030375   0.198754   4.625403   0.529620  -0.009989  -0.038256
    10  C   -0.006994  -0.050740   0.529620   4.992448   0.527212  -0.041081
    11  C   -0.000009   0.004692  -0.009989   0.527212   4.864704   0.543907
    12  C    0.000020   0.000333  -0.038256  -0.041081   0.543907   4.871694
    13  C   -0.000087   0.004573  -0.010654  -0.042245  -0.024862   0.539759
    14  C    0.007150  -0.059263   0.513970  -0.071119  -0.041442  -0.039423
    15  N   -0.000094   0.000000   0.000000   0.000000   0.000000   0.000000
    16  C    0.000001   0.000000   0.000000   0.000000   0.000000   0.000000
    17  C    0.000001   0.000000   0.000000   0.000000   0.000000   0.000000
    18  O    0.000695  -0.000001   0.000000   0.000000   0.000000   0.000000
    19  H   -0.001440  -0.000007   0.000002   0.000000   0.000000   0.000000
    20  H    0.361865  -0.034267  -0.001538   0.002127   0.000153  -0.000001
    21  H    0.005796  -0.009133  -0.039686   0.353934  -0.034689   0.004301
    22  H   -0.000004  -0.000108   0.003432  -0.037463   0.363410  -0.039377
    23  H    0.000000   0.000003   0.000483   0.004863  -0.041128   0.365725
    24  H    0.000001  -0.000104   0.003554   0.000711   0.004461  -0.039965
    25  H    0.000225  -0.013250  -0.039602   0.005480   0.000092   0.004530
    26  H    0.000000   0.000000   0.000000   0.000000   0.000000   0.000000
    27  H    0.000000   0.000000   0.000000   0.000000   0.000000   0.000000
    28  H    0.000005   0.000000   0.000000   0.000000   0.000000   0.000000
    29  H    0.000000   0.000000   0.000000   0.000000   0.000000   0.000000
    30  H    0.000014   0.000000   0.000000   0.000000   0.000000   0.000000
    31  H    0.000000   0.000000   0.000000   0.000000   0.000000   0.000000
              13         14         15         16         17         18
     1  O    0.000000   0.000000  -0.052098   0.001349  -0.006958  -0.042910
     2  S    0.000000   0.000000   0.185143  -0.013834  -0.015256   0.455854
     3  N    0.000000   0.000001  -0.057585   0.000297   0.000324  -0.056040
     4  C    0.000005  -0.000404   0.001133   0.000016  -0.000162  -0.002124
     5  N   -0.000004   0.000372   0.000017  -0.000001  -0.000012   0.000024
     6  N    0.000270   0.000118   0.000000   0.000000   0.000001   0.000001
     7  C   -0.000087   0.007150  -0.000094   0.000001   0.000001   0.000695
     8  N    0.004573  -0.059263   0.000000   0.000000   0.000000  -0.000001
     9  C   -0.010654   0.513970   0.000000   0.000000   0.000000   0.000000
    10  C   -0.042245  -0.071119   0.000000   0.000000   0.000000   0.000000
    11  C   -0.024862  -0.041442   0.000000   0.000000   0.000000   0.000000
    12  C    0.539759  -0.039423   0.000000   0.000000   0.000000   0.000000
    13  C    4.879502   0.519658   0.000000   0.000000   0.000000   0.000000
    14  C    0.519658   4.995469   0.000000   0.000000   0.000000   0.000000
    15  N    0.000000   0.000000   7.182550   0.268490   0.268492  -0.056527
    16  C    0.000000   0.000000   0.268490   5.006652  -0.049809  -0.007567
    17  C    0.000000   0.000000   0.268492  -0.049809   5.000543   0.001481
    18  O    0.000000   0.000000  -0.056527  -0.007567   0.001481   8.254345
    19  H    0.000000   0.000000   0.000060   0.000425   0.000162   0.001322
    20  H   -0.000004  -0.000092   0.000001   0.000000   0.000000   0.000048
    21  H    0.000206   0.005279   0.000000   0.000000   0.000000   0.000000
    22  H    0.004415   0.000730   0.000000   0.000000   0.000000   0.000000
    23  H   -0.041316   0.004658   0.000000   0.000000   0.000000   0.000000
    24  H    0.363823  -0.037739   0.000000   0.000000   0.000000   0.000000
    25  H   -0.038024   0.357065   0.000000   0.000000   0.000000   0.000000
    26  H    0.000000   0.000000  -0.032537   0.374617   0.004339   0.010598
    27  H    0.000000   0.000000  -0.035315   0.378460  -0.003272   0.000149
    28  H    0.000000   0.000000  -0.046381   0.375583  -0.001262   0.000021
    29  H    0.000000   0.000000  -0.032920   0.004405   0.375189   0.000031
    30  H    0.000000   0.000000  -0.046724  -0.001277   0.374683  -0.000030
    31  H    0.000000   0.000000  -0.033983  -0.003777   0.377978  -0.000045
              19         20         21         22         23         24
     1  O    0.001402   0.000004   0.000000   0.000000   0.000000   0.000000
     2  S   -0.006916   0.000202  -0.000001   0.000000   0.000000   0.000000
     3  N    0.298361  -0.000541   0.000000   0.000000   0.000000   0.000000
     4  C   -0.026590  -0.024962   0.000030   0.000000   0.000000   0.000000
     5  N    0.001726   0.004055  -0.000007   0.000000   0.000000   0.000000
     6  N   -0.000083   0.003508  -0.000083   0.000001   0.000000  -0.000008
     7  C   -0.001440   0.361865   0.005796  -0.000004   0.000000   0.000001
     8  N   -0.000007  -0.034267  -0.009133  -0.000108   0.000003  -0.000104
     9  C    0.000002  -0.001538  -0.039686   0.003432   0.000483   0.003554
    10  C    0.000000   0.002127   0.353934  -0.037463   0.004863   0.000711
    11  C    0.000000   0.000153  -0.034689   0.363410  -0.041128   0.004461
    12  C    0.000000  -0.000001   0.004301  -0.039377   0.365725  -0.039965
    13  C    0.000000  -0.000004   0.000206   0.004415  -0.041316   0.363823
    14  C    0.000000  -0.000092   0.005279   0.000730   0.004658  -0.037739
    15  N    0.000060   0.000001   0.000000   0.000000   0.000000   0.000000
    16  C    0.000425   0.000000   0.000000   0.000000   0.000000   0.000000
    17  C    0.000162   0.000000   0.000000   0.000000   0.000000   0.000000
    18  O    0.001322   0.000048   0.000000   0.000000   0.000000   0.000000
    19  H    0.312074   0.000688   0.000000   0.000000   0.000000   0.000000
    20  H    0.000688   0.459274   0.001558  -0.000001   0.000000   0.000000
    21  H    0.000000   0.001558   0.543240  -0.005078  -0.000144   0.000014
    22  H    0.000000  -0.000001  -0.005078   0.550034  -0.005028  -0.000164
    23  H    0.000000   0.000000  -0.000144  -0.005028   0.556405  -0.005073
    24  H    0.000000   0.000000   0.000014  -0.000164  -0.005073   0.551237
    25  H    0.000000  -0.000010  -0.000130   0.000013  -0.000134  -0.005127
    26  H    0.000030   0.000000   0.000000   0.000000   0.000000   0.000000
    27  H   -0.000019   0.000000   0.000000   0.000000   0.000000   0.000000
    28  H    0.000888   0.000000   0.000000   0.000000   0.000000   0.000000
    29  H   -0.000008   0.000000   0.000000   0.000000   0.000000   0.000000
    30  H    0.000060   0.000000   0.000000   0.000000   0.000000   0.000000
    31  H   -0.000006   0.000000   0.000000   0.000000   0.000000   0.000000
              25         26         27         28         29         30
     1  O    0.000000   0.000051  -0.000042  -0.000064   0.010389  -0.000282
     2  S    0.000000  -0.000436   0.002165  -0.008622   0.000523  -0.008114
     3  N    0.000000  -0.000274  -0.000112   0.003533  -0.001151   0.007444
     4  C    0.000038  -0.000007   0.000001   0.000002  -0.000128  -0.000027
     5  N   -0.000311   0.000000   0.000000  -0.000002   0.000090   0.000049
     6  N    0.015402   0.000000   0.000000   0.000000   0.000000   0.000001
     7  C    0.000225   0.000000   0.000000   0.000005   0.000000   0.000014
     8  N   -0.013250   0.000000   0.000000   0.000000   0.000000   0.000000
     9  C   -0.039602   0.000000   0.000000   0.000000   0.000000   0.000000
    10  C    0.005480   0.000000   0.000000   0.000000   0.000000   0.000000
    11  C    0.000092   0.000000   0.000000   0.000000   0.000000   0.000000
    12  C    0.004530   0.000000   0.000000   0.000000   0.000000   0.000000
    13  C   -0.038024   0.000000   0.000000   0.000000   0.000000   0.000000
    14  C    0.357065   0.000000   0.000000   0.000000   0.000000   0.000000
    15  N    0.000000  -0.032537  -0.035315  -0.046381  -0.032920  -0.046724
    16  C    0.000000   0.374617   0.378460   0.375583   0.004405  -0.001277
    17  C    0.000000   0.004339  -0.003272  -0.001262   0.375189   0.374683
    18  O    0.000000   0.010598   0.000149   0.000021   0.000031  -0.000030
    19  H    0.000000   0.000030  -0.000019   0.000888  -0.000008   0.000060
    20  H   -0.000010   0.000000   0.000000   0.000000   0.000000   0.000000
    21  H   -0.000130   0.000000   0.000000   0.000000   0.000000   0.000000
    22  H    0.000013   0.000000   0.000000   0.000000   0.000000   0.000000
    23  H   -0.000134   0.000000   0.000000   0.000000   0.000000   0.000000
    24  H   -0.005127   0.000000   0.000000   0.000000   0.000000   0.000000
    25  H    0.538787   0.000000   0.000000   0.000000   0.000000   0.000000
    26  H    0.000000   0.493107  -0.020425  -0.028927  -0.000198  -0.000137
    27  H    0.000000  -0.020425   0.518854  -0.036129  -0.000005  -0.001448
    28  H    0.000000  -0.028927  -0.036129   0.560816  -0.000156   0.007708
    29  H    0.000000  -0.000198  -0.000005  -0.000156   0.497901  -0.029187
    30  H    0.000000  -0.000137  -0.001448   0.007708  -0.029187   0.557252
    31  H    0.000000   0.000001   0.005046  -0.001342  -0.021647  -0.034313
              31
     1  O    0.000077
     2  S    0.002289
     3  N    0.000018
     4  C    0.000002
     5  N    0.000000
     6  N    0.000000
     7  C    0.000000
     8  N    0.000000
     9  C    0.000000
    10  C    0.000000
    11  C    0.000000
    12  C    0.000000
    13  C    0.000000
    14  C    0.000000
    15  N   -0.033983
    16  C   -0.003777
    17  C    0.377978
    18  O   -0.000045
    19  H   -0.000006
    20  H    0.000000
    21  H    0.000000
    22  H    0.000000
    23  H    0.000000
    24  H    0.000000
    25  H    0.000000
    26  H    0.000001
    27  H    0.005046
    28  H   -0.001342
    29  H   -0.021647
    30  H   -0.034313
    31  H    0.520139
 Mulliken charges:
               1
     1  O   -0.572357
     2  S    1.311696
     3  N   -0.801093
     4  C    0.375551
     5  N   -0.346439
     6  N   -0.109308
     7  C    0.054710
     8  N   -0.352719
     9  C    0.327327
    10  C   -0.170193
    11  C   -0.156438
    12  C   -0.132182
    13  C   -0.155017
    14  C   -0.154989
    15  N   -0.511722
    16  C   -0.334029
    17  C   -0.326464
    18  O   -0.559324
    19  H    0.417868
    20  H    0.227933
    21  H    0.174592
    22  H    0.165188
    23  H    0.160686
    24  H    0.164381
    25  H    0.174958
    26  H    0.200200
    27  H    0.192093
    28  H    0.174329
    29  H    0.196873
    30  H    0.174329
    31  H    0.189561
 Sum of Mulliken charges =   0.00000
 Mulliken charges with hydrogens summed into heavy atoms:
               1
     1  O   -0.572357
     2  S    1.311696
     3  N   -0.383226
     4  C    0.375551
     5  N   -0.346439
     6  N   -0.109308
     7  C    0.282644
     8  N   -0.352719
     9  C    0.327327
    10  C    0.004399
    11  C    0.008750
    12  C    0.028503
    13  C    0.009364
    14  C    0.019969
    15  N   -0.511722
    16  C    0.232593
    17  C    0.234299
    18  O   -0.559324
 Electronic spatial extent (au):  <R**2>=           7133.4285
 Charge=              0.0000 electrons
 Dipole moment (field-independent basis, Debye):
    X=              1.6848    Y=              5.5444    Z=             -4.9902  Tot=              7.6473
 Quadrupole moment (field-independent basis, Debye-Ang):
   XX=            -69.9214   YY=           -111.5669   ZZ=           -117.0079
   XY=              4.9530   XZ=             19.0046   YZ=             -9.0815
 Traceless Quadrupole moment (field-independent basis, Debye-Ang):
   XX=             29.5773   YY=            -12.0682   ZZ=            -17.5091
   XY=              4.9530   XZ=             19.0046   YZ=             -9.0815
 Octapole moment (field-independent basis, Debye-Ang**2):
  XXX=            -21.5853  YYY=             20.7780  ZZZ=             -5.1604  XYY=              2.5639
  XXY=             10.3551  XXZ=            -39.7045  XZZ=            -10.2838  YZZ=              4.0674
  YYZ=             -6.5635  XYZ=             -6.4265
 Hexadecapole moment (field-independent basis, Debye-Ang**3):
 XXXX=          -6613.5985 YYYY=           -786.1077 ZZZZ=           -422.2844 XXXY=             75.2139
 XXXZ=            320.6076 YYYX=             35.2560 YYYZ=            -38.4358 ZZZX=              9.5379
 ZZZY=             -6.2932 XXYY=          -1377.9772 XXZZ=          -1519.6183 YYZZ=           -207.0773
 XXYZ=            -88.4933 YYXZ=             26.1353 ZZXY=            -12.8230
 N-N= 1.450548674844D+03 E-N=-5.738407900622D+03  KE= 1.202090656014D+03
 No NMR shielding tensors so no spin-rotation constants.
 Leave Link  601 at Thu Aug  6 21:11:33 2020, MaxMem=    33554432 cpu:         0.2
 (Enter /prod/apps/gaussian/g09d1/l9999.exe)
 1\1\GINC-PIRINEUS24\SP\RB3LYP\6-31G(d)\C10H13N5O2S1\UBAFAR01\06-Aug-20
 20\0\\#p b3lyp/6-31G(d) scrf=(iefpcm,read,solvent=Water) geom=allcheck
  guess=read\\SM46.n.2.pdb.xyz\\0,1\O,0,3.252,3.34,-1.749\S,0,2.69,2.59
 9,-0.622\N,0,2.681,0.951,-1.099\C,0,2.391,0.665,-2.45\N,0,3.373,0.633,
 -3.394\N,0,2.844,0.31,-4.542\C,0,1.191,0.34,-3.048\N,0,1.515,0.118,-4.
 345\C,0,0.665,-0.263,-5.423\C,0,-0.51,-0.968,-5.159\C,0,-1.34,-1.327,-
 6.22\C,0,-0.992,-0.996,-7.531\C,0,0.191,-0.298,-7.78\C,0,1.024,0.079,-
 6.729\N,0,3.768,2.675,0.638\C,0,3.316,2.126,1.924\C,0,5.162,2.356,0.29
 6\O,0,1.376,2.974,-0.086\H,0,2.106,0.415,-0.448\H,0,0.187,0.267,-2.667
 \H,0,-0.766,-1.242,-4.142\H,0,-2.254,-1.874,-6.018\H,0,-1.639,-1.281,-
 8.354\H,0,0.466,-0.034,-8.795\H,0,1.936,0.633,-6.906\H,0,2.287,2.428,2
 .106\H,0,3.953,2.551,2.702\H,0,3.397,1.033,1.962\H,0,5.428,2.854,-0.63
 5\H,0,5.324,1.276,0.198\H,0,5.792,2.744,1.098\\Version=AM64L-G09RevD.0
 1\State=1-A\HF=-1211.1852169\RMSD=9.820e-09\Dipole=-1.5660784,-2.33512
 33,1.0708329\Quadrupole=-0.9098481,-15.7669254,16.6767735,8.5385254,16
 .8372817,-2.3197767\PG=C01 [X(C10H13N5O2S1)]\\@


 WE'RE IN THE POSITION OF A VISITOR FROM ANOTHER
 DIMENSION WHO COMES TO EARTH AND SEES A CHESS MATCH.
 ASSUMING HE KNOWS IT'S A GAME, HE'S GOT TWO PROBLEMS:
 FIRST, FIGURE OUT THE RULES, AND SECOND, FIGURE OUT HOW TO WIN.
 NINETY PERCENT OF SCIENCE (INCLUDING VIRTUALLY ALL OF CHEMISRY)
 IS IN THAT SECOND CATEGORY.  THEY'RE TRYING TO APPLY
 THE LAWS THAT ARE ALREADY KNOWN.

                     -- SHELDON GLASHOW, 1979
 Job cpu time:       0 days  0 hours  2 minutes 49.2 seconds.
 File lengths (MBytes):  RWF=    152 Int=      0 D2E=      0 Chk=      6 Scr=      1
 Normal termination of Gaussian 09 at Thu Aug  6 21:11:33 2020.
