 Entering Gaussian System, Link 0=g16
 Initial command:
 /prod/apps/gaussian/g16b1/l1.exe "/tmp/ubafar01/1460283/Gau-136562.inp" -scrdir="/tmp/ubafar01/1460283/"
 Entering Link 1 = /prod/apps/gaussian/g16b1/l1.exe PID=    136564.
  
 Copyright (c) 1988-2017, Gaussian, Inc.  All Rights Reserved.
  
 This is part of the Gaussian(R) 16 program.  It is based on
 the Gaussian(R) 09 system (copyright 2009, Gaussian, Inc.),
 the Gaussian(R) 03 system (copyright 2003, Gaussian, Inc.),
 the Gaussian(R) 98 system (copyright 1998, Gaussian, Inc.),
 the Gaussian(R) 94 system (copyright 1995, Gaussian, Inc.),
 the Gaussian 92(TM) system (copyright 1992, Gaussian, Inc.),
 the Gaussian 90(TM) system (copyright 1990, Gaussian, Inc.),
 the Gaussian 88(TM) system (copyright 1988, Gaussian, Inc.),
 the Gaussian 86(TM) system (copyright 1986, Carnegie Mellon
 University), and the Gaussian 82(TM) system (copyright 1983,
 Carnegie Mellon University). Gaussian is a federally registered
 trademark of Gaussian, Inc.
  
 This software contains proprietary and confidential information,
 including trade secrets, belonging to Gaussian, Inc.
  
 This software is provided under written license and may be
 used, copied, transmitted, or stored only in accord with that
 written license.
  
 The following legend is applicable only to US Government
 contracts under FAR:
  
                    RESTRICTED RIGHTS LEGEND
  
 Use, reproduction and disclosure by the US Government is
 subject to restrictions as set forth in subparagraphs (a)
 and (c) of the Commercial Computer Software - Restricted
 Rights clause in FAR 52.227-19.
  
 Gaussian, Inc.
 340 Quinnipiac St., Bldg. 40, Wallingford CT 06492
  
  
 ---------------------------------------------------------------
 Warning -- This program may not be used in any manner that
 competes with the business of Gaussian, Inc. or will provide
 assistance to any competitor of Gaussian, Inc.  The licensee
 of this program is prohibited from giving any competitor of
 Gaussian, Inc. access to this program.  By using this program,
 the user acknowledges that Gaussian, Inc. is engaged in the
 business of creating and licensing software in the field of
 computational chemistry and represents and warrants to the
 licensee that it is not a competitor of Gaussian, Inc. and that
 it will not use this program in any manner prohibited above.
 ---------------------------------------------------------------
  

 Cite this work as:
 Gaussian 16, Revision B.01,
 M. J. Frisch, G. W. Trucks, H. B. Schlegel, G. E. Scuseria, 
 M. A. Robb, J. R. Cheeseman, G. Scalmani, V. Barone, 
 G. A. Petersson, H. Nakatsuji, X. Li, M. Caricato, A. V. Marenich, 
 J. Bloino, B. G. Janesko, R. Gomperts, B. Mennucci, H. P. Hratchian, 
 J. V. Ortiz, A. F. Izmaylov, J. L. Sonnenberg, D. Williams-Young, 
 F. Ding, F. Lipparini, F. Egidi, J. Goings, B. Peng, A. Petrone, 
 T. Henderson, D. Ranasinghe, V. G. Zakrzewski, J. Gao, N. Rega, 
 G. Zheng, W. Liang, M. Hada, M. Ehara, K. Toyota, R. Fukuda, 
 J. Hasegawa, M. Ishida, T. Nakajima, Y. Honda, O. Kitao, H. Nakai, 
 T. Vreven, K. Throssell, J. A. Montgomery, Jr., J. E. Peralta, 
 F. Ogliaro, M. J. Bearpark, J. J. Heyd, E. N. Brothers, K. N. Kudin, 
 V. N. Staroverov, T. A. Keith, R. Kobayashi, J. Normand, 
 K. Raghavachari, A. P. Rendell, J. C. Burant, S. S. Iyengar, 
 J. Tomasi, M. Cossi, J. M. Millam, M. Klene, C. Adamo, R. Cammi, 
 J. W. Ochterski, R. L. Martin, K. Morokuma, O. Farkas, 
 J. B. Foresman, and D. J. Fox, Gaussian, Inc., Wallingford CT, 2016.
 
 ******************************************
 Gaussian 16:  ES64L-G16RevB.01 20-Dec-2017
                21-Sep-2020 
 ******************************************
 %nproc=4
 Will use up to    4 processors via shared memory.
 %Chk=SM36_m0.n.7.pdb.xyz.mst.n.w.chk
 %mem=16GB
 ----------------------------------------------------------------------
 #p b3lyp/6-31G(d) opt freq NoSymm scf=(MaxCycle=2000,NoVarAcc,NoIncFoc
 k) scrf=(iefpcm,read,solvent=water)
 ----------------------------------------------------------------------
 1/18=20,19=15,26=3,38=1,40=2/1,3;
 2/9=110,12=2,15=1,17=6,18=5,40=1/2;
 3/5=1,6=6,7=1,11=2,25=1,30=1,70=2203,71=1,72=1,74=-5/1,2,3;
 4//1;
 5/5=100002,7=2000,38=1,53=1/2;
 6/7=2,8=2,9=2,10=2,28=1/1;
 7/30=1/1,2,3,16;
 1/18=20,19=15,26=3/3(2);
 2/9=110,15=1/2;
 99//99;
 2/9=110,15=1/2;
 3/5=1,6=6,7=1,11=2,25=1,30=1,70=2205,71=1,72=1,74=-5/1,2,3;
 4/5=5,16=3,69=1/1;
 5/5=100002,7=2000,38=1,53=1/2;
 7/30=1/1,2,3,16;
 1/18=20,19=15,26=3/3(-5);
 2/9=110,15=1/2;
 6/7=2,8=2,9=2,10=2,19=2,28=1/1;
 99/9=1/99;
 Leave Link    1 at Mon Sep 21 18:30:30 2020, MaxMem=  2147483648 cpu:               0.1 elap:               0.0
 (Enter /prod/apps/gaussian/g16b1/l101.exe)
 -------------------
 SM36_m0.n.7.pdb.xyz
 -------------------
 Symbolic Z-matrix:
 Charge =  0 Multiplicity = 1
 O                    -2.591    -0.529     2.666 
 S                    -2.351     0.106     1.359 
 N                    -0.687     0.153     1.203 
 C                     0.039     1.153     0.404 
 C                    -0.129     2.648     0.79 
 S                    -0.119     3.175    -1.002 
 O                     1.314     3.445    -1.455 
 C                    -0.459     1.338    -1.05 
 C                     1.53      0.767     0.444 
 C                     1.845    -0.633    -0.107 
 C                     3.324    -0.942    -0.063 
 C                     3.872    -1.667     1.003 
 C                     5.242    -1.932     1.063 
 C                     6.089    -1.474     0.053 
 C                     5.556    -0.75     -1.017 
 C                     4.186    -0.488    -1.073 
 C                    -2.886    -1.004     0.066 
 C                    -2.284    -2.259    -0.064 
 C                    -2.767    -3.136    -1.032 
 C                    -3.837    -2.761    -1.849 
 C                    -4.431    -1.507    -1.705 
 C                    -3.958    -0.618    -0.738 
 O                    -2.962     1.42      1.083 
 H                    -0.269    -0.016     2.119 
 H                     0.665     3.108     1.379 
 H                    -1.114     2.877     1.199 
 H                     0.083     0.816    -1.838 
 H                    -1.534     1.21     -1.179 
 H                     1.877     0.844     1.482 
 H                     2.071     1.528    -0.127 
 H                     1.483    -0.704    -1.139 
 H                     1.293    -1.377     0.474 
 H                     3.216    -2.03      1.789 
 H                     5.645    -2.499     1.897 
 H                     7.153    -1.681     0.095 
 H                     6.206    -0.394    -1.81 
 H                     3.779     0.072    -1.911 
 H                    -1.451    -2.538     0.57 
 H                    -2.307    -4.11     -1.15 
 H                    -4.205    -3.449    -2.602 
 H                    -5.261    -1.217    -2.34 
 H                    -4.399     0.363    -0.609 
 
 ITRead=  0  0  0  0  0  0  0  0  0  0  0  0  0  0  0  0  0  0  0  0
 ITRead=  0  0  0  0  0  0  0  0  0  0  0  0  0  0  0  0  0  0  0  0
 ITRead=  0  0
 MicOpt= -1 -1 -1 -1 -1 -1 -1 -1 -1 -1 -1 -1 -1 -1 -1 -1 -1 -1 -1 -1
 MicOpt= -1 -1 -1 -1 -1 -1 -1 -1 -1 -1 -1 -1 -1 -1 -1 -1 -1 -1 -1 -1
 MicOpt= -1 -1
 NAtoms=     42 NQM=       42 NQMF=       0 NMMI=      0 NMMIF=      0
                NMic=       0 NMicF=      0.
                    Isotopes and Nuclear Properties:
 (Nuclear quadrupole moments (NQMom) in fm**2, nuclear magnetic moments (NMagM)
  in nuclear magnetons)

  Atom         1           2           3           4           5           6           7           8           9          10
 IAtWgt=          16          32          14          12          12          32          16          12          12          12
 AtmWgt=  15.9949146  31.9720718  14.0030740  12.0000000  12.0000000  31.9720718  15.9949146  12.0000000  12.0000000  12.0000000
 NucSpn=           0           0           2           0           0           0           0           0           0           0
 AtZEff=  -0.0000000  -0.0000000  -0.0000000  -0.0000000  -0.0000000  -0.0000000  -0.0000000  -0.0000000  -0.0000000  -0.0000000
 NQMom=    0.0000000   0.0000000   2.0440000   0.0000000   0.0000000   0.0000000   0.0000000   0.0000000   0.0000000   0.0000000
 NMagM=    0.0000000   0.0000000   0.4037610   0.0000000   0.0000000   0.0000000   0.0000000   0.0000000   0.0000000   0.0000000
 AtZNuc=   8.0000000  16.0000000   7.0000000   6.0000000   6.0000000  16.0000000   8.0000000   6.0000000   6.0000000   6.0000000

  Atom        11          12          13          14          15          16          17          18          19          20
 IAtWgt=          12          12          12          12          12          12          12          12          12          12
 AtmWgt=  12.0000000  12.0000000  12.0000000  12.0000000  12.0000000  12.0000000  12.0000000  12.0000000  12.0000000  12.0000000
 NucSpn=           0           0           0           0           0           0           0           0           0           0
 AtZEff=  -0.0000000  -0.0000000  -0.0000000  -0.0000000  -0.0000000  -0.0000000  -0.0000000  -0.0000000  -0.0000000  -0.0000000
 NQMom=    0.0000000   0.0000000   0.0000000   0.0000000   0.0000000   0.0000000   0.0000000   0.0000000   0.0000000   0.0000000
 NMagM=    0.0000000   0.0000000   0.0000000   0.0000000   0.0000000   0.0000000   0.0000000   0.0000000   0.0000000   0.0000000
 AtZNuc=   6.0000000   6.0000000   6.0000000   6.0000000   6.0000000   6.0000000   6.0000000   6.0000000   6.0000000   6.0000000

  Atom        21          22          23          24          25          26          27          28          29          30
 IAtWgt=          12          12          16           1           1           1           1           1           1           1
 AtmWgt=  12.0000000  12.0000000  15.9949146   1.0078250   1.0078250   1.0078250   1.0078250   1.0078250   1.0078250   1.0078250
 NucSpn=           0           0           0           1           1           1           1           1           1           1
 AtZEff=  -0.0000000  -0.0000000  -0.0000000  -0.0000000  -0.0000000  -0.0000000  -0.0000000  -0.0000000  -0.0000000  -0.0000000
 NQMom=    0.0000000   0.0000000   0.0000000   0.0000000   0.0000000   0.0000000   0.0000000   0.0000000   0.0000000   0.0000000
 NMagM=    0.0000000   0.0000000   0.0000000   2.7928460   2.7928460   2.7928460   2.7928460   2.7928460   2.7928460   2.7928460
 AtZNuc=   6.0000000   6.0000000   8.0000000   1.0000000   1.0000000   1.0000000   1.0000000   1.0000000   1.0000000   1.0000000

  Atom        31          32          33          34          35          36          37          38          39          40
 IAtWgt=           1           1           1           1           1           1           1           1           1           1
 AtmWgt=   1.0078250   1.0078250   1.0078250   1.0078250   1.0078250   1.0078250   1.0078250   1.0078250   1.0078250   1.0078250
 NucSpn=           1           1           1           1           1           1           1           1           1           1
 AtZEff=  -0.0000000  -0.0000000  -0.0000000  -0.0000000  -0.0000000  -0.0000000  -0.0000000  -0.0000000  -0.0000000  -0.0000000
 NQMom=    0.0000000   0.0000000   0.0000000   0.0000000   0.0000000   0.0000000   0.0000000   0.0000000   0.0000000   0.0000000
 NMagM=    2.7928460   2.7928460   2.7928460   2.7928460   2.7928460   2.7928460   2.7928460   2.7928460   2.7928460   2.7928460
 AtZNuc=   1.0000000   1.0000000   1.0000000   1.0000000   1.0000000   1.0000000   1.0000000   1.0000000   1.0000000   1.0000000

  Atom        41          42
 IAtWgt=           1           1
 AtmWgt=   1.0078250   1.0078250
 NucSpn=           1           1
 AtZEff=  -0.0000000  -0.0000000
 NQMom=    0.0000000   0.0000000
 NMagM=    2.7928460   2.7928460
 AtZNuc=   1.0000000   1.0000000
 Leave Link  101 at Mon Sep 21 18:30:31 2020, MaxMem=  2147483648 cpu:               1.3 elap:               0.3
 (Enter /prod/apps/gaussian/g16b1/l103.exe)

 GradGradGradGradGradGradGradGradGradGradGradGradGradGradGradGradGradGrad
 Berny optimization.
 Initialization pass.
                           ----------------------------
                           !    Initial Parameters    !
                           ! (Angstroms and Degrees)  !
 --------------------------                            --------------------------
 ! Name  Definition              Value          Derivative Info.                !
 --------------------------------------------------------------------------------
 ! R1    R(1,2)                  1.4728         estimate D2E/DX2                !
 ! R2    R(2,3)                  1.672          estimate D2E/DX2                !
 ! R3    R(2,17)                 1.7861         estimate D2E/DX2                !
 ! R4    R(2,23)                 1.4752         estimate D2E/DX2                !
 ! R5    R(3,4)                  1.4716         estimate D2E/DX2                !
 ! R6    R(3,24)                 1.021          estimate D2E/DX2                !
 ! R7    R(4,5)                  1.5531         estimate D2E/DX2                !
 ! R8    R(4,8)                  1.548          estimate D2E/DX2                !
 ! R9    R(4,9)                  1.5407         estimate D2E/DX2                !
 ! R10   R(5,6)                  1.8679         estimate D2E/DX2                !
 ! R11   R(5,25)                 1.0904         estimate D2E/DX2                !
 ! R12   R(5,26)                 1.0908         estimate D2E/DX2                !
 ! R13   R(6,7)                  1.527          estimate D2E/DX2                !
 ! R14   R(6,8)                  1.8688         estimate D2E/DX2                !
 ! R15   R(8,27)                 1.0896         estimate D2E/DX2                !
 ! R16   R(8,28)                 1.0903         estimate D2E/DX2                !
 ! R17   R(9,10)                 1.5371         estimate D2E/DX2                !
 ! R18   R(9,29)                 1.0972         estimate D2E/DX2                !
 ! R19   R(9,30)                 1.0945         estimate D2E/DX2                !
 ! R20   R(10,11)                1.5116         estimate D2E/DX2                !
 ! R21   R(10,31)                1.096          estimate D2E/DX2                !
 ! R22   R(10,32)                1.0935         estimate D2E/DX2                !
 ! R23   R(11,12)                1.4008         estimate D2E/DX2                !
 ! R24   R(11,16)                1.4033         estimate D2E/DX2                !
 ! R25   R(12,13)                1.3967         estimate D2E/DX2                !
 ! R26   R(12,33)                1.0862         estimate D2E/DX2                !
 ! R27   R(13,14)                1.3954         estimate D2E/DX2                !
 ! R28   R(13,34)                1.086          estimate D2E/DX2                !
 ! R29   R(14,15)                1.3976         estimate D2E/DX2                !
 ! R30   R(14,35)                1.0848         estimate D2E/DX2                !
 ! R31   R(15,16)                1.396          estimate D2E/DX2                !
 ! R32   R(15,36)                1.0854         estimate D2E/DX2                !
 ! R33   R(16,37)                1.087          estimate D2E/DX2                !
 ! R34   R(17,18)                1.398          estimate D2E/DX2                !
 ! R35   R(17,22)                1.3945         estimate D2E/DX2                !
 ! R36   R(18,19)                1.3926         estimate D2E/DX2                !
 ! R37   R(18,38)                1.0834         estimate D2E/DX2                !
 ! R38   R(19,20)                1.3975         estimate D2E/DX2                !
 ! R39   R(19,39)                1.0836         estimate D2E/DX2                !
 ! R40   R(20,21)                1.395          estimate D2E/DX2                !
 ! R41   R(20,40)                1.0843         estimate D2E/DX2                !
 ! R42   R(21,22)                1.3961         estimate D2E/DX2                !
 ! R43   R(21,41)                1.0845         estimate D2E/DX2                !
 ! R44   R(22,42)                1.0833         estimate D2E/DX2                !
 ! A1    A(1,2,3)              104.8983         estimate D2E/DX2                !
 ! A2    A(1,2,17)             109.0065         estimate D2E/DX2                !
 ! A3    A(1,2,23)             118.8552         estimate D2E/DX2                !
 ! A4    A(3,2,17)             104.3612         estimate D2E/DX2                !
 ! A5    A(3,2,23)             111.6986         estimate D2E/DX2                !
 ! A6    A(17,2,23)            107.1012         estimate D2E/DX2                !
 ! A7    A(2,3,4)              124.1091         estimate D2E/DX2                !
 ! A8    A(2,3,24)             108.609          estimate D2E/DX2                !
 ! A9    A(4,3,24)             113.431          estimate D2E/DX2                !
 ! A10   A(3,4,5)              117.7625         estimate D2E/DX2                !
 ! A11   A(3,4,8)              115.6254         estimate D2E/DX2                !
 ! A12   A(3,4,9)              107.0435         estimate D2E/DX2                !
 ! A13   A(5,4,8)               94.7957         estimate D2E/DX2                !
 ! A14   A(5,4,9)              109.8396         estimate D2E/DX2                !
 ! A15   A(8,4,9)              111.4481         estimate D2E/DX2                !
 ! A16   A(4,5,6)               91.8661         estimate D2E/DX2                !
 ! A17   A(4,5,25)             117.4876         estimate D2E/DX2                !
 ! A18   A(4,5,26)             113.1366         estimate D2E/DX2                !
 ! A19   A(6,5,25)             113.2846         estimate D2E/DX2                !
 ! A20   A(6,5,26)             107.7766         estimate D2E/DX2                !
 ! A21   A(25,5,26)            111.4955         estimate D2E/DX2                !
 ! A22   A(5,6,7)              109.8478         estimate D2E/DX2                !
 ! A23   A(5,6,8)               75.3056         estimate D2E/DX2                !
 ! A24   A(7,6,8)              109.69           estimate D2E/DX2                !
 ! A25   A(4,8,6)               91.9955         estimate D2E/DX2                !
 ! A26   A(4,8,27)             117.5168         estimate D2E/DX2                !
 ! A27   A(4,8,28)             114.4757         estimate D2E/DX2                !
 ! A28   A(6,8,27)             113.5157         estimate D2E/DX2                !
 ! A29   A(6,8,28)             107.3275         estimate D2E/DX2                !
 ! A30   A(27,8,28)            110.4055         estimate D2E/DX2                !
 ! A31   A(4,9,10)             114.6578         estimate D2E/DX2                !
 ! A32   A(4,9,29)             108.2432         estimate D2E/DX2                !
 ! A33   A(4,9,30)             106.8951         estimate D2E/DX2                !
 ! A34   A(10,9,29)            109.7692         estimate D2E/DX2                !
 ! A35   A(10,9,30)            110.1801         estimate D2E/DX2                !
 ! A36   A(29,9,30)            106.7652         estimate D2E/DX2                !
 ! A37   A(9,10,11)            112.1021         estimate D2E/DX2                !
 ! A38   A(9,10,31)            109.1993         estimate D2E/DX2                !
 ! A39   A(9,10,32)            109.0122         estimate D2E/DX2                !
 ! A40   A(11,10,31)           109.7158         estimate D2E/DX2                !
 ! A41   A(11,10,32)           109.838          estimate D2E/DX2                !
 ! A42   A(31,10,32)           106.8276         estimate D2E/DX2                !
 ! A43   A(10,11,12)           120.7119         estimate D2E/DX2                !
 ! A44   A(10,11,16)           120.9267         estimate D2E/DX2                !
 ! A45   A(12,11,16)           118.3492         estimate D2E/DX2                !
 ! A46   A(11,12,13)           120.9718         estimate D2E/DX2                !
 ! A47   A(11,12,33)           119.1668         estimate D2E/DX2                !
 ! A48   A(13,12,33)           119.8607         estimate D2E/DX2                !
 ! A49   A(12,13,14)           120.1332         estimate D2E/DX2                !
 ! A50   A(12,13,34)           119.7381         estimate D2E/DX2                !
 ! A51   A(14,13,34)           120.1284         estimate D2E/DX2                !
 ! A52   A(13,14,15)           119.5172         estimate D2E/DX2                !
 ! A53   A(13,14,35)           120.3116         estimate D2E/DX2                !
 ! A54   A(15,14,35)           120.1709         estimate D2E/DX2                !
 ! A55   A(14,15,16)           120.1479         estimate D2E/DX2                !
 ! A56   A(14,15,36)           120.059          estimate D2E/DX2                !
 ! A57   A(16,15,36)           119.7924         estimate D2E/DX2                !
 ! A58   A(11,16,15)           120.8807         estimate D2E/DX2                !
 ! A59   A(11,16,37)           119.4427         estimate D2E/DX2                !
 ! A60   A(15,16,37)           119.6763         estimate D2E/DX2                !
 ! A61   A(2,17,18)            119.7514         estimate D2E/DX2                !
 ! A62   A(2,17,22)            118.3998         estimate D2E/DX2                !
 ! A63   A(18,17,22)           121.7301         estimate D2E/DX2                !
 ! A64   A(17,18,19)           118.726          estimate D2E/DX2                !
 ! A65   A(17,18,38)           120.5226         estimate D2E/DX2                !
 ! A66   A(19,18,38)           120.7482         estimate D2E/DX2                !
 ! A67   A(18,19,20)           120.1934         estimate D2E/DX2                !
 ! A68   A(18,19,39)           119.6371         estimate D2E/DX2                !
 ! A69   A(20,19,39)           120.1694         estimate D2E/DX2                !
 ! A70   A(19,20,21)           120.4561         estimate D2E/DX2                !
 ! A71   A(19,20,40)           119.7071         estimate D2E/DX2                !
 ! A72   A(21,20,40)           119.8365         estimate D2E/DX2                !
 ! A73   A(20,21,22)           119.9757         estimate D2E/DX2                !
 ! A74   A(20,21,41)           120.3839         estimate D2E/DX2                !
 ! A75   A(22,21,41)           119.6403         estimate D2E/DX2                !
 ! A76   A(17,22,21)           118.9163         estimate D2E/DX2                !
 ! A77   A(17,22,42)           119.6675         estimate D2E/DX2                !
 ! A78   A(21,22,42)           121.4132         estimate D2E/DX2                !
 ! D1    D(1,2,3,4)           -152.7069         estimate D2E/DX2                !
 ! D2    D(1,2,3,24)           -15.416          estimate D2E/DX2                !
 ! D3    D(17,2,3,4)            92.7113         estimate D2E/DX2                !
 ! D4    D(17,2,3,24)         -129.9978         estimate D2E/DX2                !
 ! D5    D(23,2,3,4)           -22.666          estimate D2E/DX2                !
 ! D6    D(23,2,3,24)          114.625          estimate D2E/DX2                !
 ! D7    D(1,2,17,18)          -61.158          estimate D2E/DX2                !
 ! D8    D(1,2,17,22)          114.9503         estimate D2E/DX2                !
 ! D9    D(3,2,17,18)           50.4894         estimate D2E/DX2                !
 ! D10   D(3,2,17,22)         -133.4024         estimate D2E/DX2                !
 ! D11   D(23,2,17,18)         169.0493         estimate D2E/DX2                !
 ! D12   D(23,2,17,22)         -14.8425         estimate D2E/DX2                !
 ! D13   D(2,3,4,5)             60.1205         estimate D2E/DX2                !
 ! D14   D(2,3,4,8)            -50.8129         estimate D2E/DX2                !
 ! D15   D(2,3,4,9)           -175.6484         estimate D2E/DX2                !
 ! D16   D(24,3,4,5)           -75.4055         estimate D2E/DX2                !
 ! D17   D(24,3,4,8)           173.6611         estimate D2E/DX2                !
 ! D18   D(24,3,4,9)            48.8256         estimate D2E/DX2                !
 ! D19   D(3,4,5,6)           -142.3342         estimate D2E/DX2                !
 ! D20   D(3,4,5,25)           100.0985         estimate D2E/DX2                !
 ! D21   D(3,4,5,26)           -32.0847         estimate D2E/DX2                !
 ! D22   D(8,4,5,6)            -20.0155         estimate D2E/DX2                !
 ! D23   D(8,4,5,25)          -137.5828         estimate D2E/DX2                !
 ! D24   D(8,4,5,26)            90.234          estimate D2E/DX2                !
 ! D25   D(9,4,5,6)             94.8422         estimate D2E/DX2                !
 ! D26   D(9,4,5,25)           -22.7251         estimate D2E/DX2                !
 ! D27   D(9,4,5,26)          -154.9083         estimate D2E/DX2                !
 ! D28   D(3,4,8,6)            143.9715         estimate D2E/DX2                !
 ! D29   D(3,4,8,27)           -98.1033         estimate D2E/DX2                !
 ! D30   D(3,4,8,28)            33.8935         estimate D2E/DX2                !
 ! D31   D(5,4,8,6)             20.007          estimate D2E/DX2                !
 ! D32   D(5,4,8,27)           137.9322         estimate D2E/DX2                !
 ! D33   D(5,4,8,28)           -90.071          estimate D2E/DX2                !
 ! D34   D(9,4,8,6)            -93.5013         estimate D2E/DX2                !
 ! D35   D(9,4,8,27)            24.4239         estimate D2E/DX2                !
 ! D36   D(9,4,8,28)           156.4208         estimate D2E/DX2                !
 ! D37   D(3,4,9,10)            59.1573         estimate D2E/DX2                !
 ! D38   D(3,4,9,29)           -63.7429         estimate D2E/DX2                !
 ! D39   D(3,4,9,30)          -178.4217         estimate D2E/DX2                !
 ! D40   D(5,4,9,10)          -171.8991         estimate D2E/DX2                !
 ! D41   D(5,4,9,29)            65.2007         estimate D2E/DX2                !
 ! D42   D(5,4,9,30)           -49.4782         estimate D2E/DX2                !
 ! D43   D(8,4,9,10)           -68.1756         estimate D2E/DX2                !
 ! D44   D(8,4,9,29)           168.9242         estimate D2E/DX2                !
 ! D45   D(8,4,9,30)            54.2454         estimate D2E/DX2                !
 ! D46   D(4,5,6,7)            -89.019          estimate D2E/DX2                !
 ! D47   D(4,5,6,8)             16.9825         estimate D2E/DX2                !
 ! D48   D(25,5,6,7)            32.0969         estimate D2E/DX2                !
 ! D49   D(25,5,6,8)           138.0984         estimate D2E/DX2                !
 ! D50   D(26,5,6,7)           155.9385         estimate D2E/DX2                !
 ! D51   D(26,5,6,8)           -98.0601         estimate D2E/DX2                !
 ! D52   D(5,6,8,4)            -17.0418         estimate D2E/DX2                !
 ! D53   D(5,6,8,27)          -138.3285         estimate D2E/DX2                !
 ! D54   D(5,6,8,28)            99.3903         estimate D2E/DX2                !
 ! D55   D(7,6,8,4)             89.1562         estimate D2E/DX2                !
 ! D56   D(7,6,8,27)           -32.1305         estimate D2E/DX2                !
 ! D57   D(7,6,8,28)          -154.4117         estimate D2E/DX2                !
 ! D58   D(4,9,10,11)          178.9898         estimate D2E/DX2                !
 ! D59   D(4,9,10,31)           57.1889         estimate D2E/DX2                !
 ! D60   D(4,9,10,32)          -59.1843         estimate D2E/DX2                !
 ! D61   D(29,9,10,11)         -58.9355         estimate D2E/DX2                !
 ! D62   D(29,9,10,31)         179.2636         estimate D2E/DX2                !
 ! D63   D(29,9,10,32)          62.8904         estimate D2E/DX2                !
 ! D64   D(30,9,10,11)          58.3652         estimate D2E/DX2                !
 ! D65   D(30,9,10,31)         -63.4358         estimate D2E/DX2                !
 ! D66   D(30,9,10,32)        -179.8089         estimate D2E/DX2                !
 ! D67   D(9,10,11,12)          96.2415         estimate D2E/DX2                !
 ! D68   D(9,10,11,16)         -82.4694         estimate D2E/DX2                !
 ! D69   D(31,10,11,12)       -142.2536         estimate D2E/DX2                !
 ! D70   D(31,10,11,16)         39.0356         estimate D2E/DX2                !
 ! D71   D(32,10,11,12)        -25.1108         estimate D2E/DX2                !
 ! D72   D(32,10,11,16)        156.1784         estimate D2E/DX2                !
 ! D73   D(10,11,12,13)       -178.6771         estimate D2E/DX2                !
 ! D74   D(10,11,12,33)          1.6262         estimate D2E/DX2                !
 ! D75   D(16,11,12,13)          0.0663         estimate D2E/DX2                !
 ! D76   D(16,11,12,33)       -179.6304         estimate D2E/DX2                !
 ! D77   D(10,11,16,15)        178.6488         estimate D2E/DX2                !
 ! D78   D(10,11,16,37)         -1.5645         estimate D2E/DX2                !
 ! D79   D(12,11,16,15)         -0.0918         estimate D2E/DX2                !
 ! D80   D(12,11,16,37)        179.6949         estimate D2E/DX2                !
 ! D81   D(11,12,13,14)         -0.0077         estimate D2E/DX2                !
 ! D82   D(11,12,13,34)       -179.7883         estimate D2E/DX2                !
 ! D83   D(33,12,13,14)        179.6869         estimate D2E/DX2                !
 ! D84   D(33,12,13,34)         -0.0937         estimate D2E/DX2                !
 ! D85   D(12,13,14,15)         -0.027          estimate D2E/DX2                !
 ! D86   D(12,13,14,35)       -179.7959         estimate D2E/DX2                !
 ! D87   D(34,13,14,15)        179.7527         estimate D2E/DX2                !
 ! D88   D(34,13,14,35)         -0.0161         estimate D2E/DX2                !
 ! D89   D(13,14,15,16)          0.0018         estimate D2E/DX2                !
 ! D90   D(13,14,15,36)       -179.683          estimate D2E/DX2                !
 ! D91   D(35,14,15,16)        179.7709         estimate D2E/DX2                !
 ! D92   D(35,14,15,36)          0.0861         estimate D2E/DX2                !
 ! D93   D(14,15,16,11)          0.0588         estimate D2E/DX2                !
 ! D94   D(14,15,16,37)       -179.7274         estimate D2E/DX2                !
 ! D95   D(36,15,16,11)        179.7444         estimate D2E/DX2                !
 ! D96   D(36,15,16,37)         -0.0418         estimate D2E/DX2                !
 ! D97   D(2,17,18,19)         176.5148         estimate D2E/DX2                !
 ! D98   D(2,17,18,38)          -4.1274         estimate D2E/DX2                !
 ! D99   D(22,17,18,19)          0.54           estimate D2E/DX2                !
 ! D100  D(22,17,18,38)        179.8978         estimate D2E/DX2                !
 ! D101  D(2,17,22,21)        -176.6235         estimate D2E/DX2                !
 ! D102  D(2,17,22,42)           4.0036         estimate D2E/DX2                !
 ! D103  D(18,17,22,21)         -0.5962         estimate D2E/DX2                !
 ! D104  D(18,17,22,42)       -179.9691         estimate D2E/DX2                !
 ! D105  D(17,18,19,20)         -0.2567         estimate D2E/DX2                !
 ! D106  D(17,18,19,39)        179.5915         estimate D2E/DX2                !
 ! D107  D(38,18,19,20)       -179.613          estimate D2E/DX2                !
 ! D108  D(38,18,19,39)          0.2352         estimate D2E/DX2                !
 ! D109  D(18,19,20,21)          0.0443         estimate D2E/DX2                !
 ! D110  D(18,19,20,40)        179.8327         estimate D2E/DX2                !
 ! D111  D(39,19,20,21)       -179.8031         estimate D2E/DX2                !
 ! D112  D(39,19,20,40)         -0.0146         estimate D2E/DX2                !
 ! D113  D(19,20,21,22)         -0.1002         estimate D2E/DX2                !
 ! D114  D(19,20,21,41)        179.9696         estimate D2E/DX2                !
 ! D115  D(40,20,21,22)       -179.8885         estimate D2E/DX2                !
 ! D116  D(40,20,21,41)          0.1814         estimate D2E/DX2                !
 ! D117  D(20,21,22,17)          0.3682         estimate D2E/DX2                !
 ! D118  D(20,21,22,42)        179.7297         estimate D2E/DX2                !
 ! D119  D(41,21,22,17)       -179.7012         estimate D2E/DX2                !
 ! D120  D(41,21,22,42)         -0.3396         estimate D2E/DX2                !
 --------------------------------------------------------------------------------
 Trust Radius=3.00D-01 FncErr=1.00D-07 GrdErr=1.00D-06 EigMax=2.50D+02 EigMin=1.00D-04
 Number of steps in this run=    252 maximum allowed number of steps=    252.
 GradGradGradGradGradGradGradGradGradGradGradGradGradGradGradGradGradGrad

 Leave Link  103 at Mon Sep 21 18:30:31 2020, MaxMem=  2147483648 cpu:               0.1 elap:               0.0
 (Enter /prod/apps/gaussian/g16b1/l202.exe)
                          Input orientation:                          
 ---------------------------------------------------------------------
 Center     Atomic      Atomic             Coordinates (Angstroms)
 Number     Number       Type             X           Y           Z
 ---------------------------------------------------------------------
      1          8           0       -2.591000   -0.529000    2.666000
      2         16           0       -2.351000    0.106000    1.359000
      3          7           0       -0.687000    0.153000    1.203000
      4          6           0        0.039000    1.153000    0.404000
      5          6           0       -0.129000    2.648000    0.790000
      6         16           0       -0.119000    3.175000   -1.002000
      7          8           0        1.314000    3.445000   -1.455000
      8          6           0       -0.459000    1.338000   -1.050000
      9          6           0        1.530000    0.767000    0.444000
     10          6           0        1.845000   -0.633000   -0.107000
     11          6           0        3.324000   -0.942000   -0.063000
     12          6           0        3.872000   -1.667000    1.003000
     13          6           0        5.242000   -1.932000    1.063000
     14          6           0        6.089000   -1.474000    0.053000
     15          6           0        5.556000   -0.750000   -1.017000
     16          6           0        4.186000   -0.488000   -1.073000
     17          6           0       -2.886000   -1.004000    0.066000
     18          6           0       -2.284000   -2.259000   -0.064000
     19          6           0       -2.767000   -3.136000   -1.032000
     20          6           0       -3.837000   -2.761000   -1.849000
     21          6           0       -4.431000   -1.507000   -1.705000
     22          6           0       -3.958000   -0.618000   -0.738000
     23          8           0       -2.962000    1.420000    1.083000
     24          1           0       -0.269000   -0.016000    2.119000
     25          1           0        0.665000    3.108000    1.379000
     26          1           0       -1.114000    2.877000    1.199000
     27          1           0        0.083000    0.816000   -1.838000
     28          1           0       -1.534000    1.210000   -1.179000
     29          1           0        1.877000    0.844000    1.482000
     30          1           0        2.071000    1.528000   -0.127000
     31          1           0        1.483000   -0.704000   -1.139000
     32          1           0        1.293000   -1.377000    0.474000
     33          1           0        3.216000   -2.030000    1.789000
     34          1           0        5.645000   -2.499000    1.897000
     35          1           0        7.153000   -1.681000    0.095000
     36          1           0        6.206000   -0.394000   -1.810000
     37          1           0        3.779000    0.072000   -1.911000
     38          1           0       -1.451000   -2.538000    0.570000
     39          1           0       -2.307000   -4.110000   -1.150000
     40          1           0       -4.205000   -3.449000   -2.602000
     41          1           0       -5.261000   -1.217000   -2.340000
     42          1           0       -4.399000    0.363000   -0.609000
 ---------------------------------------------------------------------
                    Distance matrix (angstroms):
                    1          2          3          4          5
     1  O    0.000000
     2  S    1.472778   0.000000
     3  N    2.496139   1.671957   0.000000
     4  C    3.855213   2.778549   1.471556   0.000000
     5  C    4.435555   3.423859   2.589780   1.553140   0.000000
     6  S    5.769283   4.469329   3.783799   2.467850   1.867911
     7  O    6.929960   5.700854   4.680409   3.214774   2.785226
     8  C    4.673304   3.301631   2.555820   1.548013   2.282674
     9  C    4.857936   4.041820   2.422430   1.540674   2.531829
    10  C    5.232441   4.505740   2.957181   2.590860   3.932715
    11  C    6.527269   5.943569   4.346251   3.924072   5.053604
    12  C    6.769858   6.480432   4.912930   4.796154   5.888344
    13  C    8.117506   7.867319   6.286483   6.084629   7.063892
    14  C    9.113901   8.685369   7.062847   6.605061   7.496504
    15  C    8.943542   8.300528   6.687216   6.006491   6.865193
    16  C    7.740125   6.999988   5.416381   4.698087   5.650176
    17  C    2.659445   1.786106   2.732585   3.650002   4.632745
    18  C    3.246544   2.760913   3.158076   4.154166   5.426969
    19  C    4.527983   4.049753   4.487666   5.322711   6.613122
    20  C    5.188407   4.551829   5.265795   5.951368   7.069007
    21  C    4.842285   4.039340   5.022908   5.612876   6.480452
    22  C    3.669309   2.739349   3.880897   4.518475   5.259542
    23  O    2.538135   1.475159   2.606782   3.088419   3.101568
    24  H    2.440095   2.219732   1.020951   2.098249   2.980392
    25  H    5.048334   4.255427   3.254367   2.272559   1.090393
    26  H    3.991798   3.038784   2.757267   2.221173   1.090847
    27  H    5.407894   4.080351   3.206267   2.267613   3.210538
    28  H    4.350333   2.885784   2.740179   2.232368   2.814042
    29  H    4.821826   4.293688   2.670097   2.153093   2.785196
    30  H    5.810881   4.876922   3.356500   2.133450   2.633494
    31  H    5.577287   4.647113   3.305800   2.813260   4.189927
    32  H    4.539760   4.032524   2.606289   2.824591   4.280487
    33  H    6.061632   5.978201   4.510243   4.705639   5.837012
    34  H    8.503173   8.426831   6.899925   6.855172   7.813842
    35  H   10.143110   9.752799   8.127535   7.663944   8.500046
    36  H    9.871171   9.138644   7.542601   6.732525   7.493063
    37  H    7.866831   6.947730   5.445063   4.529391   5.404039
    38  H    3.119118   2.902285   2.868077   3.983860   5.356368
    39  H    5.240808   4.906289   5.131684   5.968065   7.360560
    40  H    6.235641   5.636032   6.311003   6.944492   8.080399
    41  H    5.715092   4.888868   5.945690   6.421560   7.146506
    42  H    3.845797   2.851908   4.135987   4.620185   5.040965
                    6          7          8          9         10
     6  S    0.000000
     7  O    1.526957   0.000000
     8  C    1.868816   2.783344   0.000000
     9  C    3.257082   3.290067   2.552293   0.000000
    10  C    4.377121   4.327719   3.175296   1.537149   0.000000
    11  C    5.448455   5.022304   4.525888   2.529064   1.511575
    12  C    6.587342   6.222353   5.657066   3.423712   2.531795
    13  C    7.686742   7.119104   6.903555   4.631059   3.820459
    14  C    7.827227   7.019348   7.211120   5.095041   4.329482
    15  C    6.900107   5.982009   6.367186   4.543620   3.822736
    16  C    5.652932   4.884956   4.991075   3.306153   2.536624
    17  C    5.124544   6.304526   3.552569   4.772880   4.748677
    18  C    5.924139   6.885935   4.152256   4.895032   4.437833
    19  C    6.844087   7.755195   5.034269   5.989674   5.328337
    20  C    7.055284   8.074805   5.371321   6.819774   6.312533
    21  C    6.403802   7.588796   4.929486   6.732221   6.534956
    22  C    5.403190   6.694478   4.020731   5.782170   5.837225
    23  O    3.938261   5.369008   3.289593   4.583971   5.360798
    24  H    4.466052   5.220909   3.451373   2.579751   3.131255
    25  H    2.507649   2.926829   3.208787   2.665095   4.194720
    26  H    2.433769   3.641638   2.802775   3.465957   4.772988
    27  H    2.510892   2.928087   1.089583   2.702542   2.863670
    28  H    2.427917   3.630772   1.090252   3.495493   3.995432
    29  H    3.948143   3.963349   3.480224   1.097170   2.169671
    30  H    2.876514   2.451841   2.699802   1.094460   2.172878
    31  H    4.199025   4.164447   2.819406   2.161467   1.095951
    32  H    4.989291   5.193570   3.572577   2.157268   1.093527
    33  H    6.782620   6.642045   5.736634   3.531973   2.725081
    34  H    8.591983   8.082364   7.788851   5.450797   4.683799
    35  H    8.812839   7.922897   8.268490   6.142689   5.414238
    36  H    7.307274   6.228612   6.928178   5.319155   4.687819
    37  H    5.064513   4.202534   4.506076   3.329722   2.737115
    38  H    6.073202   6.895081   4.316462   4.452557   3.866648
    39  H    7.607922   8.383477   5.753765   6.406913   5.515114
    40  H    7.945613   8.905179   6.273483   7.742286   7.124421
    41  H    6.893480   8.108520   5.590289   7.602933   7.471451
    42  H    5.136165   6.546206   4.082733   6.035318   6.342835
                   11         12         13         14         15
    11  C    0.000000
    12  C    1.400816   0.000000
    13  C    2.434481   1.396684   0.000000
    14  C    2.818103   2.419677   1.395447   0.000000
    15  C    2.434914   2.785165   2.412907   1.397557   0.000000
    16  C    1.403303   2.407989   2.786174   2.421050   1.395951
    17  C    6.211649   6.854787   8.241333   8.987307   8.514973
    18  C    5.760569   6.275770   7.616937   8.410532   8.040578
    19  C    6.546211   7.097570   8.365568   9.075693   8.658265
    20  C    7.601216   8.292130   9.570539  10.188201   9.641825
    21  C    7.947038   8.734911  10.070222  10.665930  10.039251
    22  C    7.320391   8.089523   9.466266  10.114377   9.519005
    23  O    6.812206   7.499302   8.862388   9.558072   9.037435
    24  H    4.304445   4.595556   5.929360   6.842389   6.656116
    25  H    5.054913   5.764274   6.815452   7.223072   6.674343
    26  H    5.989428   6.748818   7.971431   8.492804   7.909152
    27  H    4.092098   5.347251   6.525533   6.700151   5.751532
    28  H    5.429247   6.501007   7.798263   8.175072   7.357713
    29  H    2.769590   3.242620   4.382347   5.015587   4.724498
    30  H    2.770380   3.837776   4.841791   5.018837   4.257536
    31  H    2.145624   3.350053   4.526242   4.819647   4.075086
    32  H    2.145357   2.648619   4.031073   4.815420   4.559537
    33  H    2.150654   1.086232   2.154381   3.402493   3.871387
    34  H    3.413633   2.152902   1.086027   2.155945   3.399753
    35  H    3.902861   3.404353   2.156837   1.084762   2.157247
    36  H    3.414416   3.870537   3.398363   2.156585   1.085396
    37  H    2.156461   3.394726   3.873120   3.403456   2.152359
    38  H    5.074301   5.411142   6.738437   7.632233   7.403618
    39  H    6.551790   6.984533   8.162625   8.881921   8.551845
    40  H    8.331711   9.022720  10.245942  10.812774  10.250558
    41  H    8.886089   9.736007  11.063663  11.602370  10.907608
    42  H    7.851488   8.667692  10.050447  10.668222  10.025331
                   16         17         18         19         20
    16  C    0.000000
    17  C    7.181696   0.000000
    18  C    6.783467   1.397973   0.000000
    19  C    7.440282   2.401081   1.392639   0.000000
    20  C    8.374798   2.767431   2.418685   1.397503   0.000000
    21  C    8.700027   2.403430   2.804994   2.423936   1.395023
    22  C    8.151924   1.394488   2.439146   2.800936   2.416901
    23  O    7.706017   2.629799   3.912842   5.026767   5.181024
    24  H    5.500788   3.469819   3.722467   5.089519   6.000889
    25  H    5.598300   5.589465   6.291545   7.521907   8.070511
    26  H    6.676467   4.414276   5.416878   6.623137   6.963625
    27  H    4.372671   3.968952   4.266777   4.938668   5.306736
    28  H    5.967649   2.877451   3.720173   4.519913   4.639132
    29  H    3.692388   5.301540   5.415962   6.612665   7.532688
    30  H    3.071221   5.569571   5.771600   6.780720   7.501018
    31  H    2.712420   4.542046   4.214729   4.897813   5.747847
    32  H    3.398967   4.215404   3.723211   4.673940   5.799024
    33  H    3.392596   6.423069   5.808274   6.706532   7.969581
    34  H    3.872170   8.852432   8.171423   8.930093  10.198504
    35  H    3.404491  10.061843   9.456021  10.089279  11.212744
    36  H    2.152302   9.303544   8.866050   9.414806  10.318239
    37  H    1.086965   7.034808   6.753143   7.342617   8.126081
    38  H    6.219141   2.160184   1.083368   2.157745   3.405038
    39  H    7.435312   3.385430   2.146189   1.083605   2.156224
    40  H    9.028524   3.851754   3.398203   2.151909   1.084333
    41  H    9.559421   3.387452   3.889533   3.407853   2.157033
    42  H    8.639544   2.147902   3.412497   3.883987   3.407759
                   21         22         23         24         25
    21  C    0.000000
    22  C    1.396116   0.000000
    23  O    4.300957   2.908866   0.000000
    24  H    5.845366   4.704633   3.222986   0.000000
    25  H    7.535151   6.303721   4.011495   3.343551   0.000000
    26  H    6.217327   4.904623   2.356143   3.151170   1.802943
    27  H    5.078407   4.426741   4.262521   4.058815   3.992628
    28  H    4.006417   3.067872   2.683268   3.738998   3.870577
    29  H    7.448156   6.411947   4.889468   2.398059   2.570068
    30  H    7.346925   6.428645   5.177533   3.592221   2.596396
    31  H    5.995045   5.456435   5.404321   3.762634   4.641206
    32  H    6.126101   5.442245   5.128266   2.645409   4.618293
    33  H    8.423667   7.736003   7.111162   4.038604   5.751065
    34  H   10.746360  10.134051   9.492187   6.417941   7.517125
    35  H   11.724305  11.192774  10.625703   7.871143   8.165618
    36  H   10.695586  10.222830   9.783265   7.583241   7.289472
    37  H    8.363000   7.855775   7.498148   5.712701   5.453292
    38  H    3.888314   3.417940   4.267558   3.187006   6.083523
    39  H    3.405145   3.884535   5.999684   5.621445   8.205373
    40  H    2.151058   3.398539   6.231487   7.040272   9.086226
    41  H    1.084539   2.150120   4.894497   6.800378   8.225209
    42  H    2.167750   1.083274   2.458675   4.964124   6.093543
                   26         27         28         29         30
    26  H    0.000000
    27  H    3.860557   0.000000
    28  H    2.934310   1.790030   0.000000
    29  H    3.627569   3.773807   4.341635   0.000000
    30  H    3.704363   2.717832   3.768800   1.759083   0.000000
    31  H    5.003420   2.181513   3.573134   3.069394   2.520260
    32  H    4.941234   3.408620   4.173357   2.507979   3.066840
    33  H    6.570818   5.574095   6.470636   3.185443   4.200172
    34  H    8.664448   7.474978   8.646184   5.054275   5.752111
    35  H    9.504603   7.743152   9.243642   6.011287   6.014457
    36  H    8.563640   6.241475   7.929601   5.577647   4.860535
    37  H    6.440619   3.770846   5.482594   3.965607   2.867029
    38  H    5.461816   4.404649   4.136834   4.831692   5.424265
    39  H    7.467210   5.518235   5.375944   6.998242   7.211134
    40  H    8.001260   6.095971   5.555668   8.491150   8.383575
    41  H    6.817842   5.739637   4.596605   8.355025   8.135762
    42  H    4.514453   4.669473   3.041469   6.632633   6.591695
                   31         32         33         34         35
    31  H    0.000000
    32  H    1.758067   0.000000
    33  H    3.651678   2.419414   0.000000
    34  H    5.455416   4.714204   2.476220   0.000000
    35  H    5.884402   5.880107   4.300163   2.488050   0.000000
    36  H    4.780488   5.506407   4.956753   4.299720   2.486404
    37  H    2.543575   3.737382   4.292479   4.959119   4.298944
    38  H    3.859092   2.981052   4.850249   7.219118   8.659613
    39  H    5.095592   4.802777   6.593000   8.666824   9.845896
    40  H    6.482958   6.631965   8.738746  10.870419  11.806939
    41  H    6.869287   7.134361   9.464097  11.770154  12.659065
    42  H    6.001443   6.049740   8.334571  10.740252  11.752543
                   36         37         38         39         40
    36  H    0.000000
    37  H    2.473396   0.000000
    38  H    8.300047   6.349832   0.000000
    39  H    9.312112   7.423452   2.482402   0.000000
    40  H   10.878842   8.753238   4.298374   2.479441   0.000000
    41  H   11.508706   9.141508   4.972850   4.302518   2.483063
    42  H   10.699602   8.286107   4.300761   4.967582   4.305930
                   41         42
    41  H    0.000000
    42  H    2.497159   0.000000
 Symmetry turned off by external request.
 Stoichiometry    C17H19NO3S2
 Framework group  C1[X(C17H19NO3S2)]
 Deg. of freedom   120
 Full point group                 C1      NOp   1
 Rotational constants (GHZ):           0.2985508           0.1336213           0.1125856
 Leave Link  202 at Mon Sep 21 18:30:31 2020, MaxMem=  2147483648 cpu:               0.1 elap:               0.0
 (Enter /prod/apps/gaussian/g16b1/l301.exe)
 Standard basis: 6-31G(d) (6D, 7F)
 Ernie: Thresh=  0.10000D-02 Tol=  0.10000D-05 Strict=F.
   391 basis functions,   768 primitive gaussians,   391 cartesian basis functions
    92 alpha electrons       92 beta electrons
       nuclear repulsion energy      2260.2268539992 Hartrees.
 IExCor=  402 DFT=T Ex+Corr=B3LYP ExCW=0 ScaHFX=  0.200000
 ScaDFX=  0.800000  0.720000  1.000000  0.810000 ScalE2=  1.000000  1.000000
 IRadAn=      5 IRanWt=     -1 IRanGd=            0 ICorTp=0 IEmpDi=  4
 NAtoms=   42 NActive=   42 NUniq=   42 SFac= 1.00D+00 NAtFMM=   60 NAOKFM=F Big=F
 Integral buffers will be    131072 words long.
 Raffenetti 2 integral format.
 Two-electron integral symmetry is turned off.
 Using the following non-standard input for PCM:
 MSTModel=DFT cav
 --- end of non-standard input.
 MST model for solvation energy: B3LYP parametrization.
 MST cavity parameters:
 ISph   IAn     Re0     Alpha   Atom Type   QCorr
 ------------------------------------------------
   1      8     1.40     1.25      O          F
   2     16     1.75     1.25      S          F
   3      7     1.50     1.25      NH         F
   4      6     1.50     1.25      C          F
   5      6     1.50     1.25      CH2        F
   6     16     1.75     1.25      S          F
   7      8     1.40     1.25      O          F
   8      6     1.50     1.25      CH2        F
   9      6     1.50     1.25      CH2        F
  10      6     1.50     1.25      CH2        F
  11      6     1.50     1.25      C          F
  12      6     1.50     1.25      CH         F
  13      6     1.50     1.25      CH         F
  14      6     1.50     1.25      CH         F
  15      6     1.50     1.25      CH         F
  16      6     1.50     1.25      CH         F
  17      6     1.50     1.25      C          F
  18      6     1.50     1.25      CH         F
  19      6     1.50     1.25      CH         F
  20      6     1.50     1.25      CH         F
  21      6     1.50     1.25      CH         F
  22      6     1.50     1.25      CH         F
  23      8     1.40     1.25      O          F
  24      1     0.90     1.25      NH         F
  25      1     1.20     1.25      CH2        F
  26      1     1.20     1.25      CH2        F
  27      1     1.20     1.25      CH2        F
  28      1     1.20     1.25      CH2        F
  29      1     1.20     1.25      CH2        F
  30      1     1.20     1.25      CH2        F
  31      1     1.20     1.25      CH2        F
  32      1     1.20     1.25      CH2        F
  33      1     1.20     1.25      CH         F
  34      1     1.20     1.25      CH         F
  35      1     1.20     1.25      CH         F
  36      1     1.20     1.25      CH         F
  37      1     1.20     1.25      CH         F
  38      1     1.20     1.25      CH         F
  39      1     1.20     1.25      CH         F
  40      1     1.20     1.25      CH         F
  41      1     1.20     1.25      CH         F
  42      1     1.20     1.25      CH         F
 ------------------------------------------------------------------------------
 Polarizable Continuum Model (PCM)
 =================================
 Model                : PCM.
 Atomic radii         : MST.
 Polarization charges : Total charges.
 Charge compensation  : None.
 Solution method      : On-the-fly selection.
 Cavity type          : Scaled VdW (van der Waals Surface) (Alpha=1.250).
 Cavity algorithm     : GePol (No added spheres)
                        Default sphere list used, NSphG=   42.
                        Lebedev-Laikov grids with approx.  5.0 points / Ang**2.
                        Smoothing algorithm: York/Karplus (Gamma=1.0000).
                        Polarization charges: spherical gaussians, with
                                              point-specific exponents (IZeta= 3).
                        Self-potential: point-specific (ISelfS= 7).
                        Self-field    : sphere-specific E.n sum rule (ISelfD= 2).
 1st derivatives      : Analytical E(r).r(x)/FMM algorithm (CHGder, D1EAlg=3).
                        Cavity 1st derivative terms included.
 Solvent              : Water, Eps=  78.355300 Eps(inf)=   1.777849
 ------------------------------------------------------------------------------
 GePol: Number of generator spheres                  =      42
 GePol: Total number of spheres                      =      42
 GePol: Number of exposed spheres                    =      42 (100.00%)
 GePol: Number of points                             =    3068
 GePol: Average weight of points                     =       0.13
 GePol: Minimum weight of points                     =   0.45D-11
 GePol: Maximum weight of points                     =    0.22001
 GePol: Number of points with low weight             =     204
 GePol: Fraction of low-weight points (<1% of avg)   =       6.65%
 GePol: Cavity surface area                          =    398.240 Ang**2
 GePol: Cavity volume                                =    396.768 Ang**3
 PCM non-electrostatic energy =         0.0026574506 Hartrees.
 Nuclear repulsion after PCM non-electrostatic terms =     2260.2295114498 Hartrees.
 Leave Link  301 at Mon Sep 21 18:30:31 2020, MaxMem=  2147483648 cpu:               0.3 elap:               0.1
 (Enter /prod/apps/gaussian/g16b1/l302.exe)
 NPDir=0 NMtPBC=     1 NCelOv=     1 NCel=       1 NClECP=     1 NCelD=      1
         NCelK=      1 NCelE2=     1 NClLst=     1 CellRange=     0.0.
 One-electron integrals computed using PRISM.
 NBasis=   391 RedAO= T EigKep=  4.68D-04  NBF=   391
 NBsUse=   391 1.00D-06 EigRej= -1.00D+00 NBFU=   391
 Precomputing XC quadrature grid using
 IXCGrd= 4 IRadAn=           5 IRanWt=          -1 IRanGd=           0 AccXCQ= 0.00D+00.
 Generated NRdTot=       0 NPtTot=           0 NUsed=           0 NTot=          32
 NSgBfM=   387   387   387   387   387 MxSgAt=    42 MxSgA2=    42.
 Leave Link  302 at Mon Sep 21 18:30:31 2020, MaxMem=  2147483648 cpu:               2.5 elap:               0.6
 (Enter /prod/apps/gaussian/g16b1/l303.exe)
 DipDrv:  MaxL=1.
 Leave Link  303 at Mon Sep 21 18:30:32 2020, MaxMem=  2147483648 cpu:               0.2 elap:               0.1
 (Enter /prod/apps/gaussian/g16b1/l401.exe)
 ExpMin= 1.17D-01 ExpMax= 2.19D+04 ExpMxC= 3.30D+03 IAcc=3 IRadAn=         5 AccDes= 0.00D+00
 Harris functional with IExCor=  402 and IRadAn=       5 diagonalized for initial guess.
 HarFok:  IExCor=  402 AccDes= 0.00D+00 IRadAn=         5 IDoV= 1 UseB2=F ITyADJ=14
 ICtDFT=  3500011 ScaDFX=  1.000000  1.000000  1.000000  1.000000
 FoFCou: FMM=F IPFlag=           0 FMFlag=      100000 FMFlg1=           0
         NFxFlg=           0 DoJE=T BraDBF=F KetDBF=T FulRan=T
         wScrn=  0.000000 ICntrl=       500 IOpCl=  0 I1Cent=   200000004 NGrid=           0
         NMat0=    1 NMatS0=      1 NMatT0=    0 NMatD0=    1 NMtDS0=    0 NMtDT0=    0
 Symmetry not used in FoFCou.
 Harris En= -1735.98486707291    
 JPrj=0 DoOrth=F DoCkMO=F.
 Leave Link  401 at Mon Sep 21 18:30:35 2020, MaxMem=  2147483648 cpu:              13.8 elap:               3.5
 (Enter /prod/apps/gaussian/g16b1/l502.exe)
 Two-electron integral symmetry not used.
 Closed shell SCF:
 Using DIIS extrapolation, IDIIS=  1040.
 NGot=  2147483648 LenX=  2147172117 LenY=  2147018795
 Requested convergence on RMS density matrix=1.00D-08 within2000 cycles.
 Requested convergence on MAX density matrix=1.00D-06.
 Requested convergence on             energy=1.00D-06.
 No special actions if energy rises.

 Cycle   1  Pass 1  IDiag  1:
 FoFJK:  IHMeth= 1 ICntrl=       0 DoSepK=F KAlg= 0 I1Cent=           0 FoldK=F
 IRaf= 750000000 NMat=       1 IRICut=       1 DoRegI=T DoRafI=F ISym2E= 0 IDoP0=0 IntGTp=1.
 FoFCou: FMM=F IPFlag=           0 FMFlag=      100000 FMFlg1=           0
         NFxFlg=           0 DoJE=F BraDBF=F KetDBF=F FulRan=T
         wScrn=  0.000000 ICntrl=         0 IOpCl=  0 I1Cent=           0 NGrid=           0
         NMat0=    1 NMatS0=      1 NMatT0=    0 NMatD0=    1 NMtDS0=    0 NMtDT0=    0
 Symmetry not used in FoFCou.
 Inv3:  Mode=1 IEnd=    28237872.
 Iteration    1 A*A^-1 deviation from unit magnitude is 3.55D-15 for   1907.
 Iteration    1 A*A^-1 deviation from orthogonality  is 2.89D-15 for   2379    806.
 Iteration    1 A^-1*A deviation from unit magnitude is 3.11D-15 for   1758.
 Iteration    1 A^-1*A deviation from orthogonality  is 1.36D-13 for   1888   1838.
 E= -1735.14690436234    
 DIIS: error= 2.86D-02 at cycle   1 NSaved=   1.
 NSaved= 1 IEnMin= 1 EnMin= -1735.14690436234     IErMin= 1 ErrMin= 2.86D-02
 ErrMax= 2.86D-02  0.00D+00 EMaxC= 1.00D-01 BMatC= 8.86D-01 BMatP= 8.86D-01
 IDIUse=3 WtCom= 7.14D-01 WtEn= 2.86D-01
 Coeff-Com:  0.100D+01
 Coeff-En:   0.100D+01
 Coeff:      0.100D+01
 Gap=     0.251 Goal=   None    Shift=    0.000
 GapD=    0.251 DampG=1.000 DampE=0.500 DampFc=0.5000 IDamp=-1.
 Damping current iteration by 5.00D-01
 RMSDP=6.17D-03 MaxDP=5.58D-01              OVMax= 2.43D-01

 Cycle   2  Pass 1  IDiag  1:
 E= -1735.36667018742     Delta-E=       -0.219765825073 Rises=F Damp=T
 DIIS: error= 1.38D-02 at cycle   2 NSaved=   2.
 NSaved= 2 IEnMin= 2 EnMin= -1735.36667018742     IErMin= 2 ErrMin= 1.38D-02
 ErrMax= 1.38D-02  0.00D+00 EMaxC= 1.00D-01 BMatC= 1.24D-01 BMatP= 8.86D-01
 IDIUse=3 WtCom= 8.62D-01 WtEn= 1.38D-01
 Coeff-Com:  0.215D+00 0.785D+00
 Coeff-En:   0.343D+00 0.657D+00
 Coeff:      0.233D+00 0.767D+00
 Gap=     0.268 Goal=   None    Shift=    0.000
 RMSDP=1.91D-03 MaxDP=1.27D-01 DE=-2.20D-01 OVMax= 1.76D-01

 Cycle   3  Pass 1  IDiag  1:
 E= -1735.86403425422     Delta-E=       -0.497364066804 Rises=F Damp=F
 DIIS: error= 1.01D-02 at cycle   3 NSaved=   3.
 NSaved= 3 IEnMin= 3 EnMin= -1735.86403425422     IErMin= 3 ErrMin= 1.01D-02
 ErrMax= 1.01D-02  0.00D+00 EMaxC= 1.00D-01 BMatC= 8.47D-02 BMatP= 1.24D-01
 IDIUse=3 WtCom= 8.99D-01 WtEn= 1.01D-01
 Coeff-Com:  0.739D-01 0.454D+00 0.472D+00
 Coeff-En:   0.000D+00 0.000D+00 0.100D+01
 Coeff:      0.664D-01 0.409D+00 0.525D+00
 Gap=     0.203 Goal=   None    Shift=    0.000
 RMSDP=1.13D-03 MaxDP=5.03D-02 DE=-4.97D-01 OVMax= 1.02D-01

 Cycle   4  Pass 1  IDiag  1:
 E= -1735.92887938152     Delta-E=       -0.064845127305 Rises=F Damp=F
 DIIS: error= 4.04D-03 at cycle   4 NSaved=   4.
 NSaved= 4 IEnMin= 4 EnMin= -1735.92887938152     IErMin= 4 ErrMin= 4.04D-03
 ErrMax= 4.04D-03  0.00D+00 EMaxC= 1.00D-01 BMatC= 1.41D-02 BMatP= 8.47D-02
 IDIUse=3 WtCom= 9.60D-01 WtEn= 4.04D-02
 Coeff-Com:  0.626D-02 0.979D-01 0.303D+00 0.593D+00
 Coeff-En:   0.000D+00 0.000D+00 0.153D+00 0.847D+00
 Coeff:      0.600D-02 0.940D-01 0.297D+00 0.603D+00
 Gap=     0.196 Goal=   None    Shift=    0.000
 RMSDP=4.20D-04 MaxDP=2.07D-02 DE=-6.48D-02 OVMax= 3.76D-02

 Cycle   5  Pass 1  IDiag  1:
 E= -1735.94052275102     Delta-E=       -0.011643369498 Rises=F Damp=F
 DIIS: error= 1.27D-03 at cycle   5 NSaved=   5.
 NSaved= 5 IEnMin= 5 EnMin= -1735.94052275102     IErMin= 5 ErrMin= 1.27D-03
 ErrMax= 1.27D-03  0.00D+00 EMaxC= 1.00D-01 BMatC= 1.28D-03 BMatP= 1.41D-02
 IDIUse=3 WtCom= 9.87D-01 WtEn= 1.27D-02
 Coeff-Com: -0.267D-02 0.185D-01 0.124D+00 0.344D+00 0.517D+00
 Coeff-En:   0.000D+00 0.000D+00 0.000D+00 0.216D-01 0.978D+00
 Coeff:     -0.264D-02 0.182D-01 0.122D+00 0.340D+00 0.523D+00
 Gap=     0.194 Goal=   None    Shift=    0.000
 RMSDP=1.27D-04 MaxDP=7.34D-03 DE=-1.16D-02 OVMax= 9.64D-03

 Cycle   6  Pass 1  IDiag  1:
 E= -1735.94159419801     Delta-E=       -0.001071446985 Rises=F Damp=F
 DIIS: error= 4.32D-04 at cycle   6 NSaved=   6.
 NSaved= 6 IEnMin= 6 EnMin= -1735.94159419801     IErMin= 6 ErrMin= 4.32D-04
 ErrMax= 4.32D-04  0.00D+00 EMaxC= 1.00D-01 BMatC= 1.37D-04 BMatP= 1.28D-03
 IDIUse=3 WtCom= 9.96D-01 WtEn= 4.32D-03
 Coeff-Com: -0.192D-02 0.359D-02 0.461D-01 0.146D+00 0.310D+00 0.496D+00
 Coeff-En:   0.000D+00 0.000D+00 0.000D+00 0.000D+00 0.951D-02 0.990D+00
 Coeff:     -0.191D-02 0.357D-02 0.459D-01 0.146D+00 0.308D+00 0.499D+00
 Gap=     0.195 Goal=   None    Shift=    0.000
 RMSDP=3.67D-05 MaxDP=2.20D-03 DE=-1.07D-03 OVMax= 2.46D-03

 Cycle   7  Pass 1  IDiag  1:
 E= -1735.94169406863     Delta-E=       -0.000099870623 Rises=F Damp=F
 DIIS: error= 1.20D-04 at cycle   7 NSaved=   7.
 NSaved= 7 IEnMin= 7 EnMin= -1735.94169406863     IErMin= 7 ErrMin= 1.20D-04
 ErrMax= 1.20D-04  0.00D+00 EMaxC= 1.00D-01 BMatC= 1.23D-05 BMatP= 1.37D-04
 IDIUse=3 WtCom= 9.99D-01 WtEn= 1.20D-03
 Coeff-Com: -0.810D-03-0.186D-03 0.118D-01 0.429D-01 0.117D+00 0.285D+00
 Coeff-Com:  0.544D+00
 Coeff-En:   0.000D+00 0.000D+00 0.000D+00 0.000D+00 0.000D+00 0.300D-01
 Coeff-En:   0.970D+00
 Coeff:     -0.809D-03-0.185D-03 0.118D-01 0.429D-01 0.117D+00 0.285D+00
 Coeff:      0.545D+00
 Gap=     0.194 Goal=   None    Shift=    0.000
 RMSDP=1.05D-05 MaxDP=4.76D-04 DE=-9.99D-05 OVMax= 6.21D-04

 Cycle   8  Pass 1  IDiag  1:
 E= -1735.94170433765     Delta-E=       -0.000010269016 Rises=F Damp=F
 DIIS: error= 2.19D-05 at cycle   8 NSaved=   8.
 NSaved= 8 IEnMin= 8 EnMin= -1735.94170433765     IErMin= 8 ErrMin= 2.19D-05
 ErrMax= 2.19D-05  0.00D+00 EMaxC= 1.00D-01 BMatC= 5.12D-07 BMatP= 1.23D-05
 IDIUse=1 WtCom= 1.00D+00 WtEn= 0.00D+00
 Coeff-Com: -0.190D-03-0.371D-03 0.110D-02 0.610D-02 0.244D-01 0.814D-01
 Coeff-Com:  0.236D+00 0.652D+00
 Coeff:     -0.190D-03-0.371D-03 0.110D-02 0.610D-02 0.244D-01 0.814D-01
 Coeff:      0.236D+00 0.652D+00
 Gap=     0.194 Goal=   None    Shift=    0.000
 RMSDP=2.81D-06 MaxDP=1.32D-04 DE=-1.03D-05 OVMax= 1.64D-04

 Cycle   9  Pass 1  IDiag  1:
 E= -1735.94170476251     Delta-E=       -0.000000424865 Rises=F Damp=F
 DIIS: error= 7.33D-06 at cycle   9 NSaved=   9.
 NSaved= 9 IEnMin= 9 EnMin= -1735.94170476251     IErMin= 9 ErrMin= 7.33D-06
 ErrMax= 7.33D-06  0.00D+00 EMaxC= 1.00D-01 BMatC= 7.45D-08 BMatP= 5.12D-07
 IDIUse=1 WtCom= 1.00D+00 WtEn= 0.00D+00
 Coeff-Com: -0.157D-04-0.151D-03-0.639D-03-0.125D-02 0.348D-03 0.126D-01
 Coeff-Com:  0.624D-01 0.334D+00 0.592D+00
 Coeff:     -0.157D-04-0.151D-03-0.639D-03-0.125D-02 0.348D-03 0.126D-01
 Coeff:      0.624D-01 0.334D+00 0.592D+00
 Gap=     0.194 Goal=   None    Shift=    0.000
 RMSDP=8.14D-07 MaxDP=3.90D-05 DE=-4.25D-07 OVMax= 4.44D-05

 Cycle  10  Pass 1  IDiag  1:
 E= -1735.94170482864     Delta-E=       -0.000000066125 Rises=F Damp=F
 DIIS: error= 1.88D-06 at cycle  10 NSaved=  10.
 NSaved=10 IEnMin=10 EnMin= -1735.94170482864     IErMin=10 ErrMin= 1.88D-06
 ErrMax= 1.88D-06  0.00D+00 EMaxC= 1.00D-01 BMatC= 4.43D-09 BMatP= 7.45D-08
 IDIUse=1 WtCom= 1.00D+00 WtEn= 0.00D+00
 Coeff-Com: -0.738D-06-0.508D-04-0.376D-03-0.899D-03-0.102D-02 0.264D-02
 Coeff-Com:  0.202D-01 0.139D+00 0.298D+00 0.542D+00
 Coeff:     -0.738D-06-0.508D-04-0.376D-03-0.899D-03-0.102D-02 0.264D-02
 Coeff:      0.202D-01 0.139D+00 0.298D+00 0.542D+00
 Gap=     0.194 Goal=   None    Shift=    0.000
 RMSDP=2.31D-07 MaxDP=1.31D-05 DE=-6.61D-08 OVMax= 1.28D-05

 Cycle  11  Pass 1  IDiag  1:
 E= -1735.94170483208     Delta-E=       -0.000000003441 Rises=F Damp=F
 DIIS: error= 8.86D-07 at cycle  11 NSaved=  11.
 NSaved=11 IEnMin=11 EnMin= -1735.94170483208     IErMin=11 ErrMin= 8.86D-07
 ErrMax= 8.86D-07  0.00D+00 EMaxC= 1.00D-01 BMatC= 6.58D-10 BMatP= 4.43D-09
 IDIUse=1 WtCom= 1.00D+00 WtEn= 0.00D+00
 Coeff-Com:  0.913D-06-0.237D-05-0.121D-03-0.313D-03-0.695D-03-0.505D-03
 Coeff-Com:  0.127D-02 0.250D-01 0.701D-01 0.292D+00 0.613D+00
 Coeff:      0.913D-06-0.237D-05-0.121D-03-0.313D-03-0.695D-03-0.505D-03
 Coeff:      0.127D-02 0.250D-01 0.701D-01 0.292D+00 0.613D+00
 Gap=     0.194 Goal=   None    Shift=    0.000
 RMSDP=8.33D-08 MaxDP=4.52D-06 DE=-3.44D-09 OVMax= 5.35D-06

 Cycle  12  Pass 1  IDiag  1:
 E= -1735.94170483256     Delta-E=       -0.000000000487 Rises=F Damp=F
 DIIS: error= 3.92D-07 at cycle  12 NSaved=  12.
 NSaved=12 IEnMin=12 EnMin= -1735.94170483256     IErMin=12 ErrMin= 3.92D-07
 ErrMax= 3.92D-07  0.00D+00 EMaxC= 1.00D-01 BMatC= 1.13D-10 BMatP= 6.58D-10
 IDIUse=1 WtCom= 1.00D+00 WtEn= 0.00D+00
 Coeff-Com:  0.316D-06 0.388D-05-0.382D-04-0.983D-04-0.338D-03-0.605D-03
 Coeff-Com: -0.151D-02 0.117D-03 0.101D-01 0.117D+00 0.371D+00 0.505D+00
 Coeff:      0.316D-06 0.388D-05-0.382D-04-0.983D-04-0.338D-03-0.605D-03
 Coeff:     -0.151D-02 0.117D-03 0.101D-01 0.117D+00 0.371D+00 0.505D+00
 Gap=     0.194 Goal=   None    Shift=    0.000
 RMSDP=3.01D-08 MaxDP=1.62D-06 DE=-4.87D-10 OVMax= 2.08D-06

 Cycle  13  Pass 1  IDiag  1:
 E= -1735.94170483267     Delta-E=       -0.000000000107 Rises=F Damp=F
 DIIS: error= 8.41D-08 at cycle  13 NSaved=  13.
 NSaved=13 IEnMin=13 EnMin= -1735.94170483267     IErMin=13 ErrMin= 8.41D-08
 ErrMax= 8.41D-08  0.00D+00 EMaxC= 1.00D-01 BMatC= 7.11D-12 BMatP= 1.13D-10
 IDIUse=1 WtCom= 1.00D+00 WtEn= 0.00D+00
 Coeff-Com: -0.482D-07 0.224D-05-0.533D-05-0.110D-04-0.891D-04-0.233D-03
 Coeff-Com: -0.911D-03-0.289D-02-0.350D-02 0.208D-01 0.110D+00 0.252D+00
 Coeff-Com:  0.625D+00
 Coeff:     -0.482D-07 0.224D-05-0.533D-05-0.110D-04-0.891D-04-0.233D-03
 Coeff:     -0.911D-03-0.289D-02-0.350D-02 0.208D-01 0.110D+00 0.252D+00
 Coeff:      0.625D+00
 Gap=     0.194 Goal=   None    Shift=    0.000
 RMSDP=8.39D-09 MaxDP=3.83D-07 DE=-1.07D-10 OVMax= 5.24D-07

 Error on total polarization charges =  0.02271
 SCF Done:  E(RB3LYP) =  -1735.94170483     A.U. after   13 cycles
            NFock= 13  Conv=0.84D-08     -V/T= 2.0068
 KE= 1.724238100655D+03 PE=-8.594637424934D+03 EE= 2.874228107997D+03
 Leave Link  502 at Mon Sep 21 18:32:38 2020, MaxMem=  2147483648 cpu:             493.2 elap:             123.4
 (Enter /prod/apps/gaussian/g16b1/l601.exe)
 Copying SCF densities to generalized density rwf, IOpCl= 0 IROHF=0.

 **********************************************************************

            Population analysis using the SCF Density.

 **********************************************************************

 Alpha  occ. eigenvalues --  -89.12689 -88.98666 -19.15751 -19.15544 -19.11966
 Alpha  occ. eigenvalues --  -14.37159 -10.26198 -10.23285 -10.21763 -10.21420
 Alpha  occ. eigenvalues --  -10.21319 -10.21178 -10.20669 -10.20546 -10.20530
 Alpha  occ. eigenvalues --  -10.19608 -10.19256 -10.18913 -10.18899 -10.18749
 Alpha  occ. eigenvalues --  -10.18716 -10.18695 -10.18675  -8.15169  -8.03488
 Alpha  occ. eigenvalues --   -6.11673  -6.11617  -6.11446  -5.99909  -5.99702
 Alpha  occ. eigenvalues --   -5.99263  -1.12242  -1.01199  -1.00786  -0.94051
 Alpha  occ. eigenvalues --   -0.87668  -0.85568  -0.84462  -0.78957  -0.78063
 Alpha  occ. eigenvalues --   -0.76412  -0.74213  -0.73741  -0.70107  -0.68832
 Alpha  occ. eigenvalues --   -0.66272  -0.62467  -0.62156  -0.60435  -0.60185
 Alpha  occ. eigenvalues --   -0.57738  -0.56706  -0.54642  -0.52311  -0.51579
 Alpha  occ. eigenvalues --   -0.50927  -0.49103  -0.48177  -0.47474  -0.46361
 Alpha  occ. eigenvalues --   -0.45930  -0.45498  -0.45121  -0.44116  -0.43855
 Alpha  occ. eigenvalues --   -0.43299  -0.42286  -0.41731  -0.41096  -0.40388
 Alpha  occ. eigenvalues --   -0.39149  -0.38910  -0.38454  -0.37974  -0.37298
 Alpha  occ. eigenvalues --   -0.36371  -0.36185  -0.35386  -0.34820  -0.34330
 Alpha  occ. eigenvalues --   -0.33316  -0.33089  -0.33067  -0.31979  -0.31355
 Alpha  occ. eigenvalues --   -0.28890  -0.26951  -0.26805  -0.26347  -0.25095
 Alpha  occ. eigenvalues --   -0.24397  -0.23350
 Alpha virt. eigenvalues --   -0.03927  -0.01858  -0.00221  -0.00083   0.00744
 Alpha virt. eigenvalues --    0.03142   0.05450   0.06405   0.06787   0.08346
 Alpha virt. eigenvalues --    0.09362   0.09791   0.10740   0.11220   0.11850
 Alpha virt. eigenvalues --    0.12588   0.13120   0.14631   0.14900   0.15186
 Alpha virt. eigenvalues --    0.15644   0.15831   0.16371   0.16676   0.17552
 Alpha virt. eigenvalues --    0.18027   0.18389   0.19305   0.19525   0.20184
 Alpha virt. eigenvalues --    0.21019   0.21265   0.21989   0.23533   0.25054
 Alpha virt. eigenvalues --    0.26719   0.27077   0.27617   0.28241   0.29360
 Alpha virt. eigenvalues --    0.30545   0.30900   0.31643   0.32344   0.33089
 Alpha virt. eigenvalues --    0.33953   0.34786   0.35252   0.35898   0.37090
 Alpha virt. eigenvalues --    0.39693   0.41965   0.43372   0.44663   0.46346
 Alpha virt. eigenvalues --    0.49177   0.49745   0.50172   0.51840   0.52267
 Alpha virt. eigenvalues --    0.52696   0.53062   0.54108   0.54837   0.55308
 Alpha virt. eigenvalues --    0.55828   0.55950   0.56302   0.57519   0.57982
 Alpha virt. eigenvalues --    0.58936   0.59125   0.59366   0.59691   0.59930
 Alpha virt. eigenvalues --    0.60249   0.60698   0.60953   0.61199   0.61706
 Alpha virt. eigenvalues --    0.62176   0.62696   0.63094   0.63319   0.64877
 Alpha virt. eigenvalues --    0.66035   0.66353   0.67651   0.68128   0.69642
 Alpha virt. eigenvalues --    0.70636   0.71102   0.73566   0.73816   0.76382
 Alpha virt. eigenvalues --    0.77597   0.77995   0.80069   0.80508   0.81848
 Alpha virt. eigenvalues --    0.82335   0.83145   0.83756   0.83892   0.83985
 Alpha virt. eigenvalues --    0.84152   0.84569   0.84761   0.85622   0.86353
 Alpha virt. eigenvalues --    0.86596   0.87227   0.88203   0.88550   0.89921
 Alpha virt. eigenvalues --    0.89986   0.90445   0.91526   0.92066   0.92582
 Alpha virt. eigenvalues --    0.93686   0.93995   0.94353   0.95207   0.95583
 Alpha virt. eigenvalues --    0.96519   0.97666   0.98570   1.00131   1.00653
 Alpha virt. eigenvalues --    1.01117   1.02083   1.02725   1.03734   1.04100
 Alpha virt. eigenvalues --    1.05614   1.06957   1.08299   1.09326   1.10522
 Alpha virt. eigenvalues --    1.11550   1.11853   1.12618   1.13374   1.14143
 Alpha virt. eigenvalues --    1.15140   1.16481   1.17627   1.18866   1.19680
 Alpha virt. eigenvalues --    1.20766   1.21159   1.23710   1.24777   1.25906
 Alpha virt. eigenvalues --    1.26565   1.29187   1.31336   1.33931   1.35941
 Alpha virt. eigenvalues --    1.36833   1.40912   1.41388   1.42355   1.42530
 Alpha virt. eigenvalues --    1.43336   1.43612   1.45730   1.46708   1.47469
 Alpha virt. eigenvalues --    1.48381   1.49028   1.49101   1.50244   1.51164
 Alpha virt. eigenvalues --    1.51543   1.53440   1.57364   1.61020   1.62519
 Alpha virt. eigenvalues --    1.68596   1.71626   1.71922   1.73271   1.75051
 Alpha virt. eigenvalues --    1.76201   1.77499   1.78639   1.79412   1.80435
 Alpha virt. eigenvalues --    1.81393   1.81751   1.82371   1.82803   1.84132
 Alpha virt. eigenvalues --    1.84801   1.85817   1.87443   1.88604   1.89017
 Alpha virt. eigenvalues --    1.90358   1.91573   1.92569   1.92870   1.93668
 Alpha virt. eigenvalues --    1.95092   1.95638   1.96626   1.97908   1.98024
 Alpha virt. eigenvalues --    1.99203   2.01383   2.02064   2.02818   2.05164
 Alpha virt. eigenvalues --    2.05828   2.07692   2.08242   2.09375   2.10150
 Alpha virt. eigenvalues --    2.11469   2.12224   2.12830   2.13708   2.14042
 Alpha virt. eigenvalues --    2.14359   2.14710   2.15303   2.15859   2.18514
 Alpha virt. eigenvalues --    2.19623   2.21824   2.23850   2.24319   2.26702
 Alpha virt. eigenvalues --    2.27436   2.28595   2.29229   2.29902   2.30759
 Alpha virt. eigenvalues --    2.30997   2.32134   2.35146   2.38536   2.41499
 Alpha virt. eigenvalues --    2.42115   2.45732   2.51103   2.52572   2.55984
 Alpha virt. eigenvalues --    2.57416   2.58066   2.60041   2.63301   2.65324
 Alpha virt. eigenvalues --    2.66249   2.69159   2.70406   2.70935   2.72052
 Alpha virt. eigenvalues --    2.72358   2.72744   2.73912   2.74565   2.75085
 Alpha virt. eigenvalues --    2.75793   2.77081   2.77400   2.80085   2.83617
 Alpha virt. eigenvalues --    2.86307   2.94974   3.02333   3.05228   3.37022
 Alpha virt. eigenvalues --    3.41017   3.75098   3.82922   3.93199   3.99151
 Alpha virt. eigenvalues --    4.01109   4.07354   4.08360   4.09095   4.10819
 Alpha virt. eigenvalues --    4.11598   4.14456   4.15716   4.22076   4.25230
 Alpha virt. eigenvalues --    4.32516   4.32856   4.34021   4.36209   4.41140
 Alpha virt. eigenvalues --    4.52809   4.65052   4.70271   4.72379
          Condensed to atoms (all electrons):
               1          2          3          4          5          6
     1  O    8.265220   0.465123  -0.057089   0.001705  -0.000001  -0.000001
     2  S    0.465123  13.693027   0.125196  -0.000058  -0.007032   0.000695
     3  N   -0.057089   0.125196   7.403683   0.224749  -0.051566   0.004605
     4  C    0.001705  -0.000058   0.224749   4.848622   0.331866  -0.065171
     5  C   -0.000001  -0.007032  -0.051566   0.331866   5.661219   0.082440
     6  S   -0.000001   0.000695   0.004605  -0.065171   0.082440  14.886935
     7  O   -0.000000   0.000011  -0.000053  -0.000001  -0.038429   0.293848
     8  C   -0.000061  -0.002760  -0.040298   0.317899  -0.123908   0.086105
     9  C   -0.000096   0.000615  -0.055847   0.348223  -0.055685   0.006580
    10  C    0.000001  -0.000156  -0.006202  -0.033113   0.004611  -0.000573
    11  C   -0.000000  -0.000006   0.000262   0.003182  -0.000077   0.000014
    12  C    0.000000  -0.000000  -0.000009   0.000063  -0.000003   0.000001
    13  C    0.000000   0.000000  -0.000000   0.000002  -0.000000   0.000000
    14  C   -0.000000  -0.000000   0.000000  -0.000000   0.000000  -0.000000
    15  C    0.000000   0.000000   0.000000   0.000003  -0.000000   0.000000
    16  C    0.000000   0.000000  -0.000003   0.000137  -0.000008  -0.000005
    17  C   -0.062941   0.189356  -0.053200  -0.004110  -0.000336   0.000037
    18  C    0.000197  -0.021005  -0.000052  -0.000011   0.000007   0.000010
    19  C    0.000074   0.002091   0.000187  -0.000006   0.000000   0.000000
    20  C   -0.000004  -0.000478   0.000007   0.000001   0.000000  -0.000000
    21  C   -0.000049   0.003351  -0.000109   0.000006  -0.000000  -0.000002
    22  C   -0.001635  -0.035912   0.001528   0.000073   0.000014  -0.000011
    23  O   -0.043432   0.384216  -0.052846   0.006168  -0.008057   0.000445
    24  H    0.004187  -0.010459   0.293266  -0.020890  -0.000299  -0.000253
    25  H    0.000001   0.000288   0.001354  -0.029533   0.352357  -0.018128
    26  H   -0.000176   0.001481  -0.004619  -0.024301   0.324380  -0.006392
    27  H    0.000001   0.000090   0.001322  -0.028014   0.009839  -0.017696
    28  H    0.000017   0.009537  -0.006415  -0.025511   0.002507  -0.007075
    29  H   -0.000004  -0.000141  -0.006254  -0.029278  -0.005645  -0.000381
    30  H    0.000000   0.000045   0.003256  -0.030541  -0.005364   0.005332
    31  H    0.000000  -0.000069  -0.000099  -0.004461   0.000067  -0.000082
    32  H   -0.000005   0.000105   0.008769  -0.008108   0.000158  -0.000033
    33  H   -0.000000  -0.000000  -0.000006  -0.000042   0.000001  -0.000000
    34  H    0.000000  -0.000000  -0.000000  -0.000000   0.000000  -0.000000
    35  H   -0.000000   0.000000   0.000000  -0.000000  -0.000000  -0.000000
    36  H   -0.000000  -0.000000  -0.000000  -0.000000   0.000000   0.000000
    37  H   -0.000000  -0.000000  -0.000000  -0.000089   0.000003   0.000001
    38  H    0.000390  -0.002164   0.005336   0.000075   0.000007   0.000000
    39  H    0.000001  -0.000069   0.000001   0.000000  -0.000000   0.000000
    40  H   -0.000000   0.000007   0.000000  -0.000000  -0.000000  -0.000000
    41  H    0.000000  -0.000076   0.000000   0.000000   0.000000   0.000000
    42  H   -0.000022  -0.007504   0.000236  -0.000009   0.000001   0.000013
               7          8          9         10         11         12
     1  O   -0.000000  -0.000061  -0.000096   0.000001  -0.000000   0.000000
     2  S    0.000011  -0.002760   0.000615  -0.000156  -0.000006  -0.000000
     3  N   -0.000053  -0.040298  -0.055847  -0.006202   0.000262  -0.000009
     4  C   -0.000001   0.317899   0.348223  -0.033113   0.003182   0.000063
     5  C   -0.038429  -0.123908  -0.055685   0.004611  -0.000077  -0.000003
     6  S    0.293848   0.086105   0.006580  -0.000573   0.000014   0.000001
     7  O    8.454688  -0.038986  -0.007693   0.000052   0.000017  -0.000000
     8  C   -0.038986   5.656192  -0.051266  -0.008092   0.000134  -0.000004
     9  C   -0.007693  -0.051266   5.192509   0.346605  -0.039617  -0.003369
    10  C    0.000052  -0.008092   0.346605   5.166104   0.352686  -0.054542
    11  C    0.000017   0.000134  -0.039617   0.352686   4.655559   0.549509
    12  C   -0.000000  -0.000004  -0.003369  -0.054542   0.549509   4.985376
    13  C   -0.000000  -0.000000  -0.000100   0.006875  -0.022460   0.515188
    14  C    0.000000   0.000000   0.000013   0.000337  -0.034359  -0.038227
    15  C   -0.000000  -0.000000   0.000031   0.006332  -0.020319  -0.046645
    16  C   -0.000048   0.000002  -0.003454  -0.060636   0.538451  -0.040785
    17  C   -0.000000   0.001706  -0.000262  -0.000018  -0.000000   0.000000
    18  C   -0.000000   0.000324  -0.000044  -0.000062   0.000006  -0.000000
    19  C   -0.000000   0.000040  -0.000001  -0.000006   0.000000  -0.000000
    20  C    0.000000   0.000004   0.000000   0.000000   0.000000  -0.000000
    21  C    0.000000  -0.000093  -0.000000  -0.000000  -0.000000   0.000000
    22  C   -0.000000  -0.001260  -0.000002   0.000001  -0.000000   0.000000
    23  O   -0.000000  -0.005234   0.000088  -0.000001   0.000000  -0.000000
    24  H    0.000002   0.004340  -0.005024  -0.000153  -0.000075   0.000002
    25  H   -0.000061   0.009807  -0.004751   0.000108  -0.000010  -0.000000
    26  H    0.001189   0.003475   0.003825  -0.000108   0.000001   0.000000
    27  H    0.000264   0.352248  -0.007314   0.002006  -0.000072   0.000001
    28  H    0.001206   0.323927   0.004422   0.000010   0.000001   0.000000
    29  H    0.000224   0.005745   0.357830  -0.038278  -0.000857   0.002956
    30  H    0.024336  -0.008418   0.349247  -0.033215  -0.001487  -0.000028
    31  H    0.000041   0.003028  -0.041314   0.360511  -0.027195   0.003409
    32  H   -0.000003  -0.000289  -0.034947   0.362112  -0.029616  -0.004641
    33  H    0.000000   0.000001   0.000260  -0.009643  -0.043889   0.358902
    34  H   -0.000000  -0.000000  -0.000000  -0.000173   0.003697  -0.038751
    35  H    0.000000   0.000000   0.000000   0.000006   0.000620   0.004598
    36  H   -0.000000  -0.000000  -0.000000  -0.000171   0.003596   0.000756
    37  H    0.000095  -0.000001   0.000165  -0.008553  -0.045397   0.005966
    38  H   -0.000000  -0.000052  -0.000055   0.000156   0.000006  -0.000002
    39  H   -0.000000  -0.000000   0.000000  -0.000000   0.000000   0.000000
    40  H   -0.000000   0.000000  -0.000000   0.000000  -0.000000   0.000000
    41  H   -0.000000  -0.000001   0.000000   0.000000   0.000000  -0.000000
[...]
    32  H    0.051712   0.009914  -0.104675  -0.395756  -0.015788  -0.041680
    33  H    0.294507  -0.134425   0.096833  -0.016823   0.007563  -0.007659
    34  H   -0.762290   0.307787  -0.236666   0.126478  -0.000329   0.000509
    35  H    0.375102  -0.613258   0.378212  -0.127330   0.000065  -0.000078
    36  H   -0.241986   0.313930  -0.740616   0.607124  -0.000190   0.000104
    37  H    0.107450  -0.135124   0.380693  -1.169270   0.002806  -0.001714
    38  H    0.004921  -0.001235   0.002127   0.005792   0.978552  -1.429307
    39  H   -0.000351  -0.000017   0.000094   0.000256  -0.180391   0.554600
    40  H    0.000024   0.000005  -0.000048  -0.000131   0.114160  -0.138134
    41  H   -0.000013  -0.000000   0.000023   0.000111  -0.078802   0.173102
    42  H    0.000206  -0.000002  -0.000158  -0.000881   0.697919  -0.141647
              19         20         21         22         23         24
     1  O   -0.008998  -0.010645   0.024752   0.065912   0.058612   0.010421
     2  S    0.225234   0.087521  -0.478066  -0.899999  -0.958893  -0.109343
     3  N   -0.255894   0.057747  -0.037045  -0.024663   0.264255   0.377677
     4  C   -0.132689  -0.088030   0.166532   0.079756   0.064894   0.108064
     5  C   -0.012877   0.020171  -0.027025   0.129935   0.022726  -0.002335
     6  S   -0.009327   0.007455  -0.008235   0.032252   0.030710   0.000490
     7  O    0.001267  -0.000471  -0.000086  -0.003874  -0.004076  -0.000808
     8  C    0.089350  -0.028117   0.058116  -0.114982   0.075017   0.012089
     9  C    0.080654  -0.046121   0.028039  -0.173132  -0.128069  -0.164837
    10  C    0.117152   0.006174  -0.007783  -0.117059  -0.017109  -0.000789
    11  C   -0.028575   0.018170  -0.011768   0.021123   0.001109  -0.001940
    12  C   -0.002639  -0.001419  -0.000356   0.005678  -0.000860  -0.027695
    13  C   -0.008557  -0.000224  -0.000330   0.002779   0.000061   0.001791
    14  C    0.000827   0.000154  -0.000007  -0.000230  -0.000011  -0.001036
    15  C    0.000201  -0.000843   0.000441  -0.000686   0.000026   0.000983
    16  C    0.016183  -0.002818   0.003095  -0.013580  -0.000282   0.008863
    17  C    3.587477  -4.878964   3.716838  -7.583285   0.299243   0.021976
    18  C   -6.382016   4.374975  -5.295987   2.573101  -0.069677  -0.033718
    19  C   13.438953  -4.318930   4.516790  -4.925027  -0.023559  -0.002203
    20  C   -4.318930  10.892065  -4.553263   4.073879   0.009493   0.000747
    21  C    4.516790  -4.553263  12.927788  -5.214459  -0.022229   0.001508
    22  C   -4.925027   4.073879  -5.214459  18.483309   0.165533   0.018736
    23  O   -0.023559   0.009493  -0.022229   0.165533   9.497009   0.005349
    24  H   -0.002203   0.000747   0.001508   0.018736   0.005349   0.834792
    25  H   -0.001279   0.001389  -0.001632   0.008893   0.005770   0.023208
    26  H    0.002268  -0.003408   0.006067  -0.028925  -0.033111  -0.027165
    27  H    0.003412  -0.002736   0.000053   0.027416   0.006841  -0.011035
    28  H    0.015604   0.023446  -0.002079  -0.062260   0.041319   0.019453
    29  H    0.000645  -0.001666   0.000768  -0.007404  -0.005176  -0.034035
    30  H    0.000429  -0.001564   0.002628  -0.007667   0.000714   0.016166
    31  H   -0.005357   0.009149  -0.006576  -0.002919   0.000389   0.012395
    32  H   -0.008373   0.011260  -0.012049   0.045843  -0.004474   0.007838
    33  H    0.005162  -0.000822   0.000821  -0.002116  -0.000257   0.000397
    34  H   -0.000426  -0.000019  -0.000015   0.000112   0.000009   0.000812
    35  H    0.000021   0.000000   0.000001  -0.000006  -0.000000  -0.000053
    36  H   -0.000074  -0.000011  -0.000001   0.000035   0.000000  -0.000073
    37  H    0.000550  -0.000209   0.000023   0.000182   0.000021  -0.000701
    38  H    0.319765  -0.238217   0.161189  -0.285005   0.020370   0.002160
    39  H   -0.782070   0.419117  -0.286911   0.149607  -0.001531   0.000232
    40  H    0.438838  -0.764290   0.421662  -0.148708   0.000677   0.000069
    41  H   -0.299924   0.376711  -0.936499   0.654425  -0.000615   0.000107
    42  H    0.132947  -0.205036   0.474911  -1.278422  -0.033188  -0.004375
              25         26         27         28         29         30
     1  O   -0.002180  -0.005408  -0.003567   0.013092   0.002623   0.004308
     2  S    0.031389   0.065788   0.057338  -0.218948  -0.042877  -0.030351
     3  N    0.100700   0.084637   0.234602  -0.053434   0.056402  -0.089477
     4  C   -0.462436  -0.420212  -0.511767  -0.189855  -0.526845   0.081391
     5  C    0.224128   0.227406   0.217557  -0.113295  -0.135407  -0.041365
     6  S    0.120815  -0.187401   0.069108  -0.224023  -0.001248  -0.062260
     7  O   -0.001452   0.017682   0.009963   0.009819   0.013058   0.013611
     8  C    0.132614   0.119109   0.262045   0.281957   0.121119  -0.007276
     9  C   -0.028712   0.305856  -0.157057   0.249513   0.377086  -0.018969
    10  C    0.044752  -0.005979  -0.058692   0.046664  -0.198784  -0.036176
    11  C    0.012022  -0.016113   0.069944  -0.003607  -0.149306  -0.131805
    12  C   -0.000291  -0.000328  -0.003930   0.008537   0.128621   0.014736
    13  C    0.003605  -0.000049   0.003081  -0.002107  -0.016249  -0.027776
    14  C   -0.002506  -0.000297  -0.003503   0.000542   0.026124   0.017496
    15  C    0.000416   0.001635   0.016966  -0.002421  -0.046452  -0.002964
    16  C   -0.009125  -0.003257  -0.050684   0.003273   0.088255  -0.021488
    17  C   -0.004373  -0.025040  -0.026828  -0.047352   0.019509  -0.003633
    18  C    0.009028  -0.011514   0.017415  -0.002454  -0.009063  -0.003333
    19  C   -0.001279   0.002268   0.003412   0.015604   0.000645   0.000429
    20  C    0.001389  -0.003408  -0.002736   0.023446  -0.001666  -0.001564
    21  C   -0.001632   0.006067   0.000053  -0.002079   0.000768   0.002628
    22  C    0.008893  -0.028925   0.027416  -0.062260  -0.007404  -0.007667
    23  O    0.005770  -0.033111   0.006841   0.041319  -0.005176   0.000714
    24  H    0.023208  -0.027165  -0.011035   0.019453  -0.034035   0.016166
    25  H    1.488981  -0.330334  -0.007181   0.024196  -0.015938  -0.037062
    26  H   -0.330334   1.428716   0.032523  -0.013821   0.026955   0.024318
    27  H   -0.007181   0.032523   1.638605  -0.440926   0.032029  -0.063130
    28  H    0.024196  -0.013821  -0.440926   1.777979  -0.000508   0.033954
    29  H   -0.015938   0.026955   0.032029  -0.000508   1.884587  -0.382109
    30  H   -0.037062   0.024318  -0.063130   0.033954  -0.382109   1.887590
    31  H    0.004877  -0.007374  -0.086049   0.034835   0.072913  -0.102952
    32  H    0.008393   0.007348   0.029721  -0.013279  -0.094189   0.114019
    33  H    0.000263  -0.000577  -0.001282   0.001452  -0.008059   0.000989
    34  H    0.000086   0.000019  -0.000068  -0.000104  -0.004135   0.001468
    35  H   -0.000002  -0.000022  -0.000065   0.000019   0.000138  -0.000621
    36  H   -0.000098   0.000068   0.001952  -0.000218   0.000640  -0.001647
    37  H    0.000897  -0.000913  -0.003663   0.003505   0.011734  -0.018910
    38  H    0.000600  -0.002086  -0.007640   0.015142   0.003004  -0.002229
    39  H   -0.000054   0.000140  -0.001233   0.000599  -0.000133  -0.000190
    40  H    0.000048  -0.000076   0.000213  -0.000969  -0.000048  -0.000037
    41  H   -0.000101  -0.000002  -0.000689   0.002352   0.000034   0.000156
    42  H    0.000914  -0.001373   0.000875   0.002695   0.000686  -0.001168
              31         32         33         34         35         36
     1  O    0.000520  -0.007027   0.000825  -0.000009   0.000001   0.000002
     2  S   -0.022766   0.105750  -0.001303  -0.000032  -0.000003  -0.000011
     3  N   -0.122201  -0.059201  -0.014263   0.000459  -0.000109  -0.000212
     4  C    0.223277   0.038078   0.104596   0.000592   0.001353   0.000368
     5  C   -0.059149   0.077751  -0.006601   0.000711  -0.000422   0.001162
     6  S    0.002863   0.000588   0.000016   0.000023  -0.000029   0.000225
     7  O   -0.002451   0.003849  -0.000488   0.000041  -0.000047  -0.000104
     8  C   -0.025261  -0.053139   0.005425  -0.000331  -0.000199   0.000274
     9  C   -0.022410  -0.139937   0.029667  -0.004918  -0.002919   0.002269
    10  C   -0.177127  -0.554126  -0.175265   0.029881  -0.008936   0.016559
    11  C   -0.011080   0.252922   0.829059  -0.149743   0.100550  -0.139294
    12  C   -0.333060   0.352587  -1.273486   0.635027  -0.139851   0.130633
    13  C   -0.055651   0.051712   0.294507  -0.762290   0.375102  -0.241986
    14  C   -0.003179   0.009914  -0.134425   0.307787  -0.613258   0.313930
    15  C    0.138002  -0.104675   0.096833  -0.236666   0.378212  -0.740616
    16  C    0.306187  -0.395756  -0.016823   0.126478  -0.127330   0.607124
    17  C   -0.002659  -0.015788   0.007563  -0.000329   0.000065  -0.000190
    18  C   -0.002645  -0.041680  -0.007659   0.000509  -0.000078   0.000104
    19  C   -0.005357  -0.008373   0.005162  -0.000426   0.000021  -0.000074
    20  C    0.009149   0.011260  -0.000822  -0.000019   0.000000  -0.000011
    21  C   -0.006576  -0.012049   0.000821  -0.000015   0.000001  -0.000001
    22  C   -0.002919   0.045843  -0.002116   0.000112  -0.000006   0.000035
    23  O    0.000389  -0.004474  -0.000257   0.000009  -0.000000   0.000000
    24  H    0.012395   0.007838   0.000397   0.000812  -0.000053  -0.000073
    25  H    0.004877   0.008393   0.000263   0.000086  -0.000002  -0.000098
    26  H   -0.007374   0.007348  -0.000577   0.000019  -0.000022   0.000068
    27  H   -0.086049   0.029721  -0.001282  -0.000068  -0.000065   0.001952
    28  H    0.034835  -0.013279   0.001452  -0.000104   0.000019  -0.000218
    29  H    0.072913  -0.094189  -0.008059  -0.004135   0.000138   0.000640
    30  H   -0.102952   0.114019   0.000989   0.001468  -0.000621  -0.001647
    31  H    1.934855  -0.370078   0.017834   0.002334   0.000106  -0.002157
    32  H   -0.370078   2.241415  -0.063854  -0.001231   0.001245  -0.000266
    33  H    0.017834  -0.063854   2.078968  -0.084650  -0.017189   0.010373
    34  H    0.002334  -0.001231  -0.084650   1.670726  -0.050622  -0.019815
    35  H    0.000106   0.001245  -0.017189  -0.050622   1.610444  -0.052061
    36  H   -0.002157  -0.000266   0.010373  -0.019815  -0.052061   1.671159
    37  H   -0.036709   0.004164  -0.021628   0.009902  -0.016351  -0.091837
    38  H    0.000427  -0.068265   0.001372   0.000467  -0.000023   0.000063
    39  H   -0.000305   0.009552   0.000352  -0.000064   0.000003  -0.000012
    40  H    0.000259   0.000403  -0.000038   0.000002   0.000000  -0.000000
    41  H   -0.000329  -0.000441   0.000012  -0.000000   0.000000   0.000000
    42  H    0.000256  -0.001850  -0.000020   0.000004   0.000000  -0.000000
              37         38         39         40         41         42
     1  O   -0.000084   0.073480  -0.001178  -0.000359   0.001240   0.000167
     2  S    0.001824  -0.333149   0.040109   0.005767  -0.014793  -0.050614
     3  N    0.005220  -0.156975  -0.009659   0.001479   0.001779  -0.028140
     4  C    0.021036   0.256249  -0.002239  -0.000490   0.002051   0.072322
     5  C   -0.002724  -0.014406  -0.000084   0.000695  -0.001772  -0.005815
     6  S   -0.002021   0.002908  -0.000663   0.000295  -0.000335   0.002925
     7  O    0.002024  -0.001133   0.000087  -0.000027   0.000062  -0.000534
     8  C    0.014270  -0.007062  -0.004156  -0.000053  -0.001026  -0.016986
     9  C    0.089221  -0.067136   0.000571  -0.001293   0.001743  -0.006364
    10  C   -0.253657   0.009666   0.009810  -0.002892   0.000820  -0.000558
    11  C    0.711397   0.060931  -0.001246   0.000724  -0.000452   0.002230
    12  C   -0.062739  -0.028232   0.001087  -0.000021  -0.000026   0.000554
    13  C    0.107450   0.004921  -0.000351   0.000024  -0.000013   0.000206
    14  C   -0.135124  -0.001235  -0.000017   0.000005  -0.000000  -0.000002
    15  C    0.380693   0.002127   0.000094  -0.000048   0.000023  -0.000158
    16  C   -1.169270   0.005792   0.000256  -0.000131   0.000111  -0.000881
    17  C    0.002806   0.978552  -0.180391   0.114160  -0.078802   0.697919
    18  C   -0.001714  -1.429307   0.554600  -0.138134   0.173102  -0.141647
    19  C    0.000550   0.319765  -0.782070   0.438838  -0.299924   0.132947
    20  C   -0.000209  -0.238217   0.419117  -0.764290   0.376711  -0.205036
    21  C    0.000023   0.161189  -0.286911   0.421662  -0.936499   0.474911
    22  C    0.000182  -0.285005   0.149607  -0.148708   0.654425  -1.278422
    23  O    0.000021   0.020370  -0.001531   0.000677  -0.000615  -0.033188
    24  H   -0.000701   0.002160   0.000232   0.000069   0.000107  -0.004375
    25  H    0.000897   0.000600  -0.000054   0.000048  -0.000101   0.000914
    26  H   -0.000913  -0.002086   0.000140  -0.000076  -0.000002  -0.001373
    27  H   -0.003663  -0.007640  -0.001233   0.000213  -0.000689   0.000875
    28  H    0.003505   0.015142   0.000599  -0.000969   0.002352   0.002695
    29  H    0.011734   0.003004  -0.000133  -0.000048   0.000034   0.000686
    30  H   -0.018910  -0.002229  -0.000190  -0.000037   0.000156  -0.001168
    31  H   -0.036709   0.000427  -0.000305   0.000259  -0.000329   0.000256
    32  H    0.004164  -0.068265   0.009552   0.000403  -0.000441  -0.001850
    33  H   -0.021628   0.001372   0.000352  -0.000038   0.000012  -0.000020
    34  H    0.009902   0.000467  -0.000064   0.000002  -0.000000   0.000004
    35  H   -0.016351  -0.000023   0.000003   0.000000   0.000000   0.000000
    36  H   -0.091837   0.000063  -0.000012  -0.000000   0.000000  -0.000000
    37  H    2.132461   0.001011   0.000193  -0.000004  -0.000001   0.000079
    38  H    0.001011   2.571480  -0.141682  -0.016578   0.015689  -0.025247
    39  H    0.000193  -0.141682   1.803317  -0.061158  -0.024535   0.011582
    40  H   -0.000004  -0.016578  -0.061158   1.680302  -0.062891  -0.014370
    41  H   -0.000001   0.015689  -0.024535  -0.062891   1.746967  -0.091570
    42  H    0.000079  -0.025247   0.011582  -0.014370  -0.091570   2.135716
 Mulliken charges:
               1
     1  O   -1.188371
     2  S    2.891076
     3  N   -1.144402
     4  C    0.712658
     5  C    0.389977
     6  S    1.509835
     7  O   -1.250091
     8  C    0.198008
     9  C    0.028081
    10  C    0.812136
    11  C    1.181360
    12  C    0.560617
    13  C   -0.005716
    14  C    0.664902
    15  C    0.023958
    16  C    0.517524
    17  C    0.625854
    18  C    0.573117
    19  C    0.215066
    20  C    0.758200
    21  C    0.390377
    22  C    0.355900
    23  O   -1.267026
    24  H   -0.064179
    25  H   -0.343232
    26  H   -0.225750
    27  H   -0.289931
    28  H   -0.218288
    29  H   -0.187302
    30  H   -0.117814
    31  H   -0.301031
    32  H   -0.364673
    33  H   -0.655684
    34  H   -0.471981
    35  H   -0.437066
    36  H   -0.466258
    37  H   -0.682403
    38  H   -0.681760
    39  H   -0.501446
    40  H   -0.453007
    41  H   -0.462568
    42  H   -0.628667
 Sum of Mulliken charges =  -0.00000
 Mulliken charges with hydrogens summed into heavy atoms:
               1
     1  O   -1.188371
     2  S    2.891076
     3  N   -1.208581
     4  C    0.712658
     5  C   -0.179005
     6  S    1.509835
     7  O   -1.250091
     8  C   -0.310211
     9  C   -0.277035
    10  C    0.146432
    11  C    1.181360
    12  C   -0.095066
    13  C   -0.477698
    14  C    0.227836
    15  C   -0.442300
    16  C   -0.164879
    17  C    0.625854
    18  C   -0.108643
    19  C   -0.286380
    20  C    0.305193
    21  C   -0.072191
    22  C   -0.272767
    23  O   -1.267026
 Electronic spatial extent (au):  <R**2>=           9872.5557
 Charge=             -0.0000 electrons
 Dipole moment (field-independent basis, Debye):
    X=             -0.8304    Y=             -4.6851    Z=             -1.8312  Tot=              5.0984
 Quadrupole moment (field-independent basis, Debye-Ang):
   XX=           -151.0327   YY=           -160.9593   ZZ=           -155.5238
   XY=             -2.9811   XZ=             24.1171   YZ=             11.3592
 Traceless Quadrupole moment (field-independent basis, Debye-Ang):
   XX=              4.8059   YY=             -5.1207   ZZ=              0.3148
   XY=             -2.9811   XZ=             24.1171   YZ=             11.3592
 Octapole moment (field-independent basis, Debye-Ang**2):
  XXX=              4.8788  YYY=            -50.3244  ZZZ=            -14.2315  XYY=            -59.2733
  XXY=            -38.5980  XXZ=            -75.5009  XZZ=             11.5362  YZZ=             -3.1011
  YYZ=             33.0305  XYZ=            -20.2682
 Hexadecapole moment (field-independent basis, Debye-Ang**3):
 XXXX=          -8318.9285 YYYY=          -3354.7045 ZZZZ=          -1482.0402 XXXY=            -93.3901
 XXXZ=            204.7801 YYYX=             -5.6974 YYYZ=            170.6411 ZZZX=             91.9355
 ZZZY=             28.5479 XXYY=          -2133.2541 XXZZ=          -1710.9856 YYZZ=           -779.7688
 XXYZ=             10.6054 YYXZ=            169.7544 ZZXY=              5.9382
 N-N= 2.260239427477D+03 E-N=-8.592935047012D+03  KE= 1.727309266316D+03
 Leave Link  601 at Mon Sep 21 22:09:55 2020, MaxMem=   262144000 cpu:               2.7 elap:               0.9
 (Enter /prod/apps/gaussian/g16b1/l9999.exe)
 1\1\GINC-PIRINEUS20\SP\RMP2-FC\Aug-CC-pVDZ\C17H19N1O3S2\UBAFAR01\21-Se
 p-2020\0\\#p mp2/aug-cc-pVDZ scf=(MaxCycle=2000,NoVarAcc,NoIncFock) ma
 xdisk=120GB geom=allcheck\\SM36_m0.n.7.pdb.xyz\\0,1\O,0,-2.5911891366,
 -0.5284605556,2.6661435871\S,0,-2.3508245162,0.1063939325,1.3586281912
 \N,0,-0.6867071084,0.1529750702,1.2028339554\C,0,0.0393911578,1.153125
 433,0.403806446\C,0,-0.1294297581,2.6478197776,0.790244223\S,0,-0.1183
 955621,3.1750741221,-1.0024581172\O,0,1.3150838977,3.4440497033,-1.454
 3172105\C,0,-0.4591578269,1.3375992874,-1.0496867235\C,0,1.5301486266,
 0.7671319616,0.4443049847\C,0,1.8446544266,-0.6330073978,-0.1066354878
 \C,0,3.3244869655,-0.9414406944,-0.063435878\C,0,3.8722154226,-1.66707
 23361,1.0025187028\C,0,5.2419342777,-1.9321630537,1.0633214966\C,0,6.0
 888930599,-1.4732119175,0.0526513125\C,0,5.555936507,-0.7497251872,-1.
 0169111921\C,0,4.1858289215,-0.4871793183,-1.0731275811\C,0,-2.8860926
 62,-1.0042379018,0.0655900646\C,0,-2.2846077773,-2.2587801705,-0.06327
 33094\C,0,-2.7676246645,-3.1357785904,-1.031605924\C,0,-3.8371974933,-
 2.7609518113,-1.8491381141\C,0,-4.4314190894,-1.5067058149,-1.70470500
 97\C,0,-3.9577968941,-0.6175835141,-0.7384439521\O,0,-2.9618958586,1.4
 199802434,1.0823920735\H,0,-0.2688455088,-0.0168546543,2.1192877744\H,
 0,0.6650831489,3.1080160658,1.3793177192\H,0,-1.1139285504,2.876823553
 6,1.1980707058\H,0,0.083330405,0.8157069285,-1.8380240331\H,0,-1.53360
 51186,1.2103069454,-1.1790294188\H,0,1.8769992391,0.8431920296,1.48217
 67711\H,0,2.070775131,1.5282704087,-0.1268250377\H,0,1.4834428042,-0.7
 035227047,-1.1386523391\H,0,1.2930929005,-1.3773439353,0.4741946068\H,
 0,3.2161359181,-2.0307896194,1.7884414349\H,0,5.6451397703,-2.49946201
 43,1.8962410411\H,0,7.1533118218,-1.6801748117,0.0954094675\H,0,6.2061
 900951,-0.3933981846,-1.8097749553\H,0,3.7785867394,0.0723820814,-1.91
 10196355\H,0,-1.451486675,-2.5382671107,0.57062945\H,0,-2.3081163804,-
 4.1105801035,-1.1496907825\H,0,-4.2055966186,-3.4495026642,-2.60149821
 33\H,0,-5.2606037564,-1.2173464846,-2.3406543191\H,0,-4.3991402803,0.3
 626930068,-0.6092967741\\Version=ES64L-G16RevB.01\State=1-A\HF=-1728.8
 699242\MP2=-1732.3120407\RMSD=9.571e-09\PG=C01 [X(C17H19N1O3S2)]\\@


 THE LENGTH OF A MEETING IS PROPORTIONAL TO THE
 SQUARE OF THE PARTICIPANTS.
 Job cpu time:       0 days 10 hours 11 minutes 13.8 seconds.
 Elapsed time:       0 days  3 hours  3 minutes 39.6 seconds.
 File lengths (MBytes):  RWF= 109364 Int=      0 D2E=      0 Chk=     42 Scr=      1
 Normal termination of Gaussian 16 at Mon Sep 21 22:10:07 2020.
