 Entering Gaussian System, Link 0=g16
 Initial command:
 /prod/apps/gaussian/g16b1/l1.exe "/tmp/ubafar01/1460278/Gau-40645.inp" -scrdir="/tmp/ubafar01/1460278/"
 Entering Link 1 = /prod/apps/gaussian/g16b1/l1.exe PID=     40648.
  
 Copyright (c) 1988-2017, Gaussian, Inc.  All Rights Reserved.
  
 This is part of the Gaussian(R) 16 program.  It is based on
 the Gaussian(R) 09 system (copyright 2009, Gaussian, Inc.),
 the Gaussian(R) 03 system (copyright 2003, Gaussian, Inc.),
 the Gaussian(R) 98 system (copyright 1998, Gaussian, Inc.),
 the Gaussian(R) 94 system (copyright 1995, Gaussian, Inc.),
 the Gaussian 92(TM) system (copyright 1992, Gaussian, Inc.),
 the Gaussian 90(TM) system (copyright 1990, Gaussian, Inc.),
 the Gaussian 88(TM) system (copyright 1988, Gaussian, Inc.),
 the Gaussian 86(TM) system (copyright 1986, Carnegie Mellon
 University), and the Gaussian 82(TM) system (copyright 1983,
 Carnegie Mellon University). Gaussian is a federally registered
 trademark of Gaussian, Inc.
  
 This software contains proprietary and confidential information,
 including trade secrets, belonging to Gaussian, Inc.
  
 This software is provided under written license and may be
 used, copied, transmitted, or stored only in accord with that
 written license.
  
 The following legend is applicable only to US Government
 contracts under FAR:
  
                    RESTRICTED RIGHTS LEGEND
  
 Use, reproduction and disclosure by the US Government is
 subject to restrictions as set forth in subparagraphs (a)
 and (c) of the Commercial Computer Software - Restricted
 Rights clause in FAR 52.227-19.
  
 Gaussian, Inc.
 340 Quinnipiac St., Bldg. 40, Wallingford CT 06492
  
  
 ---------------------------------------------------------------
 Warning -- This program may not be used in any manner that
 competes with the business of Gaussian, Inc. or will provide
 assistance to any competitor of Gaussian, Inc.  The licensee
 of this program is prohibited from giving any competitor of
 Gaussian, Inc. access to this program.  By using this program,
 the user acknowledges that Gaussian, Inc. is engaged in the
 business of creating and licensing software in the field of
 computational chemistry and represents and warrants to the
 licensee that it is not a competitor of Gaussian, Inc. and that
 it will not use this program in any manner prohibited above.
 ---------------------------------------------------------------
  

 Cite this work as:
 Gaussian 16, Revision B.01,
 M. J. Frisch, G. W. Trucks, H. B. Schlegel, G. E. Scuseria, 
 M. A. Robb, J. R. Cheeseman, G. Scalmani, V. Barone, 
 G. A. Petersson, H. Nakatsuji, X. Li, M. Caricato, A. V. Marenich, 
 J. Bloino, B. G. Janesko, R. Gomperts, B. Mennucci, H. P. Hratchian, 
 J. V. Ortiz, A. F. Izmaylov, J. L. Sonnenberg, D. Williams-Young, 
 F. Ding, F. Lipparini, F. Egidi, J. Goings, B. Peng, A. Petrone, 
 T. Henderson, D. Ranasinghe, V. G. Zakrzewski, J. Gao, N. Rega, 
 G. Zheng, W. Liang, M. Hada, M. Ehara, K. Toyota, R. Fukuda, 
 J. Hasegawa, M. Ishida, T. Nakajima, Y. Honda, O. Kitao, H. Nakai, 
 T. Vreven, K. Throssell, J. A. Montgomery, Jr., J. E. Peralta, 
 F. Ogliaro, M. J. Bearpark, J. J. Heyd, E. N. Brothers, K. N. Kudin, 
 V. N. Staroverov, T. A. Keith, R. Kobayashi, J. Normand, 
 K. Raghavachari, A. P. Rendell, J. C. Burant, S. S. Iyengar, 
 J. Tomasi, M. Cossi, J. M. Millam, M. Klene, C. Adamo, R. Cammi, 
 J. W. Ochterski, R. L. Martin, K. Morokuma, O. Farkas, 
 J. B. Foresman, and D. J. Fox, Gaussian, Inc., Wallingford CT, 2016.
 
 ******************************************
 Gaussian 16:  ES64L-G16RevB.01 20-Dec-2017
                21-Sep-2020 
 ******************************************
 %nproc=4
 Will use up to    4 processors via shared memory.
 %Chk=SM36_m0.n.15.pdb.xyz.mst.n.w.chk
 %mem=16GB
 ----------------------------------------------------------------------
 #p b3lyp/6-31G(d) opt freq NoSymm scf=(MaxCycle=2000,NoVarAcc,NoIncFoc
 k) scrf=(iefpcm,read,solvent=water)
 ----------------------------------------------------------------------
 1/18=20,19=15,26=3,38=1,40=2/1,3;
 2/9=110,12=2,15=1,17=6,18=5,40=1/2;
 3/5=1,6=6,7=1,11=2,25=1,30=1,70=2203,71=1,72=1,74=-5/1,2,3;
 4//1;
 5/5=100002,7=2000,38=1,53=1/2;
 6/7=2,8=2,9=2,10=2,28=1/1;
 7/30=1/1,2,3,16;
 1/18=20,19=15,26=3/3(2);
 2/9=110,15=1/2;
 99//99;
 2/9=110,15=1/2;
 3/5=1,6=6,7=1,11=2,25=1,30=1,70=2205,71=1,72=1,74=-5/1,2,3;
 4/5=5,16=3,69=1/1;
 5/5=100002,7=2000,38=1,53=1/2;
 7/30=1/1,2,3,16;
 1/18=20,19=15,26=3/3(-5);
 2/9=110,15=1/2;
 6/7=2,8=2,9=2,10=2,19=2,28=1/1;
 99/9=1/99;
 Leave Link    1 at Mon Sep 21 18:30:30 2020, MaxMem=  2147483648 cpu:               0.1 elap:               0.0
 (Enter /prod/apps/gaussian/g16b1/l101.exe)
 --------------------
 SM36_m0.n.15.pdb.xyz
 --------------------
 Symbolic Z-matrix:
 Charge =  0 Multiplicity = 1
 O                    -1.846    -2.482    -1.668 
 S                    -1.611    -1.517    -0.579 
 N                    -0.904    -0.185    -1.317 
 C                     0.077     0.674    -0.609 
 C                    -0.497     1.249     0.715 
 S                    -0.411     3.02      0.123 
 O                     0.771     3.739     0.764 
 C                     0.158     2.032    -1.356 
 C                     1.438    -0.038    -0.475 
 C                     2.558     0.766     0.213 
 C                     3.853    -0.015     0.261 
 C                     4.784     0.079    -0.781 
 C                     5.967    -0.662    -0.756 
 C                     6.239    -1.511     0.319 
 C                     5.32     -1.612     1.366 
 C                     4.138    -0.87      1.335 
 C                    -3.19     -0.904    -0.003 
 C                    -4.024    -0.206    -0.88 
 C                    -5.279     0.197    -0.433 
 C                    -5.691    -0.1       0.869 
 C                    -4.849    -0.803     1.731 
 C                    -3.588    -1.214     1.297 
 O                    -0.856    -1.95      0.61 
 H                    -0.579    -0.469    -2.242 
 H                     0.127     1.11      1.597 
 H                    -1.528     0.978     0.939 
 H                     1.157     2.344    -1.663 
 H                    -0.545     2.138    -2.183 
 H                     1.763    -0.313    -1.485 
 H                     1.27     -0.968     0.074 
 H                     2.252     1.025     1.232 
 H                     2.722     1.71     -0.315 
 H                     4.581     0.742    -1.618 
 H                     6.678    -0.572    -1.572 
 H                     7.159    -2.086     0.342 
 H                     5.525    -2.266     2.208 
 H                     3.43     -0.949     2.156 
 H                    -3.692     0.028    -1.885 
 H                    -5.935     0.746    -1.1 
 H                    -6.67      0.218     1.21 
 H                    -5.17     -1.031     2.741 
 H                    -2.916    -1.756     1.951 
 
 ITRead=  0  0  0  0  0  0  0  0  0  0  0  0  0  0  0  0  0  0  0  0
 ITRead=  0  0  0  0  0  0  0  0  0  0  0  0  0  0  0  0  0  0  0  0
 ITRead=  0  0
 MicOpt= -1 -1 -1 -1 -1 -1 -1 -1 -1 -1 -1 -1 -1 -1 -1 -1 -1 -1 -1 -1
 MicOpt= -1 -1 -1 -1 -1 -1 -1 -1 -1 -1 -1 -1 -1 -1 -1 -1 -1 -1 -1 -1
 MicOpt= -1 -1
 NAtoms=     42 NQM=       42 NQMF=       0 NMMI=      0 NMMIF=      0
                NMic=       0 NMicF=      0.
                    Isotopes and Nuclear Properties:
 (Nuclear quadrupole moments (NQMom) in fm**2, nuclear magnetic moments (NMagM)
  in nuclear magnetons)

  Atom         1           2           3           4           5           6           7           8           9          10
 IAtWgt=          16          32          14          12          12          32          16          12          12          12
 AtmWgt=  15.9949146  31.9720718  14.0030740  12.0000000  12.0000000  31.9720718  15.9949146  12.0000000  12.0000000  12.0000000
 NucSpn=           0           0           2           0           0           0           0           0           0           0
 AtZEff=  -0.0000000  -0.0000000  -0.0000000  -0.0000000  -0.0000000  -0.0000000  -0.0000000  -0.0000000  -0.0000000  -0.0000000
 NQMom=    0.0000000   0.0000000   2.0440000   0.0000000   0.0000000   0.0000000   0.0000000   0.0000000   0.0000000   0.0000000
 NMagM=    0.0000000   0.0000000   0.4037610   0.0000000   0.0000000   0.0000000   0.0000000   0.0000000   0.0000000   0.0000000
 AtZNuc=   8.0000000  16.0000000   7.0000000   6.0000000   6.0000000  16.0000000   8.0000000   6.0000000   6.0000000   6.0000000

  Atom        11          12          13          14          15          16          17          18          19          20
 IAtWgt=          12          12          12          12          12          12          12          12          12          12
 AtmWgt=  12.0000000  12.0000000  12.0000000  12.0000000  12.0000000  12.0000000  12.0000000  12.0000000  12.0000000  12.0000000
 NucSpn=           0           0           0           0           0           0           0           0           0           0
 AtZEff=  -0.0000000  -0.0000000  -0.0000000  -0.0000000  -0.0000000  -0.0000000  -0.0000000  -0.0000000  -0.0000000  -0.0000000
 NQMom=    0.0000000   0.0000000   0.0000000   0.0000000   0.0000000   0.0000000   0.0000000   0.0000000   0.0000000   0.0000000
 NMagM=    0.0000000   0.0000000   0.0000000   0.0000000   0.0000000   0.0000000   0.0000000   0.0000000   0.0000000   0.0000000
 AtZNuc=   6.0000000   6.0000000   6.0000000   6.0000000   6.0000000   6.0000000   6.0000000   6.0000000   6.0000000   6.0000000

  Atom        21          22          23          24          25          26          27          28          29          30
 IAtWgt=          12          12          16           1           1           1           1           1           1           1
 AtmWgt=  12.0000000  12.0000000  15.9949146   1.0078250   1.0078250   1.0078250   1.0078250   1.0078250   1.0078250   1.0078250
 NucSpn=           0           0           0           1           1           1           1           1           1           1
 AtZEff=  -0.0000000  -0.0000000  -0.0000000  -0.0000000  -0.0000000  -0.0000000  -0.0000000  -0.0000000  -0.0000000  -0.0000000
 NQMom=    0.0000000   0.0000000   0.0000000   0.0000000   0.0000000   0.0000000   0.0000000   0.0000000   0.0000000   0.0000000
 NMagM=    0.0000000   0.0000000   0.0000000   2.7928460   2.7928460   2.7928460   2.7928460   2.7928460   2.7928460   2.7928460
 AtZNuc=   6.0000000   6.0000000   8.0000000   1.0000000   1.0000000   1.0000000   1.0000000   1.0000000   1.0000000   1.0000000

  Atom        31          32          33          34          35          36          37          38          39          40
 IAtWgt=           1           1           1           1           1           1           1           1           1           1
 AtmWgt=   1.0078250   1.0078250   1.0078250   1.0078250   1.0078250   1.0078250   1.0078250   1.0078250   1.0078250   1.0078250
 NucSpn=           1           1           1           1           1           1           1           1           1           1
 AtZEff=  -0.0000000  -0.0000000  -0.0000000  -0.0000000  -0.0000000  -0.0000000  -0.0000000  -0.0000000  -0.0000000  -0.0000000
 NQMom=    0.0000000   0.0000000   0.0000000   0.0000000   0.0000000   0.0000000   0.0000000   0.0000000   0.0000000   0.0000000
 NMagM=    2.7928460   2.7928460   2.7928460   2.7928460   2.7928460   2.7928460   2.7928460   2.7928460   2.7928460   2.7928460
 AtZNuc=   1.0000000   1.0000000   1.0000000   1.0000000   1.0000000   1.0000000   1.0000000   1.0000000   1.0000000   1.0000000

  Atom        41          42
 IAtWgt=           1           1
 AtmWgt=   1.0078250   1.0078250
 NucSpn=           1           1
 AtZEff=  -0.0000000  -0.0000000
 NQMom=    0.0000000   0.0000000
 NMagM=    2.7928460   2.7928460
 AtZNuc=   1.0000000   1.0000000
 Leave Link  101 at Mon Sep 21 18:30:31 2020, MaxMem=  2147483648 cpu:               1.3 elap:               0.3
 (Enter /prod/apps/gaussian/g16b1/l103.exe)

 GradGradGradGradGradGradGradGradGradGradGradGradGradGradGradGradGradGrad
 Berny optimization.
 Initialization pass.
                           ----------------------------
                           !    Initial Parameters    !
                           ! (Angstroms and Degrees)  !
 --------------------------                            --------------------------
 ! Name  Definition              Value          Derivative Info.                !
 --------------------------------------------------------------------------------
 ! R1    R(1,2)                  1.4739         estimate D2E/DX2                !
 ! R2    R(2,3)                  1.6789         estimate D2E/DX2                !
 ! R3    R(2,17)                 1.7891         estimate D2E/DX2                !
 ! R4    R(2,23)                 1.4735         estimate D2E/DX2                !
 ! R5    R(3,4)                  1.4837         estimate D2E/DX2                !
 ! R6    R(3,24)                 1.0207         estimate D2E/DX2                !
 ! R7    R(4,5)                  1.5534         estimate D2E/DX2                !
 ! R8    R(4,8)                  1.552          estimate D2E/DX2                !
 ! R9    R(4,9)                  1.5418         estimate D2E/DX2                !
 ! R10   R(5,6)                  1.8693         estimate D2E/DX2                !
 ! R11   R(5,25)                 1.0893         estimate D2E/DX2                !
 ! R12   R(5,26)                 1.0893         estimate D2E/DX2                !
 ! R13   R(6,7)                  1.5248         estimate D2E/DX2                !
 ! R14   R(6,8)                  1.8674         estimate D2E/DX2                !
 ! R15   R(8,27)                 1.0907         estimate D2E/DX2                !
 ! R16   R(8,28)                 1.0906         estimate D2E/DX2                !
 ! R17   R(9,10)                 1.5408         estimate D2E/DX2                !
 ! R18   R(9,29)                 1.0961         estimate D2E/DX2                !
 ! R19   R(9,30)                 1.0929         estimate D2E/DX2                !
 ! R20   R(10,11)                1.513          estimate D2E/DX2                !
 ! R21   R(10,31)                1.095          estimate D2E/DX2                !
 ! R22   R(10,32)                1.094          estimate D2E/DX2                !
 ! R23   R(11,12)                1.4005         estimate D2E/DX2                !
 ! R24   R(11,16)                1.402          estimate D2E/DX2                !
 ! R25   R(12,13)                1.3961         estimate D2E/DX2                !
 ! R26   R(12,33)                1.0869         estimate D2E/DX2                !
 ! R27   R(13,14)                1.3966         estimate D2E/DX2                !
 ! R28   R(13,34)                1.086          estimate D2E/DX2                !
 ! R29   R(14,15)                1.3968         estimate D2E/DX2                !
 ! R30   R(14,35)                1.0852         estimate D2E/DX2                !
 ! R31   R(15,16)                1.3959         estimate D2E/DX2                !
 ! R32   R(15,36)                1.0857         estimate D2E/DX2                !
 ! R33   R(16,37)                1.087          estimate D2E/DX2                !
 ! R34   R(17,18)                1.3971         estimate D2E/DX2                !
 ! R35   R(17,22)                1.3945         estimate D2E/DX2                !
 ! R36   R(18,19)                1.3918         estimate D2E/DX2                !
 ! R37   R(18,38)                1.084          estimate D2E/DX2                !
 ! R38   R(19,20)                1.3976         estimate D2E/DX2                !
 ! R39   R(19,39)                1.0847         estimate D2E/DX2                !
 ! R40   R(20,21)                1.3951         estimate D2E/DX2                !
 ! R41   R(20,40)                1.0844         estimate D2E/DX2                !
 ! R42   R(21,22)                1.3955         estimate D2E/DX2                !
 ! R43   R(21,41)                1.084          estimate D2E/DX2                !
 ! R44   R(22,42)                1.0831         estimate D2E/DX2                !
 ! A1    A(1,2,3)              105.1772         estimate D2E/DX2                !
 ! A2    A(1,2,17)             108.7531         estimate D2E/DX2                !
 ! A3    A(1,2,23)             119.045          estimate D2E/DX2                !
 ! A4    A(3,2,17)             103.966          estimate D2E/DX2                !
 ! A5    A(3,2,23)             111.8432         estimate D2E/DX2                !
 ! A6    A(17,2,23)            107.0444         estimate D2E/DX2                !
 ! A7    A(2,3,4)              121.8695         estimate D2E/DX2                !
 ! A8    A(2,3,24)             108.1607         estimate D2E/DX2                !
 ! A9    A(4,3,24)             112.5184         estimate D2E/DX2                !
 ! A10   A(3,4,5)              112.1289         estimate D2E/DX2                !
 ! A11   A(3,4,8)              108.1441         estimate D2E/DX2                !
 ! A12   A(3,4,9)              110.9618         estimate D2E/DX2                !
 ! A13   A(5,4,8)               96.0637         estimate D2E/DX2                !
 ! A14   A(5,4,9)              115.0262         estimate D2E/DX2                !
 ! A15   A(8,4,9)              113.5673         estimate D2E/DX2                !
 ! A16   A(4,5,6)               93.6558         estimate D2E/DX2                !
 ! A17   A(4,5,25)             115.544          estimate D2E/DX2                !
 ! A18   A(4,5,26)             115.6526         estimate D2E/DX2                !
 ! A19   A(6,5,25)             110.546          estimate D2E/DX2                !
 ! A20   A(6,5,26)             110.1432         estimate D2E/DX2                !
 ! A21   A(25,5,26)            110.1165         estimate D2E/DX2                !
 ! A22   A(5,6,7)              110.4429         estimate D2E/DX2                !
 ! A23   A(5,6,8)               76.3256         estimate D2E/DX2                !
 ! A24   A(7,6,8)              110.2565         estimate D2E/DX2                !
 ! A25   A(4,8,6)               93.7747         estimate D2E/DX2                !
 ! A26   A(4,8,27)             115.695          estimate D2E/DX2                !
 ! A27   A(4,8,28)             114.6066         estimate D2E/DX2                !
 ! A28   A(6,8,27)             110.5279         estimate D2E/DX2                !
 ! A29   A(6,8,28)             110.6552         estimate D2E/DX2                !
 ! A30   A(27,8,28)            110.4368         estimate D2E/DX2                !
 ! A31   A(4,9,10)             116.0706         estimate D2E/DX2                !
 ! A32   A(4,9,29)             107.3086         estimate D2E/DX2                !
 ! A33   A(4,9,30)             107.5125         estimate D2E/DX2                !
 ! A34   A(10,9,29)            109.077          estimate D2E/DX2                !
 ! A35   A(10,9,30)            109.3565         estimate D2E/DX2                !
 ! A36   A(29,9,30)            107.155          estimate D2E/DX2                !
 ! A37   A(9,10,11)            111.528          estimate D2E/DX2                !
 ! A38   A(9,10,31)            109.6216         estimate D2E/DX2                !
 ! A39   A(9,10,32)            110.1036         estimate D2E/DX2                !
 ! A40   A(11,10,31)           109.3746         estimate D2E/DX2                !
 ! A41   A(11,10,32)           109.4153         estimate D2E/DX2                !
 ! A42   A(31,10,32)           106.6739         estimate D2E/DX2                !
 ! A43   A(10,11,12)           120.7119         estimate D2E/DX2                !
 ! A44   A(10,11,16)           120.868          estimate D2E/DX2                !
 ! A45   A(12,11,16)           118.4078         estimate D2E/DX2                !
 ! A46   A(11,12,13)           120.9532         estimate D2E/DX2                !
 ! A47   A(11,12,33)           119.3238         estimate D2E/DX2                !
 ! A48   A(13,12,33)           119.7226         estimate D2E/DX2                !
 ! A49   A(12,13,14)           120.0971         estimate D2E/DX2                !
 ! A50   A(12,13,34)           119.8211         estimate D2E/DX2                !
 ! A51   A(14,13,34)           120.0809         estimate D2E/DX2                !
 ! A52   A(13,14,15)           119.525          estimate D2E/DX2                !
 ! A53   A(13,14,35)           120.2358         estimate D2E/DX2                !
 ! A54   A(15,14,35)           120.239          estimate D2E/DX2                !
 ! A55   A(14,15,16)           120.1343         estimate D2E/DX2                !
 ! A56   A(14,15,36)           120.044          estimate D2E/DX2                !
 ! A57   A(16,15,36)           119.8215         estimate D2E/DX2                !
 ! A58   A(11,16,15)           120.8825         estimate D2E/DX2                !
 ! A59   A(11,16,37)           119.3732         estimate D2E/DX2                !
 ! A60   A(15,16,37)           119.7431         estimate D2E/DX2                !
 ! A61   A(2,17,18)            119.7317         estimate D2E/DX2                !
 ! A62   A(2,17,22)            118.4165         estimate D2E/DX2                !
 ! A63   A(18,17,22)           121.7286         estimate D2E/DX2                !
 ! A64   A(17,18,19)           118.7714         estimate D2E/DX2                !
 ! A65   A(17,18,38)           120.4649         estimate D2E/DX2                !
 ! A66   A(19,18,38)           120.7584         estimate D2E/DX2                !
 ! A67   A(18,19,20)           120.2306         estimate D2E/DX2                !
 ! A68   A(18,19,39)           119.6279         estimate D2E/DX2                !
 ! A69   A(20,19,39)           120.1413         estimate D2E/DX2                !
 ! A70   A(19,20,21)           120.3184         estimate D2E/DX2                !
 ! A71   A(19,20,40)           119.7887         estimate D2E/DX2                !
 ! A72   A(21,20,40)           119.8928         estimate D2E/DX2                !
 ! A73   A(20,21,22)           120.1082         estimate D2E/DX2                !
 ! A74   A(20,21,41)           120.1959         estimate D2E/DX2                !
 ! A75   A(22,21,41)           119.6958         estimate D2E/DX2                !
 ! A76   A(17,22,21)           118.8403         estimate D2E/DX2                !
 ! A77   A(17,22,42)           119.8079         estimate D2E/DX2                !
 ! A78   A(21,22,42)           121.3489         estimate D2E/DX2                !
 ! D1    D(1,2,3,4)           -148.4927         estimate D2E/DX2                !
 ! D2    D(1,2,3,24)           -15.7632         estimate D2E/DX2                !
 ! D3    D(17,2,3,4)            97.2573         estimate D2E/DX2                !
 ! D4    D(17,2,3,24)         -130.0132         estimate D2E/DX2                !
 ! D5    D(23,2,3,4)           -17.8993         estimate D2E/DX2                !
 ! D6    D(23,2,3,24)          114.8302         estimate D2E/DX2                !
 ! D7    D(1,2,17,18)          -61.5818         estimate D2E/DX2                !
 ! D8    D(1,2,17,22)          114.4543         estimate D2E/DX2                !
 ! D9    D(3,2,17,18)           50.0931         estimate D2E/DX2                !
 ! D10   D(3,2,17,22)         -133.8707         estimate D2E/DX2                !
 ! D11   D(23,2,17,18)         168.5998         estimate D2E/DX2                !
 ! D12   D(23,2,17,22)         -15.3641         estimate D2E/DX2                !
 ! D13   D(2,3,4,5)            -56.3889         estimate D2E/DX2                !
 ! D14   D(2,3,4,8)           -161.0594         estimate D2E/DX2                !
 ! D15   D(2,3,4,9)             73.7634         estimate D2E/DX2                !
 ! D16   D(24,3,4,5)           172.6873         estimate D2E/DX2                !
 ! D17   D(24,3,4,8)            68.0169         estimate D2E/DX2                !
 ! D18   D(24,3,4,9)           -57.1604         estimate D2E/DX2                !
 ! D19   D(3,4,5,6)           -115.8981         estimate D2E/DX2                !
 ! D20   D(3,4,5,25)           129.2478         estimate D2E/DX2                !
 ! D21   D(3,4,5,26)            -1.4741         estimate D2E/DX2                !
 ! D22   D(8,4,5,6)             -3.4864         estimate D2E/DX2                !
 ! D23   D(8,4,5,25)          -118.3405         estimate D2E/DX2                !
 ! D24   D(8,4,5,26)           110.9376         estimate D2E/DX2                !
 ! D25   D(9,4,5,6)            116.0733         estimate D2E/DX2                !
 ! D26   D(9,4,5,25)             1.2192         estimate D2E/DX2                !
 ! D27   D(9,4,5,26)          -129.5028         estimate D2E/DX2                !
 ! D28   D(3,4,8,6)            119.1766         estimate D2E/DX2                !
 ! D29   D(3,4,8,27)          -125.8793         estimate D2E/DX2                !
 ! D30   D(3,4,8,28)             4.403          estimate D2E/DX2                !
 ! D31   D(5,4,8,6)              3.4903         estimate D2E/DX2                !
 ! D32   D(5,4,8,27)           118.4345         estimate D2E/DX2                !
 ! D33   D(5,4,8,28)          -111.2833         estimate D2E/DX2                !
 ! D34   D(9,4,8,6)           -117.2043         estimate D2E/DX2                !
 ! D35   D(9,4,8,27)            -2.2602         estimate D2E/DX2                !
 ! D36   D(9,4,8,28)           128.022          estimate D2E/DX2                !
 ! D37   D(3,4,9,10)           178.4951         estimate D2E/DX2                !
 ! D38   D(3,4,9,29)            56.247          estimate D2E/DX2                !
 ! D39   D(3,4,9,30)           -58.7326         estimate D2E/DX2                !
 ! D40   D(5,4,9,10)           -52.8932         estimate D2E/DX2                !
 ! D41   D(5,4,9,29)          -175.1413         estimate D2E/DX2                !
 ! D42   D(5,4,9,30)            69.8791         estimate D2E/DX2                !
 ! D43   D(8,4,9,10)            56.4264         estimate D2E/DX2                !
 ! D44   D(8,4,9,29)           -65.8217         estimate D2E/DX2                !
 ! D45   D(8,4,9,30)           179.1988         estimate D2E/DX2                !
 ! D46   D(4,5,6,7)           -103.8681         estimate D2E/DX2                !
 ! D47   D(4,5,6,8)              2.9648         estimate D2E/DX2                !
 ! D48   D(25,5,6,7)            15.1694         estimate D2E/DX2                !
 ! D49   D(25,5,6,8)           122.0023         estimate D2E/DX2                !
 ! D50   D(26,5,6,7)           137.087          estimate D2E/DX2                !
 ! D51   D(26,5,6,8)          -116.08           estimate D2E/DX2                !
 ! D52   D(5,6,8,4)             -2.9679         estimate D2E/DX2                !
 ! D53   D(5,6,8,27)          -122.2223         estimate D2E/DX2                !
 ! D54   D(5,6,8,28)           115.1202         estimate D2E/DX2                !
 ! D55   D(7,6,8,4)            104.0919         estimate D2E/DX2                !
 ! D56   D(7,6,8,27)           -15.1625         estimate D2E/DX2                !
 ! D57   D(7,6,8,28)          -137.82           estimate D2E/DX2                !
 ! D58   D(4,9,10,11)         -178.6838         estimate D2E/DX2                !
 ! D59   D(4,9,10,31)           60.0348         estimate D2E/DX2                !
 ! D60   D(4,9,10,32)          -57.0214         estimate D2E/DX2                !
 ! D61   D(29,9,10,11)         -57.3739         estimate D2E/DX2                !
 ! D62   D(29,9,10,31)        -178.6553         estimate D2E/DX2                !
 ! D63   D(29,9,10,32)          64.2885         estimate D2E/DX2                !
 ! D64   D(30,9,10,11)          59.5167         estimate D2E/DX2                !
 ! D65   D(30,9,10,31)         -61.7646         estimate D2E/DX2                !
 ! D66   D(30,9,10,32)        -178.8209         estimate D2E/DX2                !
 ! D67   D(9,10,11,12)          89.8997         estimate D2E/DX2                !
 ! D68   D(9,10,11,16)         -88.8031         estimate D2E/DX2                !
 ! D69   D(31,10,11,12)       -148.6754         estimate D2E/DX2                !
 ! D70   D(31,10,11,16)         32.6218         estimate D2E/DX2                !
 ! D71   D(32,10,11,12)        -32.1605         estimate D2E/DX2                !
 ! D72   D(32,10,11,16)        149.1367         estimate D2E/DX2                !
 ! D73   D(10,11,12,13)       -178.5709         estimate D2E/DX2                !
 ! D74   D(10,11,12,33)          1.6433         estimate D2E/DX2                !
 ! D75   D(16,11,12,13)          0.1632         estimate D2E/DX2                !
 ! D76   D(16,11,12,33)       -179.6226         estimate D2E/DX2                !
 ! D77   D(10,11,16,15)        178.6478         estimate D2E/DX2                !
 ! D78   D(10,11,16,37)         -1.7504         estimate D2E/DX2                !
 ! D79   D(12,11,16,15)         -0.0842         estimate D2E/DX2                !
 ! D80   D(12,11,16,37)        179.5176         estimate D2E/DX2                !
 ! D81   D(11,12,13,14)         -0.1194         estimate D2E/DX2                !
 ! D82   D(11,12,13,34)       -179.7582         estimate D2E/DX2                !
 ! D83   D(33,12,13,14)        179.6656         estimate D2E/DX2                !
 ! D84   D(33,12,13,34)          0.0268         estimate D2E/DX2                !
 ! D85   D(12,13,14,15)         -0.0068         estimate D2E/DX2                !
 ! D86   D(12,13,14,35)       -179.8386         estimate D2E/DX2                !
 ! D87   D(34,13,14,15)        179.6311         estimate D2E/DX2                !
 ! D88   D(34,13,14,35)         -0.2008         estimate D2E/DX2                !
 ! D89   D(13,14,15,16)          0.0849         estimate D2E/DX2                !
 ! D90   D(13,14,15,36)       -179.7234         estimate D2E/DX2                !
 ! D91   D(35,14,15,16)        179.9167         estimate D2E/DX2                !
 ! D92   D(35,14,15,36)          0.1084         estimate D2E/DX2                !
 ! D93   D(14,15,16,11)         -0.0388         estimate D2E/DX2                !
 ! D94   D(14,15,16,37)       -179.6391         estimate D2E/DX2                !
 ! D95   D(36,15,16,11)        179.7699         estimate D2E/DX2                !
 ! D96   D(36,15,16,37)          0.1696         estimate D2E/DX2                !
 ! D97   D(2,17,18,19)         176.4608         estimate D2E/DX2                !
 ! D98   D(2,17,18,38)          -4.371          estimate D2E/DX2                !
 ! D99   D(22,17,18,19)          0.5599         estimate D2E/DX2                !
 ! D100  D(22,17,18,38)        179.728          estimate D2E/DX2                !
 ! D101  D(2,17,22,21)        -176.5311         estimate D2E/DX2                !
 ! D102  D(2,17,22,42)           4.0847         estimate D2E/DX2                !
 ! D103  D(18,17,22,21)         -0.578          estimate D2E/DX2                !
 ! D104  D(18,17,22,42)       -179.9623         estimate D2E/DX2                !
 ! D105  D(17,18,19,20)         -0.246          estimate D2E/DX2                !
 ! D106  D(17,18,19,39)        179.5621         estimate D2E/DX2                !
 ! D107  D(38,18,19,20)       -179.4116         estimate D2E/DX2                !
 ! D108  D(38,18,19,39)          0.3965         estimate D2E/DX2                !
 ! D109  D(18,19,20,21)         -0.035          estimate D2E/DX2                !
 ! D110  D(18,19,20,40)        179.9597         estimate D2E/DX2                !
 ! D111  D(39,19,20,21)       -179.8421         estimate D2E/DX2                !
 ! D112  D(39,19,20,40)          0.1526         estimate D2E/DX2                !
 ! D113  D(19,20,21,22)          0.0168         estimate D2E/DX2                !
 ! D114  D(19,20,21,41)        179.9074         estimate D2E/DX2                !
 ! D115  D(40,20,21,22)       -179.9778         estimate D2E/DX2                !
 ! D116  D(40,20,21,41)         -0.0872         estimate D2E/DX2                !
 ! D117  D(20,21,22,17)          0.2823         estimate D2E/DX2                !
 ! D118  D(20,21,22,42)        179.6566         estimate D2E/DX2                !
 ! D119  D(41,21,22,17)       -179.6089         estimate D2E/DX2                !
 ! D120  D(41,21,22,42)         -0.2345         estimate D2E/DX2                !
 --------------------------------------------------------------------------------
 Trust Radius=3.00D-01 FncErr=1.00D-07 GrdErr=1.00D-06 EigMax=2.50D+02 EigMin=1.00D-04
 Number of steps in this run=    252 maximum allowed number of steps=    252.
 GradGradGradGradGradGradGradGradGradGradGradGradGradGradGradGradGradGrad

 Leave Link  103 at Mon Sep 21 18:30:31 2020, MaxMem=  2147483648 cpu:               0.1 elap:               0.0
 (Enter /prod/apps/gaussian/g16b1/l202.exe)
                          Input orientation:                          
 ---------------------------------------------------------------------
 Center     Atomic      Atomic             Coordinates (Angstroms)
 Number     Number       Type             X           Y           Z
 ---------------------------------------------------------------------
      1          8           0       -1.846000   -2.482000   -1.668000
      2         16           0       -1.611000   -1.517000   -0.579000
      3          7           0       -0.904000   -0.185000   -1.317000
      4          6           0        0.077000    0.674000   -0.609000
      5          6           0       -0.497000    1.249000    0.715000
      6         16           0       -0.411000    3.020000    0.123000
      7          8           0        0.771000    3.739000    0.764000
      8          6           0        0.158000    2.032000   -1.356000
      9          6           0        1.438000   -0.038000   -0.475000
     10          6           0        2.558000    0.766000    0.213000
     11          6           0        3.853000   -0.015000    0.261000
     12          6           0        4.784000    0.079000   -0.781000
     13          6           0        5.967000   -0.662000   -0.756000
     14          6           0        6.239000   -1.511000    0.319000
     15          6           0        5.320000   -1.612000    1.366000
     16          6           0        4.138000   -0.870000    1.335000
     17          6           0       -3.190000   -0.904000   -0.003000
     18          6           0       -4.024000   -0.206000   -0.880000
     19          6           0       -5.279000    0.197000   -0.433000
     20          6           0       -5.691000   -0.100000    0.869000
     21          6           0       -4.849000   -0.803000    1.731000
     22          6           0       -3.588000   -1.214000    1.297000
     23          8           0       -0.856000   -1.950000    0.610000
     24          1           0       -0.579000   -0.469000   -2.242000
     25          1           0        0.127000    1.110000    1.597000
     26          1           0       -1.528000    0.978000    0.939000
     27          1           0        1.157000    2.344000   -1.663000
     28          1           0       -0.545000    2.138000   -2.183000
     29          1           0        1.763000   -0.313000   -1.485000
     30          1           0        1.270000   -0.968000    0.074000
     31          1           0        2.252000    1.025000    1.232000
     32          1           0        2.722000    1.710000   -0.315000
     33          1           0        4.581000    0.742000   -1.618000
     34          1           0        6.678000   -0.572000   -1.572000
     35          1           0        7.159000   -2.086000    0.342000
     36          1           0        5.525000   -2.266000    2.208000
     37          1           0        3.430000   -0.949000    2.156000
     38          1           0       -3.692000    0.028000   -1.885000
     39          1           0       -5.935000    0.746000   -1.100000
     40          1           0       -6.670000    0.218000    1.210000
     41          1           0       -5.170000   -1.031000    2.741000
     42          1           0       -2.916000   -1.756000    1.951000
 ---------------------------------------------------------------------
                    Distance matrix (angstroms):
                    1          2          3          4          5
     1  O    0.000000
     2  S    1.473897   0.000000
     3  N    2.507344   1.678904   0.000000
     4  C    3.844444   2.765994   1.483747   0.000000
     5  C    4.628050   3.250567   2.520125   1.553408   0.000000
     6  S    5.961452   4.745226   3.548052   2.505531   1.869305
     7  O    7.173852   5.924788   4.746995   3.429430   2.794696
     8  C    4.948692   4.040853   2.458547   1.552010   2.308929
     9  C    4.263923   3.390377   2.493098   1.541824   2.610880
    10  C    5.786439   4.818705   3.902659   2.615245   3.133420
    11  C    6.502748   5.728604   5.014781   3.935708   4.552616
    12  C    7.162569   6.594243   5.719295   4.747574   5.612119
    13  C    8.073854   7.628135   6.910347   6.041408   6.899207
    14  C    8.382019   7.901199   7.446961   6.603458   7.290275
    15  C    7.830301   7.199362   6.926254   6.051072   6.515106
    16  C    6.886567   6.093686   5.737952   4.759705   5.133983
    17  C    2.658692   1.789074   2.733012   3.678398   3.521815
    18  C    3.247276   2.762588   3.150525   4.203099   4.135309
    19  C    4.526340   4.051338   4.479733   5.380078   5.029128
    20  C    5.185973   4.555326   5.263192   6.004447   5.368534
    21  C    4.836347   4.041106   5.023470   5.650009   4.917608
    22  C    3.665189   2.742210   3.885318   4.541982   3.994919
    23  O    2.540159   1.473511   2.613591   3.040037   3.220793
    24  H    2.446821   2.220112   1.020738   2.098446   3.420833
    25  H    5.239792   3.828413   3.351325   2.249229   1.089321
    26  H    4.343866   2.921684   2.613710   2.250499   1.089302
    27  H    5.684040   4.872802   3.280744   2.250826   3.096712
    28  H    4.827238   4.131367   2.505028   2.237779   3.031671
    29  H    4.214609   3.695176   2.675350   2.141061   3.519580
    30  H    3.877656   3.004658   2.697081   2.141472   2.906589
    31  H    6.123941   4.966312   4.233419   2.871081   2.806148
    32  H    6.345872   5.409077   4.212233   2.855829   3.411068
    33  H    7.190480   6.672591   5.570920   4.616137   5.611241
    34  H    8.735897   8.401583   7.596152   6.786242   7.747712
    35  H    9.235093   8.836566   8.448553   7.660073   8.359168
    36  H    8.330767   7.697458   7.621563   6.801455   7.130832
    37  H    6.693970   5.763205   5.606156   4.639177   4.725359
    38  H    3.123284   2.902279   2.853233   4.031235   4.296378
    39  H    5.240470   4.908114   5.121017   6.032446   5.754918
    40  H    6.232484   5.639524   6.308319   7.002764   6.278050
    41  H    5.709086   4.891327   5.948263   6.454497   5.580323
    42  H    3.843063   2.856754   4.146807   4.627802   4.050837
                    6          7          8          9         10
     6  S    0.000000
     7  O    1.524784   0.000000
     8  C    1.867444   2.789985   0.000000
     9  C    3.623226   4.030600   2.588332   0.000000
    10  C    3.728750   3.512221   3.134409   1.540831   0.000000
    11  C    5.235644   4.883057   4.523044   2.524767   1.513040
    12  C    6.037775   5.646839   5.054177   3.362000   2.532801
    13  C    7.416782   6.976935   6.431339   4.580412   3.820920
    14  C    8.049278   7.593389   7.234434   5.084267   4.329633
    15  C    7.472940   7.049043   6.879990   4.575662   3.822687
    16  C    6.106918   5.736341   5.612797   3.355343   2.536095
    17  C    4.810041   6.151037   4.654010   4.731926   5.989579
    18  C    4.946398   6.423222   4.767006   5.479571   6.742563
    19  C    5.654723   7.112037   5.812067   6.721241   7.884139
    20  C    6.178132   7.517073   6.611116   7.254848   8.320234
    21  C    6.074277   7.290353   6.529689   6.706566   7.722029
    22  C    5.422026   6.619455   5.622050   5.457439   6.547425
    23  O    5.013591   5.919085   4.555181   3.177327   4.380601
    24  H    4.218361   5.344698   2.753755   2.715942   4.170494
    25  H    2.471886   2.832007   3.093744   2.707362   2.818431
    26  H    2.466436   3.597103   3.036534   3.439303   4.155408
    27  H    2.470910   2.825836   1.090685   2.676608   2.823519
    28  H    2.472553   3.602758   1.090584   3.403605   4.153530
    29  H    4.291949   4.739279   2.844590   1.096061   2.163208
    30  H    4.328083   4.783404   3.504489   1.092943   2.164491
    31  H    3.507346   3.127008   3.478021   2.169427   1.095024
    32  H    3.423979   3.014545   2.785940   2.174801   1.093991
    33  H    5.756772   5.401114   4.614724   3.434137   2.728675
    34  H    8.125848   7.676866   7.024092   5.380164   4.685175
    35  H    9.133679   8.655360   8.297899   6.131202   5.414771
    36  H    8.217367   7.793951   7.744649   5.372713   4.687871
    37  H    5.885519   5.566443   5.650353   3.423470   2.734384
    38  H    4.873304   6.380211   4.372454   5.320654   6.633909
    39  H    6.097654   7.576475   6.232494   7.440861   8.593918
    40  H    6.943188   8.244079   7.516418   8.285193   9.297865
    41  H    6.775884   7.871271   7.386133   7.415819   8.327183
    42  H    5.694452   6.722943   5.893613   5.272031   6.272623
                   11         12         13         14         15
    11  C    0.000000
    12  C    1.400486   0.000000
    13  C    2.433494   1.396136   0.000000
    14  C    2.816802   2.419737   1.396571   0.000000
    15  C    2.433829   2.785029   2.413295   1.396772   0.000000
    16  C    1.402044   2.407358   2.785819   2.420194   1.395940
    17  C    7.103792   8.071942   9.191095   9.454003   8.648441
    18  C    7.961501   8.813166  10.002169  10.414883   9.712450
    19  C    9.160786  10.069707  11.283383  11.668209  10.901728
    20  C    9.563724  10.605667  11.784118  12.025736  11.125434
    21  C    8.860398   9.994136  11.099140  11.199944  10.207657
    22  C    7.607850   8.722403   9.788643   9.880011   8.917154
    23  O    5.103010   6.153155   7.076597   7.114522   6.231272
    24  H    5.110161   5.585391   6.715323   7.357283   7.008731
    25  H    4.115045   5.329680   6.540810   6.771962   5.867699
    26  H    5.513701   6.603631   7.857331   8.179597   7.333862
    27  H    4.066334   4.366151   5.744109   6.679526   6.492715
    28  H    5.472746   5.882459   7.230662   8.099251   7.813842
    29  H    2.739602   3.126615   4.280988   4.972343   4.740026
    30  H    2.759541   3.765027   4.779576   5.004581   4.299593
    31  H    2.141878   3.370179   4.538649   4.812591   4.047759
    32  H    2.141626   2.670049   4.043623   4.811038   4.539939
    33  H    2.152597   1.086898   2.152964   3.402491   3.871911
    34  H    3.413321   2.153304   1.086037   2.156461   3.399648
    35  H    3.901953   3.404259   2.157370   1.085152   2.157585
    36  H    3.413707   3.870688   3.399040   2.155955   1.085682
    37  H    2.154602   3.393533   3.872787   3.403071   2.153084
    38  H    7.844373   8.547748   9.749206  10.288387   9.719812
    39  H    9.911427  10.744469  11.989929  12.462499  11.760797
    40  H   10.568274  11.626587  12.819256  13.054716  12.129853
    41  H    9.412608  10.616906  11.678953  11.673121  10.595673
    42  H    7.190726   8.373831   9.350528   9.302552   8.258006
                   16         17         18         19         20
    16  C    0.000000
    17  C    7.449227   0.000000
    18  C    8.483240   1.397100   0.000000
    19  C    9.640757   2.400213   1.391849   0.000000
    20  C    9.870121   2.767996   2.418497   1.397554   0.000000
    21  C    8.995970   2.401924   2.802562   2.422353   1.395069
    22  C    7.733748   1.394455   2.438337   2.800590   2.418013
    23  O    5.160626   2.630103   3.911248   5.025971   5.183320
    24  H    5.933449   3.466939   3.713790   5.079964   5.995584
    25  H    4.480755   4.197462   5.009809   5.846307   5.986920
    26  H    5.972895   2.681703   3.307663   4.069686   4.300878
    27  H    5.310759   5.674638   5.827379   6.895260   7.699303
    28  H    6.584442   4.582815   4.392674   5.407470   6.387853
    29  H    3.728709   5.203635   5.819523   7.138387   7.819770
    30  H    3.134509   4.461124   5.432973   6.671107   7.059814
    31  H    2.675562   5.904374   6.735286   7.757175   8.030482
    32  H    3.374012   6.471637   7.035538   8.143654   8.686572
    33  H    3.393376   8.105923   8.688462   9.945896  10.602269
    34  H    3.871828   9.997470  10.730593  12.035719  12.616395
    35  H    3.404577  10.421994  11.405576  12.669513  13.013240
    36  H    2.152839   9.093668  10.245133  11.391561  11.501440
    37  H    1.086989   6.963311   8.082788   9.157670   9.250395
    38  H    8.513736   2.159294   1.083976   2.157645   3.405422
    39  H   10.488375   3.385400   2.146305   1.084724   2.156899
    40  H   10.863344   3.852357   3.398410   2.152852   1.084364
    41  H    9.414968   3.386158   3.886590   3.405017   2.154666
    42  H    7.136061   2.149208   3.412437   3.883482   3.407886
                   21         22         23         24         25
    21  C    0.000000
    22  C    1.395492   0.000000
    23  O    4.303057   2.911613   0.000000
    24  H    5.842019   4.704639   3.225522   0.000000
    25  H    5.332739   4.392289   3.362151   4.210653   0.000000
    26  H    3.850749   3.029295   3.022087   3.621211   1.785893
    27  H    7.582538   6.628423   5.259005   3.355876   3.634729
    28  H    6.518688   5.710180   4.960778   2.607889   3.974515
    29  H    7.368942   6.097912   3.732018   2.466242   3.768309
    30  H    6.341533   5.015617   2.402394   3.005272   2.818521
    31  H    7.349475   6.254834   4.347088   4.723904   2.157794
    32  H    8.235370   7.138937   5.201280   4.399769   3.278684
    33  H   10.125598   8.891328   6.463112   5.336806   5.505431
    34  H   11.993119  10.678674   7.963741   7.288591   7.469089
    35  H   12.155965  10.824529   8.020632   8.316754   7.825501
    36  H   10.487506   9.218644   6.585637   7.764697   6.396022
    37  H    8.291187   7.075340   4.664967   5.970334   3.932146
    38  H    3.886472   3.417383   4.263849   3.172574   5.280133
    39  H    3.404902   3.885308   5.999063   5.609557   6.644859
    40  H    2.151726   3.399547   6.234005   7.034810   6.866196
    41  H    1.084032   2.149732   4.898604   6.798780   5.826734
    42  H    2.166356   1.083081   2.465668   4.969828   4.195131
                   26         27         28         29         30
    26  H    0.000000
    27  H    3.980651   0.000000
    28  H    3.472574   1.791547   0.000000
    29  H    4.286390   2.731038   3.438236   0.000000
    30  H    3.516240   3.741561   4.246824   1.761407   0.000000
    31  H    3.791630   3.364493   4.552384   3.067809   2.505461
    32  H    4.491196   2.160621   3.787598   2.526086   3.071044
    33  H    6.626751   3.780503   5.342651   3.011949   4.092638
    34  H    8.720439   6.244420   7.738808   4.922588   5.666798
    35  H    9.230844   7.724567   9.141631   5.966429   6.000172
    36  H    7.866302   7.437484   8.690282   5.621842   4.933942
    37  H    5.456756   5.531287   6.645082   4.054660   3.000114
    38  H    3.682441   5.378284   3.800594   5.480265   5.426891
    39  H    4.861378   7.291573   5.671213   7.780033   7.498540
    40  H    5.204921   8.604414   7.260473   8.869074   8.108063
    41  H    4.532929   8.415270   7.461834   8.151140   6.970686
    42  H    3.228846   6.816181   6.154253   5.981754   4.654747
                   31         32         33         34         35
    31  H    0.000000
    32  H    1.755942   0.000000
    33  H    3.691454   2.467937   0.000000
    34  H    5.477436   4.736825   2.475100   0.000000
    35  H    5.877846   5.876073   4.299450   2.487359   0.000000
    36  H    4.742972   5.480047   4.957568   4.299703   2.486828
    37  H    2.477526   3.698295   4.292710   4.958792   4.299861
    38  H    6.785340   6.814207   8.308045  10.392058  11.277089
    39  H    8.517220   8.745809  10.528751  12.690456  13.474139
    40  H    8.958449   9.631270  11.612802  13.657698  14.046462
    41  H    7.847949   8.895835  10.827115  12.616963  12.604462
    42  H    5.912626   6.995352   8.670800  10.288742  10.208007
                   36         37         38         39         40
    36  H    0.000000
    37  H    2.475120   0.000000
    38  H   10.342542   8.246641   0.000000
    39  H   12.302301  10.058717   2.482498   0.000000
    40  H   12.485363  10.211112   4.299257   2.480949   0.000000
    41  H   10.779255   8.620264   4.970497   4.300725   2.480718
    42  H    8.460297   6.400390   4.301131   4.968195   4.305609
                   41         42
    41  H    0.000000
    42  H    2.496045   0.000000
 Symmetry turned off by external request.
 Stoichiometry    C17H19NO3S2
 Framework group  C1[X(C17H19NO3S2)]
 Deg. of freedom   120
 Full point group                 C1      NOp   1
 Rotational constants (GHZ):           0.3909699           0.1180203           0.1024079
 Leave Link  202 at Mon Sep 21 18:30:31 2020, MaxMem=  2147483648 cpu:               0.0 elap:               0.0
 (Enter /prod/apps/gaussian/g16b1/l301.exe)
 Standard basis: 6-31G(d) (6D, 7F)
 Ernie: Thresh=  0.10000D-02 Tol=  0.10000D-05 Strict=F.
   391 basis functions,   768 primitive gaussians,   391 cartesian basis functions
    92 alpha electrons       92 beta electrons
       nuclear repulsion energy      2246.8262336645 Hartrees.
 IExCor=  402 DFT=T Ex+Corr=B3LYP ExCW=0 ScaHFX=  0.200000
 ScaDFX=  0.800000  0.720000  1.000000  0.810000 ScalE2=  1.000000  1.000000
 IRadAn=      5 IRanWt=     -1 IRanGd=            0 ICorTp=0 IEmpDi=  4
 NAtoms=   42 NActive=   42 NUniq=   42 SFac= 1.00D+00 NAtFMM=   60 NAOKFM=F Big=F
 Integral buffers will be    131072 words long.
 Raffenetti 2 integral format.
 Two-electron integral symmetry is turned off.
 Using the following non-standard input for PCM:
 MSTModel=DFT cav
 --- end of non-standard input.
 MST model for solvation energy: B3LYP parametrization.
 MST cavity parameters:
 ISph   IAn     Re0     Alpha   Atom Type   QCorr
 ------------------------------------------------
   1      8     1.40     1.25      O          F
   2     16     1.75     1.25      S          F
   3      7     1.50     1.25      NH         F
   4      6     1.50     1.25      C          F
   5      6     1.50     1.25      CH2        F
   6     16     1.75     1.25      S          F
   7      8     1.40     1.25      O          F
   8      6     1.50     1.25      CH2        F
   9      6     1.50     1.25      CH2        F
  10      6     1.50     1.25      CH2        F
  11      6     1.50     1.25      C          F
  12      6     1.50     1.25      CH         F
  13      6     1.50     1.25      CH         F
  14      6     1.50     1.25      CH         F
  15      6     1.50     1.25      CH         F
  16      6     1.50     1.25      CH         F
  17      6     1.50     1.25      C          F
  18      6     1.50     1.25      CH         F
  19      6     1.50     1.25      CH         F
  20      6     1.50     1.25      CH         F
  21      6     1.50     1.25      CH         F
  22      6     1.50     1.25      CH         F
  23      8     1.40     1.25      O          F
  24      1     0.90     1.25      NH         F
  25      1     1.20     1.25      CH2        F
  26      1     1.20     1.25      CH2        F
  27      1     1.20     1.25      CH2        F
  28      1     1.20     1.25      CH2        F
  29      1     1.20     1.25      CH2        F
  30      1     1.20     1.25      CH2        F
  31      1     1.20     1.25      CH2        F
  32      1     1.20     1.25      CH2        F
  33      1     1.20     1.25      CH         F
  34      1     1.20     1.25      CH         F
  35      1     1.20     1.25      CH         F
  36      1     1.20     1.25      CH         F
  37      1     1.20     1.25      CH         F
  38      1     1.20     1.25      CH         F
  39      1     1.20     1.25      CH         F
  40      1     1.20     1.25      CH         F
  41      1     1.20     1.25      CH         F
  42      1     1.20     1.25      CH         F
 ------------------------------------------------------------------------------
 Polarizable Continuum Model (PCM)
 =================================
 Model                : PCM.
 Atomic radii         : MST.
 Polarization charges : Total charges.
 Charge compensation  : None.
 Solution method      : On-the-fly selection.
 Cavity type          : Scaled VdW (van der Waals Surface) (Alpha=1.250).
 Cavity algorithm     : GePol (No added spheres)
                        Default sphere list used, NSphG=   42.
                        Lebedev-Laikov grids with approx.  5.0 points / Ang**2.
                        Smoothing algorithm: York/Karplus (Gamma=1.0000).
                        Polarization charges: spherical gaussians, with
                                              point-specific exponents (IZeta= 3).
                        Self-potential: point-specific (ISelfS= 7).
                        Self-field    : sphere-specific E.n sum rule (ISelfD= 2).
 1st derivatives      : Analytical E(r).r(x)/FMM algorithm (CHGder, D1EAlg=3).
                        Cavity 1st derivative terms included.
 Solvent              : Water, Eps=  78.355300 Eps(inf)=   1.777849
 ------------------------------------------------------------------------------
 GePol: Number of generator spheres                  =      42
 GePol: Total number of spheres                      =      42
 GePol: Number of exposed spheres                    =      42 (100.00%)
 GePol: Number of points                             =    3052
 GePol: Average weight of points                     =       0.13
 GePol: Minimum weight of points                     =   0.18D-11
 GePol: Maximum weight of points                     =    0.22001
 GePol: Number of points with low weight             =     211
 GePol: Fraction of low-weight points (<1% of avg)   =       6.91%
 GePol: Cavity surface area                          =    399.256 Ang**2
 GePol: Cavity volume                                =    397.759 Ang**3
 PCM non-electrostatic energy =         0.0026580714 Hartrees.
 Nuclear repulsion after PCM non-electrostatic terms =     2246.8288917358 Hartrees.
 Leave Link  301 at Mon Sep 21 18:30:31 2020, MaxMem=  2147483648 cpu:               0.3 elap:               0.1
 (Enter /prod/apps/gaussian/g16b1/l302.exe)
 NPDir=0 NMtPBC=     1 NCelOv=     1 NCel=       1 NClECP=     1 NCelD=      1
         NCelK=      1 NCelE2=     1 NClLst=     1 CellRange=     0.0.
 One-electron integrals computed using PRISM.
 NBasis=   391 RedAO= T EigKep=  4.67D-04  NBF=   391
 NBsUse=   391 1.00D-06 EigRej= -1.00D+00 NBFU=   391
 Precomputing XC quadrature grid using
 IXCGrd= 4 IRadAn=           5 IRanWt=          -1 IRanGd=           0 AccXCQ= 0.00D+00.
 Generated NRdTot=       0 NPtTot=           0 NUsed=           0 NTot=          32
 NSgBfM=   385   385   385   385   385 MxSgAt=    42 MxSgA2=    42.
 Leave Link  302 at Mon Sep 21 18:30:31 2020, MaxMem=  2147483648 cpu:               2.5 elap:               0.6
 (Enter /prod/apps/gaussian/g16b1/l303.exe)
 DipDrv:  MaxL=1.
 Leave Link  303 at Mon Sep 21 18:30:32 2020, MaxMem=  2147483648 cpu:               0.2 elap:               0.1
 (Enter /prod/apps/gaussian/g16b1/l401.exe)
 ExpMin= 1.17D-01 ExpMax= 2.19D+04 ExpMxC= 3.30D+03 IAcc=3 IRadAn=         5 AccDes= 0.00D+00
 Harris functional with IExCor=  402 and IRadAn=       5 diagonalized for initial guess.
 HarFok:  IExCor=  402 AccDes= 0.00D+00 IRadAn=         5 IDoV= 1 UseB2=F ITyADJ=14
 ICtDFT=  3500011 ScaDFX=  1.000000  1.000000  1.000000  1.000000
 FoFCou: FMM=F IPFlag=           0 FMFlag=      100000 FMFlg1=           0
         NFxFlg=           0 DoJE=T BraDBF=F KetDBF=T FulRan=T
         wScrn=  0.000000 ICntrl=       500 IOpCl=  0 I1Cent=   200000004 NGrid=           0
         NMat0=    1 NMatS0=      1 NMatT0=    0 NMatD0=    1 NMtDS0=    0 NMtDT0=    0
 Symmetry not used in FoFCou.
 Harris En= -1735.98285625787    
 JPrj=0 DoOrth=F DoCkMO=F.
 Leave Link  401 at Mon Sep 21 18:30:35 2020, MaxMem=  2147483648 cpu:              13.3 elap:               3.3
 (Enter /prod/apps/gaussian/g16b1/l502.exe)
 Two-electron integral symmetry not used.
 Closed shell SCF:
 Using DIIS extrapolation, IDIIS=  1040.
 NGot=  2147483648 LenX=  2147172117 LenY=  2147018795
 Requested convergence on RMS density matrix=1.00D-08 within2000 cycles.
 Requested convergence on MAX density matrix=1.00D-06.
 Requested convergence on             energy=1.00D-06.
 No special actions if energy rises.

 Cycle   1  Pass 1  IDiag  1:
 FoFJK:  IHMeth= 1 ICntrl=       0 DoSepK=F KAlg= 0 I1Cent=           0 FoldK=F
 IRaf= 730000000 NMat=       1 IRICut=       1 DoRegI=T DoRafI=F ISym2E= 0 IDoP0=0 IntGTp=1.
 FoFCou: FMM=F IPFlag=           0 FMFlag=      100000 FMFlg1=           0
         NFxFlg=           0 DoJE=F BraDBF=F KetDBF=F FulRan=T
         wScrn=  0.000000 ICntrl=         0 IOpCl=  0 I1Cent=           0 NGrid=           0
         NMat0=    1 NMatS0=      1 NMatT0=    0 NMatD0=    1 NMtDS0=    0 NMtDT0=    0
 Symmetry not used in FoFCou.
 Inv3:  Mode=1 IEnd=    27944112.
 Iteration    1 A*A^-1 deviation from unit magnitude is 3.33D-15 for   2611.
 Iteration    1 A*A^-1 deviation from orthogonality  is 3.77D-15 for   2830    752.
 Iteration    1 A^-1*A deviation from unit magnitude is 3.33D-15 for   1273.
 Iteration    1 A^-1*A deviation from orthogonality  is 1.67D-15 for   1716   1243.
 E= -1735.14489115941    
 DIIS: error= 3.24D-02 at cycle   1 NSaved=   1.
 NSaved= 1 IEnMin= 1 EnMin= -1735.14489115941     IErMin= 1 ErrMin= 3.24D-02
 ErrMax= 3.24D-02  0.00D+00 EMaxC= 1.00D-01 BMatC= 8.86D-01 BMatP= 8.86D-01
 IDIUse=3 WtCom= 6.76D-01 WtEn= 3.24D-01
 Coeff-Com:  0.100D+01
 Coeff-En:   0.100D+01
 Coeff:      0.100D+01
 Gap=     0.246 Goal=   None    Shift=    0.000
 GapD=    0.246 DampG=1.000 DampE=0.500 DampFc=0.5000 IDamp=-1.
 Damping current iteration by 5.00D-01
 RMSDP=6.24D-03 MaxDP=5.60D-01              OVMax= 2.48D-01

 Cycle   2  Pass 1  IDiag  1:
 E= -1735.36048310227     Delta-E=       -0.215591942863 Rises=F Damp=T
 DIIS: error= 1.27D-02 at cycle   2 NSaved=   2.
 NSaved= 2 IEnMin= 2 EnMin= -1735.36048310227     IErMin= 2 ErrMin= 1.27D-02
 ErrMax= 1.27D-02  0.00D+00 EMaxC= 1.00D-01 BMatC= 1.27D-01 BMatP= 8.86D-01
 IDIUse=3 WtCom= 8.73D-01 WtEn= 1.27D-01
 Coeff-Com:  0.218D+00 0.782D+00
 Coeff-En:   0.347D+00 0.653D+00
 Coeff:      0.234D+00 0.766D+00
 Gap=     0.269 Goal=   None    Shift=    0.000
 RMSDP=1.95D-03 MaxDP=1.27D-01 DE=-2.16D-01 OVMax= 1.78D-01

 Cycle   3  Pass 1  IDiag  1:
 E= -1735.85824412134     Delta-E=       -0.497761019062 Rises=F Damp=F
 DIIS: error= 1.20D-02 at cycle   3 NSaved=   3.
 NSaved= 3 IEnMin= 3 EnMin= -1735.85824412134     IErMin= 3 ErrMin= 1.20D-02
 ErrMax= 1.20D-02  0.00D+00 EMaxC= 1.00D-01 BMatC= 8.78D-02 BMatP= 1.27D-01
 IDIUse=3 WtCom= 8.80D-01 WtEn= 1.20D-01
 Coeff-Com:  0.743D-01 0.456D+00 0.470D+00
 Coeff-En:   0.000D+00 0.000D+00 0.100D+01
 Coeff:      0.653D-01 0.401D+00 0.533D+00
 Gap=     0.203 Goal=   None    Shift=    0.000
 RMSDP=1.18D-03 MaxDP=5.28D-02 DE=-4.98D-01 OVMax= 1.05D-01

 Cycle   4  Pass 1  IDiag  1:
 E= -1735.92370657765     Delta-E=       -0.065462456317 Rises=F Damp=F
 DIIS: error= 6.18D-03 at cycle   4 NSaved=   4.
 NSaved= 4 IEnMin= 4 EnMin= -1735.92370657765     IErMin= 4 ErrMin= 6.18D-03
 ErrMax= 6.18D-03  0.00D+00 EMaxC= 1.00D-01 BMatC= 1.66D-02 BMatP= 8.78D-02
 IDIUse=3 WtCom= 9.38D-01 WtEn= 6.18D-02
 Coeff-Com:  0.773D-02 0.972D-01 0.315D+00 0.580D+00
 Coeff-En:   0.000D+00 0.000D+00 0.176D+00 0.824D+00
 Coeff:      0.726D-02 0.912D-01 0.306D+00 0.595D+00
 Gap=     0.194 Goal=   None    Shift=    0.000
 RMSDP=4.57D-04 MaxDP=2.31D-02 DE=-6.55D-02 OVMax= 4.38D-02

 Cycle   5  Pass 1  IDiag  1:
 E= -1735.93738100038     Delta-E=       -0.013674422723 Rises=F Damp=F
 DIIS: error= 1.84D-03 at cycle   5 NSaved=   5.
 NSaved= 5 IEnMin= 5 EnMin= -1735.93738100038     IErMin= 5 ErrMin= 1.84D-03
 ErrMax= 1.84D-03  0.00D+00 EMaxC= 1.00D-01 BMatC= 1.43D-03 BMatP= 1.66D-02
 IDIUse=3 WtCom= 9.82D-01 WtEn= 1.84D-02
 Coeff-Com: -0.197D-02 0.174D-01 0.130D+00 0.343D+00 0.511D+00
 Coeff-En:   0.000D+00 0.000D+00 0.000D+00 0.218D-01 0.978D+00
 Coeff:     -0.193D-02 0.171D-01 0.128D+00 0.337D+00 0.520D+00
 Gap=     0.192 Goal=   None    Shift=    0.000
 RMSDP=1.36D-04 MaxDP=7.69D-03 DE=-1.37D-02 OVMax= 1.08D-02

 Cycle   6  Pass 1  IDiag  1:
 E= -1735.93857354213     Delta-E=       -0.001192541751 Rises=F Damp=F
 DIIS: error= 4.77D-04 at cycle   6 NSaved=   6.
 NSaved= 6 IEnMin= 6 EnMin= -1735.93857354213     IErMin= 6 ErrMin= 4.77D-04
 ErrMax= 4.77D-04  0.00D+00 EMaxC= 1.00D-01 BMatC= 1.59D-04 BMatP= 1.43D-03
 IDIUse=3 WtCom= 9.95D-01 WtEn= 4.77D-03
 Coeff-Com: -0.165D-02 0.297D-02 0.489D-01 0.147D+00 0.314D+00 0.489D+00
 Coeff-En:   0.000D+00 0.000D+00 0.000D+00 0.000D+00 0.231D-01 0.977D+00
 Coeff:     -0.165D-02 0.296D-02 0.487D-01 0.147D+00 0.312D+00 0.491D+00
 Gap=     0.193 Goal=   None    Shift=    0.000
 RMSDP=3.94D-05 MaxDP=2.17D-03 DE=-1.19D-03 OVMax= 2.83D-03

 Cycle   7  Pass 1  IDiag  1:
 E= -1735.93869056992     Delta-E=       -0.000117027788 Rises=F Damp=F
 DIIS: error= 1.28D-04 at cycle   7 NSaved=   7.
 NSaved= 7 IEnMin= 7 EnMin= -1735.93869056992     IErMin= 7 ErrMin= 1.28D-04
 ErrMax= 1.28D-04  0.00D+00 EMaxC= 1.00D-01 BMatC= 1.26D-05 BMatP= 1.59D-04
 IDIUse=3 WtCom= 9.99D-01 WtEn= 1.28D-03
 Coeff-Com: -0.713D-03-0.439D-03 0.120D-01 0.416D-01 0.116D+00 0.276D+00
 Coeff-Com:  0.555D+00
 Coeff-En:   0.000D+00 0.000D+00 0.000D+00 0.000D+00 0.000D+00 0.127D-01
 Coeff-En:   0.987D+00
 Coeff:     -0.712D-03-0.439D-03 0.120D-01 0.415D-01 0.116D+00 0.276D+00
 Coeff:      0.556D+00
 Gap=     0.192 Goal=   None    Shift=    0.000
 RMSDP=1.06D-05 MaxDP=4.33D-04 DE=-1.17D-04 OVMax= 6.31D-04

 Cycle   8  Pass 1  IDiag  1:
 E= -1735.93870107649     Delta-E=       -0.000010506575 Rises=F Damp=F
 DIIS: error= 1.84D-05 at cycle   8 NSaved=   8.
 NSaved= 8 IEnMin= 8 EnMin= -1735.93870107649     IErMin= 8 ErrMin= 1.84D-05
 ErrMax= 1.84D-05  0.00D+00 EMaxC= 1.00D-01 BMatC= 5.03D-07 BMatP= 1.26D-05
 IDIUse=1 WtCom= 1.00D+00 WtEn= 0.00D+00
 Coeff-Com: -0.162D-03-0.413D-03 0.945D-03 0.527D-02 0.232D-01 0.764D-01
 Coeff-Com:  0.235D+00 0.660D+00
 Coeff:     -0.162D-03-0.413D-03 0.945D-03 0.527D-02 0.232D-01 0.764D-01
 Coeff:      0.235D+00 0.660D+00
 Gap=     0.192 Goal=   None    Shift=    0.000
 RMSDP=2.70D-06 MaxDP=1.32D-04 DE=-1.05D-05 OVMax= 1.88D-04

 Cycle   9  Pass 1  IDiag  1:
 E= -1735.93870149850     Delta-E=       -0.000000422009 Rises=F Damp=F
 DIIS: error= 7.73D-06 at cycle   9 NSaved=   9.
 NSaved= 9 IEnMin= 9 EnMin= -1735.93870149850     IErMin= 9 ErrMin= 7.73D-06
 ErrMax= 7.73D-06  0.00D+00 EMaxC= 1.00D-01 BMatC= 7.23D-08 BMatP= 5.03D-07
 IDIUse=1 WtCom= 1.00D+00 WtEn= 0.00D+00
 Coeff-Com: -0.170D-04-0.150D-03-0.634D-03-0.120D-02 0.762D-03 0.131D-01
 Coeff-Com:  0.650D-01 0.336D+00 0.587D+00
 Coeff:     -0.170D-04-0.150D-03-0.634D-03-0.120D-02 0.762D-03 0.131D-01
 Coeff:      0.650D-01 0.336D+00 0.587D+00
 Gap=     0.192 Goal=   None    Shift=    0.000
 RMSDP=7.98D-07 MaxDP=3.22D-05 DE=-4.22D-07 OVMax= 4.96D-05

 Cycle  10  Pass 1  IDiag  1:
 E= -1735.93870156343     Delta-E=       -0.000000064934 Rises=F Damp=F
 DIIS: error= 1.92D-06 at cycle  10 NSaved=  10.
 NSaved=10 IEnMin=10 EnMin= -1735.93870156343     IErMin=10 ErrMin= 1.92D-06
 ErrMax= 1.92D-06  0.00D+00 EMaxC= 1.00D-01 BMatC= 4.37D-09 BMatP= 7.23D-08
 IDIUse=1 WtCom= 1.00D+00 WtEn= 0.00D+00
 Coeff-Com: -0.188D-05-0.452D-04-0.367D-03-0.855D-03-0.842D-03 0.277D-02
 Coeff-Com:  0.205D-01 0.135D+00 0.292D+00 0.552D+00
 Coeff:     -0.188D-05-0.452D-04-0.367D-03-0.855D-03-0.842D-03 0.277D-02
 Coeff:      0.205D-01 0.135D+00 0.292D+00 0.552D+00
 Gap=     0.192 Goal=   None    Shift=    0.000
 RMSDP=2.30D-07 MaxDP=1.31D-05 DE=-6.49D-08 OVMax= 1.39D-05

 Cycle  11  Pass 1  IDiag  1:
 E= -1735.93870156675     Delta-E=       -0.000000003313 Rises=F Damp=F
 DIIS: error= 1.03D-06 at cycle  11 NSaved=  11.
 NSaved=11 IEnMin=11 EnMin= -1735.93870156675     IErMin=11 ErrMin= 1.03D-06
 ErrMax= 1.03D-06  0.00D+00 EMaxC= 1.00D-01 BMatC= 7.54D-10 BMatP= 4.37D-09
 IDIUse=1 WtCom= 1.00D+00 WtEn= 0.00D+00
 Coeff-Com:  0.290D-06-0.117D-05-0.125D-03-0.315D-03-0.660D-03-0.395D-03
 Coeff-Com:  0.166D-02 0.262D-01 0.747D-01 0.311D+00 0.588D+00
 Coeff:      0.290D-06-0.117D-05-0.125D-03-0.315D-03-0.660D-03-0.395D-03
 Coeff:      0.166D-02 0.262D-01 0.747D-01 0.311D+00 0.588D+00
 Gap=     0.192 Goal=   None    Shift=    0.000
 RMSDP=8.74D-08 MaxDP=4.70D-06 DE=-3.31D-09 OVMax= 6.15D-06

 Cycle  12  Pass 1  IDiag  1:
 E= -1735.93870156734     Delta-E=       -0.000000000596 Rises=F Damp=F
 DIIS: error= 3.72D-07 at cycle  12 NSaved=  12.
 NSaved=12 IEnMin=12 EnMin= -1735.93870156734     IErMin=12 ErrMin= 3.72D-07
 ErrMax= 3.72D-07  0.00D+00 EMaxC= 1.00D-01 BMatC= 1.14D-10 BMatP= 7.54D-10
 IDIUse=1 WtCom= 1.00D+00 WtEn= 0.00D+00
 Coeff-Com: -0.136D-07 0.439D-05-0.385D-04-0.964D-04-0.326D-03-0.561D-03
 Coeff-Com: -0.144D-02 0.255D-03 0.114D-01 0.123D+00 0.352D+00 0.515D+00
 Coeff:     -0.136D-07 0.439D-05-0.385D-04-0.964D-04-0.326D-03-0.561D-03
 Coeff:     -0.144D-02 0.255D-03 0.114D-01 0.123D+00 0.352D+00 0.515D+00
 Gap=     0.192 Goal=   None    Shift=    0.000
 RMSDP=3.03D-08 MaxDP=1.66D-06 DE=-5.96D-10 OVMax= 2.11D-06

 Cycle  13  Pass 1  IDiag  1:
 E= -1735.93870156743     Delta-E=       -0.000000000085 Rises=F Damp=F
 DIIS: error= 9.02D-08 at cycle  13 NSaved=  13.
 NSaved=13 IEnMin=13 EnMin= -1735.93870156743     IErMin=13 ErrMin= 9.02D-08
 ErrMax= 9.02D-08  0.00D+00 EMaxC= 1.00D-01 BMatC= 7.35D-12 BMatP= 1.14D-10
 IDIUse=1 WtCom= 1.00D+00 WtEn= 0.00D+00
 Coeff-Com: -0.148D-06 0.238D-05-0.461D-05-0.890D-05-0.850D-04-0.222D-03
 Coeff-Com: -0.925D-03-0.302D-02-0.368D-02 0.204D-01 0.992D-01 0.253D+00
 Coeff-Com:  0.635D+00
 Coeff:     -0.148D-06 0.238D-05-0.461D-05-0.890D-05-0.850D-04-0.222D-03
 Coeff:     -0.925D-03-0.302D-02-0.368D-02 0.204D-01 0.992D-01 0.253D+00
 Coeff:      0.635D+00
 Gap=     0.192 Goal=   None    Shift=    0.000
 RMSDP=8.77D-09 MaxDP=4.25D-07 DE=-8.50D-11 OVMax= 6.19D-07

 Error on total polarization charges =  0.02278
 SCF Done:  E(RB3LYP) =  -1735.93870157     A.U. after   13 cycles
            NFock= 13  Conv=0.88D-08     -V/T= 2.0068
 KE= 1.724229974192D+03 PE=-8.568194250660D+03 EE= 2.861196683164D+03
 Leave Link  502 at Mon Sep 21 18:32:33 2020, MaxMem=  2147483648 cpu:             470.9 elap:             117.8
 (Enter /prod/apps/gaussian/g16b1/l601.exe)
 Copying SCF densities to generalized density rwf, IOpCl= 0 IROHF=0.

 **********************************************************************

            Population analysis using the SCF Density.

 **********************************************************************

 Alpha  occ. eigenvalues --  -89.12571 -88.98678 -19.15711 -19.15497 -19.12089
 Alpha  occ. eigenvalues --  -14.37117 -10.26270 -10.23254 -10.21767 -10.21606
 Alpha  occ. eigenvalues --  -10.21384 -10.21301 -10.20653 -10.20532 -10.20500
 Alpha  occ. eigenvalues --  -10.19646 -10.18998 -10.18913 -10.18906 -10.18902
 Alpha  occ. eigenvalues --  -10.18754 -10.18701 -10.18687  -8.15056  -8.03503
 Alpha  occ. eigenvalues --   -6.11559  -6.11504  -6.11333  -5.99924  -5.99728
 Alpha  occ. eigenvalues --   -5.99267  -1.12131  -1.01131  -1.00830  -0.93982
 Alpha  occ. eigenvalues --   -0.87667  -0.85610  -0.84121  -0.78831  -0.78054
 Alpha  occ. eigenvalues --   -0.76407  -0.74226  -0.73509  -0.70621  -0.69049
 Alpha  occ. eigenvalues --   -0.65988  -0.62572  -0.62222  -0.60306  -0.59949
 Alpha  occ. eigenvalues --   -0.57941  -0.56207  -0.54717  -0.52564  -0.51769
 Alpha  occ. eigenvalues --   -0.50507  -0.49027  -0.48139  -0.47504  -0.47018
 Alpha  occ. eigenvalues --   -0.45714  -0.45278  -0.45125  -0.44088  -0.43845
 Alpha  occ. eigenvalues --   -0.43137  -0.42198  -0.41684  -0.41241  -0.40434
 Alpha  occ. eigenvalues --   -0.40090  -0.38957  -0.38080  -0.37702  -0.37165
 Alpha  occ. eigenvalues --   -0.36463  -0.36139  -0.35144  -0.34824  -0.34397
 Alpha  occ. eigenvalues --   -0.33575  -0.33452  -0.32715  -0.31905  -0.31263
 Alpha  occ. eigenvalues --   -0.28890  -0.27214  -0.26870  -0.26447  -0.25096
 Alpha  occ. eigenvalues --   -0.24399  -0.23134
 Alpha virt. eigenvalues --   -0.03895  -0.01785  -0.00187  -0.00122   0.00583
 Alpha virt. eigenvalues --    0.02263   0.04844   0.06030   0.07183   0.08982
 Alpha virt. eigenvalues --    0.09225   0.09536   0.10944   0.11432   0.11597
 Alpha virt. eigenvalues --    0.12189   0.12670   0.13964   0.14889   0.15369
 Alpha virt. eigenvalues --    0.15621   0.15973   0.16294   0.16671   0.17360
 Alpha virt. eigenvalues --    0.18349   0.18773   0.19047   0.19581   0.20007
 Alpha virt. eigenvalues --    0.20561   0.21431   0.22194   0.23282   0.24000
 Alpha virt. eigenvalues --    0.26653   0.27362   0.27655   0.28994   0.29281
 Alpha virt. eigenvalues --    0.30416   0.30908   0.31216   0.33081   0.33916
 Alpha virt. eigenvalues --    0.34381   0.34572   0.35013   0.35535   0.38287
 Alpha virt. eigenvalues --    0.40050   0.41894   0.43074   0.45420   0.46541
 Alpha virt. eigenvalues --    0.49134   0.50573   0.51229   0.51994   0.52425
 Alpha virt. eigenvalues --    0.52890   0.53160   0.53863   0.55036   0.55287
 Alpha virt. eigenvalues --    0.55752   0.56247   0.56917   0.57648   0.57907
 Alpha virt. eigenvalues --    0.57937   0.59243   0.59579   0.59638   0.59809
 Alpha virt. eigenvalues --    0.60043   0.60427   0.60766   0.61109   0.61303
 Alpha virt. eigenvalues --    0.61522   0.62407   0.62984   0.63327   0.64896
 Alpha virt. eigenvalues --    0.65960   0.66532   0.68063   0.68956   0.70143
 Alpha virt. eigenvalues --    0.71287   0.72082   0.73740   0.74490   0.75823
 Alpha virt. eigenvalues --    0.77724   0.78175   0.78984   0.80215   0.81799
 Alpha virt. eigenvalues --    0.82185   0.82654   0.82975   0.83396   0.83799
 Alpha virt. eigenvalues --    0.84017   0.84520   0.84593   0.85138   0.85371
 Alpha virt. eigenvalues --    0.86452   0.87092   0.88099   0.88473   0.89047
 Alpha virt. eigenvalues --    0.89711   0.89876   0.90954   0.91337   0.92499
 Alpha virt. eigenvalues --    0.92932   0.93468   0.94653   0.95071   0.95221
 Alpha virt. eigenvalues --    0.96139   0.97560   0.98550   0.99217   0.99654
 Alpha virt. eigenvalues --    1.00637   1.02396   1.03026   1.03796   1.04750
 Alpha virt. eigenvalues --    1.06155   1.06429   1.08132   1.09961   1.10537
 Alpha virt. eigenvalues --    1.11071   1.12126   1.12654   1.13535   1.14408
 Alpha virt. eigenvalues --    1.15115   1.16585   1.17545   1.18894   1.19358
 Alpha virt. eigenvalues --    1.20644   1.21683   1.22603   1.24942   1.26049
 Alpha virt. eigenvalues --    1.26576   1.30540   1.32417   1.33297   1.35712
 Alpha virt. eigenvalues --    1.37757   1.38799   1.40695   1.42261   1.42530
 Alpha virt. eigenvalues --    1.42811   1.45070   1.45523   1.45957   1.47622
 Alpha virt. eigenvalues --    1.47892   1.48432   1.49146   1.49292   1.51260
 Alpha virt. eigenvalues --    1.51448   1.52792   1.55958   1.59450   1.64780
 Alpha virt. eigenvalues --    1.68659   1.70030   1.71655   1.73738   1.74862
 Alpha virt. eigenvalues --    1.76868   1.77236   1.78435   1.79842   1.80374
 Alpha virt. eigenvalues --    1.81242   1.81946   1.82442   1.83342   1.83992
 Alpha virt. eigenvalues --    1.84779   1.86536   1.87230   1.87516   1.87974
 Alpha virt. eigenvalues --    1.89512   1.90488   1.92578   1.93241   1.93422
 Alpha virt. eigenvalues --    1.95366   1.96506   1.97476   1.97899   1.98160
 Alpha virt. eigenvalues --    1.99310   2.00514   2.00895   2.02636   2.04293
 Alpha virt. eigenvalues --    2.05614   2.06120   2.07246   2.09011   2.10892
 Alpha virt. eigenvalues --    2.12648   2.12912   2.13432   2.13798   2.14159
 Alpha virt. eigenvalues --    2.14560   2.14925   2.15247   2.16490   2.18604
 Alpha virt. eigenvalues --    2.20518   2.21654   2.23817   2.26349   2.26916
 Alpha virt. eigenvalues --    2.28536   2.28990   2.29472   2.30971   2.31866
 Alpha virt. eigenvalues --    2.31928   2.32619   2.34723   2.38915   2.40205
 Alpha virt. eigenvalues --    2.41834   2.49465   2.52096   2.53574   2.55408
 Alpha virt. eigenvalues --    2.57230   2.57791   2.58596   2.63390   2.65459
 Alpha virt. eigenvalues --    2.66268   2.68785   2.70470   2.71647   2.72139
 Alpha virt. eigenvalues --    2.72469   2.72983   2.73074   2.73619   2.74632
 Alpha virt. eigenvalues --    2.74978   2.76598   2.77088   2.78958   2.83136
 Alpha virt. eigenvalues --    2.89221   2.94241   3.02284   3.05153   3.37104
 Alpha virt. eigenvalues --    3.41107   3.77167   3.81848   3.92526   3.99246
 Alpha virt. eigenvalues --    3.99432   4.06695   4.08057   4.09177   4.10717
 Alpha virt. eigenvalues --    4.11579   4.15673   4.16004   4.22625   4.24985
 Alpha virt. eigenvalues --    4.32202   4.32820   4.33150   4.37396   4.41620
 Alpha virt. eigenvalues --    4.51867   4.65114   4.70455   4.74176
          Condensed to atoms (all electrons):
               1          2          3          4          5          6
     1  O    8.266183   0.463814  -0.055952   0.001659  -0.000056   0.000004
     2  S    0.463814  13.697463   0.117939  -0.004870  -0.001167   0.000844
     3  N   -0.055952   0.117939   7.417865   0.217422  -0.041032   0.002270
     4  C    0.001659  -0.004870   0.217422   4.821031   0.330925  -0.070850
     5  C   -0.000056  -0.001167  -0.041032   0.330925   5.646543   0.083803
     6  S    0.000004   0.000844   0.002270  -0.070850   0.083803  14.878961
     7  O   -0.000000   0.000004  -0.000035   0.001106  -0.036670   0.307344
     8  C   -0.000071   0.000681  -0.046411   0.327311  -0.125812   0.081631
     9  C   -0.000111  -0.004342  -0.057538   0.368134  -0.046382   0.006245
    10  C   -0.000001  -0.000030   0.004267  -0.028744  -0.006786   0.000188
    11  C    0.000000  -0.000021  -0.000130   0.003457   0.000151   0.000169
    12  C    0.000000  -0.000000  -0.000003   0.000080  -0.000002  -0.000005
    13  C    0.000000   0.000000  -0.000000   0.000002  -0.000000   0.000000
    14  C   -0.000000   0.000000   0.000000  -0.000000   0.000000   0.000000
    15  C    0.000000  -0.000000  -0.000000   0.000002  -0.000000   0.000000
    16  C    0.000000  -0.000007  -0.000002   0.000090  -0.000014  -0.000004
    17  C   -0.064074   0.191807  -0.052615  -0.003337  -0.002089  -0.000058
    18  C    0.000228  -0.021036  -0.000621   0.000089  -0.000351   0.000127
    19  C    0.000074   0.001976   0.000170  -0.000007   0.000028   0.000007
    20  C   -0.000004  -0.000459   0.000011   0.000000   0.000017   0.000001
    21  C   -0.000052   0.003411  -0.000116   0.000005   0.000001  -0.000004
    22  C   -0.001675  -0.035775   0.001569   0.000126  -0.001904  -0.000005
    23  O   -0.043101   0.390199  -0.052403   0.006796   0.001796   0.000158
    24  H    0.003768  -0.009994   0.294247  -0.021384   0.004412   0.000017
    25  H    0.000000  -0.000105   0.002010  -0.026471   0.350922  -0.018737
    26  H   -0.000006   0.002651  -0.005222  -0.026204   0.332484  -0.011442
    27  H    0.000000  -0.000021   0.002055  -0.026972   0.007334  -0.018308
    28  H   -0.000006   0.000110  -0.001170  -0.026543   0.007144  -0.010122
    29  H   -0.000007   0.000535  -0.002496  -0.032418   0.005638  -0.000285
    30  H   -0.000299   0.002659  -0.002876  -0.029493  -0.004750  -0.000463
    31  H   -0.000000   0.000010  -0.000033  -0.005108   0.002384  -0.000017
    32  H   -0.000000   0.000004  -0.000035  -0.004344  -0.000755  -0.000373
    33  H    0.000000   0.000000   0.000000  -0.000050   0.000001  -0.000002
    34  H   -0.000000   0.000000   0.000000  -0.000000  -0.000000  -0.000000
    35  H   -0.000000   0.000000  -0.000000  -0.000000   0.000000  -0.000000
    36  H   -0.000000   0.000000   0.000000  -0.000000  -0.000000  -0.000000
    37  H    0.000000   0.000001   0.000000  -0.000048  -0.000001  -0.000001
    38  H    0.000302  -0.002570   0.007167   0.000110  -0.000072   0.000029
    39  H    0.000001  -0.000068  -0.000000   0.000000  -0.000000   0.000000
    40  H   -0.000000   0.000006   0.000000  -0.000000   0.000000  -0.000000
    41  H    0.000000  -0.000079   0.000000   0.000000  -0.000001   0.000000
    42  H   -0.000024  -0.006796   0.000226  -0.000018   0.000017   0.000002
               7          8          9         10         11         12
     1  O   -0.000000  -0.000071  -0.000111  -0.000001   0.000000   0.000000
     2  S    0.000004   0.000681  -0.004342  -0.000030  -0.000021  -0.000000
     3  N   -0.000035  -0.046411  -0.057538   0.004267  -0.000130  -0.000003
     4  C    0.001106   0.327311   0.368134  -0.028744   0.003457   0.000080
     5  C   -0.036670  -0.125812  -0.046382  -0.006786   0.000151  -0.000002
     6  S    0.307344   0.081631   0.006245   0.000188   0.000169  -0.000005
     7  O    8.449878  -0.037368  -0.000331   0.000071   0.000189  -0.000002
     8  C   -0.037368   5.654163  -0.051634  -0.005494   0.000095  -0.000016
     9  C   -0.000331  -0.051634   5.141261   0.332429  -0.033404  -0.003942
    10  C    0.000071  -0.005494   0.332429   5.237963   0.327651  -0.058483
    11  C    0.000189   0.000095  -0.033404   0.327651   4.669637   0.544128
    12  C   -0.000002  -0.000016  -0.003942  -0.058483   0.544128   4.986491
    13  C   -0.000000  -0.000000  -0.000087   0.007023  -0.020915   0.516241
    14  C    0.000000   0.000000   0.000024   0.000261  -0.034744  -0.037846
    15  C   -0.000000  -0.000000  -0.000071   0.006937  -0.020773  -0.047479
    16  C   -0.000001  -0.000003  -0.003684  -0.058806   0.543242  -0.038829
    17  C   -0.000000  -0.000306  -0.000200   0.000002  -0.000000  -0.000000
    18  C   -0.000000  -0.000040   0.000006  -0.000000   0.000000   0.000000
    19  C    0.000000  -0.000001   0.000000  -0.000000  -0.000000  -0.000000
    20  C    0.000000   0.000000   0.000000  -0.000000   0.000000   0.000000
    21  C   -0.000000  -0.000000  -0.000000  -0.000000  -0.000000  -0.000000
    22  C   -0.000000  -0.000001   0.000011  -0.000000   0.000000   0.000000
    23  O   -0.000000   0.000068  -0.008399   0.000083  -0.000003  -0.000000
    24  H    0.000001  -0.004814  -0.001053  -0.000073   0.000002  -0.000001
    25  H   -0.000147   0.007109  -0.006387  -0.000209  -0.000026  -0.000000
    26  H    0.001169   0.006651   0.002507   0.000191   0.000003   0.000000
    27  H   -0.000444   0.348089  -0.005467  -0.000814  -0.000038   0.000000
    28  H    0.001200   0.334590   0.002925   0.000139   0.000005  -0.000000
    29  H    0.000004  -0.005755   0.362217  -0.038292  -0.001925   0.003795
    30  H    0.000003   0.005474   0.358802  -0.033823  -0.001819  -0.000081
    31  H    0.002387  -0.000563  -0.037245   0.354033  -0.025325   0.003877
    32  H    0.004383   0.002157  -0.037534   0.351081  -0.024441  -0.004675
    33  H    0.000001  -0.000004   0.000319  -0.009616  -0.044811   0.359734
    34  H   -0.000000  -0.000000  -0.000001  -0.000173   0.003660  -0.038732
    35  H    0.000000   0.000000   0.000000   0.000006   0.000612   0.004623
    36  H   -0.000000  -0.000000  -0.000001  -0.000172   0.003649   0.000758
    37  H    0.000000   0.000001   0.000296  -0.009485  -0.044656   0.006081
    38  H   -0.000000  -0.000027   0.000008  -0.000000   0.000000   0.000000
    39  H   -0.000000   0.000000  -0.000000   0.000000  -0.000000   0.000000
    40  H   -0.000000  -0.000000  -0.000000  -0.000000   0.000000   0.000000
    41  H   -0.000000   0.000000   0.000000  -0.000000   0.000000   0.000000
[...]
    32  H    0.102528   0.002003  -0.061372  -0.260017   0.005886   0.003495
    33  H    0.351518  -0.145659   0.114886  -0.088438   0.002148  -0.001174
    34  H   -0.790981   0.322683  -0.249080   0.133849  -0.000054   0.000037
    35  H    0.385582  -0.625017   0.384779  -0.147973   0.000015  -0.000015
    36  H   -0.240149   0.319404  -0.760140   0.639745   0.000028   0.000044
    37  H    0.119338  -0.145507   0.371289  -1.258605   0.002396  -0.001296
    38  H   -0.000236   0.000055  -0.000022   0.000540   1.068270  -1.488013
    39  H    0.000003  -0.000000  -0.000002  -0.000006  -0.190298   0.618511
    40  H    0.000000  -0.000000   0.000002  -0.000010   0.147710  -0.136944
    41  H    0.000000  -0.000001  -0.000034   0.000059  -0.108365   0.148828
    42  H    0.000083  -0.000084   0.000252  -0.001737   0.422497  -0.116562
              19         20         21         22         23         24
     1  O   -0.004888  -0.015800   0.029166   0.057893   0.080609   0.035590
     2  S    0.117877   0.065740  -0.385717  -1.130167  -0.753289  -0.147251
     3  N   -0.292480   0.034960  -0.016776   0.207582   0.175631   0.303254
     4  C    0.088904  -0.088237   0.099672  -0.087587   0.122610   0.206383
     5  C    0.033160   0.003775   0.030109  -0.040107  -0.057393  -0.075940
     6  S   -0.025696   0.002820  -0.003689   0.025386  -0.001548  -0.002878
     7  O    0.000734   0.000003  -0.000363  -0.004494   0.000346   0.001097
     8  C   -0.003528   0.001577  -0.026066   0.058982  -0.018545  -0.053410
     9  C    0.028912  -0.035350   0.067814  -0.196889   0.040111  -0.032931
    10  C    0.000323  -0.002036   0.007022  -0.010115   0.001530   0.023172
    11  C   -0.000488   0.000266  -0.000949   0.006384  -0.009540   0.018958
    12  C   -0.000223  -0.000132   0.001143   0.002071  -0.002762   0.006108
    13  C    0.000034  -0.000003  -0.000044  -0.000180   0.000672   0.004075
    14  C   -0.000025  -0.000000   0.000042   0.000210  -0.000937  -0.002239
    15  C    0.000068   0.000022  -0.000790  -0.001995   0.000928   0.003183
    16  C    0.000267  -0.000210  -0.000354  -0.003043  -0.003345  -0.000508
    17  C    2.850925  -4.444100   3.245961  -6.256483   0.216162   0.069876
    18  C   -5.633379   3.965224  -4.924247   1.804129  -0.089474  -0.058412
    19  C   12.772200  -3.701081   4.053305  -4.290844  -0.014458   0.022809
    20  C   -3.701081  10.264776  -3.996346   3.581828   0.003183  -0.002586
    21  C    4.053305  -3.996346  12.374160  -4.822472  -0.036803   0.001721
    22  C   -4.290844   3.581828  -4.822472  17.295992   0.157905  -0.000141
    23  O   -0.014458   0.003183  -0.036803   0.157905   9.467981  -0.004101
    24  H    0.022809  -0.002586   0.001721  -0.000141  -0.004101   0.786080
    25  H    0.010295   0.001634  -0.020126   0.017184  -0.019447  -0.004679
    26  H   -0.071864   0.042971   0.023990   0.014639   0.082394   0.008420
    27  H    0.000285  -0.000886  -0.000448  -0.001067  -0.001070   0.000693
    28  H   -0.004688  -0.000673   0.000807   0.003045   0.001680  -0.002313
    29  H   -0.002172   0.000784   0.000839   0.002022  -0.000772  -0.002378
    30  H   -0.002431  -0.001448  -0.001059  -0.020837   0.000614  -0.008122
    31  H   -0.000532  -0.000942   0.001345   0.000228  -0.002195  -0.000899
    32  H   -0.000539   0.000519   0.000059   0.000591   0.003062   0.001076
    33  H   -0.000069  -0.000025   0.000080   0.000204  -0.000444   0.000419
    34  H    0.000004   0.000000  -0.000005  -0.000022   0.000007   0.000045
    35  H   -0.000001  -0.000000   0.000003   0.000013  -0.000034  -0.000006
    36  H    0.000010  -0.000003  -0.000071  -0.000142  -0.000096   0.000090
    37  H    0.000028  -0.000113   0.001570   0.000368   0.002505  -0.000480
    38  H    0.312541  -0.265291   0.183201  -0.203653   0.016384   0.007195
    39  H   -0.787989   0.369090  -0.279901   0.160790  -0.000790   0.001450
    40  H    0.384313  -0.686818   0.383560  -0.151266   0.000253   0.000009
    41  H   -0.270588   0.337353  -0.857628   0.653277   0.000160  -0.000176
    42  H    0.089526  -0.155643   0.499736  -1.078312  -0.071153  -0.003323
              25         26         27         28         29         30
     1  O   -0.001923   0.010839   0.000738  -0.001125  -0.017428  -0.018184
     2  S    0.012148  -0.152550   0.007468   0.002085   0.013142   0.140046
     3  N    0.073491   0.000697   0.184438  -0.182098  -0.352421   0.118889
     4  C   -0.304608  -0.412957  -0.312890  -0.211697   0.117090  -1.181108
     5  C    0.137342   0.057559   0.161903   0.071626   0.285509  -0.121032
     6  S    0.104556  -0.203466   0.186412  -0.214243  -0.003800  -0.007956
     7  O    0.038168  -0.027408  -0.004968   0.009631   0.002637   0.005405
     8  C    0.144294  -0.005762   0.408631  -0.020849  -0.193721   0.054978
     9  C   -0.209209   0.541019  -0.633019   0.676099  -0.171578   0.636080
    10  C    0.161911  -0.076194   0.123161  -0.035970  -0.047204   0.279974
    11  C    0.021899  -0.053774   0.046897  -0.034470  -0.149706  -0.300180
    12  C    0.025077  -0.010780  -0.046277   0.002586   0.050972   0.048059
    13  C    0.009620  -0.006603   0.001138   0.001757  -0.023550  -0.049866
    14  C   -0.002803   0.001087  -0.001249   0.000436   0.020422   0.029301
    15  C   -0.005988   0.008195   0.001688  -0.002040  -0.038533  -0.031654
    16  C   -0.047219   0.016802   0.013685  -0.000176   0.039384   0.097922
    17  C   -0.011840  -0.041812  -0.024990   0.033423   0.014249  -0.025200
    18  C    0.033794  -0.034646   0.007954  -0.024927  -0.003057  -0.005926
    19  C    0.010295  -0.071864   0.000285  -0.004688  -0.002172  -0.002431
    20  C    0.001634   0.042971  -0.000886  -0.000673   0.000784  -0.001448
    21  C   -0.020126   0.023990  -0.000448   0.000807   0.000839  -0.001059
    22  C    0.017184   0.014639  -0.001067   0.003045   0.002022  -0.020837
    23  O   -0.019447   0.082394  -0.001070   0.001680  -0.000772   0.000614
    24  H   -0.004679   0.008420   0.000693  -0.002313  -0.002378  -0.008122
    25  H    1.754764  -0.502295   0.008060   0.006493   0.007551   0.017769
    26  H   -0.502295   1.963337   0.004089   0.030374   0.020992   0.010802
    27  H    0.008060   0.004089   1.543545  -0.352388   0.004667   0.000036
    28  H    0.006493   0.030374  -0.352388   1.505949   0.026423   0.022453
    29  H    0.007551   0.020992   0.004667   0.026423   1.904570  -0.300571
    30  H    0.017769   0.010802   0.000036   0.022453  -0.300571   1.893430
    31  H   -0.119522   0.063347   0.015558   0.004382   0.062416  -0.084221
    32  H   -0.001870   0.003091  -0.071344   0.016791  -0.079854   0.069520
    33  H    0.000765   0.000117  -0.003389   0.001843  -0.011009  -0.000567
    34  H   -0.000012  -0.000135   0.001530  -0.000081  -0.002894   0.000900
    35  H    0.000019  -0.000004   0.000057  -0.000009  -0.000401  -0.000659
    36  H    0.001336  -0.000195  -0.000269  -0.000005   0.000877  -0.002005
    37  H   -0.002919   0.002736   0.000955  -0.000681   0.005839  -0.026045
    38  H   -0.003931   0.033344  -0.005519   0.009877   0.007474  -0.004350
    39  H    0.000031  -0.002766   0.000158  -0.000509  -0.000375   0.000383
    40  H    0.000554  -0.004169  -0.000036   0.000066   0.000005  -0.000021
    41  H   -0.001014   0.008934  -0.000041  -0.000013   0.000088  -0.000211
    42  H   -0.000751  -0.006777   0.000032   0.000697  -0.000611  -0.005437
              31         32         33         34         35         36
     1  O   -0.000752  -0.002179   0.000088   0.000017  -0.000004   0.000024
     2  S   -0.026788   0.026882  -0.001945   0.000081  -0.000057   0.000271
     3  N   -0.008244   0.031172  -0.010557   0.000291  -0.000263   0.000010
     4  C   -0.223466  -0.028182   0.041942   0.004736   0.000377   0.002224
     5  C    0.116710  -0.012137  -0.007092  -0.000467  -0.000257   0.000126
     6  S    0.027382  -0.036428   0.001655  -0.000145   0.000023  -0.000127
     7  O   -0.022053  -0.008329  -0.000643   0.000001  -0.000008  -0.000007
     8  C    0.132398  -0.176570  -0.001839   0.000429  -0.000162  -0.000284
     9  C    0.003310   0.315116   0.126915   0.011151  -0.008077   0.007984
    10  C   -0.130146  -0.141853  -0.237372   0.000572   0.001836   0.002281
    11  C   -0.156466  -0.129365   0.845129  -0.146818   0.111585  -0.154705
    12  C   -0.318056   0.256059  -1.244601   0.655418  -0.145766   0.132150
    13  C   -0.096364   0.102528   0.351518  -0.790981   0.385582  -0.240149
    14  C    0.013119   0.002003  -0.145659   0.322683  -0.625017   0.319404
    15  C    0.116949  -0.061372   0.114886  -0.249080   0.384779  -0.760140
    16  C    0.321112  -0.260017  -0.088438   0.133849  -0.147973   0.639745
    17  C   -0.002077   0.005886   0.002148  -0.000054   0.000015   0.000028
    18  C   -0.007791   0.003495  -0.001174   0.000037  -0.000015   0.000044
    19  C   -0.000532  -0.000539  -0.000069   0.000004  -0.000001   0.000010
    20  C   -0.000942   0.000519  -0.000025   0.000000  -0.000000  -0.000003
    21  C    0.001345   0.000059   0.000080  -0.000005   0.000003  -0.000071
    22  C    0.000228   0.000591   0.000204  -0.000022   0.000013  -0.000142
    23  O   -0.002195   0.003062  -0.000444   0.000007  -0.000034  -0.000096
    24  H   -0.000899   0.001076   0.000419   0.000045  -0.000006   0.000090
    25  H   -0.119522  -0.001870   0.000765  -0.000012   0.000019   0.001336
    26  H    0.063347   0.003091   0.000117  -0.000135  -0.000004  -0.000195
    27  H    0.015558  -0.071344  -0.003389   0.001530   0.000057  -0.000269
    28  H    0.004382   0.016791   0.001843  -0.000081  -0.000009  -0.000005
    29  H    0.062416  -0.079854  -0.011009  -0.002894  -0.000401   0.000877
    30  H   -0.084221   0.069520  -0.000567   0.000900  -0.000659  -0.002005
    31  H    1.905615  -0.241863   0.008863  -0.000277   0.000751  -0.004057
    32  H   -0.241863   1.785547  -0.047288  -0.002759   0.000766   0.000379
    33  H    0.008863  -0.047288   2.097226  -0.084538  -0.017569   0.011143
    34  H   -0.000277  -0.002759  -0.084538   1.675787  -0.050512  -0.020260
    35  H    0.000751   0.000766  -0.017569  -0.050512   1.617564  -0.050987
    36  H   -0.004057   0.000379   0.011143  -0.020260  -0.050987   1.663312
    37  H   -0.044502   0.007362  -0.023694   0.010629  -0.016849  -0.082728
    38  H   -0.000053   0.001566   0.000013  -0.000006   0.000002  -0.000013
    39  H    0.000026  -0.000079   0.000003   0.000000  -0.000000   0.000000
    40  H   -0.000061   0.000033  -0.000001   0.000000  -0.000000  -0.000000
    41  H   -0.000056  -0.000009   0.000001  -0.000000   0.000000  -0.000002
    42  H    0.001088   0.000133   0.000036   0.000002  -0.000003   0.000061
              37         38         39         40         41         42
     1  O    0.000386   0.051531  -0.001403  -0.000562   0.001779  -0.008553
     2  S   -0.011698  -0.296972   0.034790   0.009179  -0.018112  -0.015907
     3  N   -0.005285  -0.127718  -0.003011   0.001452  -0.001994   0.021142
     4  C    0.096506   0.168856   0.003488  -0.004012   0.008772  -0.006648
     5  C   -0.001635  -0.015101  -0.004552   0.001513  -0.007307   0.027198
     6  S    0.002244   0.000620  -0.000608   0.000339  -0.000709   0.005294
     7  O   -0.000962  -0.000481  -0.000003  -0.000010   0.000039  -0.000463
     8  C   -0.002789  -0.084737   0.001348   0.000081  -0.001032   0.002481
     9  C    0.096756   0.077285  -0.000141  -0.000659   0.001965  -0.007637
    10  C   -0.286142  -0.001007   0.000173  -0.000101   0.000328   0.000183
    11  C    0.865879  -0.001867   0.000035  -0.000009  -0.000058   0.000732
    12  C   -0.091197   0.000066   0.000009  -0.000003   0.000029   0.000225
    13  C    0.119338  -0.000236   0.000003   0.000000   0.000000   0.000083
    14  C   -0.145507   0.000055  -0.000000  -0.000000  -0.000001  -0.000084
    15  C    0.371289  -0.000022  -0.000002   0.000002  -0.000034   0.000252
    16  C   -1.258605   0.000540  -0.000006  -0.000010   0.000059  -0.001737
    17  C    0.002396   1.068270  -0.190298   0.147710  -0.108365   0.422497
    18  C   -0.001296  -1.488013   0.618511  -0.136944   0.148828  -0.116562
    19  C    0.000028   0.312541  -0.787989   0.384313  -0.270588   0.089526
    20  C   -0.000113  -0.265291   0.369090  -0.686818   0.337353  -0.155643
    21  C    0.001570   0.183201  -0.279901   0.383560  -0.857628   0.499736
    22  C    0.000368  -0.203653   0.160790  -0.151266   0.653277  -1.078312
    23  O    0.002505   0.016384  -0.000790   0.000253   0.000160  -0.071153
    24  H   -0.000480   0.007195   0.001450   0.000009  -0.000176  -0.003323
    25  H   -0.002919  -0.003931   0.000031   0.000554  -0.001014  -0.000751
    26  H    0.002736   0.033344  -0.002766  -0.004169   0.008934  -0.006777
    27  H    0.000955  -0.005519   0.000158  -0.000036  -0.000041   0.000032
    28  H   -0.000681   0.009877  -0.000509   0.000066  -0.000013   0.000697
    29  H    0.005839   0.007474  -0.000375   0.000005   0.000088  -0.000611
    30  H   -0.026045  -0.004350   0.000383  -0.000021  -0.000211  -0.005437
    31  H   -0.044502  -0.000053   0.000026  -0.000061  -0.000056   0.001088
    32  H    0.007362   0.001566  -0.000079   0.000033  -0.000009   0.000133
    33  H   -0.023694   0.000013   0.000003  -0.000001   0.000001   0.000036
    34  H    0.010629  -0.000006   0.000000   0.000000  -0.000000   0.000002
    35  H   -0.016849   0.000002  -0.000000  -0.000000   0.000000  -0.000003
    36  H   -0.082728  -0.000013   0.000000  -0.000000  -0.000002   0.000061
    37  H    2.081997   0.000107  -0.000005  -0.000005   0.000100  -0.001227
    38  H    0.000107   2.423759  -0.130434  -0.017734   0.015451  -0.024607
    39  H   -0.000005  -0.130434   1.755920  -0.059057  -0.023014   0.010457
    40  H   -0.000005  -0.017734  -0.059057   1.648915  -0.058802  -0.014356
    41  H    0.000100   0.015451  -0.023014  -0.058802   1.713907  -0.091262
    42  H   -0.001227  -0.024607   0.010457  -0.014356  -0.091262   2.143267
 Mulliken charges:
               1
     1  O   -1.187513
     2  S    2.931548
     3  N   -1.034516
     4  C    0.759913
     5  C    0.346154
     6  S    1.564140
     7  O   -1.225775
     8  C    0.513700
     9  C   -0.182265
    10  C    0.886388
    11  C    1.115636
    12  C    0.462241
    13  C    0.031629
    14  C    0.670151
    15  C    0.005473
    16  C    0.592195
    17  C    0.711224
    18  C    0.461774
    19  C    0.341444
    20  C    0.721196
    21  C    0.368547
    22  C    0.249092
    23  O   -1.286529
    24  H   -0.098930
    25  H   -0.328598
    26  H   -0.335621
    27  H   -0.263927
    28  H   -0.339567
    29  H   -0.185918
    30  H   -0.227475
    31  H   -0.303219
    32  H   -0.331599
    33  H   -0.677080
    34  H   -0.469124
    35  H   -0.438736
    36  H   -0.465253
    37  H   -0.664625
    38  H   -0.706394
    39  H   -0.471720
    40  H   -0.443349
    41  H   -0.450643
    42  H   -0.614069
 Sum of Mulliken charges =  -0.00000
 Mulliken charges with hydrogens summed into heavy atoms:
               1
     1  O   -1.187513
     2  S    2.931548
     3  N   -1.133446
     4  C    0.759913
     5  C   -0.318064
     6  S    1.564140
     7  O   -1.225775
     8  C   -0.089795
     9  C   -0.595658
    10  C    0.251569
    11  C    1.115636
    12  C   -0.214839
    13  C   -0.437495
    14  C    0.231414
    15  C   -0.459780
    16  C   -0.072430
    17  C    0.711224
    18  C   -0.244620
    19  C   -0.130276
    20  C    0.277848
    21  C   -0.082096
    22  C   -0.364976
    23  O   -1.286529
 Electronic spatial extent (au):  <R**2>=          10421.3515
 Charge=              0.0000 electrons
 Dipole moment (field-independent basis, Debye):
    X=             -3.9274    Y=              0.5964    Z=             -1.4100  Tot=              4.2152
 Quadrupole moment (field-independent basis, Debye-Ang):
   XX=           -127.6480   YY=           -186.1924   ZZ=           -141.9458
   XY=            -15.9899   XZ=            -11.1023   YZ=            -17.7373
 Traceless Quadrupole moment (field-independent basis, Debye-Ang):
   XX=             24.2807   YY=            -34.2637   ZZ=              9.9830
   XY=            -15.9899   XZ=            -11.1023   YZ=            -17.7373
 Octapole moment (field-independent basis, Debye-Ang**2):
  XXX=           -132.1896  YYY=            -47.6879  ZZZ=             -1.9195  XYY=             -3.1486
  XXY=             -9.4087  XXZ=              9.0809  XZZ=            -15.2194  YZZ=              6.5678
  YYZ=            -12.1258  XYZ=             -0.9935
 Hexadecapole moment (field-independent basis, Debye-Ang**3):
 XXXX=          -9854.6723 YYYY=          -2959.7075 ZZZZ=           -969.7418 XXXY=           -375.1990
 XXXZ=           -292.5440 YYYX=           -119.4716 YYYZ=           -153.9799 ZZZX=            -38.0242
 ZZZY=            -44.9433 XXYY=          -2336.0249 XXZZ=          -1868.2736 YYZZ=           -610.5861
 XXYZ=           -160.3279 YYXZ=            -31.9774 ZZXY=            -16.3746
 N-N= 2.247647326837D+03 E-N=-8.567937559650D+03  KE= 1.727294002966D+03
 Leave Link  601 at Mon Sep 21 22:13:53 2020, MaxMem=   262144000 cpu:               2.6 elap:               1.2
 (Enter /prod/apps/gaussian/g16b1/l9999.exe)
 1\1\GINC-PIRINEUS11\SP\RMP2-FC\Aug-CC-pVDZ\C17H19N1O3S2\UBAFAR01\21-Se
 p-2020\0\\#p mp2/aug-cc-pVDZ scf=(MaxCycle=2000,NoVarAcc,NoIncFock) ma
 xdisk=120GB geom=allcheck\\SM36_m0.n.15.pdb.xyz\\0,1\O,0,-1.8623383698
 ,-2.5052418829,-1.6501530378\S,0,-1.621629315,-1.5328210712,-0.5690814
 63\N,0,-0.9015595408,-0.2129168758,-1.3167596119\C,0,0.0755873542,0.65
 09389742,-0.6089814878\C,0,-0.5048686471,1.2241452942,0.7125121109\S,0
 ,-0.4142468699,2.9960728641,0.1220233832\O,0,0.7686990169,3.711317238,
 0.7649252067\C,0,0.1523872344,2.0082889461,-1.357369691\C,0,1.43918456
 86,-0.0550720982,-0.4699303131\C,0,2.5477463661,0.7480123388,0.2369099
 632\C,0,3.8527612979,-0.0170420826,0.2701115411\C,0,4.7876947958,0.116
 8196443,-0.7650378325\C,0,5.9805637534,-0.6083807289,-0.753234764\C,0,
 6.2585238056,-1.4824095285,0.2996937155\C,0,5.3361601487,-1.623884108,
 1.3388040189\C,0,4.144548725,-0.8961136792,1.3227065351\C,0,-3.1948269
 506,-0.8975758602,-0.0020793011\C,0,-4.0276629593,-0.2138452702,-0.891
 7206993\C,0,-5.2794209233,0.2059216669,-0.4498872044\C,0,-5.6888410881
 ,-0.0614482494,0.8594304953\C,0,-4.8481531549,-0.7495687769,1.73443209
 29\C,0,-3.5910082082,-1.1770203588,1.3056082347\O,0,-0.8736371405,-1.9
 610466407,0.6263974434\H,0,-0.5673774875,-0.5105673237,-2.2352139744\H
 ,0,0.115435111,1.0845076336,1.5976925825\H,0,-1.537535159,0.9528404391
 ,0.9309619509\H,0,1.150102132,2.3213558031,-1.6663347213\H,0,-0.551977
 0743,2.1120514569,-2.1829054614\H,0,1.7760403806,-0.316197349,-1.48033
 8028\H,0,1.2721434433,-0.992678704,0.0667768572\H,0,2.2374425262,0.981
 3045812,1.2601023564\H,0,2.700079917,1.7053758574,-0.270844636\H,0,4.5
 799222996,0.7991654742,-1.5845928651\H,0,6.6934934032,-0.4871150995,-1
 .5626879607\H,0,7.1865249955,-2.0449031621,0.312483949\H,0,5.546093486
 1,-2.2968525927,2.1642411701\H,0,3.4336806087,-1.0066698111,2.13714012
 98\H,0,-3.6981547563,-0.0036439709,-1.9021863383\H,0,-5.9341408075,0.7
 435331504,-1.1263186215\H,0,-6.6644815145,0.2704216488,1.1969548197\H,
 0,-5.1668114116,-0.9542165988,2.7502170071\H,0,-2.9201439915,-1.708841
 188,1.9685324489\\Version=ES64L-G16RevB.01\State=1-A\HF=-1728.8645025\
 MP2=-1732.3062982\RMSD=8.558e-09\PG=C01 [X(C17H19N1O3S2)]\\@


 HOW IS IT THAT THE SKY FEEDS THE STARS?

                           -- LUCRETIUS
 Job cpu time:       0 days  9 hours 34 minutes 52.7 seconds.
 Elapsed time:       0 days  2 hours 53 minutes 21.4 seconds.
 File lengths (MBytes):  RWF= 106975 Int=      0 D2E=      0 Chk=     42 Scr=      1
 Normal termination of Gaussian 16 at Mon Sep 21 22:13:59 2020.
