 Entering Gaussian System, Link 0=g16
 Initial command:
 /prod/apps/gaussian/g16b1/l1.exe "/tmp/ubafar01/1460066/Gau-166356.inp" -scrdir="/tmp/ubafar01/1460066/"
 Entering Link 1 = /prod/apps/gaussian/g16b1/l1.exe PID=    166357.
  
 Copyright (c) 1988-2017, Gaussian, Inc.  All Rights Reserved.
  
 This is part of the Gaussian(R) 16 program.  It is based on
 the Gaussian(R) 09 system (copyright 2009, Gaussian, Inc.),
 the Gaussian(R) 03 system (copyright 2003, Gaussian, Inc.),
 the Gaussian(R) 98 system (copyright 1998, Gaussian, Inc.),
 the Gaussian(R) 94 system (copyright 1995, Gaussian, Inc.),
 the Gaussian 92(TM) system (copyright 1992, Gaussian, Inc.),
 the Gaussian 90(TM) system (copyright 1990, Gaussian, Inc.),
 the Gaussian 88(TM) system (copyright 1988, Gaussian, Inc.),
 the Gaussian 86(TM) system (copyright 1986, Carnegie Mellon
 University), and the Gaussian 82(TM) system (copyright 1983,
 Carnegie Mellon University). Gaussian is a federally registered
 trademark of Gaussian, Inc.
  
 This software contains proprietary and confidential information,
 including trade secrets, belonging to Gaussian, Inc.
  
 This software is provided under written license and may be
 used, copied, transmitted, or stored only in accord with that
 written license.
  
 The following legend is applicable only to US Government
 contracts under FAR:
  
                    RESTRICTED RIGHTS LEGEND
  
 Use, reproduction and disclosure by the US Government is
 subject to restrictions as set forth in subparagraphs (a)
 and (c) of the Commercial Computer Software - Restricted
 Rights clause in FAR 52.227-19.
  
 Gaussian, Inc.
 340 Quinnipiac St., Bldg. 40, Wallingford CT 06492
  
  
 ---------------------------------------------------------------
 Warning -- This program may not be used in any manner that
 competes with the business of Gaussian, Inc. or will provide
 assistance to any competitor of Gaussian, Inc.  The licensee
 of this program is prohibited from giving any competitor of
 Gaussian, Inc. access to this program.  By using this program,
 the user acknowledges that Gaussian, Inc. is engaged in the
 business of creating and licensing software in the field of
 computational chemistry and represents and warrants to the
 licensee that it is not a competitor of Gaussian, Inc. and that
 it will not use this program in any manner prohibited above.
 ---------------------------------------------------------------
  

 Cite this work as:
 Gaussian 16, Revision B.01,
 M. J. Frisch, G. W. Trucks, H. B. Schlegel, G. E. Scuseria, 
 M. A. Robb, J. R. Cheeseman, G. Scalmani, V. Barone, 
 G. A. Petersson, H. Nakatsuji, X. Li, M. Caricato, A. V. Marenich, 
 J. Bloino, B. G. Janesko, R. Gomperts, B. Mennucci, H. P. Hratchian, 
 J. V. Ortiz, A. F. Izmaylov, J. L. Sonnenberg, D. Williams-Young, 
 F. Ding, F. Lipparini, F. Egidi, J. Goings, B. Peng, A. Petrone, 
 T. Henderson, D. Ranasinghe, V. G. Zakrzewski, J. Gao, N. Rega, 
 G. Zheng, W. Liang, M. Hada, M. Ehara, K. Toyota, R. Fukuda, 
 J. Hasegawa, M. Ishida, T. Nakajima, Y. Honda, O. Kitao, H. Nakai, 
 T. Vreven, K. Throssell, J. A. Montgomery, Jr., J. E. Peralta, 
 F. Ogliaro, M. J. Bearpark, J. J. Heyd, E. N. Brothers, K. N. Kudin, 
 V. N. Staroverov, T. A. Keith, R. Kobayashi, J. Normand, 
 K. Raghavachari, A. P. Rendell, J. C. Burant, S. S. Iyengar, 
 J. Tomasi, M. Cossi, J. M. Millam, M. Klene, C. Adamo, R. Cammi, 
 J. W. Ochterski, R. L. Martin, K. Morokuma, O. Farkas, 
 J. B. Foresman, and D. J. Fox, Gaussian, Inc., Wallingford CT, 2016.
 
 ******************************************
 Gaussian 16:  ES64L-G16RevB.01 20-Dec-2017
                21-Sep-2020 
 ******************************************
 %nproc=4
 Will use up to    4 processors via shared memory.
 %Chk=SM36_m1.a.1.pdb.xyz.mst.a.w.chk
 %mem=16GB
 ----------------------------------------------------------------------
 #p b3lyp/6-31G(d) opt freq NoSymm scf=(MaxCycle=2000,NoVarAcc,NoIncFoc
 k) scrf=(iefpcm,read,solvent=water)
 ----------------------------------------------------------------------
 1/18=20,19=15,26=3,38=1,40=2/1,3;
 2/9=110,12=2,15=1,17=6,18=5,40=1/2;
 3/5=1,6=6,7=1,11=2,25=1,30=1,70=2203,71=1,72=1,74=-5/1,2,3;
 4//1;
 5/5=100002,7=2000,38=1,53=1/2;
 6/7=2,8=2,9=2,10=2,28=1/1;
 7/30=1/1,2,3,16;
 1/18=20,19=15,26=3/3(2);
 2/9=110,15=1/2;
 99//99;
 2/9=110,15=1/2;
 3/5=1,6=6,7=1,11=2,25=1,30=1,70=2205,71=1,72=1,74=-5/1,2,3;
 4/5=5,16=3,69=1/1;
 5/5=100002,7=2000,38=1,53=1/2;
 7/30=1/1,2,3,16;
 1/18=20,19=15,26=3/3(-5);
 2/9=110,15=1/2;
 6/7=2,8=2,9=2,10=2,19=2,28=1/1;
 99/9=1/99;
 Leave Link    1 at Mon Sep 21 05:44:30 2020, MaxMem=  2147483648 cpu:               0.1 elap:               0.0
 (Enter /prod/apps/gaussian/g16b1/l101.exe)
 -------------------
 SM36_m1.a.1.pdb.xyz
 -------------------
 Symbolic Z-matrix:
 Charge = -1 Multiplicity = 1
 O                     0.023     1.396     2.625 
 S                     0.889     0.926     1.531 
 N                     0.068    -0.368     0.861 
 C                     0.715    -1.493     0.172 
 C                     1.786    -2.305     0.953 
 S                     2.855    -2.481    -0.567 
 O                     2.456    -3.739    -1.334 
 C                     1.671    -1.091    -0.977 
 C                    -0.379    -2.462    -0.32 
 C                    -1.427    -1.895    -1.295 
 C                    -2.597    -1.151    -0.68 
 C                    -3.006     0.082    -1.202 
 C                    -4.112     0.757    -0.682 
 C                    -4.832     0.205     0.38 
 C                    -4.439    -1.027     0.908 
 C                    -3.335    -1.698     0.381 
 C                     0.919     2.17      0.246 
 C                    -0.28      2.574    -0.348 
 C                    -0.248     3.593    -1.297 
 C                     0.967     4.199    -1.637 
 C                     2.154     3.789    -1.03 
 C                     2.137     2.768    -0.078 
 O                     2.292     0.582     1.829 
 H                     1.479    -3.264     1.373 
 H                     2.334    -1.709     1.681 
 H                     1.283    -1.133    -1.995 
 H                     2.2      -0.153    -0.811 
 H                    -0.873    -2.898     0.556 
 H                     0.157    -3.28     -0.809 
 H                    -1.824    -2.746    -1.863 
 H                    -0.939    -1.248    -2.032 
 H                    -2.448     0.515    -2.028 
 H                    -4.409     1.712    -1.103 
 H                    -5.691     0.728     0.789 
 H                    -4.995    -1.468     1.729 
 H                    -3.047    -2.659     0.797 
 H                    -1.215     2.095    -0.086 
 H                    -1.169     3.913    -1.771 
 H                     0.984     4.991    -2.379 
 H                     3.096     4.259    -1.294 
 H                     3.045     2.433     0.408 
 
 ITRead=  0  0  0  0  0  0  0  0  0  0  0  0  0  0  0  0  0  0  0  0
 ITRead=  0  0  0  0  0  0  0  0  0  0  0  0  0  0  0  0  0  0  0  0
 ITRead=  0
 MicOpt= -1 -1 -1 -1 -1 -1 -1 -1 -1 -1 -1 -1 -1 -1 -1 -1 -1 -1 -1 -1
 MicOpt= -1 -1 -1 -1 -1 -1 -1 -1 -1 -1 -1 -1 -1 -1 -1 -1 -1 -1 -1 -1
 MicOpt= -1
 NAtoms=     41 NQM=       41 NQMF=       0 NMMI=      0 NMMIF=      0
                NMic=       0 NMicF=      0.
                    Isotopes and Nuclear Properties:
 (Nuclear quadrupole moments (NQMom) in fm**2, nuclear magnetic moments (NMagM)
  in nuclear magnetons)

  Atom         1           2           3           4           5           6           7           8           9          10
 IAtWgt=          16          32          14          12          12          32          16          12          12          12
 AtmWgt=  15.9949146  31.9720718  14.0030740  12.0000000  12.0000000  31.9720718  15.9949146  12.0000000  12.0000000  12.0000000
 NucSpn=           0           0           2           0           0           0           0           0           0           0
 AtZEff=  -0.0000000  -0.0000000  -0.0000000  -0.0000000  -0.0000000  -0.0000000  -0.0000000  -0.0000000  -0.0000000  -0.0000000
 NQMom=    0.0000000   0.0000000   2.0440000   0.0000000   0.0000000   0.0000000   0.0000000   0.0000000   0.0000000   0.0000000
 NMagM=    0.0000000   0.0000000   0.4037610   0.0000000   0.0000000   0.0000000   0.0000000   0.0000000   0.0000000   0.0000000
 AtZNuc=   8.0000000  16.0000000   7.0000000   6.0000000   6.0000000  16.0000000   8.0000000   6.0000000   6.0000000   6.0000000

  Atom        11          12          13          14          15          16          17          18          19          20
 IAtWgt=          12          12          12          12          12          12          12          12          12          12
 AtmWgt=  12.0000000  12.0000000  12.0000000  12.0000000  12.0000000  12.0000000  12.0000000  12.0000000  12.0000000  12.0000000
 NucSpn=           0           0           0           0           0           0           0           0           0           0
 AtZEff=  -0.0000000  -0.0000000  -0.0000000  -0.0000000  -0.0000000  -0.0000000  -0.0000000  -0.0000000  -0.0000000  -0.0000000
 NQMom=    0.0000000   0.0000000   0.0000000   0.0000000   0.0000000   0.0000000   0.0000000   0.0000000   0.0000000   0.0000000
 NMagM=    0.0000000   0.0000000   0.0000000   0.0000000   0.0000000   0.0000000   0.0000000   0.0000000   0.0000000   0.0000000
 AtZNuc=   6.0000000   6.0000000   6.0000000   6.0000000   6.0000000   6.0000000   6.0000000   6.0000000   6.0000000   6.0000000

  Atom        21          22          23          24          25          26          27          28          29          30
 IAtWgt=          12          12          16           1           1           1           1           1           1           1
 AtmWgt=  12.0000000  12.0000000  15.9949146   1.0078250   1.0078250   1.0078250   1.0078250   1.0078250   1.0078250   1.0078250
 NucSpn=           0           0           0           1           1           1           1           1           1           1
 AtZEff=  -0.0000000  -0.0000000  -0.0000000  -0.0000000  -0.0000000  -0.0000000  -0.0000000  -0.0000000  -0.0000000  -0.0000000
 NQMom=    0.0000000   0.0000000   0.0000000   0.0000000   0.0000000   0.0000000   0.0000000   0.0000000   0.0000000   0.0000000
 NMagM=    0.0000000   0.0000000   0.0000000   2.7928460   2.7928460   2.7928460   2.7928460   2.7928460   2.7928460   2.7928460
 AtZNuc=   6.0000000   6.0000000   8.0000000   1.0000000   1.0000000   1.0000000   1.0000000   1.0000000   1.0000000   1.0000000

  Atom        31          32          33          34          35          36          37          38          39          40
 IAtWgt=           1           1           1           1           1           1           1           1           1           1
 AtmWgt=   1.0078250   1.0078250   1.0078250   1.0078250   1.0078250   1.0078250   1.0078250   1.0078250   1.0078250   1.0078250
 NucSpn=           1           1           1           1           1           1           1           1           1           1
 AtZEff=  -0.0000000  -0.0000000  -0.0000000  -0.0000000  -0.0000000  -0.0000000  -0.0000000  -0.0000000  -0.0000000  -0.0000000
 NQMom=    0.0000000   0.0000000   0.0000000   0.0000000   0.0000000   0.0000000   0.0000000   0.0000000   0.0000000   0.0000000
 NMagM=    2.7928460   2.7928460   2.7928460   2.7928460   2.7928460   2.7928460   2.7928460   2.7928460   2.7928460   2.7928460
 AtZNuc=   1.0000000   1.0000000   1.0000000   1.0000000   1.0000000   1.0000000   1.0000000   1.0000000   1.0000000   1.0000000

  Atom        41
 IAtWgt=           1
 AtmWgt=   1.0078250
 NucSpn=           1
 AtZEff=  -0.0000000
 NQMom=    0.0000000
 NMagM=    2.7928460
 AtZNuc=   1.0000000
 Leave Link  101 at Mon Sep 21 05:44:30 2020, MaxMem=  2147483648 cpu:               1.4 elap:               0.4
 (Enter /prod/apps/gaussian/g16b1/l103.exe)

 GradGradGradGradGradGradGradGradGradGradGradGradGradGradGradGradGradGrad
 Berny optimization.
 Initialization pass.
                           ----------------------------
                           !    Initial Parameters    !
                           ! (Angstroms and Degrees)  !
 --------------------------                            --------------------------
 ! Name  Definition              Value          Derivative Info.                !
 --------------------------------------------------------------------------------
 ! R1    R(1,2)                  1.4723         estimate D2E/DX2                !
 ! R2    R(2,3)                  1.6725         estimate D2E/DX2                !
 ! R3    R(2,17)                 1.7888         estimate D2E/DX2                !
 ! R4    R(2,23)                 1.475          estimate D2E/DX2                !
 ! R5    R(3,4)                  1.4693         estimate D2E/DX2                !
 ! R6    R(4,5)                  1.5545         estimate D2E/DX2                !
 ! R7    R(4,8)                  1.5478         estimate D2E/DX2                !
 ! R8    R(4,9)                  1.542          estimate D2E/DX2                !
 ! R9    R(5,6)                  1.8666         estimate D2E/DX2                !
 ! R10   R(5,24)                 1.091          estimate D2E/DX2                !
 ! R11   R(5,25)                 1.0888         estimate D2E/DX2                !
 ! R12   R(6,7)                  1.5265         estimate D2E/DX2                !
 ! R13   R(6,8)                  1.8714         estimate D2E/DX2                !
 ! R14   R(8,26)                 1.0902         estimate D2E/DX2                !
 ! R15   R(8,27)                 1.0896         estimate D2E/DX2                !
 ! R16   R(9,10)                 1.5396         estimate D2E/DX2                !
 ! R17   R(9,28)                 1.0961         estimate D2E/DX2                !
 ! R18   R(9,29)                 1.0934         estimate D2E/DX2                !
 ! R19   R(10,11)                1.5168         estimate D2E/DX2                !
 ! R20   R(10,30)                1.0975         estimate D2E/DX2                !
 ! R21   R(10,31)                1.0954         estimate D2E/DX2                !
 ! R22   R(11,12)                1.4            estimate D2E/DX2                !
 ! R23   R(11,16)                1.4034         estimate D2E/DX2                !
 ! R24   R(12,13)                1.3962         estimate D2E/DX2                !
 ! R25   R(12,32)                1.0868         estimate D2E/DX2                !
 ! R26   R(13,14)                1.3968         estimate D2E/DX2                !
 ! R27   R(13,33)                1.0851         estimate D2E/DX2                !
 ! R28   R(14,15)                1.3968         estimate D2E/DX2                !
 ! R29   R(14,34)                1.0857         estimate D2E/DX2                !
 ! R30   R(15,16)                1.3953         estimate D2E/DX2                !
 ! R31   R(15,35)                1.0852         estimate D2E/DX2                !
 ! R32   R(16,36)                1.0861         estimate D2E/DX2                !
 ! R33   R(17,18)                1.3977         estimate D2E/DX2                !
 ! R34   R(17,22)                1.395          estimate D2E/DX2                !
 ! R35   R(18,19)                1.3928         estimate D2E/DX2                !
 ! R36   R(18,37)                1.0827         estimate D2E/DX2                !
 ! R37   R(19,20)                1.3997         estimate D2E/DX2                !
 ! R38   R(19,38)                1.0841         estimate D2E/DX2                !
 ! R39   R(20,21)                1.3948         estimate D2E/DX2                !
 ! R40   R(20,39)                1.0854         estimate D2E/DX2                !
 ! R41   R(21,22)                1.3961         estimate D2E/DX2                !
 ! R42   R(21,40)                1.0853         estimate D2E/DX2                !
 ! R43   R(22,41)                1.083          estimate D2E/DX2                !
 ! A1    A(1,2,3)              104.8275         estimate D2E/DX2                !
 ! A2    A(1,2,17)             108.7625         estimate D2E/DX2                !
 ! A3    A(1,2,23)             118.935          estimate D2E/DX2                !
 ! A4    A(3,2,17)             104.982          estimate D2E/DX2                !
 ! A5    A(3,2,23)             111.5561         estimate D2E/DX2                !
 ! A6    A(17,2,23)            106.9407         estimate D2E/DX2                !
 ! A7    A(2,3,4)              124.3371         estimate D2E/DX2                !
 ! A8    A(3,4,5)              117.8876         estimate D2E/DX2                !
 ! A9    A(3,4,8)              114.911          estimate D2E/DX2                !
 ! A10   A(3,4,9)              108.5629         estimate D2E/DX2                !
 ! A11   A(5,4,8)               94.7662         estimate D2E/DX2                !
 ! A12   A(5,4,9)              108.7146         estimate D2E/DX2                !
 ! A13   A(8,4,9)              111.3797         estimate D2E/DX2                !
 ! A14   A(4,5,6)               91.9887         estimate D2E/DX2                !
 ! A15   A(4,5,24)             117.3032         estimate D2E/DX2                !
 ! A16   A(4,5,25)             113.3759         estimate D2E/DX2                !
 ! A17   A(6,5,24)             113.0636         estimate D2E/DX2                !
 ! A18   A(6,5,25)             107.9292         estimate D2E/DX2                !
 ! A19   A(24,5,25)            111.431          estimate D2E/DX2                !
 ! A20   A(5,6,7)              109.7053         estimate D2E/DX2                !
 ! A21   A(5,6,8)               75.2875         estimate D2E/DX2                !
 ! A22   A(7,6,8)              109.6744         estimate D2E/DX2                !
 ! A23   A(4,8,6)               92.0187         estimate D2E/DX2                !
 ! A24   A(4,8,26)             117.6022         estimate D2E/DX2                !
 ! A25   A(4,8,27)             114.227          estimate D2E/DX2                !
 ! A26   A(6,8,26)             113.6483         estimate D2E/DX2                !
 ! A27   A(6,8,27)             107.39           estimate D2E/DX2                !
 ! A28   A(26,8,27)            110.3771         estimate D2E/DX2                !
 ! A29   A(4,9,10)             116.9717         estimate D2E/DX2                !
 ! A30   A(4,9,28)             108.3427         estimate D2E/DX2                !
 ! A31   A(4,9,29)             105.3683         estimate D2E/DX2                !
 ! A32   A(10,9,28)            110.2313         estimate D2E/DX2                !
 ! A33   A(10,9,29)            109.0248         estimate D2E/DX2                !
 ! A34   A(28,9,29)            106.3057         estimate D2E/DX2                !
 ! A35   A(9,10,11)            116.6752         estimate D2E/DX2                !
 ! A36   A(9,10,30)            106.7635         estimate D2E/DX2                !
 ! A37   A(9,10,31)            109.8981         estimate D2E/DX2                !
 ! A38   A(11,10,30)           108.1294         estimate D2E/DX2                !
 ! A39   A(11,10,31)           109.0698         estimate D2E/DX2                !
 ! A40   A(30,10,31)           105.7202         estimate D2E/DX2                !
 ! A41   A(10,11,12)           120.4084         estimate D2E/DX2                !
 ! A42   A(10,11,16)           121.3981         estimate D2E/DX2                !
 ! A43   A(12,11,16)           118.1332         estimate D2E/DX2                !
 ! A44   A(11,12,13)           121.2215         estimate D2E/DX2                !
 ! A45   A(11,12,32)           118.9648         estimate D2E/DX2                !
 ! A46   A(13,12,32)           119.8136         estimate D2E/DX2                !
 ! A47   A(12,13,14)           120.0308         estimate D2E/DX2                !
 ! A48   A(12,13,33)           119.8556         estimate D2E/DX2                !
 ! A49   A(14,13,33)           120.1134         estimate D2E/DX2                !
 ! A50   A(13,14,15)           119.4029         estimate D2E/DX2                !
 ! A51   A(13,14,34)           120.2589         estimate D2E/DX2                !
 ! A52   A(15,14,34)           120.338          estimate D2E/DX2                !
 ! A53   A(14,15,16)           120.2661         estimate D2E/DX2                !
 ! A54   A(14,15,35)           120.0169         estimate D2E/DX2                !
 ! A55   A(16,15,35)           119.7166         estimate D2E/DX2                !
 ! A56   A(11,16,15)           120.9434         estimate D2E/DX2                !
 ! A57   A(11,16,36)           119.6708         estimate D2E/DX2                !
 ! A58   A(15,16,36)           119.3853         estimate D2E/DX2                !
 ! A59   A(2,17,18)            119.4667         estimate D2E/DX2                !
 ! A60   A(2,17,22)            118.6596         estimate D2E/DX2                !
 ! A61   A(18,17,22)           121.7598         estimate D2E/DX2                !
 ! A62   A(17,18,19)           118.7709         estimate D2E/DX2                !
 ! A63   A(17,18,37)           120.6683         estimate D2E/DX2                !
 ! A64   A(19,18,37)           120.5555         estimate D2E/DX2                !
 ! A65   A(18,19,20)           120.1462         estimate D2E/DX2                !
 ! A66   A(18,19,38)           119.6254         estimate D2E/DX2                !
 ! A67   A(20,19,38)           120.2284         estimate D2E/DX2                !
 ! A68   A(19,20,21)           120.3812         estimate D2E/DX2                !
 ! A69   A(19,20,39)           119.7078         estimate D2E/DX2                !
 ! A70   A(21,20,39)           119.9109         estimate D2E/DX2                !
 ! A71   A(20,21,22)           120.0903         estimate D2E/DX2                !
 ! A72   A(20,21,40)           120.3626         estimate D2E/DX2                !
 ! A73   A(22,21,40)           119.5471         estimate D2E/DX2                !
 ! A74   A(17,22,21)           118.8492         estimate D2E/DX2                !
 ! A75   A(17,22,41)           119.6827         estimate D2E/DX2                !
 ! A76   A(21,22,41)           121.468          estimate D2E/DX2                !
 ! D1    D(1,2,3,4)           -152.4153         estimate D2E/DX2                !
 ! D2    D(17,2,3,4)            93.0479         estimate D2E/DX2                !
 ! D3    D(23,2,3,4)           -22.422          estimate D2E/DX2                !
 ! D4    D(1,2,17,18)          -57.8011         estimate D2E/DX2                !
 ! D5    D(1,2,17,22)          118.3881         estimate D2E/DX2                !
 ! D6    D(3,2,17,18)           53.9571         estimate D2E/DX2                !
 ! D7    D(3,2,17,22)         -129.8538         estimate D2E/DX2                !
 ! D8    D(23,2,17,18)         172.5843         estimate D2E/DX2                !
 ! D9    D(23,2,17,22)         -11.2266         estimate D2E/DX2                !
 ! D10   D(2,3,4,5)             56.8444         estimate D2E/DX2                !
 ! D11   D(2,3,4,8)            -53.6074         estimate D2E/DX2                !
 ! D12   D(2,3,4,9)           -179.0551         estimate D2E/DX2                !
 ! D13   D(3,4,5,6)           -141.3635         estimate D2E/DX2                !
 ! D14   D(3,4,5,24)           101.31           estimate D2E/DX2                !
 ! D15   D(3,4,5,25)           -30.8407         estimate D2E/DX2                !
 ! D16   D(8,4,5,6)            -19.8748         estimate D2E/DX2                !
 ! D17   D(8,4,5,24)          -137.2013         estimate D2E/DX2                !
 ! D18   D(8,4,5,25)            90.6479         estimate D2E/DX2                !
 ! D19   D(9,4,5,6)             94.6116         estimate D2E/DX2                !
 ! D20   D(9,4,5,24)           -22.7148         estimate D2E/DX2                !
 ! D21   D(9,4,5,25)          -154.8656         estimate D2E/DX2                !
 ! D22   D(3,4,8,6)            143.6177         estimate D2E/DX2                !
 ! D23   D(3,4,8,26)           -98.2604         estimate D2E/DX2                !
 ! D24   D(3,4,8,27)            33.5089         estimate D2E/DX2                !
 ! D25   D(5,4,8,6)             19.8222         estimate D2E/DX2                !
 ! D26   D(5,4,8,26)           137.944          estimate D2E/DX2                !
 ! D27   D(5,4,8,27)           -90.2866         estimate D2E/DX2                !
 ! D28   D(9,4,8,6)            -92.4127         estimate D2E/DX2                !
 ! D29   D(9,4,8,26)            25.7092         estimate D2E/DX2                !
 ! D30   D(9,4,8,27)           157.4785         estimate D2E/DX2                !
 ! D31   D(3,4,9,10)            59.4741         estimate D2E/DX2                !
 ! D32   D(3,4,9,28)           -65.8015         estimate D2E/DX2                !
 ! D33   D(3,4,9,29)          -179.2476         estimate D2E/DX2                !
 ! D34   D(5,4,9,10)          -171.1271         estimate D2E/DX2                !
 ! D35   D(5,4,9,28)            63.5973         estimate D2E/DX2                !
 ! D36   D(5,4,9,29)           -49.8487         estimate D2E/DX2                !
 ! D37   D(8,4,9,10)           -68.0163         estimate D2E/DX2                !
 ! D38   D(8,4,9,28)           166.7081         estimate D2E/DX2                !
 ! D39   D(8,4,9,29)            53.262          estimate D2E/DX2                !
 ! D40   D(4,5,6,7)            -89.1627         estimate D2E/DX2                !
 ! D41   D(4,5,6,8)             16.8408         estimate D2E/DX2                !
 ! D42   D(24,5,6,7)            31.7434         estimate D2E/DX2                !
 ! D43   D(24,5,6,8)           137.7469         estimate D2E/DX2                !
 ! D44   D(25,5,6,7)           155.4649         estimate D2E/DX2                !
 ! D45   D(25,5,6,8)           -98.5316         estimate D2E/DX2                !
 ! D46   D(5,6,8,4)            -16.9156         estimate D2E/DX2                !
 ! D47   D(5,6,8,26)          -138.3521         estimate D2E/DX2                !
 ! D48   D(5,6,8,27)            99.2722         estimate D2E/DX2                !
 ! D49   D(7,6,8,4)             89.1264         estimate D2E/DX2                !
 ! D50   D(7,6,8,26)           -32.3102         estimate D2E/DX2                !
 ! D51   D(7,6,8,27)          -154.6858         estimate D2E/DX2                !
 ! D52   D(4,9,10,11)          -83.2239         estimate D2E/DX2                !
 ! D53   D(4,9,10,30)          155.7774         estimate D2E/DX2                !
 ! D54   D(4,9,10,31)           41.5751         estimate D2E/DX2                !
 ! D55   D(28,9,10,11)          41.1007         estimate D2E/DX2                !
 ! D56   D(28,9,10,30)         -79.8981         estimate D2E/DX2                !
 ! D57   D(28,9,10,31)         165.8996         estimate D2E/DX2                !
 ! D58   D(29,9,10,11)         157.434          estimate D2E/DX2                !
 ! D59   D(29,9,10,30)          36.4353         estimate D2E/DX2                !
 ! D60   D(29,9,10,31)         -77.767          estimate D2E/DX2                !
 ! D61   D(9,10,11,12)         133.6645         estimate D2E/DX2                !
 ! D62   D(9,10,11,16)         -49.2134         estimate D2E/DX2                !
 ! D63   D(30,10,11,12)       -106.0616         estimate D2E/DX2                !
 ! D64   D(30,10,11,16)         71.0605         estimate D2E/DX2                !
 ! D65   D(31,10,11,12)          8.4471         estimate D2E/DX2                !
 ! D66   D(31,10,11,16)       -174.4308         estimate D2E/DX2                !
 ! D67   D(10,11,12,13)        177.5296         estimate D2E/DX2                !
 ! D68   D(10,11,12,32)         -2.4011         estimate D2E/DX2                !
 ! D69   D(16,11,12,13)          0.3152         estimate D2E/DX2                !
 ! D70   D(16,11,12,32)       -179.6155         estimate D2E/DX2                !
 ! D71   D(10,11,16,15)       -177.6852         estimate D2E/DX2                !
 ! D72   D(10,11,16,36)          2.0753         estimate D2E/DX2                !
 ! D73   D(12,11,16,15)         -0.4997         estimate D2E/DX2                !
 ! D74   D(12,11,16,36)        179.2607         estimate D2E/DX2                !
 ! D75   D(11,12,13,14)          0.1032         estimate D2E/DX2                !
 ! D76   D(11,12,13,33)        179.9454         estimate D2E/DX2                !
 ! D77   D(32,12,13,14)       -179.9667         estimate D2E/DX2                !
 ! D78   D(32,12,13,33)         -0.1245         estimate D2E/DX2                !
 ! D79   D(12,13,14,15)         -0.3437         estimate D2E/DX2                !
 ! D80   D(12,13,14,34)        179.8327         estimate D2E/DX2                !
 ! D81   D(33,13,14,15)        179.8145         estimate D2E/DX2                !
 ! D82   D(33,13,14,34)         -0.009          estimate D2E/DX2                !
 ! D83   D(13,14,15,16)          0.1609         estimate D2E/DX2                !
 ! D84   D(13,14,15,35)       -179.6141         estimate D2E/DX2                !
 ! D85   D(34,14,15,16)        179.9843         estimate D2E/DX2                !
 ! D86   D(34,14,15,35)          0.2093         estimate D2E/DX2                !
 ! D87   D(14,15,16,11)          0.2674         estimate D2E/DX2                !
 ! D88   D(14,15,16,36)       -179.4937         estimate D2E/DX2                !
 ! D89   D(35,15,16,11)       -179.9568         estimate D2E/DX2                !
 ! D90   D(35,15,16,36)          0.282          estimate D2E/DX2                !
 ! D91   D(2,17,18,19)         176.6753         estimate D2E/DX2                !
 ! D92   D(2,17,18,37)          -4.1602         estimate D2E/DX2                !
 ! D93   D(22,17,18,19)          0.6084         estimate D2E/DX2                !
 ! D94   D(22,17,18,37)        179.7729         estimate D2E/DX2                !
 ! D95   D(2,17,22,21)        -176.6497         estimate D2E/DX2                !
 ! D96   D(2,17,22,41)           3.4828         estimate D2E/DX2                !
 ! D97   D(18,17,22,21)         -0.552          estimate D2E/DX2                !
 ! D98   D(18,17,22,41)        179.5805         estimate D2E/DX2                !
 ! D99   D(17,18,19,20)         -0.3234         estimate D2E/DX2                !
 ! D100  D(17,18,19,38)        179.6189         estimate D2E/DX2                !
 ! D101  D(37,18,19,20)       -179.4889         estimate D2E/DX2                !
 ! D102  D(37,18,19,38)          0.4535         estimate D2E/DX2                !
 ! D103  D(18,19,20,21)         -0.0021         estimate D2E/DX2                !
 ! D104  D(18,19,20,39)        179.8713         estimate D2E/DX2                !
 ! D105  D(38,19,20,21)       -179.9441         estimate D2E/DX2                !
 ! D106  D(38,19,20,39)         -0.0707         estimate D2E/DX2                !
 ! D107  D(19,20,21,22)          0.06           estimate D2E/DX2                !
 ! D108  D(19,20,21,40)        179.9893         estimate D2E/DX2                !
 ! D109  D(39,20,21,22)       -179.8131         estimate D2E/DX2                !
 ! D110  D(39,20,21,40)          0.1161         estimate D2E/DX2                !
 ! D111  D(20,21,22,17)          0.2104         estimate D2E/DX2                !
 ! D112  D(20,21,22,41)       -179.9246         estimate D2E/DX2                !
 ! D113  D(40,21,22,17)       -179.7194         estimate D2E/DX2                !
 ! D114  D(40,21,22,41)          0.1456         estimate D2E/DX2                !
 --------------------------------------------------------------------------------
 Trust Radius=3.00D-01 FncErr=1.00D-07 GrdErr=1.00D-06 EigMax=2.50D+02 EigMin=1.00D-04
 Number of steps in this run=    243 maximum allowed number of steps=    246.
 GradGradGradGradGradGradGradGradGradGradGradGradGradGradGradGradGradGrad

 Leave Link  103 at Mon Sep 21 05:44:30 2020, MaxMem=  2147483648 cpu:               0.1 elap:               0.0
 (Enter /prod/apps/gaussian/g16b1/l202.exe)
                          Input orientation:                          
 ---------------------------------------------------------------------
 Center     Atomic      Atomic             Coordinates (Angstroms)
 Number     Number       Type             X           Y           Z
 ---------------------------------------------------------------------
      1          8           0        0.023000    1.396000    2.625000
      2         16           0        0.889000    0.926000    1.531000
      3          7           0        0.068000   -0.368000    0.861000
      4          6           0        0.715000   -1.493000    0.172000
      5          6           0        1.786000   -2.305000    0.953000
      6         16           0        2.855000   -2.481000   -0.567000
      7          8           0        2.456000   -3.739000   -1.334000
      8          6           0        1.671000   -1.091000   -0.977000
      9          6           0       -0.379000   -2.462000   -0.320000
     10          6           0       -1.427000   -1.895000   -1.295000
     11          6           0       -2.597000   -1.151000   -0.680000
     12          6           0       -3.006000    0.082000   -1.202000
     13          6           0       -4.112000    0.757000   -0.682000
     14          6           0       -4.832000    0.205000    0.380000
     15          6           0       -4.439000   -1.027000    0.908000
     16          6           0       -3.335000   -1.698000    0.381000
     17          6           0        0.919000    2.170000    0.246000
     18          6           0       -0.280000    2.574000   -0.348000
     19          6           0       -0.248000    3.593000   -1.297000
     20          6           0        0.967000    4.199000   -1.637000
     21          6           0        2.154000    3.789000   -1.030000
     22          6           0        2.137000    2.768000   -0.078000
     23          8           0        2.292000    0.582000    1.829000
     24          1           0        1.479000   -3.264000    1.373000
     25          1           0        2.334000   -1.709000    1.681000
     26          1           0        1.283000   -1.133000   -1.995000
     27          1           0        2.200000   -0.153000   -0.811000
     28          1           0       -0.873000   -2.898000    0.556000
     29          1           0        0.157000   -3.280000   -0.809000
     30          1           0       -1.824000   -2.746000   -1.863000
     31          1           0       -0.939000   -1.248000   -2.032000
     32          1           0       -2.448000    0.515000   -2.028000
     33          1           0       -4.409000    1.712000   -1.103000
     34          1           0       -5.691000    0.728000    0.789000
     35          1           0       -4.995000   -1.468000    1.729000
     36          1           0       -3.047000   -2.659000    0.797000
     37          1           0       -1.215000    2.095000   -0.086000
     38          1           0       -1.169000    3.913000   -1.771000
     39          1           0        0.984000    4.991000   -2.379000
     40          1           0        3.096000    4.259000   -1.294000
     41          1           0        3.045000    2.433000    0.408000
 ---------------------------------------------------------------------
                    Distance matrix (angstroms):
                    1          2          3          4          5
     1  O    0.000000
     2  S    1.472308   0.000000
     3  N    2.495079   1.672536   0.000000
     4  C    3.852583   2.780057   1.469338   0.000000
     5  C    4.427319   3.402654   2.590744   1.554460   0.000000
     6  S    5.765433   4.458072   3.777740   2.470195   1.866584
     7  O    6.925417   5.694378   4.678056   3.216152   2.781299
     8  C    4.677123   3.312080   2.543734   1.547818   2.282963
     9  C    4.870194   4.063566   2.445282   1.542031   2.516427
    10  C    5.319735   4.616078   3.035637   2.627139   3.942711
    11  C    4.926929   4.621109   3.176475   3.436890   4.817582
    12  C    5.054440   4.832458   3.729336   4.267826   5.771053
    13  C    5.333179   5.471374   4.595528   5.393676   6.843645
    14  C    5.479921   5.880007   4.956782   5.804798   7.101152
    15  C    5.359894   5.708758   4.555166   5.227099   6.354993
    16  C    5.087685   5.103925   3.685066   4.060567   5.188475
    17  C    2.657355   1.788760   2.746611   3.669422   4.612718
    18  C    3.212199   2.759186   3.199711   4.219113   5.455786
    19  C    4.503591   4.050092   4.521763   5.380774   6.632199
    20  C    5.187734   4.555748   5.282584   5.977863   7.048466
    21  C    4.860724   4.044220   5.020750   5.604913   6.419077
    22  C    3.695618   2.745788   3.872593   4.498967   5.188592
    23  O    2.538616   1.474974   2.604938   3.088398   3.059114
    24  H    5.040143   4.234284   3.261883   2.272122   1.091022
    25  H    3.984079   3.008945   2.757796   2.223713   1.088809
    26  H    5.415519   4.102121   3.196590   2.268945   3.212055
    27  H    4.352565   2.892737   2.717946   2.228702   2.813218
    28  H    4.849950   4.321834   2.716506   2.154814   2.753096
    29  H    5.803041   4.868456   3.358060   2.113550   2.590156
    30  H    6.380417   5.688865   4.081020   3.486797   4.599613
    31  H    5.440940   4.556625   3.187146   2.766470   4.177691
    32  H    5.341574   4.896016   3.931446   4.344725   5.896229
    33  H    5.800040   5.968631   5.312930   6.176814   7.664297
    34  H    6.038784   6.624664   5.862805   6.808110   8.070410
    35  H    5.846848   6.355462   5.253322   5.918528   6.876388
    36  H    5.404582   5.374298   3.867299   3.987835   4.848458
    37  H    3.061171   2.899667   2.934155   4.082304   5.426373
    38  H    5.203938   4.905175   5.175380   6.045622   7.403764
    39  H    6.235989   5.641042   6.328944   6.972963   8.060834
    40  H    5.744446   4.894932   5.934807   6.395610   7.060539
    41  H    3.888823   2.860160   4.112583   4.571441   4.932621
                    6          7          8          9         10
     6  S    0.000000
     7  O    1.526451   0.000000
     8  C    1.871378   2.784884   0.000000
     9  C    3.243474   3.270497   2.552213   0.000000
    10  C    4.382796   4.298784   3.216387   1.539616   0.000000
    11  C    5.613018   5.714741   4.278742   2.601508   1.516793
    12  C    6.428337   6.667151   4.827099   3.761780   2.531881
    13  C    7.683551   7.986097   6.078258   4.942499   3.823362
    14  C    8.197644   8.462144   6.768314   5.237566   4.337009
    15  C    7.582360   7.740965   6.394484   4.477813   3.831289
    16  C    6.310934   6.375154   5.222322   3.132576   2.547204
    17  C    5.103025   6.306746   3.563054   4.843613   4.939901
    18  C    5.952244   6.950673   4.199317   5.037051   4.710030
    19  C    6.859664   7.814807   5.071964   6.134714   5.613216
    20  C    7.023663   8.082127   5.377296   6.922075   6.556297
    21  C    6.326031   7.540186   4.904131   6.781975   6.723217
    22  C    5.320399   6.634783   3.989641   5.808762   5.993893
    23  O    3.929345   5.357472   3.325388   4.584580   5.452143
    24  H    2.504010   2.916848   3.206446   2.638488   4.175790
    25  H    2.433296   3.636758   2.808284   3.454183   4.799614
    26  H    2.515447   2.933272   1.090244   2.708156   2.900818
    27  H    2.430668   3.632969   1.089606   3.496256   4.052647
    28  H    3.915738   3.919391   3.476676   1.096133   2.176953
    29  H    2.824211   2.402438   2.666860   1.093408   2.159509
    30  H    4.862395   4.425414   3.967247   2.132963   1.097467
    31  H    4.249818   4.268291   2.819534   2.172174   1.095410
    32  H    6.263573   6.528964   4.544227   4.007562   2.718056
    33  H    8.404418   8.768979   6.696199   5.854593   4.683977
    34  H    9.228788   9.530731   7.786306   6.294706   5.422627
    35  H    8.241376   8.369995   7.204174   5.147222   4.696544
    36  H    6.060180   5.999214   5.278752   2.899090   2.754008
    37  H    6.142966   7.004948   4.390156   4.638955   4.174533
    38  H    7.650191   8.478484   5.808274   6.585600   5.833181
    39  H    7.912949   8.914691   6.279196   7.851399   7.375973
    40  H    6.783377   8.023665   5.545594   7.628640   7.637359
    41  H    5.013394   6.440114   4.027987   6.017872   6.452176
                   11         12         13         14         15
    11  C    0.000000
    12  C    1.400019   0.000000
    13  C    2.436328   1.396159   0.000000
    14  C    2.820915   2.419117   1.396763   0.000000
    15  C    2.435176   2.781271   2.411988   1.396802   0.000000
    16  C    1.403415   2.404689   2.785807   2.421243   1.395273
    17  C    4.924304   4.675690   5.307421   6.078913   6.274330
    18  C    4.399357   3.790838   4.254089   5.182938   5.642873
    19  C    5.329543   4.465726   4.832351   5.941711   6.615958
    20  C    6.499265   5.737913   6.209318   7.324529   7.938069
    21  C    6.862806   6.355866   6.969712   7.977302   8.391505
    22  C    6.175089   5.910027   6.592339   7.439469   7.656239
    23  O    5.762004   6.124195   6.880913   7.279636   6.981653
    24  H    5.029250   6.159673   7.186845   7.269713   6.343746
    25  H    5.495493   6.327319   7.294919   7.530442   6.850999
    26  H    4.096822   4.527758   5.865330   6.695080   6.417159
    27  H    4.901467   5.225949   6.378564   7.141125   6.913404
    28  H    2.748069   4.064561   5.038134   5.033216   4.042388
    29  H    3.483360   4.632716   5.876892   6.200731   5.398825
    30  H    2.130972   3.135543   4.347495   4.773627   4.179908
    31  H    2.141559   2.594280   3.988791   4.804623   4.576291
    32  H    2.148223   1.086798   2.153875   3.402649   3.868067
    33  H    3.414534   2.152931   1.085115   2.156216   3.398109
    34  H    3.906589   3.404500   2.158222   1.085675   2.159095
    35  H    3.413821   3.866443   3.397534   2.155296   1.085200
    36  H    2.158262   3.392752   3.871785   3.400384   2.147885
    37  H    3.577608   2.916386   3.246239   4.107547   4.596640
    38  H    5.373412   4.286594   4.450562   5.638584   6.501811
    39  H    7.309879   6.434571   6.839282   8.021455   8.742404
    40  H    7.877522   7.395282   8.037028   9.060374   9.463975
    41  H    6.772072   6.688341   7.430998   8.186079   8.260258
                   16         17         18         19         20
    16  C    0.000000
    17  C    5.751188   0.000000
    18  C    5.302306   1.397731   0.000000
    19  C    6.351373   2.401597   1.392834   0.000000
    20  C    7.573251   2.768544   2.420156   1.399665   0.000000
    21  C    7.888423   2.403032   2.804586   2.424729   1.394818
    22  C    7.078038   1.395028   2.439759   2.802644   2.418086
    23  O    6.241653   2.629213   3.914406   5.028876   5.181840
    24  H    5.158587   5.577821   6.335469   7.558431   8.063412
    25  H    5.816157   4.371280   5.412386   6.606543   6.912473
    26  H    5.224033   4.008040   4.347117   5.016597   5.353340
    27  H    5.868911   2.855615   3.715010   4.501268   4.598094
    28  H    2.744462   5.384421   5.577782   6.779182   7.652598
    29  H    4.014086   5.603228   5.888362   6.902195   7.568165
    30  H    2.901200   6.011571   5.742958   6.556451   7.488243
    31  H    3.430144   4.508234   4.228217   4.944996   5.784347
    32  H    3.389310   4.387116   3.429593   3.853368   5.038548
    33  H    3.870896   5.515174   4.285057   4.570527   5.947411
    34  H    3.406270   6.787217   5.829186   6.495065   7.890645
    35  H    2.150722   7.099981   6.548505   7.569967   8.887648
    36  H    1.086058   6.273117   6.029229   7.162872   8.310759
    37  H    4.370279   2.160973   1.082733   2.155369   3.404929
    38  H    6.387956   3.386160   2.146665   1.084120   2.159224
    39  H    8.426985   3.853945   3.400668   2.154751   1.085411
    40  H    8.924642   3.387455   3.889925   3.409678   2.157288
    41  H    7.600677   2.148322   3.412776   3.885418   3.408646
                   21         22         23         24         25
    21  C    0.000000
    22  C    1.396078   0.000000
    23  O    4.298578   2.905042   0.000000
    24  H    7.481634   6.238861   3.957350   0.000000
    25  H    6.132693   4.814189   2.296160   1.801087   0.000000
    26  H    5.090771   4.429673   4.310717   3.990364   3.866439
    27  H    3.948347   3.012225   2.741950   3.868852   2.940945
    28  H    7.509600   6.447140   4.873208   2.516615   3.600583
    29  H    7.348987   6.405706   5.141237   2.551287   3.661621
    30  H    7.695752   7.019967   6.453519   4.652938   5.560959
    31  H    5.995167   5.422928   5.356826   4.637349   4.971058
    32  H    5.735284   5.468156   6.111345   6.424093   6.447510
    33  H    6.884201   6.709387   7.401143   8.096894   8.057416
    34  H    8.615249   8.135777   8.051783   8.227151   8.434172
    35  H    9.292811   8.489662   7.570526   6.727929   7.333118
    36  H    8.483221   7.555912   6.330405   4.602443   5.535261
    37  H    3.887278   3.418903   4.272639   6.172941   5.494370
    38  H    3.406873   3.886761   6.002839   8.270790   7.469551
    39  H    2.152558   3.400844   6.233571   9.081165   7.949597
    40  H    1.085339   2.149748   4.890795   8.143900   6.711803
    41  H    2.168055   1.082998   2.452030   5.986601   4.391152
                   26         27         28         29         30
    26  H    0.000000
    27  H    1.789733   0.000000
    28  H    3.777719   4.341318   0.000000
    29  H    2.698904   3.735235   1.752156   0.000000
    30  H    3.503233   4.901319   2.603664   2.306606   0.000000
    31  H    2.225282   3.541636   3.069951   2.612656   1.748082
    32  H    4.078891   4.850899   4.561387   4.761724   3.324263
    33  H    6.425617   6.873309   6.042158   6.771621   5.208991
    34  H    7.736320   8.099632   6.034508   7.267515   5.835706
    35  H    7.307098   7.742664   4.517932   6.022283   4.958930
    36  H    5.373345   6.032969   2.200336   3.637374   2.928976
    37  H    4.506026   4.152271   5.045709   5.594259   5.192677
    38  H    5.614677   5.366947   7.203629   7.377192   6.691769
    39  H    6.143308   5.513440   8.619686   8.459212   8.246956
    40  H    5.731669   4.527897   8.390358   8.106138   8.579055
    41  H    4.647086   2.981171   6.617567   6.516134   7.462348
                   31         32         33         34         35
    31  H    0.000000
    32  H    2.320618   0.000000
    33  H    4.654626   2.476682   0.000000
    34  H    5.868911   4.300919   2.488261   0.000000
    35  H    5.535762   4.953236   4.298374   2.488058   0.000000
    36  H    3.799714   4.291119   4.956883   4.296809   2.466132
    37  H    3.877982   2.790708   3.373813   4.761186   5.502508
    38  H    5.172711   3.639821   3.973440   6.094777   7.472847
    39  H    6.537848   5.651230   6.439291   8.530241   9.713021
    40  H    6.866798   6.729950   7.927718   9.696299  10.363462
    41  H    5.947740   6.307604   7.639704   8.908978   9.033518
                   36         37         38         39         40
    36  H    0.000000
    37  H    5.170728   0.000000
    38  H    7.301554   2.479207   0.000000
    39  H    9.211864   4.298868   2.483376   0.000000
    40  H    9.485118   4.972613   4.305516   2.484672   0.000000
    41  H    7.949355   4.301846   4.969531   4.307952   2.496734
                   41
    41  H    0.000000
 Symmetry turned off by external request.
 Stoichiometry    C17H18NO3S2(1-)
 Framework group  C1[X(C17H18NO3S2)]
 Deg. of freedom   117
 Full point group                 C1      NOp   1
 Rotational constants (GHZ):           0.2353149           0.2140411           0.1423005
 Leave Link  202 at Mon Sep 21 05:44:30 2020, MaxMem=  2147483648 cpu:               0.1 elap:               0.0
 (Enter /prod/apps/gaussian/g16b1/l301.exe)
 Standard basis: 6-31G(d) (6D, 7F)
 Ernie: Thresh=  0.10000D-02 Tol=  0.10000D-05 Strict=F.
   389 basis functions,   764 primitive gaussians,   389 cartesian basis functions
    92 alpha electrons       92 beta electrons
       nuclear repulsion energy      2310.0837292789 Hartrees.
 IExCor=  402 DFT=T Ex+Corr=B3LYP ExCW=0 ScaHFX=  0.200000
 ScaDFX=  0.800000  0.720000  1.000000  0.810000 ScalE2=  1.000000  1.000000
 IRadAn=      5 IRanWt=     -1 IRanGd=            0 ICorTp=0 IEmpDi=  4
 NAtoms=   41 NActive=   41 NUniq=   41 SFac= 1.00D+00 NAtFMM=   60 NAOKFM=F Big=F
 Integral buffers will be    131072 words long.
 Raffenetti 2 integral format.
 Two-electron integral symmetry is turned off.
 Using the following non-standard input for PCM:
 MSTModel=DFT MSTcharged
 --- end of non-standard input.
 MST model for solvation energy: B3LYP parametrization.
 MST cavity parameters:
 ISph   IAn     Re0     Alpha   Atom Type   QCorr
 ------------------------------------------------
   1      8     1.40     1.25      O          F
   2     16     1.75     1.25      S          F
   3      7     1.40     1.15      N          T
   4      6     1.50     1.25      C          F
   5      6     1.50     1.25      CH2        F
   6     16     1.75     1.25      S          F
   7      8     1.40     1.25      O          F
   8      6     1.50     1.25      CH2        F
   9      6     1.50     1.25      CH2        F
  10      6     1.50     1.25      CH2        F
  11      6     1.50     1.25      C          F
  12      6     1.50     1.25      CH         F
  13      6     1.50     1.25      CH         F
  14      6     1.50     1.25      CH         F
  15      6     1.50     1.25      CH         F
  16      6     1.50     1.25      CH         F
  17      6     1.50     1.25      C          F
  18      6     1.50     1.25      CH         F
  19      6     1.50     1.25      CH         F
  20      6     1.50     1.25      CH         F
  21      6     1.50     1.25      CH         F
  22      6     1.50     1.25      CH         F
  23      8     1.40     1.25      O          F
  24      1     1.20     1.25      CH2        F
  25      1     1.20     1.25      CH2        F
  26      1     1.20     1.25      CH2        F
  27      1     1.20     1.25      CH2        F
  28      1     1.20     1.25      CH2        F
  29      1     1.20     1.25      CH2        F
  30      1     1.20     1.25      CH2        F
  31      1     1.20     1.25      CH2        F
  32      1     1.20     1.25      CH         F
  33      1     1.20     1.25      CH         F
  34      1     1.20     1.25      CH         F
  35      1     1.20     1.25      CH         F
  36      1     1.20     1.25      CH         F
  37      1     1.20     1.25      CH         F
  38      1     1.20     1.25      CH         F
  39      1     1.20     1.25      CH         F
  40      1     1.20     1.25      CH         F
  41      1     1.20     1.25      CH         F
 ------------------------------------------------------------------------------
 Polarizable Continuum Model (PCM)
 =================================
 Model                : PCM.
 Atomic radii         : MST.
 Polarization charges : Total charges.
 Charge compensation  : None.
 Solution method      : On-the-fly selection.
 Cavity type          : Scaled VdW (van der Waals Surface) (Alpha=1.250).
 Cavity algorithm     : GePol (No added spheres)
                        Default sphere list used, NSphG=   41.
                        Lebedev-Laikov grids with approx.  5.0 points / Ang**2.
                        Smoothing algorithm: York/Karplus (Gamma=1.0000).
                        Polarization charges: spherical gaussians, with
                                              point-specific exponents (IZeta= 3).
                        Self-potential: point-specific (ISelfS= 7).
                        Self-field    : sphere-specific E.n sum rule (ISelfD= 2).
 1st derivatives      : Analytical E(r).r(x)/FMM algorithm (CHGder, D1EAlg=3).
                        Cavity 1st derivative terms included.
 Solvent              : Water, Eps=  78.355300 Eps(inf)=   1.777849
 ------------------------------------------------------------------------------
 GePol: Number of generator spheres                  =      41
 GePol: Total number of spheres                      =      41
 GePol: Number of exposed spheres                    =      41 (100.00%)
 GePol: Number of points                             =    2984
 GePol: Average weight of points                     =       0.13
 GePol: Minimum weight of points                     =   0.35D-11
 GePol: Maximum weight of points                     =    0.22001
 GePol: Number of points with low weight             =     202
 GePol: Fraction of low-weight points (<1% of avg)   =       6.77%
 GePol: Cavity surface area                          =    391.081 Ang**2
 GePol: Cavity volume                                =    392.974 Ang**3
 PCM non-electrostatic energy =        -0.0779079895 Hartrees.
 Nuclear repulsion after PCM non-electrostatic terms =     2310.0058212895 Hartrees.
 Leave Link  301 at Mon Sep 21 05:44:30 2020, MaxMem=  2147483648 cpu:               0.4 elap:               0.1
 (Enter /prod/apps/gaussian/g16b1/l302.exe)
 NPDir=0 NMtPBC=     1 NCelOv=     1 NCel=       1 NClECP=     1 NCelD=      1
         NCelK=      1 NCelE2=     1 NClLst=     1 CellRange=     0.0.
 One-electron integrals computed using PRISM.
 NBasis=   389 RedAO= T EigKep=  4.68D-04  NBF=   389
 NBsUse=   389 1.00D-06 EigRej= -1.00D+00 NBFU=   389
 Precomputing XC quadrature grid using
 IXCGrd= 4 IRadAn=           5 IRanWt=          -1 IRanGd=           0 AccXCQ= 0.00D+00.
 Generated NRdTot=       0 NPtTot=           0 NUsed=           0 NTot=          32
 NSgBfM=   386   386   386   386   386 MxSgAt=    41 MxSgA2=    41.
 Leave Link  302 at Mon Sep 21 05:44:31 2020, MaxMem=  2147483648 cpu:               2.5 elap:               0.7
 (Enter /prod/apps/gaussian/g16b1/l303.exe)
 DipDrv:  MaxL=1.
 Leave Link  303 at Mon Sep 21 05:44:31 2020, MaxMem=  2147483648 cpu:               0.2 elap:               0.1
 (Enter /prod/apps/gaussian/g16b1/l401.exe)
 ExpMin= 1.17D-01 ExpMax= 2.19D+04 ExpMxC= 3.30D+03 IAcc=3 IRadAn=         5 AccDes= 0.00D+00
 Harris functional with IExCor=  402 and IRadAn=       5 diagonalized for initial guess.
 HarFok:  IExCor=  402 AccDes= 0.00D+00 IRadAn=         5 IDoV= 1 UseB2=F ITyADJ=14
 ICtDFT=  3500011 ScaDFX=  1.000000  1.000000  1.000000  1.000000
 FoFCou: FMM=F IPFlag=           0 FMFlag=      100000 FMFlg1=           0
         NFxFlg=           0 DoJE=T BraDBF=F KetDBF=T FulRan=T
         wScrn=  0.000000 ICntrl=       500 IOpCl=  0 I1Cent=   200000004 NGrid=           0
         NMat0=    1 NMatS0=      1 NMatT0=    0 NMatD0=    1 NMtDS0=    0 NMtDT0=    0
 Symmetry not used in FoFCou.
 Harris En= -1735.64159907704    
 JPrj=0 DoOrth=F DoCkMO=F.
 Leave Link  401 at Mon Sep 21 05:44:35 2020, MaxMem=  2147483648 cpu:              14.6 elap:               3.7
 (Enter /prod/apps/gaussian/g16b1/l502.exe)
 Two-electron integral symmetry not used.
 Closed shell SCF:
 Using DIIS extrapolation, IDIIS=  1040.
 NGot=  2147483648 LenX=  2147175290 LenY=  2147023528
 Requested convergence on RMS density matrix=1.00D-08 within2000 cycles.
 Requested convergence on MAX density matrix=1.00D-06.
 Requested convergence on             energy=1.00D-06.
 No special actions if energy rises.

 Cycle   1  Pass 1  IDiag  1:
 FoFJK:  IHMeth= 1 ICntrl=       0 DoSepK=F KAlg= 0 I1Cent=           0 FoldK=F
 IRaf= 790000000 NMat=       1 IRICut=       1 DoRegI=T DoRafI=F ISym2E= 0 IDoP0=0 IntGTp=1.
 FoFCou: FMM=F IPFlag=           0 FMFlag=      100000 FMFlg1=           0
         NFxFlg=           0 DoJE=F BraDBF=F KetDBF=F FulRan=T
         wScrn=  0.000000 ICntrl=         0 IOpCl=  0 I1Cent=           0 NGrid=           0
         NMat0=    1 NMatS0=      1 NMatT0=    0 NMatD0=    1 NMtDS0=    0 NMtDT0=    0
 Symmetry not used in FoFCou.
 Inv3:  Mode=1 IEnd=    26712768.
 Iteration    1 A*A^-1 deviation from unit magnitude is 3.11D-15 for    368.
 Iteration    1 A*A^-1 deviation from orthogonality  is 1.79D-15 for   1782    127.
 Iteration    1 A^-1*A deviation from unit magnitude is 3.11D-15 for    368.
 Iteration    1 A^-1*A deviation from orthogonality  is 2.32D-13 for   1953   1910.
 E= -1734.69134294361    
 DIIS: error= 2.70D-02 at cycle   1 NSaved=   1.
 NSaved= 1 IEnMin= 1 EnMin= -1734.69134294361     IErMin= 1 ErrMin= 2.70D-02
 ErrMax= 2.70D-02  0.00D+00 EMaxC= 1.00D-01 BMatC= 9.27D-01 BMatP= 9.27D-01
 IDIUse=3 WtCom= 7.30D-01 WtEn= 2.70D-01
 Coeff-Com:  0.100D+01
 Coeff-En:   0.100D+01
 Coeff:      0.100D+01
 Gap=     0.232 Goal=   None    Shift=    0.000
 GapD=    0.232 DampG=1.000 DampE=0.500 DampFc=0.5000 IDamp=-1.
 Damping current iteration by 5.00D-01
 RMSDP=6.39D-03 MaxDP=5.23D-01              OVMax= 2.68D-01

 Cycle   2  Pass 1  IDiag  1:
 E= -1734.95425019692     Delta-E=       -0.262907253310 Rises=F Damp=T
 DIIS: error= 1.38D-02 at cycle   2 NSaved=   2.
 NSaved= 2 IEnMin= 2 EnMin= -1734.95425019692     IErMin= 2 ErrMin= 1.38D-02
 ErrMax= 1.38D-02  0.00D+00 EMaxC= 1.00D-01 BMatC= 1.05D-01 BMatP= 9.27D-01
 IDIUse=3 WtCom= 8.62D-01 WtEn= 1.38D-01
 Coeff-Com:  0.191D+00 0.809D+00
 Coeff-En:   0.309D+00 0.691D+00
 Coeff:      0.208D+00 0.792D+00
 Gap=     0.183 Goal=   None    Shift=    0.000
 RMSDP=1.81D-03 MaxDP=1.31D-01 DE=-2.63D-01 OVMax= 1.91D-01

 Cycle   3  Pass 1  IDiag  1:
 E= -1735.46816368507     Delta-E=       -0.513913488141 Rises=F Damp=F
 DIIS: error= 8.55D-03 at cycle   3 NSaved=   3.
 NSaved= 3 IEnMin= 3 EnMin= -1735.46816368507     IErMin= 3 ErrMin= 8.55D-03
 ErrMax= 8.55D-03  0.00D+00 EMaxC= 1.00D-01 BMatC= 5.99D-02 BMatP= 1.05D-01
 IDIUse=3 WtCom= 9.15D-01 WtEn= 8.55D-02
 Coeff-Com:  0.592D-01 0.434D+00 0.507D+00
 Coeff-En:   0.000D+00 0.000D+00 0.100D+01
 Coeff:      0.541D-01 0.397D+00 0.549D+00
 Gap=     0.168 Goal=   None    Shift=    0.000
 RMSDP=9.84D-04 MaxDP=4.40D-02 DE=-5.14D-01 OVMax= 6.92D-02

 Cycle   4  Pass 1  IDiag  1:
 E= -1735.51411600854     Delta-E=       -0.045952323479 Rises=F Damp=F
 DIIS: error= 4.07D-03 at cycle   4 NSaved=   4.
 NSaved= 4 IEnMin= 4 EnMin= -1735.51411600854     IErMin= 4 ErrMin= 4.07D-03
 ErrMax= 4.07D-03  0.00D+00 EMaxC= 1.00D-01 BMatC= 1.18D-02 BMatP= 5.99D-02
 IDIUse=3 WtCom= 9.59D-01 WtEn= 4.07D-02
 Coeff-Com:  0.621D-02 0.103D+00 0.319D+00 0.571D+00
 Coeff-En:   0.000D+00 0.000D+00 0.166D+00 0.834D+00
 Coeff:      0.596D-02 0.992D-01 0.313D+00 0.582D+00
 Gap=     0.164 Goal=   None    Shift=    0.000
 RMSDP=3.96D-04 MaxDP=2.01D-02 DE=-4.60D-02 OVMax= 3.81D-02

 Cycle   5  Pass 1  IDiag  1:
 E= -1735.52359995406     Delta-E=       -0.009483945515 Rises=F Damp=F
 DIIS: error= 1.54D-03 at cycle   5 NSaved=   5.
 NSaved= 5 IEnMin= 5 EnMin= -1735.52359995406     IErMin= 5 ErrMin= 1.54D-03
 ErrMax= 1.54D-03  0.00D+00 EMaxC= 1.00D-01 BMatC= 1.49D-03 BMatP= 1.18D-02
 IDIUse=3 WtCom= 9.85D-01 WtEn= 1.54D-02
 Coeff-Com: -0.198D-02 0.191D-01 0.132D+00 0.351D+00 0.500D+00
 Coeff-En:   0.000D+00 0.000D+00 0.000D+00 0.746D-01 0.925D+00
 Coeff:     -0.195D-02 0.188D-01 0.130D+00 0.346D+00 0.507D+00
 Gap=     0.168 Goal=   None    Shift=    0.000
 RMSDP=1.36D-04 MaxDP=8.31D-03 DE=-9.48D-03 OVMax= 1.04D-02

 Cycle   6  Pass 1  IDiag  1:
 E= -1735.52488381174     Delta-E=       -0.001283857682 Rises=F Damp=F
 DIIS: error= 4.41D-04 at cycle   6 NSaved=   6.
 NSaved= 6 IEnMin= 6 EnMin= -1735.52488381174     IErMin= 6 ErrMin= 4.41D-04
 ErrMax= 4.41D-04  0.00D+00 EMaxC= 1.00D-01 BMatC= 1.04D-04 BMatP= 1.49D-03
 IDIUse=3 WtCom= 9.96D-01 WtEn= 4.41D-03
 Coeff-Com: -0.139D-02 0.333D-02 0.474D-01 0.145D+00 0.283D+00 0.522D+00
 Coeff-En:   0.000D+00 0.000D+00 0.000D+00 0.000D+00 0.000D+00 0.100D+01
 Coeff:     -0.138D-02 0.331D-02 0.472D-01 0.144D+00 0.282D+00 0.525D+00
 Gap=     0.167 Goal=   None    Shift=    0.000
 RMSDP=3.43D-05 MaxDP=2.11D-03 DE=-1.28D-03 OVMax= 2.14D-03

 Cycle   7  Pass 1  IDiag  1:
 E= -1735.52496499737     Delta-E=       -0.000081185632 Rises=F Damp=F
 DIIS: error= 2.00D-04 at cycle   7 NSaved=   7.
 NSaved= 7 IEnMin= 7 EnMin= -1735.52496499737     IErMin= 7 ErrMin= 2.00D-04
 ErrMax= 2.00D-04  0.00D+00 EMaxC= 1.00D-01 BMatC= 1.00D-05 BMatP= 1.04D-04
 IDIUse=3 WtCom= 9.98D-01 WtEn= 2.00D-03
 Coeff-Com: -0.583D-03-0.218D-03 0.131D-01 0.456D-01 0.109D+00 0.297D+00
 Coeff-Com:  0.537D+00
 Coeff-En:   0.000D+00 0.000D+00 0.000D+00 0.000D+00 0.000D+00 0.311D-01
 Coeff-En:   0.969D+00
 Coeff:     -0.582D-03-0.217D-03 0.130D-01 0.455D-01 0.109D+00 0.296D+00
 Coeff:      0.537D+00
 Gap=     0.167 Goal=   None    Shift=    0.000
 RMSDP=9.62D-06 MaxDP=4.79D-04 DE=-8.12D-05 OVMax= 9.19D-04

 Cycle   8  Pass 1  IDiag  1:
 E= -1735.52497409381     Delta-E=       -0.000009096437 Rises=F Damp=F
 DIIS: error= 5.08D-05 at cycle   8 NSaved=   8.
 NSaved= 8 IEnMin= 8 EnMin= -1735.52497409381     IErMin= 8 ErrMin= 5.08D-05
 ErrMax= 5.08D-05  0.00D+00 EMaxC= 1.00D-01 BMatC= 4.47D-07 BMatP= 1.00D-05
 IDIUse=1 WtCom= 1.00D+00 WtEn= 0.00D+00
 Coeff-Com: -0.142D-03-0.371D-03 0.155D-02 0.750D-02 0.233D-01 0.850D-01
 Coeff-Com:  0.237D+00 0.647D+00
 Coeff:     -0.142D-03-0.371D-03 0.155D-02 0.750D-02 0.233D-01 0.850D-01
 Coeff:      0.237D+00 0.647D+00
 Gap=     0.167 Goal=   None    Shift=    0.000
 RMSDP=2.67D-06 MaxDP=1.07D-04 DE=-9.10D-06 OVMax= 2.70D-04

 Cycle   9  Pass 1  IDiag  1:
 E= -1735.52497450317     Delta-E=       -0.000000409365 Rises=F Damp=F
 DIIS: error= 1.85D-05 at cycle   9 NSaved=   9.
 NSaved= 9 IEnMin= 9 EnMin= -1735.52497450317     IErMin= 9 ErrMin= 1.85D-05
 ErrMax= 1.85D-05  0.00D+00 EMaxC= 1.00D-01 BMatC= 6.93D-08 BMatP= 4.47D-07
 IDIUse=1 WtCom= 1.00D+00 WtEn= 0.00D+00
 Coeff-Com: -0.957D-05-0.159D-03-0.679D-03-0.123D-02-0.259D-03 0.105D-01
 Coeff-Com:  0.606D-01 0.339D+00 0.592D+00
 Coeff:     -0.957D-05-0.159D-03-0.679D-03-0.123D-02-0.259D-03 0.105D-01
 Coeff:      0.606D-01 0.339D+00 0.592D+00
 Gap=     0.167 Goal=   None    Shift=    0.000
 RMSDP=8.43D-07 MaxDP=3.23D-05 DE=-4.09D-07 OVMax= 8.97D-05

 Cycle  10  Pass 1  IDiag  1:
 E= -1735.52497457102     Delta-E=       -0.000000067844 Rises=F Damp=F
 DIIS: error= 2.44D-06 at cycle  10 NSaved=  10.
 NSaved=10 IEnMin=10 EnMin= -1735.52497457102     IErMin=10 ErrMin= 2.44D-06
 ErrMax= 2.44D-06  0.00D+00 EMaxC= 1.00D-01 BMatC= 4.35D-09 BMatP= 6.93D-08
 IDIUse=1 WtCom= 1.00D+00 WtEn= 0.00D+00
 Coeff-Com: -0.280D-07-0.520D-04-0.424D-03-0.971D-03-0.125D-02 0.150D-02
 Coeff-Com:  0.205D-01 0.148D+00 0.303D+00 0.529D+00
 Coeff:     -0.280D-07-0.520D-04-0.424D-03-0.971D-03-0.125D-02 0.150D-02
 Coeff:      0.205D-01 0.148D+00 0.303D+00 0.529D+00
 Gap=     0.167 Goal=   None    Shift=    0.000
 RMSDP=2.30D-07 MaxDP=1.18D-05 DE=-6.78D-08 OVMax= 1.70D-05

 Cycle  11  Pass 1  IDiag  1:
 E= -1735.52497457440     Delta-E=       -0.000000003386 Rises=F Damp=F
 DIIS: error= 9.49D-07 at cycle  11 NSaved=  11.
 NSaved=11 IEnMin=11 EnMin= -1735.52497457440     IErMin=11 ErrMin= 9.49D-07
 ErrMax= 9.49D-07  0.00D+00 EMaxC= 1.00D-01 BMatC= 6.69D-10 BMatP= 4.35D-09
 IDIUse=1 WtCom= 1.00D+00 WtEn= 0.00D+00
 Coeff-Com:  0.118D-06-0.959D-06-0.138D-03-0.353D-03-0.729D-03-0.104D-02
 Coeff-Com:  0.795D-03 0.253D-01 0.656D-01 0.296D+00 0.615D+00
 Coeff:      0.118D-06-0.959D-06-0.138D-03-0.353D-03-0.729D-03-0.104D-02
 Coeff:      0.795D-03 0.253D-01 0.656D-01 0.296D+00 0.615D+00
 Gap=     0.167 Goal=   None    Shift=    0.000
 RMSDP=8.41D-08 MaxDP=4.71D-06 DE=-3.39D-09 OVMax= 5.73D-06

 Cycle  12  Pass 1  IDiag  1:
 E= -1735.52497457487     Delta-E=       -0.000000000465 Rises=F Damp=F
 DIIS: error= 3.38D-07 at cycle  12 NSaved=  12.
 NSaved=12 IEnMin=12 EnMin= -1735.52497457487     IErMin=12 ErrMin= 3.38D-07
 ErrMax= 3.38D-07  0.00D+00 EMaxC= 1.00D-01 BMatC= 9.01D-11 BMatP= 6.69D-10
 IDIUse=1 WtCom= 1.00D+00 WtEn= 0.00D+00
 Coeff-Com: -0.351D-06 0.517D-05-0.381D-04-0.101D-03-0.300D-03-0.762D-03
 Coeff-Com: -0.184D-02-0.132D-02 0.372D-02 0.114D+00 0.353D+00 0.533D+00
 Coeff:     -0.351D-06 0.517D-05-0.381D-04-0.101D-03-0.300D-03-0.762D-03
 Coeff:     -0.184D-02-0.132D-02 0.372D-02 0.114D+00 0.353D+00 0.533D+00
 Gap=     0.167 Goal=   None    Shift=    0.000
 RMSDP=3.22D-08 MaxDP=1.99D-06 DE=-4.65D-10 OVMax= 2.62D-06

 Cycle  13  Pass 1  IDiag  1:
 E= -1735.52497457496     Delta-E=       -0.000000000088 Rises=F Damp=F
 DIIS: error= 6.90D-08 at cycle  13 NSaved=  13.
 NSaved=13 IEnMin=13 EnMin= -1735.52497457496     IErMin=13 ErrMin= 6.90D-08
 ErrMax= 6.90D-08  0.00D+00 EMaxC= 1.00D-01 BMatC= 5.04D-12 BMatP= 9.01D-11
 IDIUse=1 WtCom= 1.00D+00 WtEn= 0.00D+00
 Coeff-Com: -0.235D-06 0.244D-05-0.440D-05-0.112D-04-0.645D-04-0.234D-03
 Coeff-Com: -0.902D-03-0.293D-02-0.501D-02 0.204D-01 0.908D-01 0.244D+00
 Coeff-Com:  0.654D+00
 Coeff:     -0.235D-06 0.244D-05-0.440D-05-0.112D-04-0.645D-04-0.234D-03
 Coeff:     -0.902D-03-0.293D-02-0.501D-02 0.204D-01 0.908D-01 0.244D+00
 Coeff:      0.654D+00
 Gap=     0.167 Goal=   None    Shift=    0.000
 RMSDP=8.34D-09 MaxDP=3.59D-07 DE=-8.82D-11 OVMax= 5.40D-07

 Error on total polarization charges =  0.02248
 SCF Done:  E(RB3LYP) =  -1735.52497457     A.U. after   13 cycles
            NFock= 13  Conv=0.83D-08     -V/T= 2.0068
 KE= 1.723867825194D+03 PE=-8.721842702154D+03 EE= 2.952444081096D+03
 Leave Link  502 at Mon Sep 21 05:46:45 2020, MaxMem=  2147483648 cpu:             518.8 elap:             129.8
 (Enter /prod/apps/gaussian/g16b1/l601.exe)
 Copying SCF densities to generalized density rwf, IOpCl= 0 IROHF=0.

 **********************************************************************

            Population analysis using the SCF Density.

 **********************************************************************

 Alpha  occ. eigenvalues --  -89.07743 -88.96908 -19.11862 -19.11742 -19.10555
 Alpha  occ. eigenvalues --  -14.26511 -10.22306 -10.21125 -10.19858 -10.19762
 Alpha  occ. eigenvalues --  -10.19588 -10.19550 -10.19508 -10.19419 -10.19197
 Alpha  occ. eigenvalues --  -10.19080 -10.18600 -10.18589 -10.18383 -10.18194
 Alpha  occ. eigenvalues --  -10.18188 -10.18087 -10.17328  -8.10154  -8.01771
 Alpha  occ. eigenvalues --   -6.06696  -6.06551  -6.06463  -5.98205  -5.97962
 Alpha  occ. eigenvalues --   -5.97555  -1.07941  -0.99414  -0.97463  -0.86668
 Alpha  occ. eigenvalues --   -0.86096  -0.84939  -0.79115  -0.77749  -0.75726
 Alpha  occ. eigenvalues --   -0.75202  -0.73891  -0.72215  -0.68019  -0.66346
 Alpha  occ. eigenvalues --   -0.63475  -0.61132  -0.60424  -0.59556  -0.57221
 Alpha  occ. eigenvalues --   -0.56886  -0.53537  -0.51553  -0.50583  -0.48642
 Alpha  occ. eigenvalues --   -0.47283  -0.46627  -0.45625  -0.45021  -0.44424
 Alpha  occ. eigenvalues --   -0.44218  -0.43404  -0.43114  -0.42727  -0.41882
 Alpha  occ. eigenvalues --   -0.41555  -0.41326  -0.40326  -0.39151  -0.37619
 Alpha  occ. eigenvalues --   -0.37429  -0.36816  -0.36624  -0.36157  -0.35328
 Alpha  occ. eigenvalues --   -0.34946  -0.33949  -0.33038  -0.32623  -0.32172
 Alpha  occ. eigenvalues --   -0.31506  -0.30635  -0.29693  -0.27890  -0.26304
 Alpha  occ. eigenvalues --   -0.25896  -0.25398  -0.24767  -0.24382  -0.23150
 Alpha  occ. eigenvalues --   -0.20244  -0.18772
 Alpha virt. eigenvalues --   -0.02079  -0.00851   0.00103   0.00463   0.02509
 Alpha virt. eigenvalues --    0.04407   0.08150   0.08619   0.09910   0.10238
 Alpha virt. eigenvalues --    0.11479   0.12191   0.12400   0.13590   0.14088
 Alpha virt. eigenvalues --    0.14283   0.15109   0.15403   0.16106   0.16596
 Alpha virt. eigenvalues --    0.16691   0.17521   0.17979   0.18214   0.19228
 Alpha virt. eigenvalues --    0.19254   0.19757   0.20482   0.21621   0.22244
 Alpha virt. eigenvalues --    0.22913   0.23952   0.25431   0.26171   0.26741
 Alpha virt. eigenvalues --    0.28644   0.29588   0.30173   0.30590   0.31316
 Alpha virt. eigenvalues --    0.32119   0.33567   0.33764   0.34622   0.35682
 Alpha virt. eigenvalues --    0.36324   0.36739   0.37341   0.38229   0.41443
 Alpha virt. eigenvalues --    0.43342   0.45191   0.47595   0.47922   0.50836
 Alpha virt. eigenvalues --    0.51041   0.51701   0.51912   0.53687   0.53882
 Alpha virt. eigenvalues --    0.54416   0.55031   0.55333   0.56435   0.56646
 Alpha virt. eigenvalues --    0.56962   0.58449   0.58743   0.59266   0.59715
 Alpha virt. eigenvalues --    0.59945   0.60512   0.60700   0.60878   0.61155
 Alpha virt. eigenvalues --    0.61660   0.62067   0.62240   0.63007   0.63299
 Alpha virt. eigenvalues --    0.64277   0.64731   0.65383   0.66547   0.67425
 Alpha virt. eigenvalues --    0.68347   0.69700   0.70458   0.70988   0.72749
 Alpha virt. eigenvalues --    0.74107   0.76141   0.77796   0.78395   0.79086
 Alpha virt. eigenvalues --    0.80240   0.81435   0.82248   0.83048   0.83546
 Alpha virt. eigenvalues --    0.83681   0.84073   0.84469   0.84865   0.85101
 Alpha virt. eigenvalues --    0.85795   0.86188   0.86637   0.87351   0.88229
 Alpha virt. eigenvalues --    0.89239   0.90567   0.90621   0.91229   0.92546
 Alpha virt. eigenvalues --    0.92807   0.93848   0.94123   0.95050   0.95661
 Alpha virt. eigenvalues --    0.96086   0.96986   0.97416   0.97930   1.00034
 Alpha virt. eigenvalues --    1.00400   1.01816   1.02840   1.03714   1.04283
 Alpha virt. eigenvalues --    1.04434   1.04856   1.06308   1.07456   1.08295
 Alpha virt. eigenvalues --    1.08696   1.10216   1.11141   1.12754   1.12877
 Alpha virt. eigenvalues --    1.14615   1.14824   1.15423   1.16738   1.17517
 Alpha virt. eigenvalues --    1.17909   1.18650   1.21188   1.22335   1.23010
 Alpha virt. eigenvalues --    1.23775   1.24676   1.26730   1.28398   1.29061
 Alpha virt. eigenvalues --    1.32549   1.34398   1.35637   1.38535   1.41694
 Alpha virt. eigenvalues --    1.42668   1.43148   1.44017   1.44218   1.45461
 Alpha virt. eigenvalues --    1.46330   1.47350   1.48348   1.48832   1.50033
 Alpha virt. eigenvalues --    1.50104   1.50789   1.51910   1.53466   1.55912
 Alpha virt. eigenvalues --    1.56443   1.63672   1.65366   1.71429   1.73373
 Alpha virt. eigenvalues --    1.76463   1.77179   1.77452   1.78671   1.79374
 Alpha virt. eigenvalues --    1.80246   1.80793   1.82200   1.82693   1.83794
 Alpha virt. eigenvalues --    1.84078   1.84853   1.86135   1.86225   1.87583
 Alpha virt. eigenvalues --    1.88210   1.89719   1.90091   1.91162   1.92183
 Alpha virt. eigenvalues --    1.93003   1.94714   1.95646   1.96028   1.97354
 Alpha virt. eigenvalues --    1.97780   1.98590   1.99894   2.01005   2.01926
 Alpha virt. eigenvalues --    2.03090   2.03931   2.05729   2.08355   2.10083
 Alpha virt. eigenvalues --    2.10724   2.11843   2.12376   2.13254   2.13843
 Alpha virt. eigenvalues --    2.14461   2.14569   2.14921   2.15209   2.15966
 Alpha virt. eigenvalues --    2.16533   2.16934   2.18381   2.21207   2.21962
 Alpha virt. eigenvalues --    2.25743   2.26443   2.27853   2.29573   2.30127
 Alpha virt. eigenvalues --    2.31112   2.31383   2.32151   2.32703   2.35106
 Alpha virt. eigenvalues --    2.36922   2.39320   2.40022   2.44979   2.46972
 Alpha virt. eigenvalues --    2.52379   2.53885   2.58594   2.58697   2.60189
 Alpha virt. eigenvalues --    2.61933   2.64521   2.65355   2.66931   2.70737
 Alpha virt. eigenvalues --    2.71628   2.73006   2.73213   2.73606   2.74679
 Alpha virt. eigenvalues --    2.75468   2.75585   2.77630   2.78481   2.79470
 Alpha virt. eigenvalues --    2.80600   2.81752   2.85975   2.89921   2.93088
 Alpha virt. eigenvalues --    3.03883   3.07029   3.38266   3.41428   3.76335
 Alpha virt. eigenvalues --    3.84190   3.94878   4.02449   4.04746   4.08726
 Alpha virt. eigenvalues --    4.09828   4.10399   4.12167   4.14818   4.16848
 Alpha virt. eigenvalues --    4.17759   4.23303   4.27370   4.33121   4.33914
 Alpha virt. eigenvalues --    4.35571   4.37467   4.43479   4.54361   4.66483
 Alpha virt. eigenvalues --    4.70993   4.77262
          Condensed to atoms (all electrons):
               1          2          3          4          5          6
     1  O    8.347505   0.441441  -0.075835   0.002520  -0.000013   0.000003
     2  S    0.441441  13.765297   0.296946   0.003053  -0.011024   0.001645
     3  N   -0.075835   0.296946   7.572249   0.283274  -0.048717   0.005763
     4  C    0.002520   0.003053   0.283274   4.768359   0.304744  -0.066406
     5  C   -0.000013  -0.011024  -0.048717   0.304744   5.751007   0.080651
     6  S    0.000003   0.001645   0.005763  -0.066406   0.080651  14.956569
     7  O   -0.000000   0.000006  -0.000049   0.000768  -0.038507   0.278909
     8  C   -0.000149  -0.012089  -0.047066   0.288297  -0.147725   0.083770
     9  C   -0.000080   0.000687  -0.071060   0.381358  -0.066447   0.009770
    10  C    0.000004  -0.000015  -0.001449  -0.026884   0.005594  -0.000367
    11  C   -0.000013   0.000628   0.006760  -0.004431  -0.000000  -0.000035
    12  C   -0.000000  -0.000039  -0.000109   0.000639  -0.000004   0.000001
    13  C    0.000001  -0.000068  -0.000147  -0.000001  -0.000000   0.000000
    14  C   -0.000001   0.000008   0.000065   0.000001   0.000000  -0.000000
    15  C    0.000000   0.000001  -0.000221  -0.000024  -0.000000  -0.000000
    16  C   -0.000003   0.000254   0.000730  -0.000943  -0.000021   0.000002
    17  C   -0.067971   0.114378  -0.063580  -0.002564  -0.000586  -0.000025
    18  C   -0.000005  -0.024651  -0.003071  -0.000695   0.000018  -0.000007
    19  C    0.000095   0.003364   0.000319  -0.000002   0.000000   0.000000
    20  C   -0.000006  -0.000664   0.000007   0.000001   0.000000   0.000000
    21  C   -0.000062   0.000951  -0.000175  -0.000003  -0.000000  -0.000005
    22  C   -0.001092  -0.024107   0.001458   0.000062   0.000008  -0.000031
    23  O   -0.042546   0.346404  -0.061289  -0.000014  -0.008511   0.000393
    24  H   -0.000001   0.000430   0.001826  -0.029261   0.342545  -0.017481
    25  H   -0.000187   0.000634  -0.005349  -0.024527   0.319777  -0.006848
    26  H    0.000001   0.000409   0.001864  -0.024833   0.011289  -0.016059
    27  H   -0.000016   0.002358  -0.010545  -0.028603   0.001074  -0.010071
    28  H   -0.000011   0.000194   0.001730  -0.031711  -0.007192  -0.000609
    29  H    0.000000   0.000001   0.003956  -0.036788  -0.005755   0.003019
    30  H   -0.000000   0.000015   0.000261   0.004270  -0.000120   0.000021
    31  H    0.000000  -0.000060   0.000611  -0.007187   0.000265  -0.000098
    32  H    0.000000  -0.000014   0.000002  -0.000016   0.000000   0.000000
    33  H    0.000000  -0.000001  -0.000001   0.000000   0.000000   0.000000
    34  H   -0.000000   0.000000   0.000000  -0.000000   0.000000  -0.000000
    35  H    0.000000  -0.000000  -0.000002   0.000000  -0.000000   0.000000
    36  H    0.000000  -0.000002  -0.000106   0.000168   0.000005  -0.000000
    37  H    0.000705  -0.000197   0.006220   0.000013   0.000009  -0.000000
    38  H    0.000001  -0.000038   0.000002   0.000000  -0.000000   0.000000
    39  H   -0.000000   0.000006   0.000000  -0.000000  -0.000000  -0.000000
    40  H    0.000000  -0.000020   0.000001   0.000000   0.000000   0.000000
    41  H    0.000036  -0.004387   0.000262   0.000002  -0.000006   0.000032
               7          8          9         10         11         12
     1  O   -0.000000  -0.000149  -0.000080   0.000004  -0.000013  -0.000000
     2  S    0.000006  -0.012089   0.000687  -0.000015   0.000628  -0.000039
     3  N   -0.000049  -0.047066  -0.071060  -0.001449   0.006760  -0.000109
     4  C    0.000768   0.288297   0.381358  -0.026884  -0.004431   0.000639
     5  C   -0.038507  -0.147725  -0.066447   0.005594  -0.000000  -0.000004
     6  S    0.278909   0.083770   0.009770  -0.000367  -0.000035   0.000001
     7  O    8.487281  -0.037988  -0.009837   0.000080  -0.000004  -0.000000
     8  C   -0.037988   5.735997  -0.059806  -0.010346  -0.000013  -0.000029
     9  C   -0.009837  -0.059806   5.201954   0.331294  -0.029316   0.001350
    10  C    0.000080  -0.010346   0.331294   5.173982   0.353077  -0.050238
    11  C   -0.000004  -0.000013  -0.029316   0.353077   4.621946   0.544963
    12  C   -0.000000  -0.000029   0.001350  -0.050238   0.544963   5.011837
    13  C    0.000000  -0.000000  -0.000174   0.007272  -0.022005   0.506849
    14  C   -0.000000   0.000000  -0.000002   0.000270  -0.034268  -0.038261
    15  C    0.000000  -0.000000   0.000275   0.006463  -0.018762  -0.046818
    16  C    0.000000   0.000009  -0.004827  -0.066211   0.538043  -0.041899
    17  C   -0.000000   0.001335  -0.000165   0.000010  -0.000117   0.000073
    18  C    0.000000   0.000645  -0.000041  -0.000020  -0.000170  -0.002714
    19  C   -0.000000   0.000046  -0.000001  -0.000003   0.000008  -0.000143
    20  C    0.000000   0.000009   0.000000   0.000000  -0.000000   0.000002
    21  C    0.000000  -0.000112  -0.000000  -0.000000   0.000000  -0.000000
    22  C   -0.000000  -0.001467   0.000001   0.000000  -0.000001   0.000001
    23  O   -0.000000  -0.002513  -0.000024   0.000001   0.000000  -0.000000
    24  H   -0.000161   0.011395  -0.007161   0.000114  -0.000005   0.000000
    25  H    0.001262   0.004916   0.003834  -0.000113   0.000000  -0.000000
    26  H    0.000018   0.342801  -0.008667   0.001836   0.000169  -0.000034
    27  H    0.001338   0.329015   0.004718  -0.000046  -0.000004  -0.000002
    28  H    0.000282   0.007338   0.351345  -0.040739  -0.008406   0.000215
    29  H    0.028402  -0.006334   0.330316  -0.025638   0.003371  -0.000109
    30  H   -0.000007   0.000062  -0.035131   0.358678  -0.031450   0.000441
    31  H    0.000045   0.003284  -0.040646   0.361434  -0.034768  -0.005029
    32  H   -0.000000   0.000005   0.000161  -0.011372  -0.041503   0.356222
    33  H    0.000000  -0.000000   0.000002  -0.000170   0.003691  -0.039176
    34  H   -0.000000   0.000000  -0.000000   0.000007   0.000632   0.004600
    35  H   -0.000000  -0.000000   0.000003  -0.000174   0.003473   0.000781
    36  H    0.000000  -0.000002   0.000961  -0.009172  -0.044465   0.006096
    37  H   -0.000000  -0.000008  -0.000056   0.000030   0.000384   0.006443
    38  H   -0.000000  -0.000000   0.000000  -0.000000   0.000002   0.000020
    39  H    0.000000   0.000000  -0.000000   0.000000  -0.000000   0.000000
    40  H   -0.000000  -0.000000   0.000000   0.000000  -0.000000  -0.000000
    41  H   -0.000000  -0.000174   0.000001  -0.000000  -0.000000   0.000000
              13         14         15         16         17         18
     1  O    0.000001  -0.000001   0.000000  -0.000003  -0.067971  -0.000005
     2  S   -0.000068   0.000008   0.000001   0.000254   0.114378  -0.024651
     3  N   -0.000147   0.000065  -0.000221   0.000730  -0.063580  -0.003071
     4  C   -0.000001   0.000001  -0.000024  -0.000943  -0.002564  -0.000695
     5  C   -0.000000   0.000000  -0.000000  -0.000021  -0.000586   0.000018
     6  S    0.000000  -0.000000  -0.000000   0.000002  -0.000025  -0.000007
     7  O    0.000000  -0.000000   0.000000   0.000000  -0.000000   0.000000
     8  C   -0.000000   0.000000  -0.000000   0.000009   0.001335   0.000645
     9  C   -0.000174  -0.000002   0.000275  -0.004827  -0.000165  -0.000041
    10  C    0.007272   0.000270   0.006463  -0.066211   0.000010  -0.000020
    11  C   -0.022005  -0.034268  -0.018762   0.538043  -0.000117  -0.000170
    12  C    0.506849  -0.038261  -0.046818  -0.041899   0.000073  -0.002714
    13  C    4.911059   0.545668  -0.029043  -0.047735   0.000025  -0.001241
    14  C    0.545668   4.891918   0.543099  -0.037980   0.000001  -0.000038
    15  C   -0.029043   0.543099   4.898971   0.518319  -0.000000   0.000009
    16  C   -0.047735  -0.037980   0.518319   5.016732  -0.000009   0.000037
    17  C    0.000025   0.000001  -0.000000  -0.000009   5.437032   0.465945
    18  C   -0.001241  -0.000038   0.000009   0.000037   0.465945   4.996443
    19  C   -0.000015   0.000001  -0.000000   0.000000  -0.025064   0.510201
    20  C    0.000001   0.000000   0.000000  -0.000000  -0.041120  -0.031145
[...]
    20  C    0.045116  -0.035967   0.010832  -0.000074  -5.970896   5.276107
    21  C   -0.010491   0.009370  -0.003291   0.002111   4.671031  -6.401301
    22  C    0.009236  -0.008645  -0.001375  -0.033216 -11.085060   4.782006
    23  O   -0.001785   0.000914  -0.000968   0.004297   0.450304  -0.025160
    24  H    0.000115  -0.002692   0.003962   0.009869   0.025492   0.015755
    25  H    0.001362  -0.000051   0.003235  -0.004480  -0.037402  -0.026453
    26  H   -0.011480   0.002460  -0.001091  -0.024215   0.022466   0.014268
    27  H    0.002402  -0.004233   0.001278   0.004052  -0.126635   0.037472
    28  H   -0.010158   0.014474  -0.001671  -0.302960  -0.036543  -0.021170
    29  H    0.008834  -0.001296  -0.006443  -0.007317  -0.000515  -0.000312
    30  H   -0.015523   0.013961   0.003524   0.040471   0.001550  -0.009364
    31  H    0.036153  -0.059327   0.055849   0.008851  -0.028142  -0.011842
    32  H    0.531598  -0.043383   0.008018  -0.174768   0.022156   0.088113
    33  H   -0.857425   0.467773  -0.217111   0.077631  -0.002643   0.055172
    34  H    0.445279  -0.891146   0.418972  -0.069884   0.004545  -0.010800
    35  H   -0.280398   0.390959  -1.040005   0.551803  -0.002282   0.001578
    36  H    0.123214  -0.190895   0.480597  -1.303207   0.015097   0.003157
    37  H    0.044303  -0.099098   0.064231  -0.043266   0.589398  -1.204843
    38  H   -0.041153   0.009928  -0.003608   0.010506  -0.213682   0.515801
    39  H    0.002765  -0.000868   0.000216  -0.000493   0.063458  -0.036232
    40  H   -0.000311   0.000236  -0.000101   0.000076  -0.022447   0.128057
    41  H    0.001151  -0.000818   0.000604   0.001825   0.825134  -0.286846
              19         20         21         22         23         24
     1  O    0.002428  -0.010264   0.011651   0.124527   0.029637   0.001018
     2  S   -0.279718   0.095137  -0.191796  -1.074152  -1.406913  -0.018428
     3  N   -0.163308   0.042095   0.037377  -0.003968   0.270933   0.145784
     4  C    0.217815  -0.008064   0.049079   0.062143   0.394045  -0.348744
     5  C   -0.005074   0.019919  -0.054757   0.022006  -0.157729   0.133407
     6  S   -0.008841   0.008671  -0.013468   0.018151   0.026376   0.134100
     7  O    0.001347  -0.000614   0.000344  -0.003622  -0.003772  -0.001212
     8  C    0.016839  -0.069794   0.142213  -0.213989   0.014157   0.099382
     9  C   -0.066132  -0.048848   0.063494  -0.051956  -0.096053  -0.029037
    10  C    0.046967  -0.027951  -0.002766  -0.034419  -0.016065   0.125755
    11  C   -0.076916   0.023247  -0.008742   0.083959  -0.003252  -0.040860
    12  C    0.096502  -0.012227   0.002752  -0.053449   0.000484  -0.007377
    13  C   -0.045617   0.045116  -0.010491   0.009236  -0.001785   0.000115
    14  C   -0.013048  -0.035967   0.009370  -0.008645   0.000914  -0.002692
    15  C    0.024769   0.010832  -0.003291  -0.001375  -0.000968   0.003962
    16  C    0.093764  -0.000074   0.002111  -0.033216   0.004297   0.009869
    17  C    5.593821  -5.970896   4.671031 -11.085060   0.450304   0.025492
    18  C   -8.471322   5.276107  -6.401301   4.782006  -0.025160   0.015755
    19  C   15.980080  -5.627783   5.340839  -6.677704   0.032062   0.001853
    20  C   -5.627783  11.997824  -5.158657   5.162180  -0.011904   0.001382
    21  C    5.340839  -5.158657  14.172096  -6.836028  -0.080210  -0.004965
    22  C   -6.677704   5.162180  -6.836028  22.096422   0.135928   0.000721
    23  O    0.032062  -0.011904  -0.080210   0.135928   9.781842   0.002788
    24  H    0.001853   0.001382  -0.004965   0.000721   0.002788   1.429285
    25  H   -0.001244  -0.002555   0.013214  -0.028691  -0.019278  -0.351255
    26  H   -0.005357  -0.007333   0.006157  -0.004373  -0.003827  -0.007466
    27  H   -0.009428   0.037363   0.007678   0.057643   0.076149   0.022800
    28  H   -0.015890  -0.005082   0.006408   0.008071  -0.008677  -0.015287
    29  H   -0.004657  -0.000598   0.002606   0.001634   0.000969  -0.053508
    30  H    0.005855  -0.000998   0.000524  -0.002886  -0.000462   0.006953
    31  H    0.038605   0.009471  -0.022843   0.013859  -0.000465   0.014395
    32  H   -0.027586   0.004621   0.013498  -0.016618  -0.000197  -0.000777
    33  H   -0.048329   0.005146  -0.004795   0.007986  -0.000209  -0.000055
    34  H    0.005594  -0.001330   0.000584  -0.000952   0.000103  -0.000020
    35  H   -0.000477   0.000248  -0.000174   0.000280  -0.000214  -0.000544
    36  H    0.008821   0.000862   0.000008  -0.004834   0.001850   0.008356
    37  H    0.313312  -0.233896   0.148138  -0.181945   0.025553   0.001982
    38  H   -0.888823   0.541373  -0.263537   0.145578   0.000700   0.000053
    39  H    0.492837  -0.850557   0.389642  -0.150056   0.000079   0.000044
    40  H   -0.300330   0.388137  -0.990087   0.657266  -0.000599  -0.000155
    41  H    0.182309  -0.228042   0.635949  -1.542225  -0.041517   0.001984
              25         26         27         28         29         30
     1  O   -0.015014  -0.005815   0.019921  -0.003107   0.003576  -0.000225
     2  S    0.218053   0.037417  -0.321657   0.066789   0.000665   0.010274
     3  N   -0.031352   0.106328   0.184739   0.002725   0.110976  -0.015730
     4  C   -0.467171  -0.147769  -0.552241   0.071925  -0.259675   0.405002
     5  C    0.483706   0.129590  -0.052984  -0.202493  -0.081657   0.009677
     6  S   -0.215298   0.067719  -0.217166  -0.032154  -0.061834  -0.003649
     7  O    0.012828   0.008710   0.003599   0.005885   0.007076   0.002851
     8  C    0.129750   0.189150   0.422169   0.284099  -0.042786   0.016104
     9  C    0.138910  -0.010946   0.059635  -0.022374   0.034858  -0.359612
    10  C   -0.014977  -0.208463   0.143278  -0.539892   0.206462  -0.103953
    11  C    0.009054   0.027612  -0.028156   0.168737  -0.009013  -0.017618
    12  C   -0.008553   0.010446  -0.025592   0.021113   0.006799   0.112224
    13  C    0.001362  -0.011480   0.002402  -0.010158   0.008834  -0.015523
    14  C   -0.000051   0.002460  -0.004233   0.014474  -0.001296   0.013961
    15  C    0.003235  -0.001091   0.001278  -0.001671  -0.006443   0.003524
    16  C   -0.004480  -0.024215   0.004052  -0.302960  -0.007317   0.040471
    17  C   -0.037402   0.022466  -0.126635  -0.036543  -0.000515   0.001550
    18  C   -0.026453   0.014268   0.037472  -0.021170  -0.000312  -0.009364
    19  C   -0.001244  -0.005357  -0.009428  -0.015890  -0.004657   0.005855
    20  C   -0.002555  -0.007333   0.037363  -0.005082  -0.000598  -0.000998
    21  C    0.013214   0.006157   0.007678   0.006408   0.002606   0.000524
    22  C   -0.028691  -0.004373   0.057643   0.008071   0.001634  -0.002886
    23  O   -0.019278  -0.003827   0.076149  -0.008677   0.000969  -0.000462
    24  H   -0.351255  -0.007466   0.022800  -0.015287  -0.053508   0.006953
    25  H    1.416856   0.018884  -0.004439   0.023248   0.018362   0.000103
    26  H    0.018884   1.595134  -0.411905   0.072340  -0.103910   0.022385
    27  H   -0.004439  -0.411905   1.859373  -0.015185   0.034311  -0.004331
    28  H    0.023248   0.072340  -0.015185   2.221320  -0.421894   0.060271
    29  H    0.018362  -0.103910   0.034311  -0.421894   1.814287  -0.182941
    30  H    0.000103   0.022385  -0.004331   0.060271  -0.182941   1.354432
    31  H   -0.002711  -0.046223   0.046577  -0.019005   0.052374  -0.293391
    32  H   -0.000020   0.020712  -0.009501   0.008247  -0.000309   0.029731
    33  H    0.000154  -0.000375   0.000030   0.001940  -0.000204   0.000642
    34  H   -0.000059   0.000001  -0.000093  -0.001888   0.000165   0.000085
    35  H    0.000349  -0.000160   0.000043   0.012656   0.001097  -0.001564
    36  H   -0.004211  -0.002809   0.002123  -0.126343   0.018123  -0.009112
    37  H   -0.003232  -0.001750   0.012042  -0.002302   0.001439   0.002785
    38  H   -0.000074  -0.003046   0.003815  -0.000771  -0.000198   0.000112
    39  H   -0.000055   0.000659  -0.001957  -0.000078   0.000015  -0.000047
    40  H    0.000219  -0.000590   0.003878   0.000150   0.000110   0.000032
    41  H   -0.005095  -0.003517   0.005181  -0.002579  -0.000900  -0.000193
              31         32         33         34         35         36
     1  O    0.001399  -0.001602  -0.000832   0.000510  -0.000928   0.001701
     2  S    0.026333  -0.035416   0.010865  -0.005286   0.006356  -0.043667
     3  N   -0.015139   0.002863  -0.003706   0.000896  -0.003785   0.004070
     4  C   -0.174849   0.008027   0.006619   0.000724  -0.009301   0.233860
     5  C    0.003442  -0.015323   0.000798  -0.000825   0.002619  -0.021945
     6  S    0.023087  -0.003948   0.000003  -0.000030  -0.000019   0.001914
     7  O   -0.007158   0.000934  -0.000038   0.000011  -0.000047   0.001338
     8  C   -0.056041   0.022932  -0.000960  -0.000631  -0.000485  -0.000539
     9  C   -0.050047   0.068947  -0.002365   0.000704   0.028083  -0.170088
    10  C   -0.099186  -0.119432   0.020556  -0.006670   0.021436  -0.173407
    11  C    0.171039   0.345464  -0.187560  -0.017544   0.149780   0.755299
    12  C   -0.130822  -1.253760   0.554949   0.023246   0.076280  -0.124212
    13  C    0.036153   0.531598  -0.857425   0.445279  -0.280398   0.123214
    14  C   -0.059327  -0.043383   0.467773  -0.891146   0.390959  -0.190895
    15  C    0.055849   0.008018  -0.217111   0.418972  -1.040005   0.480597
    16  C    0.008851  -0.174768   0.077631  -0.069884   0.551803  -1.303207
    17  C   -0.028142   0.022156  -0.002643   0.004545  -0.002282   0.015097
    18  C   -0.011842   0.088113   0.055172  -0.010800   0.001578   0.003157
    19  C    0.038605  -0.027586  -0.048329   0.005594  -0.000477   0.008821
    20  C    0.009471   0.004621   0.005146  -0.001330   0.000248   0.000862
    21  C   -0.022843   0.013498  -0.004795   0.000584  -0.000174   0.000008
    22  C    0.013859  -0.016618   0.007986  -0.000952   0.000280  -0.004834
    23  O   -0.000465  -0.000197  -0.000209   0.000103  -0.000214   0.001850
    24  H    0.014395  -0.000777  -0.000055  -0.000020  -0.000544   0.008356
    25  H   -0.002711  -0.000020   0.000154  -0.000059   0.000349  -0.004211
    26  H   -0.046223   0.020712  -0.000375   0.000001  -0.000160  -0.002809
    27  H    0.046577  -0.009501   0.000030  -0.000093   0.000043   0.002123
    28  H   -0.019005   0.008247   0.001940  -0.001888   0.012656  -0.126343
    29  H    0.052374  -0.000309  -0.000204   0.000165   0.001097   0.018123
    30  H   -0.293391   0.029731   0.000642   0.000085  -0.001564  -0.009112
    31  H    1.968251  -0.158702   0.003946   0.001490  -0.001983   0.007664
    32  H   -0.158702   2.564349  -0.116431  -0.012195   0.005181  -0.016742
    33  H    0.003946  -0.116431   1.830409  -0.056001  -0.018432   0.005912
    34  H    0.001490  -0.012195  -0.056001   1.728815  -0.060592  -0.010194
    35  H   -0.001983   0.005181  -0.018432  -0.060592   1.805843  -0.104754
    36  H    0.007664  -0.016742   0.005912  -0.010194  -0.104754   2.345635
    37  H    0.026201  -0.038226  -0.002051   0.002672  -0.002857   0.008768
    38  H    0.008727  -0.011598   0.004123   0.000182  -0.000015   0.000278
    39  H   -0.000972   0.001044   0.000219  -0.000053   0.000006  -0.000005
    40  H   -0.000682  -0.000086  -0.000048   0.000015  -0.000006   0.000010
    41  H    0.003173   0.000071   0.000061  -0.000033   0.000032   0.000215
              37         38         39         40         41
     1  O    0.080493  -0.000191  -0.000507   0.000525   0.004909
     2  S   -0.383321   0.025816   0.004134  -0.010682   0.007653
     3  N   -0.003892  -0.009419   0.001885   0.003361  -0.042063
     4  C    0.108917   0.013877  -0.002627   0.005849   0.106203
     5  C    0.004143   0.000270   0.000636  -0.002633  -0.004311
     6  S    0.002606  -0.000490   0.000323  -0.000402   0.002552
     7  O   -0.000803   0.000115  -0.000037   0.000108  -0.000781
     8  C   -0.028476  -0.005386  -0.000881  -0.000146  -0.035203
     9  C   -0.084996  -0.003857  -0.000951   0.002730  -0.019925
    10  C   -0.041748   0.011707  -0.000419  -0.000171   0.003014
    11  C    0.150443   0.004025   0.000358  -0.000588  -0.000036
    12  C   -0.125590   0.030671  -0.002616   0.000507   0.001908
    13  C    0.044303  -0.041153   0.002765  -0.000311   0.001151
    14  C   -0.099098   0.009928  -0.000868   0.000236  -0.000818
    15  C    0.064231  -0.003608   0.000216  -0.000101   0.000604
    16  C   -0.043266   0.010506  -0.000493   0.000076   0.001825
    17  C    0.589398  -0.213682   0.063458  -0.022447   0.825134
    18  C   -1.204843   0.515801  -0.036232   0.128057  -0.286846
    19  C    0.313312  -0.888823   0.492837  -0.300330   0.182309
    20  C   -0.233896   0.541373  -0.850557   0.388137  -0.228042
    21  C    0.148138  -0.263537   0.389642  -0.990087   0.635949
    22  C   -0.181945   0.145578  -0.150056   0.657266  -1.542225
    23  O    0.025553   0.000700   0.000079  -0.000599  -0.041517
    24  H    0.001982   0.000053   0.000044  -0.000155   0.001984
    25  H   -0.003232  -0.000074  -0.000055   0.000219  -0.005095
    26  H   -0.001750  -0.003046   0.000659  -0.000590  -0.003517
    27  H    0.012042   0.003815  -0.001957   0.003878   0.005181
    28  H   -0.002302  -0.000771  -0.000078   0.000150  -0.002579
    29  H    0.001439  -0.000198   0.000015   0.000110  -0.000900
    30  H    0.002785   0.000112  -0.000047   0.000032  -0.000193
    31  H    0.026201   0.008727  -0.000972  -0.000682   0.003173
    32  H   -0.038226  -0.011598   0.001044  -0.000086   0.000071
    33  H   -0.002051   0.004123   0.000219  -0.000048   0.000061
    34  H    0.002672   0.000182  -0.000053   0.000015  -0.000033
    35  H   -0.002857  -0.000015   0.000006  -0.000006   0.000032
    36  H    0.008768   0.000278  -0.000005   0.000010   0.000215
    37  H    2.717360  -0.186379  -0.013403   0.016550  -0.025187
    38  H   -0.186379   1.932376  -0.061099  -0.026886   0.015010
    39  H   -0.013403  -0.061099   1.717765  -0.055824  -0.016566
    40  H    0.016550  -0.026886  -0.055824   1.797731  -0.097891
    41  H   -0.025187   0.015010  -0.016566  -0.097891   2.204382
 Mulliken charges:
               1
     1  O   -1.287584
     2  S    2.823916
     3  N   -1.763697
     4  C    0.523474
     5  C    0.409656
     6  S    1.458562
     7  O   -1.297720
     8  C    0.468728
     9  C    0.619984
    10  C    0.152239
    11  C    0.810373
    12  C    0.853798
    13  C    0.092586
    14  C    0.642240
    15  C    0.174538
    16  C    0.657352
    17  C    0.337757
    18  C    0.519923
    19  C    0.241165
    20  C    0.643703
    21  C    0.321147
    22  C    0.620564
    23  O   -1.369913
    24  H   -0.304853
    25  H   -0.244619
    26  H   -0.340019
    27  H   -0.262046
    28  H   -0.242897
    29  H   -0.084772
    30  H   -0.077950
    31  H   -0.341357
    32  H   -0.689887
    33  H   -0.535361
    34  H   -0.488365
    35  H   -0.525607
    36  H   -0.721904
    37  H   -0.614072
    38  H   -0.554828
    39  H   -0.479783
    40  H   -0.494880
    41  H   -0.649591
 Sum of Mulliken charges =  -1.00000
 Mulliken charges with hydrogens summed into heavy atoms:
               1
     1  O   -1.287584
     2  S    2.823916
     3  N   -1.763697
     4  C    0.523474
     5  C   -0.139816
     6  S    1.458562
     7  O   -1.297720
     8  C   -0.133338
     9  C    0.292316
    10  C   -0.267067
    11  C    0.810373
    12  C    0.163911
    13  C   -0.442776
    14  C    0.153874
    15  C   -0.351069
    16  C   -0.064553
    17  C    0.337757
    18  C   -0.094149
    19  C   -0.313662
    20  C    0.163920
    21  C   -0.173733
    22  C   -0.029028
    23  O   -1.369913
 Electronic spatial extent (au):  <R**2>=           8280.6667
 Charge=             -1.0000 electrons
 Dipole moment (field-independent basis, Debye):
    X=             -3.4155    Y=              3.3171    Z=             -5.3720  Tot=              7.1783
 Quadrupole moment (field-independent basis, Debye-Ang):
   XX=           -175.1379   YY=           -188.5614   ZZ=           -181.1718
   XY=             11.6353   XZ=             -5.3257   YZ=            -25.7958
 Traceless Quadrupole moment (field-independent basis, Debye-Ang):
   XX=              6.4858   YY=             -6.9377   ZZ=              0.4519
   XY=             11.6353   XZ=             -5.3257   YZ=            -25.7958
 Octapole moment (field-independent basis, Debye-Ang**2):
  XXX=             51.8091  YYY=            104.5641  ZZZ=            -32.9677  XYY=            -69.1824
  XXY=             36.0770  XXZ=             25.5358  XZZ=            -12.8573  YZZ=            -13.8575
  YYZ=             43.1979  XYZ=            -25.7377
 Hexadecapole moment (field-independent basis, Debye-Ang**3):
 XXXX=          -5931.8382 YYYY=          -5337.1621 ZZZZ=          -1581.9128 XXXY=             18.3390
 XXXZ=           -217.4351 YYYX=            213.1918 YYYZ=           -348.7729 ZZZX=            -25.0683
 ZZZY=            -67.1862 XXYY=          -1762.9471 XXZZ=          -1256.3427 YYZZ=          -1084.4937
 XXYZ=            -76.0014 YYXZ=            102.3013 ZZXY=             13.8475
 N-N= 2.300640076268D+03 E-N=-8.697679705084D+03  KE= 1.726651664789D+03
 Leave Link  601 at Mon Sep 21 08:56:40 2020, MaxMem=   262144000 cpu:               1.6 elap:               0.5
 (Enter /prod/apps/gaussian/g16b1/l9999.exe)
 1\1\GINC-PIRINEUS28\SP\RMP2-FC\Aug-CC-pVDZ\C17H18N1O3S2(1-)\UBAFAR01\2
 1-Sep-2020\0\\#p mp2/aug-cc-pVDZ scf=(MaxCycle=2000,NoVarAcc,NoIncFock
 ) maxdisk=120GB geom=allcheck\\SM36_m1.a.1.pdb.xyz\\-1,1\O,0,0.1110625
 234,1.508514229,2.5971899461\S,0,0.9073917615,0.8741495312,1.506201559
 6\N,0,0.0819461962,-0.3614345063,0.9586460369\C,0,0.7172323584,-1.4255
 298907,0.1968410721\C,0,1.794778826,-2.2839221264,0.9437653083\S,0,2.8
 774013205,-2.4275452445,-0.570649895\O,0,2.5262527945,-3.6966442492,-1
 .3584210189\C,0,1.6788360727,-1.058839664,-0.9875790359\C,0,-0.3901231
 28,-2.3901019541,-0.295421858\C,0,-1.4518849148,-1.8154337658,-1.26022
 48548\C,0,-2.6649990446,-1.1423081991,-0.6416916172\C,0,-3.0744519946,
 0.1292607612,-1.0688355351\C,0,-4.2214274052,0.7355901548,-0.548069973
 8\C,0,-4.9877547601,0.0752308235,0.4146426675\C,0,-4.5982541068,-1.196
 9043779,0.8439243162\C,0,-3.4526476858,-1.7977532473,0.3182554444\C,0,
 0.9946577053,2.1629767736,0.2244247292\C,0,-0.1782180517,2.559320221,-
 0.428132402\C,0,-0.1286315971,3.5722574319,-1.3860009358\C,0,1.0888207
 751,4.188659995,-1.6954140711\C,0,2.2562910641,3.7906486558,-1.0412206
 622\C,0,2.2115267801,2.7789777653,-0.0769588179\O,0,2.3402764011,0.605
 9309468,1.8556264009\H,0,1.4828657538,-3.2571854732,1.3336795625\H,0,2
 .3448725196,-1.7156319476,1.6943948863\H,0,1.2943119763,-1.1317298997,
 -2.0081115083\H,0,2.2086977091,-0.1130692842,-0.8587830059\H,0,-0.8784
 582264,-2.8096231767,0.5929737921\H,0,0.1111510552,-3.2256370425,-0.79
 60698773\H,0,-1.8149588581,-2.6520840797,-1.8736740516\H,0,-0.97851726
 21,-1.1202952577,-1.9640769268\H,0,-2.4877122325,0.6506350549,-1.82164
 89719\H,0,-4.5142981207,1.7228064603,-0.8963027665\H,0,-5.8793119705,0
 .5432177864,0.8231068674\H,0,-5.1900167682,-1.7252129584,1.5871689919\
 H,0,-3.1721874388,-2.7922842103,0.6570819176\H,0,-1.1211045862,2.07530
 66924,-0.1936229581\H,0,-1.0391477373,3.879749001,-1.8928901914\H,0,1.
 1251706925,4.9749072312,-2.4442076174\H,0,3.2038421834,4.266786512,-1.
 2778318637\H,0,3.1117194208,2.463244528,0.4389169176\\Version=ES64L-G1
 6RevB.01\State=1-A\HF=-1728.3140155\MP2=-1731.7777731\RMSD=9.772e-09\P
 G=C01 [X(C17H18N1O3S2)]\\@


 THERE ARE PEOPLE SO ADDICTED TO EXAGERATING THEY
 CAN'T TELL THE TRUTH WITHOUT LYING. -- FORTUNE COOKIE
 Job cpu time:       0 days  6 hours  9 minutes 46.8 seconds.
 Elapsed time:       0 days  1 hours 40 minutes 51.8 seconds.
 File lengths (MBytes):  RWF= 109361 Int=      0 D2E=      0 Chk=     39 Scr=      1
 Normal termination of Gaussian 16 at Mon Sep 21 08:56:42 2020.
