 Entering Gaussian System, Link 0=g16
 Initial command:
 /prod/apps/gaussian/g16b1/l1.exe "/tmp/ubafar01/1460285/Gau-136563.inp" -scrdir="/tmp/ubafar01/1460285/"
 Entering Link 1 = /prod/apps/gaussian/g16b1/l1.exe PID=    136566.
  
 Copyright (c) 1988-2017, Gaussian, Inc.  All Rights Reserved.
  
 This is part of the Gaussian(R) 16 program.  It is based on
 the Gaussian(R) 09 system (copyright 2009, Gaussian, Inc.),
 the Gaussian(R) 03 system (copyright 2003, Gaussian, Inc.),
 the Gaussian(R) 98 system (copyright 1998, Gaussian, Inc.),
 the Gaussian(R) 94 system (copyright 1995, Gaussian, Inc.),
 the Gaussian 92(TM) system (copyright 1992, Gaussian, Inc.),
 the Gaussian 90(TM) system (copyright 1990, Gaussian, Inc.),
 the Gaussian 88(TM) system (copyright 1988, Gaussian, Inc.),
 the Gaussian 86(TM) system (copyright 1986, Carnegie Mellon
 University), and the Gaussian 82(TM) system (copyright 1983,
 Carnegie Mellon University). Gaussian is a federally registered
 trademark of Gaussian, Inc.
  
 This software contains proprietary and confidential information,
 including trade secrets, belonging to Gaussian, Inc.
  
 This software is provided under written license and may be
 used, copied, transmitted, or stored only in accord with that
 written license.
  
 The following legend is applicable only to US Government
 contracts under FAR:
  
                    RESTRICTED RIGHTS LEGEND
  
 Use, reproduction and disclosure by the US Government is
 subject to restrictions as set forth in subparagraphs (a)
 and (c) of the Commercial Computer Software - Restricted
 Rights clause in FAR 52.227-19.
  
 Gaussian, Inc.
 340 Quinnipiac St., Bldg. 40, Wallingford CT 06492
  
  
 ---------------------------------------------------------------
 Warning -- This program may not be used in any manner that
 competes with the business of Gaussian, Inc. or will provide
 assistance to any competitor of Gaussian, Inc.  The licensee
 of this program is prohibited from giving any competitor of
 Gaussian, Inc. access to this program.  By using this program,
 the user acknowledges that Gaussian, Inc. is engaged in the
 business of creating and licensing software in the field of
 computational chemistry and represents and warrants to the
 licensee that it is not a competitor of Gaussian, Inc. and that
 it will not use this program in any manner prohibited above.
 ---------------------------------------------------------------
  

 Cite this work as:
 Gaussian 16, Revision B.01,
 M. J. Frisch, G. W. Trucks, H. B. Schlegel, G. E. Scuseria, 
 M. A. Robb, J. R. Cheeseman, G. Scalmani, V. Barone, 
 G. A. Petersson, H. Nakatsuji, X. Li, M. Caricato, A. V. Marenich, 
 J. Bloino, B. G. Janesko, R. Gomperts, B. Mennucci, H. P. Hratchian, 
 J. V. Ortiz, A. F. Izmaylov, J. L. Sonnenberg, D. Williams-Young, 
 F. Ding, F. Lipparini, F. Egidi, J. Goings, B. Peng, A. Petrone, 
 T. Henderson, D. Ranasinghe, V. G. Zakrzewski, J. Gao, N. Rega, 
 G. Zheng, W. Liang, M. Hada, M. Ehara, K. Toyota, R. Fukuda, 
 J. Hasegawa, M. Ishida, T. Nakajima, Y. Honda, O. Kitao, H. Nakai, 
 T. Vreven, K. Throssell, J. A. Montgomery, Jr., J. E. Peralta, 
 F. Ogliaro, M. J. Bearpark, J. J. Heyd, E. N. Brothers, K. N. Kudin, 
 V. N. Staroverov, T. A. Keith, R. Kobayashi, J. Normand, 
 K. Raghavachari, A. P. Rendell, J. C. Burant, S. S. Iyengar, 
 J. Tomasi, M. Cossi, J. M. Millam, M. Klene, C. Adamo, R. Cammi, 
 J. W. Ochterski, R. L. Martin, K. Morokuma, O. Farkas, 
 J. B. Foresman, and D. J. Fox, Gaussian, Inc., Wallingford CT, 2016.
 
 ******************************************
 Gaussian 16:  ES64L-G16RevB.01 20-Dec-2017
                21-Sep-2020 
 ******************************************
 %nproc=4
 Will use up to    4 processors via shared memory.
 %Chk=SM36_m1.a.10.pdb.xyz.mst.a.w.chk
 %mem=16GB
 ----------------------------------------------------------------------
 #p b3lyp/6-31G(d) opt freq NoSymm scf=(MaxCycle=2000,NoVarAcc,NoIncFoc
 k) scrf=(iefpcm,read,solvent=water)
 ----------------------------------------------------------------------
 1/18=20,19=15,26=3,38=1,40=2/1,3;
 2/9=110,12=2,15=1,17=6,18=5,40=1/2;
 3/5=1,6=6,7=1,11=2,25=1,30=1,70=2203,71=1,72=1,74=-5/1,2,3;
 4//1;
 5/5=100002,7=2000,38=1,53=1/2;
 6/7=2,8=2,9=2,10=2,28=1/1;
 7/30=1/1,2,3,16;
 1/18=20,19=15,26=3/3(2);
 2/9=110,15=1/2;
 99//99;
 2/9=110,15=1/2;
 3/5=1,6=6,7=1,11=2,25=1,30=1,70=2205,71=1,72=1,74=-5/1,2,3;
 4/5=5,16=3,69=1/1;
 5/5=100002,7=2000,38=1,53=1/2;
 7/30=1/1,2,3,16;
 1/18=20,19=15,26=3/3(-5);
 2/9=110,15=1/2;
 6/7=2,8=2,9=2,10=2,19=2,28=1/1;
 99/9=1/99;
 Leave Link    1 at Mon Sep 21 18:30:30 2020, MaxMem=  2147483648 cpu:               0.1 elap:               0.0
 (Enter /prod/apps/gaussian/g16b1/l101.exe)
 --------------------
 SM36_m1.a.10.pdb.xyz
 --------------------
 Symbolic Z-matrix:
 Charge = -1 Multiplicity = 1
 O                    -0.241    -3.933     0.665 
 S                    -0.284    -2.614    -0.033 
 N                    -1.182    -1.638     0.83 
 C                    -1.818    -0.476     0.218 
 C                    -2.939     0.048     1.165 
 S                    -4.148     0.323    -0.23 
 O                    -4.019     1.757    -0.758 
 C                    -2.812    -0.754    -0.961 
 C                    -0.862     0.676    -0.187 
 C                     0.006     1.238     0.956 
 C                     0.81      2.448     0.522 
 C                     0.235     3.728     0.528 
 C                     0.959     4.846     0.108 
 C                     2.279     4.702    -0.329 
 C                     2.865     3.434    -0.339 
 C                     2.135     2.319     0.083 
 C                     1.458    -2.089    -0.01 
 C                     2.133    -2.02      1.216 
 C                     3.474    -1.639     1.248 
 C                     4.145    -1.327     0.06 
 C                     3.469    -1.398    -1.16 
 C                     2.124    -1.78     -1.197 
 O                    -0.633    -2.679    -1.488 
 H                    -2.756     0.956     1.743 
 H                    -3.339    -0.738     1.812 
 H                    -2.524    -0.442    -1.967 
 H                    -3.18     -1.782    -0.974 
 H                    -1.467     1.489    -0.608 
 H                    -0.213     0.319    -0.997 
 H                     0.679     0.457     1.321 
 H                    -0.637     1.52      1.798 
 H                    -0.791     3.85      0.87 
 H                     0.494     5.828     0.125 
 H                     2.846     5.571    -0.653 
 H                     3.893     3.311    -0.672 
 H                     2.603     1.337     0.075 
 H                     1.613    -2.267     2.137 
 H                     3.998    -1.589     2.199 
 H                     5.191    -1.034     0.088 
 H                     3.988    -1.161    -2.085 
 H                     1.593    -1.848    -2.14 
 
 ITRead=  0  0  0  0  0  0  0  0  0  0  0  0  0  0  0  0  0  0  0  0
 ITRead=  0  0  0  0  0  0  0  0  0  0  0  0  0  0  0  0  0  0  0  0
 ITRead=  0
 MicOpt= -1 -1 -1 -1 -1 -1 -1 -1 -1 -1 -1 -1 -1 -1 -1 -1 -1 -1 -1 -1
 MicOpt= -1 -1 -1 -1 -1 -1 -1 -1 -1 -1 -1 -1 -1 -1 -1 -1 -1 -1 -1 -1
 MicOpt= -1
 NAtoms=     41 NQM=       41 NQMF=       0 NMMI=      0 NMMIF=      0
                NMic=       0 NMicF=      0.
                    Isotopes and Nuclear Properties:
 (Nuclear quadrupole moments (NQMom) in fm**2, nuclear magnetic moments (NMagM)
  in nuclear magnetons)

  Atom         1           2           3           4           5           6           7           8           9          10
 IAtWgt=          16          32          14          12          12          32          16          12          12          12
 AtmWgt=  15.9949146  31.9720718  14.0030740  12.0000000  12.0000000  31.9720718  15.9949146  12.0000000  12.0000000  12.0000000
 NucSpn=           0           0           2           0           0           0           0           0           0           0
 AtZEff=  -0.0000000  -0.0000000  -0.0000000  -0.0000000  -0.0000000  -0.0000000  -0.0000000  -0.0000000  -0.0000000  -0.0000000
 NQMom=    0.0000000   0.0000000   2.0440000   0.0000000   0.0000000   0.0000000   0.0000000   0.0000000   0.0000000   0.0000000
 NMagM=    0.0000000   0.0000000   0.4037610   0.0000000   0.0000000   0.0000000   0.0000000   0.0000000   0.0000000   0.0000000
 AtZNuc=   8.0000000  16.0000000   7.0000000   6.0000000   6.0000000  16.0000000   8.0000000   6.0000000   6.0000000   6.0000000

  Atom        11          12          13          14          15          16          17          18          19          20
 IAtWgt=          12          12          12          12          12          12          12          12          12          12
 AtmWgt=  12.0000000  12.0000000  12.0000000  12.0000000  12.0000000  12.0000000  12.0000000  12.0000000  12.0000000  12.0000000
 NucSpn=           0           0           0           0           0           0           0           0           0           0
 AtZEff=  -0.0000000  -0.0000000  -0.0000000  -0.0000000  -0.0000000  -0.0000000  -0.0000000  -0.0000000  -0.0000000  -0.0000000
 NQMom=    0.0000000   0.0000000   0.0000000   0.0000000   0.0000000   0.0000000   0.0000000   0.0000000   0.0000000   0.0000000
 NMagM=    0.0000000   0.0000000   0.0000000   0.0000000   0.0000000   0.0000000   0.0000000   0.0000000   0.0000000   0.0000000
 AtZNuc=   6.0000000   6.0000000   6.0000000   6.0000000   6.0000000   6.0000000   6.0000000   6.0000000   6.0000000   6.0000000

  Atom        21          22          23          24          25          26          27          28          29          30
 IAtWgt=          12          12          16           1           1           1           1           1           1           1
 AtmWgt=  12.0000000  12.0000000  15.9949146   1.0078250   1.0078250   1.0078250   1.0078250   1.0078250   1.0078250   1.0078250
 NucSpn=           0           0           0           1           1           1           1           1           1           1
 AtZEff=  -0.0000000  -0.0000000  -0.0000000  -0.0000000  -0.0000000  -0.0000000  -0.0000000  -0.0000000  -0.0000000  -0.0000000
 NQMom=    0.0000000   0.0000000   0.0000000   0.0000000   0.0000000   0.0000000   0.0000000   0.0000000   0.0000000   0.0000000
 NMagM=    0.0000000   0.0000000   0.0000000   2.7928460   2.7928460   2.7928460   2.7928460   2.7928460   2.7928460   2.7928460
 AtZNuc=   6.0000000   6.0000000   8.0000000   1.0000000   1.0000000   1.0000000   1.0000000   1.0000000   1.0000000   1.0000000

  Atom        31          32          33          34          35          36          37          38          39          40
 IAtWgt=           1           1           1           1           1           1           1           1           1           1
 AtmWgt=   1.0078250   1.0078250   1.0078250   1.0078250   1.0078250   1.0078250   1.0078250   1.0078250   1.0078250   1.0078250
 NucSpn=           1           1           1           1           1           1           1           1           1           1
 AtZEff=  -0.0000000  -0.0000000  -0.0000000  -0.0000000  -0.0000000  -0.0000000  -0.0000000  -0.0000000  -0.0000000  -0.0000000
 NQMom=    0.0000000   0.0000000   0.0000000   0.0000000   0.0000000   0.0000000   0.0000000   0.0000000   0.0000000   0.0000000
 NMagM=    2.7928460   2.7928460   2.7928460   2.7928460   2.7928460   2.7928460   2.7928460   2.7928460   2.7928460   2.7928460
 AtZNuc=   1.0000000   1.0000000   1.0000000   1.0000000   1.0000000   1.0000000   1.0000000   1.0000000   1.0000000   1.0000000

  Atom        41
 IAtWgt=           1
 AtmWgt=   1.0078250
 NucSpn=           1
 AtZEff=  -0.0000000
 NQMom=    0.0000000
 NMagM=    2.7928460
 AtZNuc=   1.0000000
 Leave Link  101 at Mon Sep 21 18:30:31 2020, MaxMem=  2147483648 cpu:               1.3 elap:               0.3
 (Enter /prod/apps/gaussian/g16b1/l103.exe)

 GradGradGradGradGradGradGradGradGradGradGradGradGradGradGradGradGradGrad
 Berny optimization.
 Initialization pass.
                           ----------------------------
                           !    Initial Parameters    !
                           ! (Angstroms and Degrees)  !
 --------------------------                            --------------------------
 ! Name  Definition              Value          Derivative Info.                !
 --------------------------------------------------------------------------------
 ! R1    R(1,2)                  1.4929         estimate D2E/DX2                !
 ! R2    R(2,3)                  1.5823         estimate D2E/DX2                !
 ! R3    R(2,17)                 1.8195         estimate D2E/DX2                !
 ! R4    R(2,23)                 1.4977         estimate D2E/DX2                !
 ! R5    R(3,4)                  1.4592         estimate D2E/DX2                !
 ! R6    R(4,5)                  1.5582         estimate D2E/DX2                !
 ! R7    R(4,8)                  1.567          estimate D2E/DX2                !
 ! R8    R(4,9)                  1.5508         estimate D2E/DX2                !
 ! R9    R(5,6)                  1.8664         estimate D2E/DX2                !
 ! R10   R(5,24)                 1.0918         estimate D2E/DX2                !
 ! R11   R(5,25)                 1.0938         estimate D2E/DX2                !
 ! R12   R(6,7)                  1.5336         estimate D2E/DX2                !
 ! R13   R(6,8)                  1.8653         estimate D2E/DX2                !
 ! R14   R(8,26)                 1.0919         estimate D2E/DX2                !
 ! R15   R(8,27)                 1.092          estimate D2E/DX2                !
 ! R16   R(9,10)                 1.5413         estimate D2E/DX2                !
 ! R17   R(9,28)                 1.0974         estimate D2E/DX2                !
 ! R18   R(9,29)                 1.0976         estimate D2E/DX2                !
 ! R19   R(10,11)                1.5162         estimate D2E/DX2                !
 ! R20   R(10,30)                1.0937         estimate D2E/DX2                !
 ! R21   R(10,31)                1.0963         estimate D2E/DX2                !
 ! R22   R(11,12)                1.4032         estimate D2E/DX2                !
 ! R23   R(11,16)                1.4018         estimate D2E/DX2                !
 ! R24   R(12,13)                1.3966         estimate D2E/DX2                !
 ! R25   R(12,32)                1.0884         estimate D2E/DX2                !
 ! R26   R(13,14)                1.3979         estimate D2E/DX2                !
 ! R27   R(13,33)                1.0867         estimate D2E/DX2                !
 ! R28   R(14,15)                1.3969         estimate D2E/DX2                !
 ! R29   R(14,34)                1.087          estimate D2E/DX2                !
 ! R30   R(15,16)                1.3979         estimate D2E/DX2                !
 ! R31   R(15,35)                1.0876         estimate D2E/DX2                !
 ! R32   R(16,36)                1.0878         estimate D2E/DX2                !
 ! R33   R(17,18)                1.4012         estimate D2E/DX2                !
 ! R34   R(17,22)                1.3957         estimate D2E/DX2                !
 ! R35   R(18,19)                1.3944         estimate D2E/DX2                !
 ! R36   R(18,37)                1.0861         estimate D2E/DX2                !
 ! R37   R(19,20)                1.3996         estimate D2E/DX2                !
 ! R38   R(19,38)                1.087          estimate D2E/DX2                !
 ! R39   R(20,21)                1.3966         estimate D2E/DX2                !
 ! R40   R(20,39)                1.0866         estimate D2E/DX2                !
 ! R41   R(21,22)                1.3987         estimate D2E/DX2                !
 ! R42   R(21,40)                1.0868         estimate D2E/DX2                !
 ! R43   R(22,41)                1.0844         estimate D2E/DX2                !
 ! A1    A(1,2,3)              107.8368         estimate D2E/DX2                !
 ! A2    A(1,2,17)             102.7934         estimate D2E/DX2                !
 ! A3    A(1,2,23)             114.9978         estimate D2E/DX2                !
 ! A4    A(3,2,17)             111.0062         estimate D2E/DX2                !
 ! A5    A(3,2,23)             115.1114         estimate D2E/DX2                !
 ! A6    A(17,2,23)            104.3532         estimate D2E/DX2                !
 ! A7    A(2,3,4)              120.6502         estimate D2E/DX2                !
 ! A8    A(3,4,5)              109.0538         estimate D2E/DX2                !
 ! A9    A(3,4,8)              116.7932         estimate D2E/DX2                !
 ! A10   A(3,4,9)              115.6187         estimate D2E/DX2                !
 ! A11   A(5,4,8)               93.473          estimate D2E/DX2                !
 ! A12   A(5,4,9)              110.6337         estimate D2E/DX2                !
 ! A13   A(8,4,9)              109.0466         estimate D2E/DX2                !
 ! A14   A(4,5,6)               93.5154         estimate D2E/DX2                !
 ! A15   A(4,5,24)             118.7395         estimate D2E/DX2                !
 ! A16   A(4,5,25)             112.3912         estimate D2E/DX2                !
 ! A17   A(6,5,24)             112.441          estimate D2E/DX2                !
 ! A18   A(6,5,25)             108.1262         estimate D2E/DX2                !
 ! A19   A(24,5,25)            110.2286         estimate D2E/DX2                !
 ! A20   A(5,6,7)              109.9154         estimate D2E/DX2                !
 ! A21   A(5,6,8)               75.1595         estimate D2E/DX2                !
 ! A22   A(7,6,8)              110.1657         estimate D2E/DX2                !
 ! A23   A(4,8,6)               93.2702         estimate D2E/DX2                !
 ! A24   A(4,8,26)             118.372          estimate D2E/DX2                !
 ! A25   A(4,8,27)             112.9396         estimate D2E/DX2                !
 ! A26   A(6,8,26)             112.6433         estimate D2E/DX2                !
 ! A27   A(6,8,27)             107.8702         estimate D2E/DX2                !
 ! A28   A(26,8,27)            110.2986         estimate D2E/DX2                !
 ! A29   A(4,9,10)             115.1088         estimate D2E/DX2                !
 ! A30   A(4,9,28)             108.0993         estimate D2E/DX2                !
 ! A31   A(4,9,29)             108.3975         estimate D2E/DX2                !
 ! A32   A(10,9,28)            108.9557         estimate D2E/DX2                !
 ! A33   A(10,9,29)            109.4426         estimate D2E/DX2                !
 ! A34   A(28,9,29)            106.4892         estimate D2E/DX2                !
 ! A35   A(9,10,11)            112.1689         estimate D2E/DX2                !
 ! A36   A(9,10,30)            109.4904         estimate D2E/DX2                !
 ! A37   A(9,10,31)            109.4531         estimate D2E/DX2                !
 ! A38   A(11,10,30)           109.8229         estimate D2E/DX2                !
 ! A39   A(11,10,31)           109.0001         estimate D2E/DX2                !
 ! A40   A(30,10,31)           106.7549         estimate D2E/DX2                !
 ! A41   A(10,11,12)           120.6271         estimate D2E/DX2                !
 ! A42   A(10,11,16)           121.16           estimate D2E/DX2                !
 ! A43   A(12,11,16)           118.2037         estimate D2E/DX2                !
 ! A44   A(11,12,13)           121.0979         estimate D2E/DX2                !
 ! A45   A(11,12,32)           119.333          estimate D2E/DX2                !
 ! A46   A(13,12,32)           119.5685         estimate D2E/DX2                !
 ! A47   A(12,13,14)           120.0704         estimate D2E/DX2                !
 ! A48   A(12,13,33)           119.7935         estimate D2E/DX2                !
 ! A49   A(14,13,33)           120.1359         estimate D2E/DX2                !
 ! A50   A(13,14,15)           119.4636         estimate D2E/DX2                !
 ! A51   A(13,14,34)           120.2231         estimate D2E/DX2                !
 ! A52   A(15,14,34)           120.3124         estimate D2E/DX2                !
 ! A53   A(14,15,16)           120.1844         estimate D2E/DX2                !
 ! A54   A(14,15,35)           120.0912         estimate D2E/DX2                !
 ! A55   A(16,15,35)           119.724          estimate D2E/DX2                !
 ! A56   A(11,16,15)           120.9799         estimate D2E/DX2                !
 ! A57   A(11,16,36)           119.4733         estimate D2E/DX2                !
 ! A58   A(15,16,36)           119.5463         estimate D2E/DX2                !
 ! A59   A(2,17,18)            119.108          estimate D2E/DX2                !
 ! A60   A(2,17,22)            120.6619         estimate D2E/DX2                !
 ! A61   A(18,17,22)           120.2212         estimate D2E/DX2                !
 ! A62   A(17,18,19)           119.7878         estimate D2E/DX2                !
 ! A63   A(17,18,37)           120.0065         estimate D2E/DX2                !
 ! A64   A(19,18,37)           120.2052         estimate D2E/DX2                !
 ! A65   A(18,19,20)           120.1637         estimate D2E/DX2                !
 ! A66   A(18,19,38)           119.7522         estimate D2E/DX2                !
 ! A67   A(20,19,38)           120.0836         estimate D2E/DX2                !
 ! A68   A(19,20,21)           119.8741         estimate D2E/DX2                !
 ! A69   A(19,20,39)           119.9822         estimate D2E/DX2                !
 ! A70   A(21,20,39)           120.1433         estimate D2E/DX2                !
 ! A71   A(20,21,22)           120.1627         estimate D2E/DX2                !
 ! A72   A(20,21,40)           120.0839         estimate D2E/DX2                !
 ! A73   A(22,21,40)           119.7528         estimate D2E/DX2                !
 ! A74   A(17,22,21)           119.7904         estimate D2E/DX2                !
 ! A75   A(17,22,41)           119.475          estimate D2E/DX2                !
 ! A76   A(21,22,41)           120.7323         estimate D2E/DX2                !
 ! D1    D(1,2,3,4)           -157.3973         estimate D2E/DX2                !
 ! D2    D(17,2,3,4)            90.7183         estimate D2E/DX2                !
 ! D3    D(23,2,3,4)           -27.5259         estimate D2E/DX2                !
 ! D4    D(1,2,17,18)          -55.1261         estimate D2E/DX2                !
 ! D5    D(1,2,17,22)          123.793          estimate D2E/DX2                !
 ! D6    D(3,2,17,18)           59.9397         estimate D2E/DX2                !
 ! D7    D(3,2,17,22)         -121.1412         estimate D2E/DX2                !
 ! D8    D(23,2,17,18)        -175.4845         estimate D2E/DX2                !
 ! D9    D(23,2,17,22)           3.4346         estimate D2E/DX2                !
 ! D10   D(2,3,4,5)            163.7675         estimate D2E/DX2                !
 ! D11   D(2,3,4,8)             59.5142         estimate D2E/DX2                !
 ! D12   D(2,3,4,9)            -70.8465         estimate D2E/DX2                !
 ! D13   D(3,4,5,6)           -137.2814         estimate D2E/DX2                !
 ! D14   D(3,4,5,24)           104.6927         estimate D2E/DX2                !
 ! D15   D(3,4,5,25)           -26.0322         estimate D2E/DX2                !
 ! D16   D(8,4,5,6)            -17.3649         estimate D2E/DX2                !
 ! D17   D(8,4,5,24)          -135.3908         estimate D2E/DX2                !
 ! D18   D(8,4,5,25)            93.8843         estimate D2E/DX2                !
 ! D19   D(9,4,5,6)             94.4864         estimate D2E/DX2                !
 ! D20   D(9,4,5,24)           -23.5395         estimate D2E/DX2                !
 ! D21   D(9,4,5,25)          -154.2644         estimate D2E/DX2                !
 ! D22   D(3,4,8,6)            130.7643         estimate D2E/DX2                !
 ! D23   D(3,4,8,26)          -111.2584         estimate D2E/DX2                !
 ! D24   D(3,4,8,27)            19.7906         estimate D2E/DX2                !
 ! D25   D(5,4,8,6)             17.371          estimate D2E/DX2                !
 ! D26   D(5,4,8,26)           135.3484         estimate D2E/DX2                !
 ! D27   D(5,4,8,27)           -93.6027         estimate D2E/DX2                !
 ! D28   D(9,4,8,6)            -95.86           estimate D2E/DX2                !
 ! D29   D(9,4,8,26)            22.1173         estimate D2E/DX2                !
 ! D30   D(9,4,8,27)           153.1663         estimate D2E/DX2                !
 ! D31   D(3,4,9,10)           -56.5891         estimate D2E/DX2                !
 ! D32   D(3,4,9,28)          -178.6333         estimate D2E/DX2                !
 ! D33   D(3,4,9,29)            66.3171         estimate D2E/DX2                !
 ! D34   D(5,4,9,10)            67.9819         estimate D2E/DX2                !
 ! D35   D(5,4,9,28)           -54.0623         estimate D2E/DX2                !
 ! D36   D(5,4,9,29)          -169.1118         estimate D2E/DX2                !
 ! D37   D(8,4,9,10)           169.4298         estimate D2E/DX2                !
 ! D38   D(8,4,9,28)            47.3857         estimate D2E/DX2                !
 ! D39   D(8,4,9,29)           -67.6639         estimate D2E/DX2                !
 ! D40   D(4,5,6,7)            -91.4535         estimate D2E/DX2                !
 ! D41   D(4,5,6,8)             15.0049         estimate D2E/DX2                !
 ! D42   D(24,5,6,7)            31.679          estimate D2E/DX2                !
 ! D43   D(24,5,6,8)           138.1373         estimate D2E/DX2                !
 ! D44   D(25,5,6,7)           153.6055         estimate D2E/DX2                !
 ! D45   D(25,5,6,8)           -99.9361         estimate D2E/DX2                !
 ! D46   D(5,6,8,4)            -14.9153         estimate D2E/DX2                !
 ! D47   D(5,6,8,26)          -137.5687         estimate D2E/DX2                !
 ! D48   D(5,6,8,27)           100.4639         estimate D2E/DX2                !
 ! D49   D(7,6,8,4)             91.2309         estimate D2E/DX2                !
 ! D50   D(7,6,8,26)           -31.4225         estimate D2E/DX2                !
 ! D51   D(7,6,8,27)          -153.3898         estimate D2E/DX2                !
 ! D52   D(4,9,10,11)         -174.2386         estimate D2E/DX2                !
 ! D53   D(4,9,10,30)           63.5764         estimate D2E/DX2                !
 ! D54   D(4,9,10,31)          -53.1238         estimate D2E/DX2                !
 ! D55   D(28,9,10,11)         -52.6571         estimate D2E/DX2                !
 ! D56   D(28,9,10,30)        -174.8421         estimate D2E/DX2                !
 ! D57   D(28,9,10,31)          68.4577         estimate D2E/DX2                !
 ! D58   D(29,9,10,11)          63.4147         estimate D2E/DX2                !
 ! D59   D(29,9,10,30)         -58.7703         estimate D2E/DX2                !
 ! D60   D(29,9,10,31)        -175.4705         estimate D2E/DX2                !
 ! D61   D(9,10,11,12)          83.7159         estimate D2E/DX2                !
 ! D62   D(9,10,11,16)         -95.1594         estimate D2E/DX2                !
 ! D63   D(30,10,11,12)       -154.2885         estimate D2E/DX2                !
 ! D64   D(30,10,11,16)         26.8362         estimate D2E/DX2                !
 ! D65   D(31,10,11,12)        -37.6593         estimate D2E/DX2                !
 ! D66   D(31,10,11,16)        143.4653         estimate D2E/DX2                !
 ! D67   D(10,11,12,13)       -178.8645         estimate D2E/DX2                !
 ! D68   D(10,11,12,32)          1.397          estimate D2E/DX2                !
 ! D69   D(16,11,12,13)          0.0435         estimate D2E/DX2                !
 ! D70   D(16,11,12,32)       -179.695          estimate D2E/DX2                !
 ! D71   D(10,11,16,15)        178.8416         estimate D2E/DX2                !
 ! D72   D(10,11,16,36)         -1.432          estimate D2E/DX2                !
 ! D73   D(12,11,16,15)         -0.0602         estimate D2E/DX2                !
 ! D74   D(12,11,16,36)        179.6661         estimate D2E/DX2                !
 ! D75   D(11,12,13,14)          0.0442         estimate D2E/DX2                !
 ! D76   D(11,12,13,33)       -179.7659         estimate D2E/DX2                !
 ! D77   D(32,12,13,14)        179.7821         estimate D2E/DX2                !
 ! D78   D(32,12,13,33)         -0.0279         estimate D2E/DX2                !
 ! D79   D(12,13,14,15)         -0.1155         estimate D2E/DX2                !
 ! D80   D(12,13,14,34)       -179.7756         estimate D2E/DX2                !
 ! D81   D(33,13,14,15)        179.6939         estimate D2E/DX2                !
 ! D82   D(33,13,14,34)          0.0339         estimate D2E/DX2                !
 ! D83   D(13,14,15,16)          0.099          estimate D2E/DX2                !
 ! D84   D(13,14,15,35)       -179.6772         estimate D2E/DX2                !
 ! D85   D(34,14,15,16)        179.7588         estimate D2E/DX2                !
 ! D86   D(34,14,15,35)         -0.0174         estimate D2E/DX2                !
 ! D87   D(14,15,16,11)         -0.0107         estimate D2E/DX2                !
 ! D88   D(14,15,16,36)       -179.7368         estimate D2E/DX2                !
 ! D89   D(35,15,16,11)        179.7663         estimate D2E/DX2                !
 ! D90   D(35,15,16,36)          0.0402         estimate D2E/DX2                !
 ! D91   D(2,17,18,19)         179.028          estimate D2E/DX2                !
 ! D92   D(2,17,18,37)          -0.7074         estimate D2E/DX2                !
 ! D93   D(22,17,18,19)          0.1041         estimate D2E/DX2                !
 ! D94   D(22,17,18,37)       -179.6314         estimate D2E/DX2                !
 ! D95   D(2,17,22,21)        -179.0273         estimate D2E/DX2                !
 ! D96   D(2,17,22,41)           0.4211         estimate D2E/DX2                !
 ! D97   D(18,17,22,21)         -0.1202         estimate D2E/DX2                !
 ! D98   D(18,17,22,41)        179.3281         estimate D2E/DX2                !
 ! D99   D(17,18,19,20)         -0.0373         estimate D2E/DX2                !
 ! D100  D(17,18,19,38)       -179.7886         estimate D2E/DX2                !
 ! D101  D(37,18,19,20)        179.6976         estimate D2E/DX2                !
 ! D102  D(37,18,19,38)         -0.0536         estimate D2E/DX2                !
 ! D103  D(18,19,20,21)         -0.0127         estimate D2E/DX2                !
 ! D104  D(18,19,20,39)       -179.774          estimate D2E/DX2                !
 ! D105  D(38,19,20,21)        179.7377         estimate D2E/DX2                !
 ! D106  D(38,19,20,39)         -0.0236         estimate D2E/DX2                !
 ! D107  D(19,20,21,22)         -0.0035         estimate D2E/DX2                !
 ! D108  D(19,20,21,40)       -179.7121         estimate D2E/DX2                !
 ! D109  D(39,20,21,22)        179.7575         estimate D2E/DX2                !
 ! D110  D(39,20,21,40)          0.0489         estimate D2E/DX2                !
 ! D111  D(20,21,22,17)          0.0698         estimate D2E/DX2                !
 ! D112  D(20,21,22,41)       -179.3714         estimate D2E/DX2                !
 ! D113  D(40,21,22,17)        179.7794         estimate D2E/DX2                !
 ! D114  D(40,21,22,41)          0.3381         estimate D2E/DX2                !
 --------------------------------------------------------------------------------
 Trust Radius=3.00D-01 FncErr=1.00D-07 GrdErr=1.00D-06 EigMax=2.50D+02 EigMin=1.00D-04
 Number of steps in this run=    243 maximum allowed number of steps=    246.
 GradGradGradGradGradGradGradGradGradGradGradGradGradGradGradGradGradGrad

 Leave Link  103 at Mon Sep 21 18:30:31 2020, MaxMem=  2147483648 cpu:               0.0 elap:               0.0
 (Enter /prod/apps/gaussian/g16b1/l202.exe)
                          Input orientation:                          
 ---------------------------------------------------------------------
 Center     Atomic      Atomic             Coordinates (Angstroms)
 Number     Number       Type             X           Y           Z
 ---------------------------------------------------------------------
      1          8           0       -0.241000   -3.933000    0.665000
      2         16           0       -0.284000   -2.614000   -0.033000
      3          7           0       -1.182000   -1.638000    0.830000
      4          6           0       -1.818000   -0.476000    0.218000
      5          6           0       -2.939000    0.048000    1.165000
      6         16           0       -4.148000    0.323000   -0.230000
      7          8           0       -4.019000    1.757000   -0.758000
      8          6           0       -2.812000   -0.754000   -0.961000
      9          6           0       -0.862000    0.676000   -0.187000
     10          6           0        0.006000    1.238000    0.956000
     11          6           0        0.810000    2.448000    0.522000
     12          6           0        0.235000    3.728000    0.528000
     13          6           0        0.959000    4.846000    0.108000
     14          6           0        2.279000    4.702000   -0.329000
     15          6           0        2.865000    3.434000   -0.339000
     16          6           0        2.135000    2.319000    0.083000
     17          6           0        1.458000   -2.089000   -0.010000
     18          6           0        2.133000   -2.020000    1.216000
     19          6           0        3.474000   -1.639000    1.248000
     20          6           0        4.145000   -1.327000    0.060000
     21          6           0        3.469000   -1.398000   -1.160000
     22          6           0        2.124000   -1.780000   -1.197000
     23          8           0       -0.633000   -2.679000   -1.488000
     24          1           0       -2.756000    0.956000    1.743000
     25          1           0       -3.339000   -0.738000    1.812000
     26          1           0       -2.524000   -0.442000   -1.967000
     27          1           0       -3.180000   -1.782000   -0.974000
     28          1           0       -1.467000    1.489000   -0.608000
     29          1           0       -0.213000    0.319000   -0.997000
     30          1           0        0.679000    0.457000    1.321000
     31          1           0       -0.637000    1.520000    1.798000
     32          1           0       -0.791000    3.850000    0.870000
     33          1           0        0.494000    5.828000    0.125000
     34          1           0        2.846000    5.571000   -0.653000
     35          1           0        3.893000    3.311000   -0.672000
     36          1           0        2.603000    1.337000    0.075000
     37          1           0        1.613000   -2.267000    2.137000
     38          1           0        3.998000   -1.589000    2.199000
     39          1           0        5.191000   -1.034000    0.088000
     40          1           0        3.988000   -1.161000   -2.085000
     41          1           0        1.593000   -1.848000   -2.140000
 ---------------------------------------------------------------------
                    Distance matrix (angstroms):
                    1          2          3          4          5
     1  O    0.000000
     2  S    1.492921   0.000000
     3  N    2.485906   1.582324   0.000000
     4  C    3.825910   2.643331   1.459207   0.000000
     5  C    4.835035   3.945944   2.458022   1.558212   0.000000
     6  S    5.846299   4.857497   3.710293   2.503598   1.866368
     7  O    6.976698   5.794954   4.700674   3.283788   2.790163
     8  C    4.399995   3.272853   2.577991   1.566959   2.275788
     9  C    4.728047   3.343935   2.547800   1.550827   2.556603
    10  C    5.185068   3.987496   3.114257   2.609486   3.183207
    11  C    6.468556   5.208522   4.556130   3.943168   4.497605
    12  C    7.676996   6.387883   5.558152   4.688766   4.901270
    13  C    8.878124   7.564161   6.866398   6.003958   6.271559
    14  C    9.049954   7.757605   7.315559   6.625428   7.149775
    15  C    8.057788   6.825551   6.593175   6.126079   6.885741
    16  C    6.713539   5.495408   5.217121   4.843187   5.663360
    17  C    2.596644   1.819538   2.806885   3.658679   5.028022
    18  C    3.098233   2.784731   3.359188   4.357791   5.477628
    19  C    4.404946   4.088294   4.674726   5.515318   6.631699
    20  C    5.137534   4.613140   5.391340   6.025490   7.300322
    21  C    4.849840   4.102901   5.064534   5.540879   6.968429
    22  C    3.700767   2.801592   3.880532   4.386571   5.878316
    23  O    2.522219   1.497682   2.599655   3.027849   4.448885
    24  H    5.602645   4.691467   3.168577   2.292617   1.091804
    25  H    4.595785   4.031926   2.535148   2.218766   1.093803
    26  H    4.932200   3.670905   3.324844   2.296479   3.197147
    27  H    3.993851   3.156663   2.695766   2.231937   2.825297
    28  H    5.702779   4.308680   3.453578   2.160255   2.717866
    29  H    4.565362   3.088175   2.847234   2.164319   3.489808
    30  H    4.533082   3.491665   2.844895   2.884806   3.644385
    31  H    5.583522   4.535099   3.347688   2.806275   2.804760
    32  H    7.805102   6.546431   5.502056   4.493786   4.376772
    33  H    9.803517   8.479246   7.684215   6.715237   6.802609
    34  H   10.079321   8.784960   8.390099   7.686205   8.202126
    35  H    8.447074   7.277450   7.245980   6.910064   7.790890
    36  H    6.017419   4.894572   4.873077   4.780445   5.793391
    37  H    2.894764   2.903088   3.148955   4.319954   5.198530
    38  H    5.081005   4.936393   5.358074   6.244116   7.202145
    39  H    6.184153   5.699708   6.444417   7.032378   8.272095
    40  H    5.755947   4.957005   5.954297   6.283524   7.746451
    41  H    3.947000   2.923924   4.070089   4.367776   5.920884
                    6          7          8          9         10
     6  S    0.000000
     7  O    1.533552   0.000000
     8  C    1.865258   2.793417   0.000000
     9  C    3.305186   3.385447   2.538991   0.000000
    10  C    4.415828   4.405426   3.947667   1.541336   0.000000
    11  C    5.446365   5.043324   5.056775   2.537370   1.516203
    12  C    5.601721   4.861600   5.620467   3.321045   2.536873
    13  C    6.830316   5.922192   6.835437   4.559821   3.826876
    14  C    7.777646   6.965764   7.489035   5.108299   4.337862
    15  C    7.672833   7.097700   7.081988   4.638987   3.830577
    16  C    6.599854   6.236573   5.916593   3.428463   2.542308
    17  C    6.106831   6.734148   4.573787   3.613717   3.756380
    18  C    6.857953   7.483950   5.549334   4.266949   3.899525
    19  C    8.008047   8.467698   6.721362   5.120483   4.515464
    20  C    8.460523   8.765334   7.054829   5.398432   4.951097
    21  C    7.864187   8.135464   6.317064   4.899568   4.839248
    22  C    6.685483   7.102080   5.047026   3.996027   4.269620
    23  O    4.790594   5.628143   2.954893   3.605699   4.660938
    24  H    2.496214   2.914064   3.199821   2.718554   2.885747
    25  H    2.439255   3.645864   2.822679   3.482948   3.978233
    26  H    2.497953   2.921011   1.091936   2.679658   4.215119
    27  H    2.433431   3.643501   1.091960   3.469043   4.795404
    28  H    2.947915   2.570414   2.639069   1.097376   2.163059
    29  H    4.009056   4.075611   2.812015   1.097611   2.169500
    30  H    5.071833   5.299382   4.342940   2.167189   1.093670
    31  H    4.227613   4.245848   4.184947   2.168683   1.096329
    32  H    4.991911   4.177441   5.351058   3.346127   2.732242
    33  H    7.209661   6.141653   7.445251   5.336589   4.690075
    34  H    8.754226   7.854034   8.491964   6.158526   5.424884
    35  H    8.589598   8.063625   7.846322   5.457882   4.696433
    36  H    6.833537   6.687389   5.896423   3.537201   2.744152
    37  H    6.745362   7.502868   5.609581   4.493089   4.032646
    38  H    8.712812   9.176702   7.553736   5.868801   5.047083
    39  H    9.442431   9.660719   8.076312   6.295914   5.727096
    40  H    8.475717   8.624831   6.904276   5.522633   5.555106
    41  H    6.428096   6.811791   4.689446   4.026389   4.650503
                   11         12         13         14         15
    11  C    0.000000
    12  C    1.403232   0.000000
    13  C    2.438032   1.396603   0.000000
    14  C    2.821822   2.420963   1.397893   0.000000
    15  C    2.436502   2.784785   2.413791   1.396897   0.000000
    16  C    1.401780   2.406929   2.787352   2.422637   1.397930
    17  C    4.613816   5.968472   6.953931   6.847882   5.708889
    18  C    4.711156   6.092229   7.053219   6.898813   5.718388
    19  C    4.932296   6.309850   7.048408   6.642532   5.350213
    20  C    5.058290   6.407819   6.946857   6.323141   4.946183
    21  C    4.969016   6.291580   6.848026   6.270300   4.938328
    22  C    4.749478   6.073056   6.853038   6.541695   5.335826
    23  O    5.692844   6.772542   7.855400   8.018864   7.136174
    24  H    4.053796   4.255149   5.621970   6.608852   6.486205
    25  H    5.387847   5.862362   7.249654   8.107984   7.779589
    26  H    5.065844   5.588023   6.663322   7.225828   6.834843
    27  H    6.004250   6.654196   7.888753   8.500527   8.009488
    28  H    2.716857   3.033220   4.203282   4.943048   4.756218
    29  H    2.808297   3.761331   4.805033   5.085959   4.428349
    30  H    2.149335   3.394912   4.562137   4.827269   4.049287
    31  H    2.140834   2.692313   4.057782   4.811685   4.527049
    32  H    2.156365   1.088358   2.152942   3.404175   3.873122
    33  H    3.417874   2.153948   1.086664   2.158754   3.401202
    34  H    3.908843   3.407159   2.159980   1.087026   2.160029
    35  H    3.416913   3.872319   3.401908   2.158130   1.087567
    36  H    2.156149   3.395514   3.875165   3.404617   2.153474
    37  H    5.048194   6.358285   7.425586   7.422377   6.340306
    38  H    5.410457   6.724797   7.417346   6.994457   5.740702
    39  H    5.613006   6.887102   7.244627   6.446342   5.055258
    40  H    5.470010   6.694408   7.075884   6.354446   5.042189
    41  H    5.114191   6.328836   7.089788   6.830287   5.723732
                   16         17         18         19         20
    16  C    0.000000
    17  C    4.460655   0.000000
    18  C    4.484486   1.401236   0.000000
    19  C    4.337731   2.418537   1.394441   0.000000
    20  C    4.163405   2.793835   2.421720   1.399617   0.000000
    21  C    4.140132   2.417458   2.795918   2.420035   1.396573
    22  C    4.294220   1.395710   2.424923   2.796499   2.422746
    23  O    5.925358   2.627711   3.923857   5.043287   5.201297
    24  H    5.341840   5.486605   5.747750   6.766975   7.461125
    25  H    6.503796   5.306232   5.651683   6.895424   7.708870
    26  H    5.790674   4.732735   5.857407   6.909778   7.026202
    27  H    6.795931   4.747061   5.751584   7.016655   7.411599
    28  H    3.760424   4.659969   5.347902   6.135357   6.314319
    29  H    3.267951   3.092713   3.983969   4.740017   4.776895
    30  H    2.668262   2.976662   2.874138   3.494363   4.097064
    31  H    3.356130   4.547831   4.532463   5.213646   5.830401
    32  H    3.394820   6.411250   6.567069   6.961482   7.198717
    33  H    3.873981   7.976616   8.091212   8.117735   8.032935
    34  H    3.409211   7.811248   7.850147   7.482799   7.055365
    35  H    2.155146   5.960492   5.922981   5.325830   4.702167
    36  H    1.087847   3.613271   3.576623   3.315290   3.078130
    37  H    5.052009   2.159935   1.086117   2.155928   3.407133
    38  H    4.818785   3.403128   2.151807   1.086958   2.159994
    39  H    4.536714   3.880453   3.405282   2.158637   1.086623
    40  H    4.499359   3.401133   3.882719   3.406108   2.157135
    41  H    4.753881   2.147838   3.403516   3.880771   3.409420
                   21         22         23         24         25
    21  C    0.000000
    22  C    1.398684   0.000000
    23  O    4.309866   2.914435   0.000000
    24  H    7.260809   6.320103   5.306573   0.000000
    25  H    7.457697   6.323307   4.688274   1.792843   0.000000
    26  H    6.122192   4.897657   2.968079   3.971439   3.877200
    27  H    6.662676   5.308686   2.748820   3.880529   2.979432
    28  H    5.744873   4.891683   4.340758   2.733644   3.784219
    29  H    4.065929   3.147597   3.066836   3.792126   4.333544
    30  H    4.168991   3.665040   4.409798   3.496614   4.220596
    31  H    5.841552   5.242437   5.331924   2.193463   3.521301
    32  H    7.057620   6.668329   6.943556   3.605356   5.331924
    33  H    7.919402   7.892164   8.731606   6.075920   7.787825
    34  H    7.015136   7.406377   8.992395   7.643392   9.172455
    35  H    4.753167   5.415096   7.551863   7.455699   8.652542
    36  H    3.123365   3.400458   5.389148   5.625501   6.529177
    37  H    3.882023   3.407909   4.284260   5.443448   5.192858
    38  H    3.405760   3.883449   6.018989   7.231976   7.396319
    39  H    2.157611   3.407966   6.253701   8.357867   8.707508
    40  H    1.086810   2.155505   4.900446   8.038458   8.309661
    41  H    2.163857   1.084359   2.463887   6.469459   6.416777
                   26         27         28         29         30
    26  H    0.000000
    27  H    1.792201   0.000000
    28  H    2.587062   3.710494   0.000000
    29  H    2.619302   3.635632   1.758618   0.000000
    30  H    4.677430   5.017173   3.064536   2.487535   0.000000
    31  H    4.646013   5.005401   2.545328   3.071515   1.757656
    32  H    5.428915   6.389607   2.866318   4.035806   3.725151
    33  H    7.266202   8.521630   4.817648   5.666376   5.505659
    34  H    8.168211   9.512220   5.938579   6.087637   5.894537
    35  H    7.545855   8.721077   5.661570   5.090867   4.737843
    36  H    5.798339   6.653695   4.129709   3.180466   2.455339
    37  H    6.106407   5.734666   5.579333   4.454619   2.993057
    38  H    7.823532   7.850405   6.871649   5.620267   3.996594
    39  H    8.005917   8.471186   7.153944   5.675478   4.909329
    40  H    6.552635   7.280123   6.241879   4.585035   5.016796
    41  H    4.353901   4.913801   4.779769   3.043678   4.257575
                   31         32         33         34         35
    31  H    0.000000
    32  H    2.512728   0.000000
    33  H    4.757831   2.473607   0.000000
    34  H    5.877864   4.302225   2.490630   0.000000
    35  H    5.461637   4.960659   4.303917   2.490817   0.000000
    36  H    3.674210   4.297258   4.961800   4.302998   2.473618
    37  H    4.418007   6.693444   8.416016   8.410626   6.648531
    38  H    5.595526   7.367733   8.461169   7.792728   5.680111
    39  H    6.588824   7.762043   8.315661   7.047988   4.597981
    40  H    6.607274   7.528678   8.120237   6.976719   4.690882
    41  H    5.641291   6.871009   8.078304   7.669598   5.836121
                   36         37         38         39         40
    36  H    0.000000
    37  H    4.268578   0.000000
    38  H    3.875420   2.480273   0.000000
    39  H    3.509922   4.303577   2.487488   0.000000
    40  H    3.581037   4.968817   4.305339   2.487020   0.000000
    41  H    4.008809   4.297521   4.967698   4.309546   2.492192
                   41
    41  H    0.000000
 Symmetry turned off by external request.
 Stoichiometry    C17H18NO3S2(1-)
 Framework group  C1[X(C17H18NO3S2)]
 Deg. of freedom   117
 Full point group                 C1      NOp   1
 Rotational constants (GHZ):           0.2277135           0.2169401           0.1228540
 Leave Link  202 at Mon Sep 21 18:30:31 2020, MaxMem=  2147483648 cpu:               0.0 elap:               0.0
 (Enter /prod/apps/gaussian/g16b1/l301.exe)
 Standard basis: 6-31G(d) (6D, 7F)
 Ernie: Thresh=  0.10000D-02 Tol=  0.10000D-05 Strict=F.
   389 basis functions,   764 primitive gaussians,   389 cartesian basis functions
    92 alpha electrons       92 beta electrons
       nuclear repulsion energy      2280.5957615904 Hartrees.
 IExCor=  402 DFT=T Ex+Corr=B3LYP ExCW=0 ScaHFX=  0.200000
 ScaDFX=  0.800000  0.720000  1.000000  0.810000 ScalE2=  1.000000  1.000000
 IRadAn=      5 IRanWt=     -1 IRanGd=            0 ICorTp=0 IEmpDi=  4
 NAtoms=   41 NActive=   41 NUniq=   41 SFac= 1.00D+00 NAtFMM=   60 NAOKFM=F Big=F
 Integral buffers will be    131072 words long.
 Raffenetti 2 integral format.
 Two-electron integral symmetry is turned off.
 Using the following non-standard input for PCM:
 MSTModel=DFT MSTcharged
 --- end of non-standard input.
 MST model for solvation energy: B3LYP parametrization.
 MST cavity parameters:
 ISph   IAn     Re0     Alpha   Atom Type   QCorr
 ------------------------------------------------
   1      8     1.40     1.25      O          F
   2     16     1.75     1.25      S          F
   3      7     1.40     1.15      N          T
   4      6     1.50     1.25      C          F
   5      6     1.50     1.25      CH2        F
   6     16     1.75     1.25      S          F
   7      8     1.40     1.25      O          F
   8      6     1.50     1.25      CH2        F
   9      6     1.50     1.25      CH2        F
  10      6     1.50     1.25      CH2        F
  11      6     1.50     1.25      C          F
  12      6     1.50     1.25      CH         F
  13      6     1.50     1.25      CH         F
  14      6     1.50     1.25      CH         F
  15      6     1.50     1.25      CH         F
  16      6     1.50     1.25      CH         F
  17      6     1.50     1.25      C          F
  18      6     1.50     1.25      CH         F
  19      6     1.50     1.25      CH         F
  20      6     1.50     1.25      CH         F
  21      6     1.50     1.25      CH         F
  22      6     1.50     1.25      CH         F
  23      8     1.40     1.25      O          F
  24      1     1.20     1.25      CH2        F
  25      1     1.20     1.25      CH2        F
  26      1     1.20     1.25      CH2        F
  27      1     1.20     1.25      CH2        F
  28      1     1.20     1.25      CH2        F
  29      1     1.20     1.25      CH2        F
  30      1     1.20     1.25      CH2        F
  31      1     1.20     1.25      CH2        F
  32      1     1.20     1.25      CH         F
  33      1     1.20     1.25      CH         F
  34      1     1.20     1.25      CH         F
  35      1     1.20     1.25      CH         F
  36      1     1.20     1.25      CH         F
  37      1     1.20     1.25      CH         F
  38      1     1.20     1.25      CH         F
  39      1     1.20     1.25      CH         F
  40      1     1.20     1.25      CH         F
  41      1     1.20     1.25      CH         F
 ------------------------------------------------------------------------------
 Polarizable Continuum Model (PCM)
 =================================
 Model                : PCM.
 Atomic radii         : MST.
 Polarization charges : Total charges.
 Charge compensation  : None.
 Solution method      : On-the-fly selection.
 Cavity type          : Scaled VdW (van der Waals Surface) (Alpha=1.250).
 Cavity algorithm     : GePol (No added spheres)
                        Default sphere list used, NSphG=   41.
                        Lebedev-Laikov grids with approx.  5.0 points / Ang**2.
                        Smoothing algorithm: York/Karplus (Gamma=1.0000).
                        Polarization charges: spherical gaussians, with
                                              point-specific exponents (IZeta= 3).
                        Self-potential: point-specific (ISelfS= 7).
                        Self-field    : sphere-specific E.n sum rule (ISelfD= 2).
 1st derivatives      : Analytical E(r).r(x)/FMM algorithm (CHGder, D1EAlg=3).
                        Cavity 1st derivative terms included.
 Solvent              : Water, Eps=  78.355300 Eps(inf)=   1.777849
 ------------------------------------------------------------------------------
 GePol: Number of generator spheres                  =      41
 GePol: Total number of spheres                      =      41
 GePol: Number of exposed spheres                    =      41 (100.00%)
 GePol: Number of points                             =    3041
 GePol: Average weight of points                     =       0.13
 GePol: Minimum weight of points                     =   0.81D-11
 GePol: Maximum weight of points                     =    0.22001
 GePol: Number of points with low weight             =     233
 GePol: Fraction of low-weight points (<1% of avg)   =       7.66%
 GePol: Cavity surface area                          =    393.720 Ang**2
 GePol: Cavity volume                                =    395.864 Ang**3
 PCM non-electrostatic energy =        -0.0793265436 Hartrees.
 Nuclear repulsion after PCM non-electrostatic terms =     2280.5164350468 Hartrees.
 Leave Link  301 at Mon Sep 21 18:30:31 2020, MaxMem=  2147483648 cpu:               0.3 elap:               0.1
 (Enter /prod/apps/gaussian/g16b1/l302.exe)
 NPDir=0 NMtPBC=     1 NCelOv=     1 NCel=       1 NClECP=     1 NCelD=      1
         NCelK=      1 NCelE2=     1 NClLst=     1 CellRange=     0.0.
 One-electron integrals computed using PRISM.
 NBasis=   389 RedAO= T EigKep=  4.54D-04  NBF=   389
 NBsUse=   389 1.00D-06 EigRej= -1.00D+00 NBFU=   389
 Precomputing XC quadrature grid using
 IXCGrd= 4 IRadAn=           5 IRanWt=          -1 IRanGd=           0 AccXCQ= 0.00D+00.
 Generated NRdTot=       0 NPtTot=           0 NUsed=           0 NTot=          32
 NSgBfM=   386   386   386   386   386 MxSgAt=    41 MxSgA2=    41.
 Leave Link  302 at Mon Sep 21 18:30:31 2020, MaxMem=  2147483648 cpu:               2.5 elap:               0.6
 (Enter /prod/apps/gaussian/g16b1/l303.exe)
 DipDrv:  MaxL=1.
 Leave Link  303 at Mon Sep 21 18:30:32 2020, MaxMem=  2147483648 cpu:               0.2 elap:               0.1
 (Enter /prod/apps/gaussian/g16b1/l401.exe)
 ExpMin= 1.17D-01 ExpMax= 2.19D+04 ExpMxC= 3.30D+03 IAcc=3 IRadAn=         5 AccDes= 0.00D+00
 Harris functional with IExCor=  402 and IRadAn=       5 diagonalized for initial guess.
 HarFok:  IExCor=  402 AccDes= 0.00D+00 IRadAn=         5 IDoV= 1 UseB2=F ITyADJ=14
 ICtDFT=  3500011 ScaDFX=  1.000000  1.000000  1.000000  1.000000
 FoFCou: FMM=F IPFlag=           0 FMFlag=      100000 FMFlg1=           0
         NFxFlg=           0 DoJE=T BraDBF=F KetDBF=T FulRan=T
         wScrn=  0.000000 ICntrl=       500 IOpCl=  0 I1Cent=   200000004 NGrid=           0
         NMat0=    1 NMatS0=      1 NMatT0=    0 NMatD0=    1 NMtDS0=    0 NMtDT0=    0
 Symmetry not used in FoFCou.
 Harris En= -1735.65171352923    
 JPrj=0 DoOrth=F DoCkMO=F.
 Leave Link  401 at Mon Sep 21 18:30:35 2020, MaxMem=  2147483648 cpu:              14.2 elap:               3.6
 (Enter /prod/apps/gaussian/g16b1/l502.exe)
 Two-electron integral symmetry not used.
 Closed shell SCF:
 Using DIIS extrapolation, IDIIS=  1040.
 NGot=  2147483648 LenX=  2147175290 LenY=  2147023528
 Requested convergence on RMS density matrix=1.00D-08 within2000 cycles.
 Requested convergence on MAX density matrix=1.00D-06.
 Requested convergence on             energy=1.00D-06.
 No special actions if energy rises.

 Cycle   1  Pass 1  IDiag  1:
 FoFJK:  IHMeth= 1 ICntrl=       0 DoSepK=F KAlg= 0 I1Cent=           0 FoldK=F
 IRaf= 790000000 NMat=       1 IRICut=       1 DoRegI=T DoRafI=F ISym2E= 0 IDoP0=0 IntGTp=1.
 FoFCou: FMM=F IPFlag=           0 FMFlag=      100000 FMFlg1=           0
         NFxFlg=           0 DoJE=F BraDBF=F KetDBF=F FulRan=T
         wScrn=  0.000000 ICntrl=         0 IOpCl=  0 I1Cent=           0 NGrid=           0
         NMat0=    1 NMatS0=      1 NMatT0=    0 NMatD0=    1 NMtDS0=    0 NMtDT0=    0
 Symmetry not used in FoFCou.
 Inv3:  Mode=1 IEnd=    27743043.
 Iteration    1 A*A^-1 deviation from unit magnitude is 4.44D-15 for   2504.
 Iteration    1 A*A^-1 deviation from orthogonality  is 2.22D-15 for   1981    604.
 Iteration    1 A^-1*A deviation from unit magnitude is 4.77D-15 for    509.
 Iteration    1 A^-1*A deviation from orthogonality  is 2.33D-15 for   2384    208.
 E= -1734.71906440828    
 DIIS: error= 2.98D-02 at cycle   1 NSaved=   1.
 NSaved= 1 IEnMin= 1 EnMin= -1734.71906440828     IErMin= 1 ErrMin= 2.98D-02
 ErrMax= 2.98D-02  0.00D+00 EMaxC= 1.00D-01 BMatC= 9.20D-01 BMatP= 9.20D-01
 IDIUse=3 WtCom= 7.02D-01 WtEn= 2.98D-01
 Coeff-Com:  0.100D+01
 Coeff-En:   0.100D+01
 Coeff:      0.100D+01
 Gap=     0.245 Goal=   None    Shift=    0.000
 GapD=    0.245 DampG=1.000 DampE=0.500 DampFc=0.5000 IDamp=-1.
 Damping current iteration by 5.00D-01
 RMSDP=6.32D-03 MaxDP=5.13D-01              OVMax= 2.54D-01

 Cycle   2  Pass 1  IDiag  1:
 E= -1734.97866347927     Delta-E=       -0.259599070982 Rises=F Damp=T
 DIIS: error= 9.35D-03 at cycle   2 NSaved=   2.
 NSaved= 2 IEnMin= 2 EnMin= -1734.97866347927     IErMin= 2 ErrMin= 9.35D-03
 ErrMax= 9.35D-03  0.00D+00 EMaxC= 1.00D-01 BMatC= 1.06D-01 BMatP= 9.20D-01
 IDIUse=3 WtCom= 9.07D-01 WtEn= 9.35D-02
 Coeff-Com:  0.193D+00 0.807D+00
 Coeff-En:   0.308D+00 0.692D+00
 Coeff:      0.204D+00 0.796D+00
 Gap=     0.222 Goal=   None    Shift=    0.000
 RMSDP=1.83D-03 MaxDP=1.27D-01 DE=-2.60D-01 OVMax= 1.62D-01

 Cycle   3  Pass 1  IDiag  1:
 E= -1735.47827720539     Delta-E=       -0.499613726122 Rises=F Damp=F
 DIIS: error= 9.13D-03 at cycle   3 NSaved=   3.
 NSaved= 3 IEnMin= 3 EnMin= -1735.47827720539     IErMin= 3 ErrMin= 9.13D-03
 ErrMax= 9.13D-03  0.00D+00 EMaxC= 1.00D-01 BMatC= 6.85D-02 BMatP= 1.06D-01
 IDIUse=3 WtCom= 9.09D-01 WtEn= 9.13D-02
 Coeff-Com:  0.582D-01 0.450D+00 0.492D+00
 Coeff-En:   0.000D+00 0.000D+00 0.100D+01
 Coeff:      0.529D-01 0.409D+00 0.538D+00
 Gap=     0.193 Goal=   None    Shift=    0.000
 RMSDP=1.06D-03 MaxDP=5.19D-02 DE=-5.00D-01 OVMax= 8.60D-02

 Cycle   4  Pass 1  IDiag  1:
 E= -1735.52973920336     Delta-E=       -0.051461997974 Rises=F Damp=F
 DIIS: error= 4.61D-03 at cycle   4 NSaved=   4.
 NSaved= 4 IEnMin= 4 EnMin= -1735.52973920336     IErMin= 4 ErrMin= 4.61D-03
 ErrMax= 4.61D-03  0.00D+00 EMaxC= 1.00D-01 BMatC= 1.30D-02 BMatP= 6.85D-02
 IDIUse=3 WtCom= 9.54D-01 WtEn= 4.61D-02
 Coeff-Com:  0.509D-02 0.108D+00 0.317D+00 0.569D+00
 Coeff-En:   0.000D+00 0.000D+00 0.168D+00 0.832D+00
 Coeff:      0.485D-02 0.103D+00 0.310D+00 0.581D+00
 Gap=     0.189 Goal=   None    Shift=    0.000
 RMSDP=4.20D-04 MaxDP=2.23D-02 DE=-5.15D-02 OVMax= 3.38D-02

 Cycle   5  Pass 1  IDiag  1:
 E= -1735.54020680525     Delta-E=       -0.010467601889 Rises=F Damp=F
 DIIS: error= 1.43D-03 at cycle   5 NSaved=   5.
 NSaved= 5 IEnMin= 5 EnMin= -1735.54020680525     IErMin= 5 ErrMin= 1.43D-03
 ErrMax= 1.43D-03  0.00D+00 EMaxC= 1.00D-01 BMatC= 1.51D-03 BMatP= 1.30D-02
 IDIUse=3 WtCom= 9.86D-01 WtEn= 1.43D-02
 Coeff-Com: -0.246D-02 0.192D-01 0.129D+00 0.347D+00 0.507D+00
 Coeff-En:   0.000D+00 0.000D+00 0.000D+00 0.684D-01 0.932D+00
 Coeff:     -0.243D-02 0.189D-01 0.127D+00 0.343D+00 0.513D+00
 Gap=     0.188 Goal=   None    Shift=    0.000
 RMSDP=1.37D-04 MaxDP=8.98D-03 DE=-1.05D-02 OVMax= 9.04D-03

 Cycle   6  Pass 1  IDiag  1:
 E= -1735.54151599800     Delta-E=       -0.001309192752 Rises=F Damp=F
 DIIS: error= 3.21D-04 at cycle   6 NSaved=   6.
 NSaved= 6 IEnMin= 6 EnMin= -1735.54151599800     IErMin= 6 ErrMin= 3.21D-04
 ErrMax= 3.21D-04  0.00D+00 EMaxC= 1.00D-01 BMatC= 1.04D-04 BMatP= 1.51D-03
 IDIUse=3 WtCom= 9.97D-01 WtEn= 3.21D-03
 Coeff-Com: -0.156D-02 0.369D-02 0.474D-01 0.145D+00 0.286D+00 0.520D+00
 Coeff-En:   0.000D+00 0.000D+00 0.000D+00 0.000D+00 0.000D+00 0.100D+01
 Coeff:     -0.156D-02 0.368D-02 0.472D-01 0.145D+00 0.285D+00 0.521D+00
 Gap=     0.187 Goal=   None    Shift=    0.000
 RMSDP=3.43D-05 MaxDP=2.08D-03 DE=-1.31D-03 OVMax= 2.32D-03

 Cycle   7  Pass 1  IDiag  1:
 E= -1735.54159563081     Delta-E=       -0.000079632802 Rises=F Damp=F
 DIIS: error= 1.61D-04 at cycle   7 NSaved=   7.
 NSaved= 7 IEnMin= 7 EnMin= -1735.54159563081     IErMin= 7 ErrMin= 1.61D-04
 ErrMax= 1.61D-04  0.00D+00 EMaxC= 1.00D-01 BMatC= 1.15D-05 BMatP= 1.04D-04
 IDIUse=3 WtCom= 9.98D-01 WtEn= 1.61D-03
 Coeff-Com: -0.629D-03-0.217D-03 0.128D-01 0.449D-01 0.110D+00 0.303D+00
 Coeff-Com:  0.530D+00
 Coeff-En:   0.000D+00 0.000D+00 0.000D+00 0.000D+00 0.000D+00 0.570D-01
 Coeff-En:   0.943D+00
 Coeff:     -0.628D-03-0.217D-03 0.128D-01 0.448D-01 0.109D+00 0.303D+00
 Coeff:      0.531D+00
 Gap=     0.187 Goal=   None    Shift=    0.000
 RMSDP=1.03D-05 MaxDP=5.52D-04 DE=-7.96D-05 OVMax= 9.30D-04

 Cycle   8  Pass 1  IDiag  1:
 E= -1735.54160592019     Delta-E=       -0.000010289380 Rises=F Damp=F
 DIIS: error= 3.61D-05 at cycle   8 NSaved=   8.
 NSaved= 8 IEnMin= 8 EnMin= -1735.54160592019     IErMin= 8 ErrMin= 3.61D-05
 ErrMax= 3.61D-05  0.00D+00 EMaxC= 1.00D-01 BMatC= 5.15D-07 BMatP= 1.15D-05
 IDIUse=1 WtCom= 1.00D+00 WtEn= 0.00D+00
 Coeff-Com: -0.151D-03-0.380D-03 0.170D-02 0.791D-02 0.252D-01 0.927D-01
 Coeff-Com:  0.241D+00 0.632D+00
 Coeff:     -0.151D-03-0.380D-03 0.170D-02 0.791D-02 0.252D-01 0.927D-01
 Coeff:      0.241D+00 0.632D+00
 Gap=     0.187 Goal=   None    Shift=    0.000
 RMSDP=2.96D-06 MaxDP=1.22D-04 DE=-1.03D-05 OVMax= 2.47D-04

 Cycle   9  Pass 1  IDiag  1:
 E= -1735.54160636847     Delta-E=       -0.000000448284 Rises=F Damp=F
 DIIS: error= 1.05D-05 at cycle   9 NSaved=   9.
 NSaved= 9 IEnMin= 9 EnMin= -1735.54160636847     IErMin= 9 ErrMin= 1.05D-05
 ErrMax= 1.05D-05  0.00D+00 EMaxC= 1.00D-01 BMatC= 9.12D-08 BMatP= 5.15D-07
 IDIUse=1 WtCom= 1.00D+00 WtEn= 0.00D+00
 Coeff-Com: -0.102D-04-0.180D-03-0.597D-03-0.982D-03 0.782D-03 0.151D-01
 Coeff-Com:  0.671D-01 0.349D+00 0.569D+00
 Coeff:     -0.102D-04-0.180D-03-0.597D-03-0.982D-03 0.782D-03 0.151D-01
 Coeff:      0.671D-01 0.349D+00 0.569D+00
 Gap=     0.187 Goal=   None    Shift=    0.000
 RMSDP=9.72D-07 MaxDP=5.18D-05 DE=-4.48D-07 OVMax= 6.82D-05

 Cycle  10  Pass 1  IDiag  1:
 E= -1735.54160645111     Delta-E=       -0.000000082644 Rises=F Damp=F
 DIIS: error= 2.36D-06 at cycle  10 NSaved=  10.
 NSaved=10 IEnMin=10 EnMin= -1735.54160645111     IErMin=10 ErrMin= 2.36D-06
 ErrMax= 2.36D-06  0.00D+00 EMaxC= 1.00D-01 BMatC= 6.84D-09 BMatP= 9.12D-08
 IDIUse=1 WtCom= 1.00D+00 WtEn= 0.00D+00
 Coeff-Com:  0.137D-05-0.665D-04-0.412D-03-0.939D-03-0.929D-03 0.337D-02
 Coeff-Com:  0.238D-01 0.161D+00 0.312D+00 0.503D+00
 Coeff:      0.137D-05-0.665D-04-0.412D-03-0.939D-03-0.929D-03 0.337D-02
 Coeff:      0.238D-01 0.161D+00 0.312D+00 0.503D+00
 Gap=     0.187 Goal=   None    Shift=    0.000
 RMSDP=2.86D-07 MaxDP=1.57D-05 DE=-8.26D-08 OVMax= 2.12D-05

 Cycle  11  Pass 1  IDiag  1:
 E= -1735.54160645659     Delta-E=       -0.000000005473 Rises=F Damp=F
 DIIS: error= 8.05D-07 at cycle  11 NSaved=  11.
 NSaved=11 IEnMin=11 EnMin= -1735.54160645659     IErMin=11 ErrMin= 8.05D-07
 ErrMax= 8.05D-07  0.00D+00 EMaxC= 1.00D-01 BMatC= 6.71D-10 BMatP= 6.84D-09
 IDIUse=1 WtCom= 1.00D+00 WtEn= 0.00D+00
 Coeff-Com:  0.880D-06-0.450D-05-0.140D-03-0.359D-03-0.683D-03-0.625D-03
 Coeff-Com:  0.180D-02 0.307D-01 0.711D-01 0.258D+00 0.640D+00
 Coeff:      0.880D-06-0.450D-05-0.140D-03-0.359D-03-0.683D-03-0.625D-03
 Coeff:      0.180D-02 0.307D-01 0.711D-01 0.258D+00 0.640D+00
 Gap=     0.187 Goal=   None    Shift=    0.000
 RMSDP=8.46D-08 MaxDP=4.46D-06 DE=-5.47D-09 OVMax= 5.66D-06

 Cycle  12  Pass 1  IDiag  1:
 E= -1735.54160645709     Delta-E=       -0.000000000505 Rises=F Damp=F
 DIIS: error= 4.21D-07 at cycle  12 NSaved=  12.
 NSaved=12 IEnMin=12 EnMin= -1735.54160645709     IErMin=12 ErrMin= 4.21D-07
 ErrMax= 4.21D-07  0.00D+00 EMaxC= 1.00D-01 BMatC= 8.76D-11 BMatP= 6.71D-10
 IDIUse=1 WtCom= 1.00D+00 WtEn= 0.00D+00
 Coeff-Com: -0.111D-06 0.424D-05-0.403D-04-0.106D-03-0.304D-03-0.691D-03
 Coeff-Com: -0.157D-02 0.596D-03 0.627D-02 0.913D-01 0.349D+00 0.556D+00
 Coeff:     -0.111D-06 0.424D-05-0.403D-04-0.106D-03-0.304D-03-0.691D-03
 Coeff:     -0.157D-02 0.596D-03 0.627D-02 0.913D-01 0.349D+00 0.556D+00
 Gap=     0.187 Goal=   None    Shift=    0.000
 RMSDP=2.96D-08 MaxDP=1.79D-06 DE=-5.05D-10 OVMax= 2.83D-06

 Cycle  13  Pass 1  IDiag  1:
 E= -1735.54160645718     Delta-E=       -0.000000000088 Rises=F Damp=F
 DIIS: error= 6.23D-08 at cycle  13 NSaved=  13.
 NSaved=13 IEnMin=13 EnMin= -1735.54160645718     IErMin=13 ErrMin= 6.23D-08
 ErrMax= 6.23D-08  0.00D+00 EMaxC= 1.00D-01 BMatC= 5.45D-12 BMatP= 8.76D-11
 IDIUse=1 WtCom= 1.00D+00 WtEn= 0.00D+00
 Coeff-Com: -0.234D-06 0.240D-05-0.615D-05-0.142D-04-0.760D-04-0.241D-03
 Coeff-Com: -0.875D-03-0.241D-02-0.403D-02 0.156D-01 0.912D-01 0.253D+00
 Coeff-Com:  0.647D+00
 Coeff:     -0.234D-06 0.240D-05-0.615D-05-0.142D-04-0.760D-04-0.241D-03
 Coeff:     -0.875D-03-0.241D-02-0.403D-02 0.156D-01 0.912D-01 0.253D+00
 Coeff:      0.647D+00
 Gap=     0.187 Goal=   None    Shift=    0.000
 RMSDP=8.02D-09 MaxDP=4.11D-07 DE=-8.78D-11 OVMax= 4.57D-07

 Error on total polarization charges =  0.02288
 SCF Done:  E(RB3LYP) =  -1735.54160646     A.U. after   13 cycles
            NFock= 13  Conv=0.80D-08     -V/T= 2.0069
 KE= 1.723721357925D+03 PE=-8.661395262130D+03 EE= 2.921615862701D+03
 Leave Link  502 at Mon Sep 21 18:32:45 2020, MaxMem=  2147483648 cpu:             520.3 elap:             130.2
 (Enter /prod/apps/gaussian/g16b1/l601.exe)
 Copying SCF densities to generalized density rwf, IOpCl= 0 IROHF=0.

 **********************************************************************

            Population analysis using the SCF Density.

 **********************************************************************

 Alpha  occ. eigenvalues --  -89.07529 -88.97278 -19.10902 -19.10896 -19.10588
 Alpha  occ. eigenvalues --  -14.28072 -10.23248 -10.20700 -10.20174 -10.19957
 Alpha  occ. eigenvalues --  -10.19721 -10.19519 -10.19503 -10.19461 -10.19416
 Alpha  occ. eigenvalues --  -10.19256 -10.18721 -10.18699 -10.18562 -10.18422
 Alpha  occ. eigenvalues --  -10.18335 -10.17895 -10.17632  -8.09868  -8.02138
 Alpha  occ. eigenvalues --   -6.06399  -6.06272  -6.06203  -5.98566  -5.98343
 Alpha  occ. eigenvalues --   -5.97916  -1.06601  -0.99352  -0.95445  -0.88104
 Alpha  occ. eigenvalues --   -0.85781  -0.85099  -0.81071  -0.77904  -0.75488
 Alpha  occ. eigenvalues --   -0.74871  -0.73911  -0.72319  -0.68284  -0.66623
 Alpha  occ. eigenvalues --   -0.63238  -0.60756  -0.60507  -0.59958  -0.57295
 Alpha  occ. eigenvalues --   -0.56846  -0.53906  -0.51296  -0.50515  -0.48694
 Alpha  occ. eigenvalues --   -0.47273  -0.46084  -0.45886  -0.45239  -0.44783
 Alpha  occ. eigenvalues --   -0.44201  -0.43787  -0.42358  -0.42101  -0.41895
 Alpha  occ. eigenvalues --   -0.41542  -0.41256  -0.39993  -0.39158  -0.38320
 Alpha  occ. eigenvalues --   -0.37394  -0.37186  -0.36496  -0.35947  -0.34826
 Alpha  occ. eigenvalues --   -0.34655  -0.34272  -0.33495  -0.32650  -0.32186
 Alpha  occ. eigenvalues --   -0.31682  -0.29709  -0.28647  -0.27076  -0.25914
 Alpha  occ. eigenvalues --   -0.25611  -0.25455  -0.24828  -0.24025  -0.23524
 Alpha  occ. eigenvalues --   -0.22808  -0.20331
 Alpha virt. eigenvalues --   -0.01633  -0.00640   0.00035   0.00219   0.01897
 Alpha virt. eigenvalues --    0.04158   0.07638   0.08728   0.09470   0.10570
 Alpha virt. eigenvalues --    0.11461   0.12251   0.13220   0.13502   0.13975
 Alpha virt. eigenvalues --    0.14286   0.14599   0.14958   0.15458   0.16339
 Alpha virt. eigenvalues --    0.16788   0.17601   0.18126   0.18409   0.19053
 Alpha virt. eigenvalues --    0.19410   0.19716   0.20044   0.20846   0.21271
 Alpha virt. eigenvalues --    0.21943   0.22785   0.24062   0.25602   0.26861
 Alpha virt. eigenvalues --    0.28638   0.29466   0.30147   0.30677   0.30984
 Alpha virt. eigenvalues --    0.32210   0.32666   0.33299   0.34179   0.34249
 Alpha virt. eigenvalues --    0.34939   0.36508   0.37688   0.40294   0.41715
 Alpha virt. eigenvalues --    0.43390   0.44271   0.46317   0.47174   0.50500
 Alpha virt. eigenvalues --    0.50925   0.51961   0.52747   0.53208   0.53575
 Alpha virt. eigenvalues --    0.54375   0.55379   0.56016   0.56159   0.57128
 Alpha virt. eigenvalues --    0.57566   0.58379   0.59009   0.59668   0.59819
 Alpha virt. eigenvalues --    0.59971   0.60505   0.60742   0.60939   0.61369
 Alpha virt. eigenvalues --    0.61914   0.62338   0.62807   0.63113   0.63794
 Alpha virt. eigenvalues --    0.64386   0.65066   0.65585   0.66099   0.66953
 Alpha virt. eigenvalues --    0.67481   0.68066   0.70130   0.71167   0.72483
 Alpha virt. eigenvalues --    0.73432   0.74708   0.76766   0.77258   0.79826
 Alpha virt. eigenvalues --    0.80704   0.81324   0.82172   0.82919   0.83641
 Alpha virt. eigenvalues --    0.83827   0.83975   0.84311   0.84519   0.84874
 Alpha virt. eigenvalues --    0.85691   0.86100   0.86629   0.86797   0.88058
 Alpha virt. eigenvalues --    0.88973   0.89512   0.90374   0.91462   0.92171
 Alpha virt. eigenvalues --    0.92602   0.93436   0.93721   0.94428   0.94938
 Alpha virt. eigenvalues --    0.95780   0.96680   0.97762   0.98705   1.00013
 Alpha virt. eigenvalues --    1.00808   1.01291   1.01833   1.02716   1.05214
 Alpha virt. eigenvalues --    1.05909   1.06538   1.07457   1.07900   1.09110
 Alpha virt. eigenvalues --    1.09586   1.10378   1.11349   1.11964   1.12567
 Alpha virt. eigenvalues --    1.13367   1.13895   1.16054   1.17349   1.18275
 Alpha virt. eigenvalues --    1.18975   1.19519   1.20890   1.21732   1.22852
 Alpha virt. eigenvalues --    1.24276   1.25321   1.26255   1.29117   1.30114
 Alpha virt. eigenvalues --    1.33187   1.34224   1.37693   1.39315   1.41294
 Alpha virt. eigenvalues --    1.42396   1.43206   1.43607   1.44120   1.46159
 Alpha virt. eigenvalues --    1.47217   1.47790   1.48534   1.48809   1.49469
 Alpha virt. eigenvalues --    1.50626   1.50998   1.51675   1.51967   1.55400
 Alpha virt. eigenvalues --    1.58725   1.62507   1.67034   1.69794   1.73030
 Alpha virt. eigenvalues --    1.74101   1.76515   1.76993   1.77764   1.79317
 Alpha virt. eigenvalues --    1.80672   1.80819   1.81473   1.82261   1.83226
 Alpha virt. eigenvalues --    1.83627   1.84488   1.85755   1.86371   1.86874
 Alpha virt. eigenvalues --    1.88405   1.89656   1.90783   1.91739   1.92365
 Alpha virt. eigenvalues --    1.93516   1.94049   1.95221   1.96814   1.97439
 Alpha virt. eigenvalues --    1.98042   1.98203   1.99690   1.99964   2.00385
 Alpha virt. eigenvalues --    2.01588   2.03053   2.04940   2.05884   2.06787
 Alpha virt. eigenvalues --    2.09337   2.10329   2.12854   2.13451   2.13705
 Alpha virt. eigenvalues --    2.14026   2.14307   2.14917   2.15353   2.15953
 Alpha virt. eigenvalues --    2.16917   2.17764   2.18423   2.20397   2.22528
 Alpha virt. eigenvalues --    2.24781   2.26208   2.27517   2.29443   2.29686
 Alpha virt. eigenvalues --    2.30498   2.31170   2.31593   2.33247   2.34415
 Alpha virt. eigenvalues --    2.36718   2.41171   2.42893   2.44272   2.49676
 Alpha virt. eigenvalues --    2.53810   2.54016   2.57037   2.58488   2.58977
 Alpha virt. eigenvalues --    2.61625   2.64413   2.66408   2.66605   2.70272
 Alpha virt. eigenvalues --    2.71114   2.72184   2.72655   2.73609   2.74237
 Alpha virt. eigenvalues --    2.74653   2.74795   2.77105   2.77440   2.78447
 Alpha virt. eigenvalues --    2.78912   2.83352   2.84951   2.90029   2.94717
 Alpha virt. eigenvalues --    3.04452   3.05480   3.37719   3.40950   3.80889
 Alpha virt. eigenvalues --    3.83652   3.94080   3.98104   4.05494   4.07836
 Alpha virt. eigenvalues --    4.09248   4.11094   4.12478   4.14568   4.17342
 Alpha virt. eigenvalues --    4.19584   4.23563   4.26770   4.33715   4.34195
 Alpha virt. eigenvalues --    4.35219   4.37536   4.41797   4.55656   4.66201
 Alpha virt. eigenvalues --    4.71144   4.74067
          Condensed to atoms (all electrons):
               1          2          3          4          5          6
     1  O    8.400950   0.438983  -0.074607   0.002428  -0.000027  -0.000004
     2  S    0.438983  13.727252   0.330303  -0.009889   0.000823   0.000708
     3  N   -0.074607   0.330303   7.468301   0.277882  -0.056928   0.005072
     4  C    0.002428  -0.009889   0.277882   4.799634   0.321427  -0.067897
     5  C   -0.000027   0.000823  -0.056928   0.321427   5.700695   0.068652
     6  S   -0.000004   0.000708   0.005072  -0.067897   0.068652  14.952719
     7  O   -0.000000  -0.000001  -0.000039   0.001020  -0.037648   0.283944
     8  C   -0.000018  -0.010363  -0.054388   0.306265  -0.120408   0.077919
     9  C   -0.000170  -0.013058  -0.061826   0.326424  -0.064583   0.012791
    10  C    0.000003   0.000162   0.000477  -0.030097  -0.008614  -0.000381
    11  C   -0.000000  -0.000041   0.000487   0.003088   0.000120   0.000023
    12  C    0.000000  -0.000002  -0.000002   0.000124   0.000011  -0.000009
    13  C    0.000000   0.000000  -0.000000   0.000003  -0.000000   0.000000
    14  C   -0.000000   0.000000   0.000000  -0.000000   0.000000  -0.000000
    15  C    0.000000  -0.000000  -0.000000   0.000002  -0.000000   0.000000
    16  C    0.000000  -0.000001  -0.000016   0.000028  -0.000006   0.000001
    17  C   -0.073471   0.121057  -0.069385  -0.003935  -0.000168   0.000021
    18  C    0.001350  -0.021032  -0.003574   0.000070  -0.000019   0.000001
    19  C    0.000265   0.002754   0.000086  -0.000002  -0.000000   0.000000
    20  C   -0.000008  -0.000708  -0.000005   0.000001   0.000000   0.000000
    21  C   -0.000062   0.001613  -0.000103   0.000007  -0.000000   0.000000
    22  C   -0.000398  -0.021727   0.000278   0.000051  -0.000000  -0.000000
    23  O   -0.049518   0.369792  -0.060054   0.000308  -0.000034   0.000406
    24  H    0.000000   0.000009   0.001484  -0.024712   0.344380  -0.017828
    25  H   -0.000039   0.000435   0.005844  -0.028314   0.316278  -0.004866
    26  H    0.000003   0.000901   0.001607  -0.023965   0.010458  -0.020430
    27  H   -0.000286   0.001590   0.000918  -0.025025   0.002683  -0.007605
    28  H    0.000001   0.000379   0.003802  -0.025158  -0.006216   0.003115
    29  H    0.000008   0.005138  -0.006189  -0.029591   0.005846  -0.000431
    30  H   -0.000015  -0.000017   0.007335  -0.005925  -0.000158  -0.000029
    31  H    0.000000   0.000044  -0.000059  -0.005232   0.003053  -0.000160
    32  H   -0.000000  -0.000000   0.000001  -0.000090  -0.000004   0.000007
    33  H    0.000000  -0.000000  -0.000000  -0.000000  -0.000000  -0.000000
    34  H   -0.000000   0.000000   0.000000   0.000000   0.000000  -0.000000
    35  H   -0.000000   0.000000   0.000000  -0.000000  -0.000000  -0.000000
    36  H   -0.000000  -0.000059   0.000004  -0.000026   0.000001  -0.000000
    37  H    0.002649   0.002412   0.002160   0.000011   0.000001  -0.000000
    38  H    0.000002  -0.000014   0.000003   0.000000   0.000000  -0.000000
    39  H   -0.000000   0.000005  -0.000000  -0.000000   0.000000   0.000000
    40  H    0.000000  -0.000003   0.000001   0.000000   0.000000  -0.000000
    41  H    0.000089  -0.004246   0.000164   0.000040   0.000001  -0.000000
               7          8          9         10         11         12
     1  O   -0.000000  -0.000018  -0.000170   0.000003  -0.000000   0.000000
     2  S   -0.000001  -0.010363  -0.013058   0.000162  -0.000041  -0.000002
     3  N   -0.000039  -0.054388  -0.061826   0.000477   0.000487  -0.000002
     4  C    0.001020   0.306265   0.326424  -0.030097   0.003088   0.000124
     5  C   -0.037648  -0.120408  -0.064583  -0.008614   0.000120   0.000011
     6  S    0.283944   0.077919   0.012791  -0.000381   0.000023  -0.000009
     7  O    8.483418  -0.037120  -0.006548   0.000036   0.000009  -0.000052
     8  C   -0.037120   5.678586  -0.058946   0.005086  -0.000043  -0.000010
     9  C   -0.006548  -0.058946   5.234955   0.345967  -0.040403  -0.003935
    10  C    0.000036   0.005086   0.345967   5.182969   0.348165  -0.060177
    11  C    0.000009  -0.000043  -0.040403   0.348165   4.669207   0.536947
    12  C   -0.000052  -0.000010  -0.003935  -0.060177   0.536947   5.001430
    13  C   -0.000000  -0.000000   0.000002   0.006371  -0.020390   0.516799
    14  C    0.000000   0.000000   0.000014   0.000289  -0.034695  -0.037502
    15  C   -0.000000  -0.000000  -0.000092   0.006847  -0.022103  -0.047667
    16  C   -0.000000  -0.000002  -0.003028  -0.054013   0.545016  -0.041940
    17  C   -0.000000  -0.000698   0.004102  -0.001990  -0.000282  -0.000003
    18  C   -0.000000   0.000004   0.000010  -0.001652  -0.000114  -0.000001
    19  C   -0.000000   0.000000   0.000034  -0.000467   0.000072   0.000000
    20  C    0.000000  -0.000000   0.000008  -0.000018   0.000096   0.000000
    21  C   -0.000000  -0.000000  -0.000087   0.000140   0.000022  -0.000000
    22  C   -0.000000   0.000005  -0.001113   0.000447  -0.000228  -0.000002
    23  O   -0.000000   0.007409  -0.003108   0.000084   0.000000  -0.000000
    24  H    0.000499   0.009996  -0.006936   0.001688  -0.000123  -0.000011
    25  H    0.001259   0.003660   0.005767   0.000018   0.000005  -0.000000
    26  H    0.000194   0.345478  -0.004767   0.000065  -0.000014   0.000000
    27  H    0.001274   0.321323   0.005133  -0.000110   0.000001   0.000000
    28  H    0.020578  -0.005921   0.335698  -0.040616  -0.001629   0.004193
    29  H    0.000157  -0.006122   0.351962  -0.036240  -0.001456  -0.000129
    30  H   -0.000002   0.000111  -0.032326   0.351794  -0.028126   0.004295
    31  H    0.000025   0.000068  -0.040784   0.358936  -0.029320  -0.005436
    32  H    0.000122   0.000004   0.000124  -0.008766  -0.045412   0.358826
    33  H   -0.000000   0.000000  -0.000000  -0.000166   0.003644  -0.038993
    34  H    0.000000   0.000000   0.000000   0.000006   0.000604   0.004607
    35  H   -0.000000   0.000000   0.000000  -0.000167   0.003677   0.000741
    36  H    0.000000   0.000001   0.000311  -0.009296  -0.041332   0.006134
    37  H    0.000000   0.000003  -0.000039  -0.000040   0.000008  -0.000000
    38  H    0.000000  -0.000000  -0.000000  -0.000005   0.000001   0.000000
    39  H    0.000000  -0.000000   0.000000   0.000000   0.000001  -0.000000
    40  H    0.000000   0.000000  -0.000001  -0.000000   0.000000  -0.000000
    41  H    0.000000  -0.000021  -0.000233   0.000008  -0.000004  -0.000000
              13         14         15         16         17         18
     1  O    0.000000  -0.000000   0.000000   0.000000  -0.073471   0.001350
     2  S    0.000000   0.000000  -0.000000  -0.000001   0.121057  -0.021032
     3  N   -0.000000   0.000000  -0.000000  -0.000016  -0.069385  -0.003574
     4  C    0.000003  -0.000000   0.000002   0.000028  -0.003935   0.000070
     5  C   -0.000000   0.000000  -0.000000  -0.000006  -0.000168  -0.000019
     6  S    0.000000  -0.000000   0.000000   0.000001   0.000021   0.000001
     7  O   -0.000000   0.000000  -0.000000  -0.000000  -0.000000  -0.000000
     8  C   -0.000000   0.000000  -0.000000  -0.000002  -0.000698   0.000004
     9  C    0.000002   0.000014  -0.000092  -0.003028   0.004102   0.000010
    10  C    0.006371   0.000289   0.006847  -0.054013  -0.001990  -0.001652
    11  C   -0.020390  -0.034695  -0.022103   0.545016  -0.000282  -0.000114
    12  C    0.516799  -0.037502  -0.047667  -0.041940  -0.000003  -0.000001
    13  C    4.904332   0.542490  -0.029179  -0.046580   0.000000  -0.000000
    14  C    0.542490   4.890464   0.544661  -0.037917  -0.000000   0.000000
    15  C   -0.029179   0.544661   4.910925   0.513585   0.000007   0.000006
    16  C   -0.046580  -0.037917   0.513585   5.011328   0.000411   0.000171
    17  C    0.000000  -0.000000   0.000007   0.000411   5.425385   0.454111
    18  C   -0.000000   0.000000   0.000006   0.000171   0.454111   4.999838
    19  C   -0.000000   0.000000  -0.000001  -0.000564  -0.025158   0.508223
    20  C   -0.000000   0.000000  -0.000036  -0.001548  -0.040172  -0.030063
[...]
    22  C    0.005244   0.000135  -0.016113  -0.167011  -8.461282   2.741381
    23  O   -0.000952   0.000691  -0.001388   0.005376   0.415083  -0.172305
    24  H    0.031863  -0.005776   0.006052  -0.025384  -0.030792   0.006074
    25  H   -0.003838   0.000589  -0.000320   0.015123   0.008066  -0.009679
    26  H    0.001711  -0.002406   0.001487   0.000673  -0.007505  -0.003838
    27  H    0.001341  -0.000861   0.001570  -0.004412  -0.082695   0.019272
    28  H   -0.034102   0.044488  -0.062267   0.175977   0.026194  -0.017747
    29  H   -0.011375  -0.004414   0.047531  -0.042520  -0.054982   0.107071
    30  H   -0.177061   0.022206   0.119241   0.323357  -0.020580  -0.015552
    31  H    0.166193   0.007346  -0.049642  -0.134009   0.017189   0.004408
    32  H    0.581796  -0.192333   0.186090  -0.225405   0.004220   0.002041
    33  H   -0.759687   0.281473  -0.211654   0.073944  -0.000204   0.000389
    34  H    0.343754  -0.677936   0.388351  -0.059465  -0.000176  -0.000827
    35  H   -0.242144   0.421106  -0.990504   0.715459   0.009826  -0.001969
    36  H    0.146120  -0.091967   0.159993  -1.047599  -0.035222   0.046100
    37  H   -0.000581   0.000832   0.002925   0.001918   1.240052  -1.711691
    38  H    0.001018  -0.001111  -0.005917   0.013868  -0.216443   0.620328
    39  H   -0.001638   0.001229  -0.018121   0.027328   0.094655  -0.174089
    40  H   -0.000969   0.004682  -0.001088   0.013368  -0.056711   0.099987
    41  H    0.001282  -0.001473  -0.009001   0.014781   0.647001  -0.154633
              19         20         21         22         23         24
     1  O    0.043936  -0.031385   0.000455   0.081130   0.050509   0.003634
     2  S   -0.609036   0.300839  -0.253634  -1.349539  -1.020135   0.008158
     3  N   -0.098408   0.004101   0.042359   0.077842   0.167352   0.202391
     4  C   -0.090530   0.064197  -0.065353   0.280084   0.301321  -0.932031
     5  C    0.033960   0.007513  -0.032024  -0.011247  -0.054787   0.375203
     6  S   -0.000521   0.000217  -0.000005   0.003194  -0.009329   0.136957
     7  O    0.000053  -0.000045   0.000218  -0.000908  -0.000286   0.008569
     8  C   -0.042243   0.026263  -0.024458   0.030105  -0.177265   0.191067
     9  C    0.170135  -0.175214   0.197254  -0.303177  -0.036518   0.286676
    10  C    0.269296  -0.121705   0.175246  -0.350912   0.033734  -0.025696
    11  C   -0.170753   0.114706  -0.161330   0.306811   0.009477  -0.027651
    12  C    0.017440   0.043606  -0.009364  -0.006074   0.001400  -0.061028
    13  C   -0.002656  -0.002809  -0.006617   0.005244  -0.000952   0.031863
    14  C    0.027313  -0.015976   0.007408   0.000135   0.000691  -0.005776
    15  C   -0.128280   0.002364  -0.061197  -0.016113  -0.001388   0.006052
    16  C    0.030760   0.027932   0.089785  -0.167011   0.005376  -0.025384
    17  C    3.644895  -4.763733   3.761429  -8.461282   0.415083  -0.030792
    18  C   -6.099780   4.903154  -5.755080   2.741381  -0.172305   0.006074
    19  C   14.153408  -5.468453   5.196948  -4.824673   0.037458  -0.003045
    20  C   -5.468453  12.114962  -5.252451   3.987861  -0.031523   0.003105
    21  C    5.196948  -5.252451  14.257810  -6.390701  -0.036900  -0.004645
    22  C   -4.824673   3.987861  -6.390701  20.527177   0.151253   0.002395
    23  O    0.037458  -0.031523  -0.036900   0.151253   9.764169  -0.005799
    24  H   -0.003045   0.003105  -0.004645   0.002395  -0.005799   1.422321
    25  H    0.003790  -0.001729   0.001587  -0.001426   0.004442  -0.289881
    26  H    0.001327   0.000047   0.004526   0.008458  -0.002800   0.000351
    27  H   -0.006746   0.003860  -0.004215  -0.012911  -0.013259   0.024625
    28  H    0.016221  -0.011413  -0.002253  -0.013546  -0.009472  -0.055129
    29  H   -0.048753   0.049679  -0.056399  -0.010924   0.042881   0.040190
    30  H   -0.124538   0.069226  -0.007679  -0.060277  -0.007900   0.041335
    31  H    0.014963  -0.003782  -0.002283   0.009242   0.001322  -0.100156
    32  H   -0.001556   0.002263  -0.000051   0.000618   0.000957  -0.000307
    33  H   -0.000260  -0.000057  -0.000348   0.000312  -0.000049   0.002742
    34  H    0.000982  -0.000220   0.000517   0.000591   0.000044  -0.000253
    35  H    0.002720  -0.000136  -0.007324  -0.010583  -0.000437   0.000015
    36  H    0.006780  -0.115780  -0.017601   0.094906   0.008642  -0.001343
    37  H    0.418062  -0.360567   0.205645  -0.073542   0.018771  -0.003771
    38  H   -1.029607   0.581010  -0.285082   0.137842   0.001106  -0.000110
    39  H    0.524039  -0.942660   0.504866  -0.142680  -0.000136   0.000077
    40  H   -0.254758   0.466258  -0.994961   0.566848   0.000449  -0.000133
    41  H    0.115429  -0.208505   0.634651  -1.460242  -0.054004  -0.000868
              25         26         27         28         29         30
     1  O   -0.003270  -0.001550  -0.013075  -0.003246   0.009474  -0.010129
     2  S    0.019629   0.006561   0.185264   0.017460  -0.183456   0.142622
     3  N   -0.079310   0.046186   0.132800  -0.128195   0.189224  -0.024476
     4  C    0.420494   0.059031  -0.760600   0.003951  -0.726111  -0.125433
     5  C   -0.206482  -0.004505   0.074472   0.086319   0.144745   0.029377
     6  S   -0.207388   0.111201  -0.204543  -0.079094  -0.006801   0.009222
     7  O    0.008903   0.001858   0.010383   0.014131   0.006613   0.003711
     8  C   -0.037588   0.157622   0.384572  -0.012706  -0.071930   0.029945
     9  C    0.139856  -0.112766   0.376323  -0.029629   0.346728   0.126436
    10  C    0.058899   0.074542   0.003250  -0.221515  -0.255027  -0.176832
    11  C    0.009207  -0.010157  -0.025645  -0.219241   0.026549  -0.117795
    12  C   -0.009373  -0.007382  -0.004733   0.115836  -0.016253  -0.229768
    13  C   -0.003838   0.001711   0.001341  -0.034102  -0.011375  -0.177061
    14  C    0.000589  -0.002406  -0.000861   0.044488  -0.004414   0.022206
    15  C   -0.000320   0.001487   0.001570  -0.062267   0.047531   0.119241
    16  C    0.015123   0.000673  -0.004412   0.175977  -0.042520   0.323357
    17  C    0.008066  -0.007505  -0.082695   0.026194  -0.054982  -0.020580
    18  C   -0.009679  -0.003838   0.019272  -0.017747   0.107071  -0.015552
    19  C    0.003790   0.001327  -0.006746   0.016221  -0.048753  -0.124538
    20  C   -0.001729   0.000047   0.003860  -0.011413   0.049679   0.069226
    21  C    0.001587   0.004526  -0.004215  -0.002253  -0.056399  -0.007679
    22  C   -0.001426   0.008458  -0.012911  -0.013546  -0.010924  -0.060277
    23  O    0.004442  -0.002800  -0.013259  -0.009472   0.042881  -0.007900
    24  H   -0.289881   0.000351   0.024625  -0.055129   0.040190   0.041335
    25  H    1.403346   0.005594   0.014197   0.015664  -0.009052  -0.006891
    26  H    0.005594   1.298531  -0.253429  -0.075807  -0.034780   0.007520
    27  H    0.014197  -0.253429   1.363380   0.027419   0.020761   0.007903
    28  H    0.015664  -0.075807   0.027419   2.240321  -0.610752   0.067509
    29  H   -0.009052  -0.034780   0.020761  -0.610752   2.395560  -0.134965
    30  H   -0.006891   0.007520   0.007903   0.067509  -0.134965   2.230324
    31  H    0.015998   0.001176  -0.002214  -0.062576   0.089856  -0.586684
    32  H    0.004428   0.001005  -0.001407  -0.028669   0.002971  -0.001549
    33  H   -0.000182  -0.000032   0.000068  -0.003004   0.002086  -0.001256
    34  H    0.000029  -0.000031  -0.000049  -0.000194  -0.000619   0.000640
    35  H   -0.000073  -0.000142   0.000153   0.001634  -0.000677  -0.001154
    36  H    0.003527   0.003163  -0.002257   0.022565  -0.042540  -0.102849
    37  H    0.002845  -0.002063  -0.002863   0.001073   0.003744  -0.019123
    38  H    0.000056   0.000025  -0.000236   0.000069  -0.001070   0.009200
    39  H   -0.000063  -0.000002   0.000080  -0.000094   0.001219  -0.007319
    40  H    0.000042   0.000421  -0.000365  -0.000950   0.002299   0.002669
    41  H   -0.000206  -0.004673  -0.003119   0.001185   0.013511   0.003410
              31         32         33         34         35         36
     1  O   -0.003256   0.000034   0.000005   0.000006  -0.000068   0.004021
     2  S   -0.014578  -0.004657   0.000000  -0.000497   0.003935  -0.050293
     3  N   -0.027625   0.001084  -0.000033  -0.000178   0.000326  -0.016245
     4  C    0.032100   0.012576  -0.000053   0.001586  -0.003866   0.048746
     5  C   -0.012878  -0.004138   0.002444  -0.000199   0.000465   0.014440
     6  S   -0.015516   0.000233   0.000388  -0.000072   0.000121  -0.002363
     7  O   -0.002992   0.002605  -0.000243  -0.000044   0.000026   0.000034
     8  C   -0.017637  -0.011456   0.001213  -0.000644   0.000985  -0.021475
     9  C    0.014130   0.103635   0.007499  -0.008088   0.011381  -0.035319
    10  C   -0.484710  -0.367606  -0.001253   0.004968   0.056534  -0.489278
    11  C    0.120429   1.258304  -0.014150   0.041964  -0.126845   0.687636
    12  C    0.298423  -1.741757   0.556131  -0.090366   0.117401  -0.267690
    13  C    0.166193   0.581796  -0.759687   0.343754  -0.242144   0.146120
    14  C    0.007346  -0.192333   0.281473  -0.677936   0.421106  -0.091967
    15  C   -0.049642   0.186090  -0.211654   0.388351  -0.990504   0.159993
    16  C   -0.134009  -0.225405   0.073944  -0.059465   0.715459  -1.047599
    17  C    0.017189   0.004220  -0.000204  -0.000176   0.009826  -0.035222
    18  C    0.004408   0.002041   0.000389  -0.000827  -0.001969   0.046100
    19  C    0.014963  -0.001556  -0.000260   0.000982   0.002720   0.006780
    20  C   -0.003782   0.002263  -0.000057  -0.000220  -0.000136  -0.115780
    21  C   -0.002283  -0.000051  -0.000348   0.000517  -0.007324  -0.017601
    22  C    0.009242   0.000618   0.000312   0.000591  -0.010583   0.094906
    23  O    0.001322   0.000957  -0.000049   0.000044  -0.000437   0.008642
    24  H   -0.100156  -0.000307   0.002742  -0.000253   0.000015  -0.001343
    25  H    0.015998   0.004428  -0.000182   0.000029  -0.000073   0.003527
    26  H    0.001176   0.001005  -0.000032  -0.000031  -0.000142   0.003163
    27  H   -0.002214  -0.001407   0.000068  -0.000049   0.000153  -0.002257
    28  H   -0.062576  -0.028669  -0.003004  -0.000194   0.001634   0.022565
    29  H    0.089856   0.002971   0.002086  -0.000619  -0.000677  -0.042540
    30  H   -0.586684  -0.001549  -0.001256   0.000640  -0.001154  -0.102849
    31  H    2.013612  -0.037678  -0.003441   0.001006   0.002414   0.040958
    32  H   -0.037678   2.266391  -0.083296  -0.017398   0.011603   0.001136
    33  H   -0.003441  -0.083296   1.705218  -0.053183  -0.019817   0.014873
    34  H    0.001006  -0.017398  -0.053183   1.659351  -0.049700  -0.021462
    35  H    0.002414   0.011603  -0.019817  -0.049700   1.761738  -0.139200
    36  H    0.040958   0.001136   0.014873  -0.021462  -0.139200   2.747755
    37  H    0.009225   0.001111  -0.000004   0.000067  -0.000808   0.007714
    38  H   -0.002119  -0.000031  -0.000005   0.000021   0.000843   0.020169
    39  H    0.000194  -0.000032  -0.000045   0.000178  -0.000575  -0.014459
    40  H   -0.000508   0.000113  -0.000044   0.000160  -0.000958  -0.005045
    41  H    0.000005   0.000360  -0.000052   0.000092   0.000846   0.014598
              37         38         39         40         41
     1  O    0.077547   0.001191  -0.000757   0.001427   0.003815
     2  S   -0.402916   0.019125   0.001579  -0.012283   0.020968
     3  N    0.086708  -0.005095   0.000780   0.001555  -0.024322
     4  C   -0.010561   0.003104  -0.002266   0.011127   0.109783
     5  C   -0.005309   0.000259  -0.000071  -0.000874   0.000912
     6  S   -0.001885   0.000057  -0.000004  -0.000027  -0.000898
     7  O    0.000060  -0.000003  -0.000002   0.000017  -0.000375
     8  C   -0.032407  -0.001475   0.000841  -0.001979  -0.060956
     9  C   -0.017316  -0.005075   0.002149  -0.007983  -0.059977
    10  C    0.050447  -0.021733   0.003298   0.004760  -0.019361
    11  C    0.020350   0.015756  -0.003489  -0.008449   0.028294
    12  C    0.002491  -0.000053   0.004402   0.000067   0.004513
    13  C   -0.000581   0.001018  -0.001638  -0.000969   0.001282
    14  C    0.000832  -0.001111   0.001229   0.004682  -0.001473
    15  C    0.002925  -0.005917  -0.018121  -0.001088  -0.009001
    16  C    0.001918   0.013868   0.027328   0.013368   0.014781
    17  C    1.240052  -0.216443   0.094655  -0.056711   0.647001
    18  C   -1.711691   0.620328  -0.174089   0.099987  -0.154633
    19  C    0.418062  -1.029607   0.524039  -0.254758   0.115429
    20  C   -0.360567   0.581010  -0.942660   0.466258  -0.208505
    21  C    0.205645  -0.285082   0.504866  -0.994961   0.634651
    22  C   -0.073542   0.137842  -0.142680   0.566848  -1.460242
    23  O    0.018771   0.001106  -0.000136   0.000449  -0.054004
    24  H   -0.003771  -0.000110   0.000077  -0.000133  -0.000868
    25  H    0.002845   0.000056  -0.000063   0.000042  -0.000206
    26  H   -0.002063   0.000025  -0.000002   0.000421  -0.004673
    27  H   -0.002863  -0.000236   0.000080  -0.000365  -0.003119
    28  H    0.001073   0.000069  -0.000094  -0.000950   0.001185
    29  H    0.003744  -0.001070   0.001219   0.002299   0.013511
    30  H   -0.019123   0.009200  -0.007319   0.002669   0.003410
    31  H    0.009225  -0.002119   0.000194  -0.000508   0.000005
    32  H    0.001111  -0.000031  -0.000032   0.000113   0.000360
    33  H   -0.000004  -0.000005  -0.000045  -0.000044  -0.000052
    34  H    0.000067   0.000021   0.000178   0.000160   0.000092
    35  H   -0.000808   0.000843  -0.000575  -0.000958   0.000846
    36  H    0.007714   0.020169  -0.014459  -0.005045   0.014598
    37  H    2.361075  -0.127319  -0.016438   0.012142  -0.023840
    38  H   -0.127319   1.890602  -0.054330  -0.023789   0.009895
    39  H   -0.016438  -0.054330   1.793274  -0.053002  -0.016217
    40  H    0.012142  -0.023789  -0.053002   1.876047  -0.100383
    41  H   -0.023840   0.009895  -0.016217  -0.100383   2.264438
 Mulliken charges:
               1
     1  O   -1.265682
     2  S    2.862250
     3  N   -1.876934
     4  C    0.659151
     5  C    0.617777
     6  S    1.397994
     7  O   -1.256142
     8  C    0.473202
     9  C   -0.107838
    10  C    1.185256
    11  C    0.290997
    12  C    0.895929
    13  C   -0.046784
    14  C    0.603733
    15  C    0.085641
    16  C    0.892585
    17  C    0.535562
    18  C    0.223773
    19  C    0.274678
    20  C    0.734977
    21  C    0.351249
    22  C    0.654339
    23  O   -1.381189
    24  H   -0.220003
    25  H   -0.289561
    26  H   -0.269149
    27  H   -0.252058
    28  H   -0.196415
    29  H   -0.219294
    30  H   -0.286043
    31  H   -0.295901
    32  H   -0.726250
    33  H   -0.496429
    34  H   -0.462708
    35  H   -0.522551
    36  H   -0.573888
    37  H   -0.711798
    38  H   -0.544937
    39  H   -0.511698
    40  H   -0.539175
    41  H   -0.686665
 Sum of Mulliken charges =  -1.00000
 Mulliken charges with hydrogens summed into heavy atoms:
               1
     1  O   -1.265682
     2  S    2.862250
     3  N   -1.876934
     4  C    0.659151
     5  C    0.108213
     6  S    1.397994
     7  O   -1.256142
     8  C   -0.048005
     9  C   -0.523547
    10  C    0.603312
    11  C    0.290997
    12  C    0.169679
    13  C   -0.543213
    14  C    0.141026
    15  C   -0.436910
    16  C    0.318697
    17  C    0.535562
    18  C   -0.488025
    19  C   -0.270259
    20  C    0.223279
    21  C   -0.187926
    22  C   -0.032326
    23  O   -1.381189
 Electronic spatial extent (au):  <R**2>=           8657.2886
 Charge=             -1.0000 electrons
 Dipole moment (field-independent basis, Debye):
    X=             -8.6685    Y=              2.4546    Z=             -1.1385  Tot=              9.0810
 Quadrupole moment (field-independent basis, Debye-Ang):
   XX=           -182.0147   YY=           -212.0419   ZZ=           -160.0251
   XY=             11.3063   XZ=             -5.2826   YZ=             -7.6947
 Traceless Quadrupole moment (field-independent basis, Debye-Ang):
   XX=              2.6792   YY=            -27.3480   ZZ=             24.6688
   XY=             11.3063   XZ=             -5.2826   YZ=             -7.6947
 Octapole moment (field-independent basis, Debye-Ang**2):
  XXX=             -6.6234  YYY=             24.3677  ZZZ=              0.5961  XYY=           -117.1428
  XXY=            -19.1877  XXZ=             13.2111  XZZ=              7.3460  YZZ=             -4.4784
  YYZ=            -24.6066  XYZ=            -27.2765
 Hexadecapole moment (field-independent basis, Debye-Ang**3):
 XXXX=          -5941.6603 YYYY=          -6260.5454 ZZZZ=           -789.7123 XXXY=             62.4450
 XXXZ=            -92.5506 YYYX=           -133.7963 YYYZ=           -115.4783 ZZZX=              1.6973
 ZZZY=             11.6472 XXYY=          -2221.6985 XXZZ=          -1154.2378 YYZZ=          -1087.5940
 XXYZ=            -13.2810 YYXZ=            -51.9105 ZZXY=             94.5768
 N-N= 2.280523070902D+03 E-N=-8.657122153409D+03  KE= 1.726668256951D+03
 Leave Link  601 at Mon Sep 21 22:12:52 2020, MaxMem=   262144000 cpu:               3.8 elap:               1.3
 (Enter /prod/apps/gaussian/g16b1/l9999.exe)
 1\1\GINC-PIRINEUS20\SP\RMP2-FC\Aug-CC-pVDZ\C17H18N1O3S2(1-)\UBAFAR01\2
 1-Sep-2020\0\\#p mp2/aug-cc-pVDZ scf=(MaxCycle=2000,NoVarAcc,NoIncFock
 ) maxdisk=120GB geom=allcheck\\SM36_m1.a.10.pdb.xyz\\-1,1\O,0,-0.24108
 11446,-3.9328400973,0.6657239013\S,0,-0.28429692,-2.613912473,-0.03297
 02031\N,0,-1.1821042894,-1.6382709421,0.8306327212\C,0,-1.8181194165,-
 0.4760964111,0.2177549775\C,0,-2.9392840269,0.0477760184,1.1649700268\
 S,0,-4.1477870828,0.3230150939,-0.2302855101\O,0,-4.0193079581,1.75720
 72116,-0.7585018776\C,0,-2.8122354247,-0.7543171574,-0.9607217686\C,0,
 -0.8623336493,0.6760064586,-0.1868993594\C,0,0.006262578,1.2381831223,
 0.9558649434\C,0,0.8096637424,2.4478177593,0.5226752582\C,0,0.23438444
 69,3.7283895259,0.5278302764\C,0,0.9587569993,4.845843738,0.1076390899
 \C,0,2.2793221197,4.7026466804,-0.3282324819\C,0,2.8650858267,3.434401
 4856,-0.3384490612\C,0,2.1355221228,2.3193372355,0.083324103\C,0,1.458
 2311802,-2.0891267942,-0.0101156246\C,0,2.1328236409,-2.019430084,1.21
 5417996\C,0,3.474200594,-1.6391692751,1.2480008532\C,0,4.1454850361,-1
 .3276760643,0.0596375572\C,0,3.4694235834,-1.3987032576,-1.1601012819\
 C,0,2.1241801457,-1.7806071024,-1.1977460663\O,0,-0.633317591,-2.67873
 75637,-1.4874834606\H,0,-2.7556597502,0.9564197795,1.7431088419\H,0,-3
 .3386832503,-0.7382862834,1.8112443116\H,0,-2.5238056058,-0.4417807405
 ,-1.9670626772\H,0,-3.1795773377,-1.7823984985,-0.9738332017\H,0,-1.46
 69552587,1.4884770612,-0.6083512772\H,0,-0.212482239,0.3190858261,-0.9
 96603548\H,0,0.6793702265,0.457144633,1.3212277208\H,0,-0.6374426224,1
 .5205544803,1.7984922959\H,0,-0.7916133604,3.8496980803,0.8692985117\H
 ,0,0.4940124907,5.8283914468,0.1247880588\H,0,2.8463737033,5.571066726
 9,-0.6525305401\H,0,3.8926796129,3.3116731581,-0.6712069493\H,0,2.6028
 338886,1.3374688924,0.0758914318\H,0,1.6134519552,-2.2659405714,2.1369
 136992\H,0,3.9977129772,-1.5887461404,2.198683411\H,0,5.1911783038,-1.
 0346261069,0.0868807654\H,0,3.9876066077,-1.1622756352,-2.0854183944\H
 ,0,1.5925251455,-1.8486632158,-2.1404874689\\Version=ES64L-G16RevB.01\
 State=1-A\HF=-1728.3226735\MP2=-1731.7852954\RMSD=9.641e-09\PG=C01 [X(
 C17H18N1O3S2)]\\@


 CLIMB THE MOUNTAINS AND GET THEIR GOOD TIDINGS.
 NATURE'S PEACE WILL FLOW INTO YOU AS SUNSHINE FLOWS INTO TREES.
 THE WINDS WILL BLOW THEIR OWN FRESHNESS INTO YOU, 
 AND CARES WILL DROP OFF LIKE AUTUMN LEAVES.

                                         -- JOHN MUIR
 Job cpu time:       0 days  9 hours 56 minutes 34.8 seconds.
 Elapsed time:       0 days  2 hours 59 minutes 19.7 seconds.
 File lengths (MBytes):  RWF= 109373 Int=      0 D2E=      0 Chk=     41 Scr=      1
 Normal termination of Gaussian 16 at Mon Sep 21 22:13:05 2020.
