 Entering Gaussian System, Link 0=g16
 Initial command:
 /prod/apps/gaussian/g16b1/l1.exe "/tmp/ubafar01/1460048/Gau-140243.inp" -scrdir="/tmp/ubafar01/1460048/"
 Entering Link 1 = /prod/apps/gaussian/g16b1/l1.exe PID=    140245.
  
 Copyright (c) 1988-2017, Gaussian, Inc.  All Rights Reserved.
  
 This is part of the Gaussian(R) 16 program.  It is based on
 the Gaussian(R) 09 system (copyright 2009, Gaussian, Inc.),
 the Gaussian(R) 03 system (copyright 2003, Gaussian, Inc.),
 the Gaussian(R) 98 system (copyright 1998, Gaussian, Inc.),
 the Gaussian(R) 94 system (copyright 1995, Gaussian, Inc.),
 the Gaussian 92(TM) system (copyright 1992, Gaussian, Inc.),
 the Gaussian 90(TM) system (copyright 1990, Gaussian, Inc.),
 the Gaussian 88(TM) system (copyright 1988, Gaussian, Inc.),
 the Gaussian 86(TM) system (copyright 1986, Carnegie Mellon
 University), and the Gaussian 82(TM) system (copyright 1983,
 Carnegie Mellon University). Gaussian is a federally registered
 trademark of Gaussian, Inc.
  
 This software contains proprietary and confidential information,
 including trade secrets, belonging to Gaussian, Inc.
  
 This software is provided under written license and may be
 used, copied, transmitted, or stored only in accord with that
 written license.
  
 The following legend is applicable only to US Government
 contracts under FAR:
  
                    RESTRICTED RIGHTS LEGEND
  
 Use, reproduction and disclosure by the US Government is
 subject to restrictions as set forth in subparagraphs (a)
 and (c) of the Commercial Computer Software - Restricted
 Rights clause in FAR 52.227-19.
  
 Gaussian, Inc.
 340 Quinnipiac St., Bldg. 40, Wallingford CT 06492
  
  
 ---------------------------------------------------------------
 Warning -- This program may not be used in any manner that
 competes with the business of Gaussian, Inc. or will provide
 assistance to any competitor of Gaussian, Inc.  The licensee
 of this program is prohibited from giving any competitor of
 Gaussian, Inc. access to this program.  By using this program,
 the user acknowledges that Gaussian, Inc. is engaged in the
 business of creating and licensing software in the field of
 computational chemistry and represents and warrants to the
 licensee that it is not a competitor of Gaussian, Inc. and that
 it will not use this program in any manner prohibited above.
 ---------------------------------------------------------------
  

 Cite this work as:
 Gaussian 16, Revision B.01,
 M. J. Frisch, G. W. Trucks, H. B. Schlegel, G. E. Scuseria, 
 M. A. Robb, J. R. Cheeseman, G. Scalmani, V. Barone, 
 G. A. Petersson, H. Nakatsuji, X. Li, M. Caricato, A. V. Marenich, 
 J. Bloino, B. G. Janesko, R. Gomperts, B. Mennucci, H. P. Hratchian, 
 J. V. Ortiz, A. F. Izmaylov, J. L. Sonnenberg, D. Williams-Young, 
 F. Ding, F. Lipparini, F. Egidi, J. Goings, B. Peng, A. Petrone, 
 T. Henderson, D. Ranasinghe, V. G. Zakrzewski, J. Gao, N. Rega, 
 G. Zheng, W. Liang, M. Hada, M. Ehara, K. Toyota, R. Fukuda, 
 J. Hasegawa, M. Ishida, T. Nakajima, Y. Honda, O. Kitao, H. Nakai, 
 T. Vreven, K. Throssell, J. A. Montgomery, Jr., J. E. Peralta, 
 F. Ogliaro, M. J. Bearpark, J. J. Heyd, E. N. Brothers, K. N. Kudin, 
 V. N. Staroverov, T. A. Keith, R. Kobayashi, J. Normand, 
 K. Raghavachari, A. P. Rendell, J. C. Burant, S. S. Iyengar, 
 J. Tomasi, M. Cossi, J. M. Millam, M. Klene, C. Adamo, R. Cammi, 
 J. W. Ochterski, R. L. Martin, K. Morokuma, O. Farkas, 
 J. B. Foresman, and D. J. Fox, Gaussian, Inc., Wallingford CT, 2016.
 
 ******************************************
 Gaussian 16:  ES64L-G16RevB.01 20-Dec-2017
                21-Sep-2020 
 ******************************************
 %nproc=4
 Will use up to    4 processors via shared memory.
 %Chk=SM36_m0.n.10.pdb.xyz.mst.n.w.chk
 %mem=16GB
 ----------------------------------------------------------------------
 #p b3lyp/6-31G(d) opt freq NoSymm scf=(MaxCycle=2000,NoVarAcc,NoIncFoc
 k) scrf=(iefpcm,read,solvent=water)
 ----------------------------------------------------------------------
 1/18=20,19=15,26=3,38=1,40=2/1,3;
 2/9=110,12=2,15=1,17=6,18=5,40=1/2;
 3/5=1,6=6,7=1,11=2,25=1,30=1,70=2203,71=1,72=1,74=-5/1,2,3;
 4//1;
 5/5=100002,7=2000,38=1,53=1/2;
 6/7=2,8=2,9=2,10=2,28=1/1;
 7/30=1/1,2,3,16;
 1/18=20,19=15,26=3/3(2);
 2/9=110,15=1/2;
 99//99;
 2/9=110,15=1/2;
 3/5=1,6=6,7=1,11=2,25=1,30=1,70=2205,71=1,72=1,74=-5/1,2,3;
 4/5=5,16=3,69=1/1;
 5/5=100002,7=2000,38=1,53=1/2;
 7/30=1/1,2,3,16;
 1/18=20,19=15,26=3/3(-5);
 2/9=110,15=1/2;
 6/7=2,8=2,9=2,10=2,19=2,28=1/1;
 99/9=1/99;
 Leave Link    1 at Mon Sep 21 05:44:26 2020, MaxMem=  2147483648 cpu:               0.1 elap:               0.0
 (Enter /prod/apps/gaussian/g16b1/l101.exe)
 --------------------
 SM36_m0.n.10.pdb.xyz
 --------------------
 Symbolic Z-matrix:
 Charge =  0 Multiplicity = 1
 O                    -0.342    -3.956     0.148 
 S                    -0.18     -2.574    -0.337 
 N                    -1.094    -1.633     0.718 
 C                    -1.837    -0.452     0.242 
 C                    -2.83      0.031     1.328 
 S                    -4.154     0.398     0.057 
 O                    -3.995     1.833    -0.441 
 C                    -2.937    -0.707    -0.824 
 C                    -0.908     0.685    -0.209 
 C                     0.036     1.231     0.877 
 C                     0.796     2.455     0.411 
 C                     0.163     3.705     0.339 
 C                     0.853     4.833    -0.103 
 C                     2.195     4.732    -0.483 
 C                     2.836     3.494    -0.415 
 C                     2.141     2.366     0.029 
 C                     1.519    -2.086    -0.061 
 C                     2.065    -2.197     1.22 
 C                     3.408    -1.88      1.407 
 C                     4.191    -1.468     0.323 
 C                     3.632    -1.37     -0.954 
 C                     2.285    -1.681    -1.154 
 O                    -0.511    -2.259    -1.737 
 H                    -1.675    -2.28      1.255 
 H                    -2.549     0.903     1.916 
 H                    -3.2      -0.761     1.984 
 H                    -2.735    -0.391    -1.847 
 H                    -3.333    -1.724    -0.808 
 H                    -1.562     1.489    -0.561 
 H                    -0.33      0.349    -1.076 
 H                     0.742     0.454     1.181 
 H                    -0.55      1.489     1.767 
 H                    -0.878     3.794     0.636 
 H                     0.347     5.792    -0.147 
 H                     2.734     5.609    -0.824 
 H                     3.879     3.404    -0.703 
 H                     2.646     1.406     0.083 
 H                     1.453    -2.518     2.054 
 H                     3.844    -1.957     2.397 
 H                     5.237    -1.225     0.473 
 H                     4.239    -1.053    -1.794 
 H                     1.829    -1.612    -2.134 
 
 ITRead=  0  0  0  0  0  0  0  0  0  0  0  0  0  0  0  0  0  0  0  0
 ITRead=  0  0  0  0  0  0  0  0  0  0  0  0  0  0  0  0  0  0  0  0
 ITRead=  0  0
 MicOpt= -1 -1 -1 -1 -1 -1 -1 -1 -1 -1 -1 -1 -1 -1 -1 -1 -1 -1 -1 -1
 MicOpt= -1 -1 -1 -1 -1 -1 -1 -1 -1 -1 -1 -1 -1 -1 -1 -1 -1 -1 -1 -1
 MicOpt= -1 -1
 NAtoms=     42 NQM=       42 NQMF=       0 NMMI=      0 NMMIF=      0
                NMic=       0 NMicF=      0.
                    Isotopes and Nuclear Properties:
 (Nuclear quadrupole moments (NQMom) in fm**2, nuclear magnetic moments (NMagM)
  in nuclear magnetons)

  Atom         1           2           3           4           5           6           7           8           9          10
 IAtWgt=          16          32          14          12          12          32          16          12          12          12
 AtmWgt=  15.9949146  31.9720718  14.0030740  12.0000000  12.0000000  31.9720718  15.9949146  12.0000000  12.0000000  12.0000000
 NucSpn=           0           0           2           0           0           0           0           0           0           0
 AtZEff=  -0.0000000  -0.0000000  -0.0000000  -0.0000000  -0.0000000  -0.0000000  -0.0000000  -0.0000000  -0.0000000  -0.0000000
 NQMom=    0.0000000   0.0000000   2.0440000   0.0000000   0.0000000   0.0000000   0.0000000   0.0000000   0.0000000   0.0000000
 NMagM=    0.0000000   0.0000000   0.4037610   0.0000000   0.0000000   0.0000000   0.0000000   0.0000000   0.0000000   0.0000000
 AtZNuc=   8.0000000  16.0000000   7.0000000   6.0000000   6.0000000  16.0000000   8.0000000   6.0000000   6.0000000   6.0000000

  Atom        11          12          13          14          15          16          17          18          19          20
 IAtWgt=          12          12          12          12          12          12          12          12          12          12
 AtmWgt=  12.0000000  12.0000000  12.0000000  12.0000000  12.0000000  12.0000000  12.0000000  12.0000000  12.0000000  12.0000000
 NucSpn=           0           0           0           0           0           0           0           0           0           0
 AtZEff=  -0.0000000  -0.0000000  -0.0000000  -0.0000000  -0.0000000  -0.0000000  -0.0000000  -0.0000000  -0.0000000  -0.0000000
 NQMom=    0.0000000   0.0000000   0.0000000   0.0000000   0.0000000   0.0000000   0.0000000   0.0000000   0.0000000   0.0000000
 NMagM=    0.0000000   0.0000000   0.0000000   0.0000000   0.0000000   0.0000000   0.0000000   0.0000000   0.0000000   0.0000000
 AtZNuc=   6.0000000   6.0000000   6.0000000   6.0000000   6.0000000   6.0000000   6.0000000   6.0000000   6.0000000   6.0000000

  Atom        21          22          23          24          25          26          27          28          29          30
 IAtWgt=          12          12          16           1           1           1           1           1           1           1
 AtmWgt=  12.0000000  12.0000000  15.9949146   1.0078250   1.0078250   1.0078250   1.0078250   1.0078250   1.0078250   1.0078250
 NucSpn=           0           0           0           1           1           1           1           1           1           1
 AtZEff=  -0.0000000  -0.0000000  -0.0000000  -0.0000000  -0.0000000  -0.0000000  -0.0000000  -0.0000000  -0.0000000  -0.0000000
 NQMom=    0.0000000   0.0000000   0.0000000   0.0000000   0.0000000   0.0000000   0.0000000   0.0000000   0.0000000   0.0000000
 NMagM=    0.0000000   0.0000000   0.0000000   2.7928460   2.7928460   2.7928460   2.7928460   2.7928460   2.7928460   2.7928460
 AtZNuc=   6.0000000   6.0000000   8.0000000   1.0000000   1.0000000   1.0000000   1.0000000   1.0000000   1.0000000   1.0000000

  Atom        31          32          33          34          35          36          37          38          39          40
 IAtWgt=           1           1           1           1           1           1           1           1           1           1
 AtmWgt=   1.0078250   1.0078250   1.0078250   1.0078250   1.0078250   1.0078250   1.0078250   1.0078250   1.0078250   1.0078250
 NucSpn=           1           1           1           1           1           1           1           1           1           1
 AtZEff=  -0.0000000  -0.0000000  -0.0000000  -0.0000000  -0.0000000  -0.0000000  -0.0000000  -0.0000000  -0.0000000  -0.0000000
 NQMom=    0.0000000   0.0000000   0.0000000   0.0000000   0.0000000   0.0000000   0.0000000   0.0000000   0.0000000   0.0000000
 NMagM=    2.7928460   2.7928460   2.7928460   2.7928460   2.7928460   2.7928460   2.7928460   2.7928460   2.7928460   2.7928460
 AtZNuc=   1.0000000   1.0000000   1.0000000   1.0000000   1.0000000   1.0000000   1.0000000   1.0000000   1.0000000   1.0000000

  Atom        41          42
 IAtWgt=           1           1
 AtmWgt=   1.0078250   1.0078250
 NucSpn=           1           1
 AtZEff=  -0.0000000  -0.0000000
 NQMom=    0.0000000   0.0000000
 NMagM=    2.7928460   2.7928460
 AtZNuc=   1.0000000   1.0000000
 Leave Link  101 at Mon Sep 21 05:44:27 2020, MaxMem=  2147483648 cpu:               1.3 elap:               0.3
 (Enter /prod/apps/gaussian/g16b1/l103.exe)

 GradGradGradGradGradGradGradGradGradGradGradGradGradGradGradGradGradGrad
 Berny optimization.
 Initialization pass.
                           ----------------------------
                           !    Initial Parameters    !
                           ! (Angstroms and Degrees)  !
 --------------------------                            --------------------------
 ! Name  Definition              Value          Derivative Info.                !
 --------------------------------------------------------------------------------
 ! R1    R(1,2)                  1.4736         estimate D2E/DX2                !
 ! R2    R(2,3)                  1.6834         estimate D2E/DX2                !
 ! R3    R(2,17)                 1.7891         estimate D2E/DX2                !
 ! R4    R(2,23)                 1.4727         estimate D2E/DX2                !
 ! R5    R(3,4)                  1.4742         estimate D2E/DX2                !
 ! R6    R(3,24)                 1.022          estimate D2E/DX2                !
 ! R7    R(4,5)                  1.5488         estimate D2E/DX2                !
 ! R8    R(4,8)                  1.5529         estimate D2E/DX2                !
 ! R9    R(4,9)                  1.536          estimate D2E/DX2                !
 ! R10   R(5,6)                  1.8717         estimate D2E/DX2                !
 ! R11   R(5,25)                 1.0886         estimate D2E/DX2                !
 ! R12   R(5,26)                 1.0929         estimate D2E/DX2                !
 ! R13   R(6,7)                  1.5273         estimate D2E/DX2                !
 ! R14   R(6,8)                  1.865          estimate D2E/DX2                !
 ! R15   R(8,27)                 1.0896         estimate D2E/DX2                !
 ! R16   R(8,28)                 1.0915         estimate D2E/DX2                !
 ! R17   R(9,10)                 1.539          estimate D2E/DX2                !
 ! R18   R(9,29)                 1.0945         estimate D2E/DX2                !
 ! R19   R(9,30)                 1.0948         estimate D2E/DX2                !
 ! R20   R(10,11)                1.5142         estimate D2E/DX2                !
 ! R21   R(10,31)                1.093          estimate D2E/DX2                !
 ! R22   R(10,32)                1.0964         estimate D2E/DX2                !
 ! R23   R(11,12)                1.403          estimate D2E/DX2                !
 ! R24   R(11,16)                1.401          estimate D2E/DX2                !
 ! R25   R(12,13)                1.3942         estimate D2E/DX2                !
 ! R26   R(12,33)                1.0862         estimate D2E/DX2                !
 ! R27   R(13,14)                1.3984         estimate D2E/DX2                !
 ! R28   R(13,34)                1.0852         estimate D2E/DX2                !
 ! R29   R(14,15)                1.3958         estimate D2E/DX2                !
 ! R30   R(14,35)                1.0844         estimate D2E/DX2                !
 ! R31   R(15,16)                1.3973         estimate D2E/DX2                !
 ! R32   R(15,36)                1.0858         estimate D2E/DX2                !
 ! R33   R(16,37)                1.0861         estimate D2E/DX2                !
 ! R34   R(17,18)                1.3969         estimate D2E/DX2                !
 ! R35   R(17,22)                1.3948         estimate D2E/DX2                !
 ! R36   R(18,19)                1.3925         estimate D2E/DX2                !
 ! R37   R(18,38)                1.0831         estimate D2E/DX2                !
 ! R38   R(19,20)                1.3992         estimate D2E/DX2                !
 ! R39   R(19,39)                1.0845         estimate D2E/DX2                !
 ! R40   R(20,21)                1.3974         estimate D2E/DX2                !
 ! R41   R(20,40)                1.0843         estimate D2E/DX2                !
 ! R42   R(21,22)                1.3968         estimate D2E/DX2                !
 ! R43   R(21,41)                1.0838         estimate D2E/DX2                !
 ! R44   R(22,42)                1.0831         estimate D2E/DX2                !
 ! A1    A(1,2,3)              104.9686         estimate D2E/DX2                !
 ! A2    A(1,2,17)             108.0254         estimate D2E/DX2                !
 ! A3    A(1,2,23)             119.2608         estimate D2E/DX2                !
 ! A4    A(3,2,17)             105.4531         estimate D2E/DX2                !
 ! A5    A(3,2,23)             110.7429         estimate D2E/DX2                !
 ! A6    A(17,2,23)            107.5628         estimate D2E/DX2                !
 ! A7    A(2,3,4)              121.2708         estimate D2E/DX2                !
 ! A8    A(2,3,24)             106.5032         estimate D2E/DX2                !
 ! A9    A(4,3,24)             112.9717         estimate D2E/DX2                !
 ! A10   A(3,4,5)              110.2768         estimate D2E/DX2                !
 ! A11   A(3,4,8)              116.5583         estimate D2E/DX2                !
 ! A12   A(3,4,9)              112.5186         estimate D2E/DX2                !
 ! A13   A(5,4,8)               94.4962         estimate D2E/DX2                !
 ! A14   A(5,4,9)              111.2736         estimate D2E/DX2                !
 ! A15   A(8,4,9)              110.3916         estimate D2E/DX2                !
 ! A16   A(4,5,6)               92.2081         estimate D2E/DX2                !
 ! A17   A(4,5,25)             117.5838         estimate D2E/DX2                !
 ! A18   A(4,5,26)             114.3265         estimate D2E/DX2                !
 ! A19   A(6,5,25)             113.0992         estimate D2E/DX2                !
 ! A20   A(6,5,26)             108.0718         estimate D2E/DX2                !
 ! A21   A(25,5,26)            110.0992         estimate D2E/DX2                !
 ! A22   A(5,6,7)              109.3916         estimate D2E/DX2                !
 ! A23   A(5,6,8)               75.108          estimate D2E/DX2                !
 ! A24   A(7,6,8)              109.5562         estimate D2E/DX2                !
 ! A25   A(4,8,6)               92.3307         estimate D2E/DX2                !
 ! A26   A(4,8,27)             117.7474         estimate D2E/DX2                !
 ! A27   A(4,8,28)             113.5746         estimate D2E/DX2                !
 ! A28   A(6,8,27)             113.1201         estimate D2E/DX2                !
 ! A29   A(6,8,28)             107.9617         estimate D2E/DX2                !
 ! A30   A(27,8,28)            110.5638         estimate D2E/DX2                !
 ! A31   A(4,9,10)             115.2397         estimate D2E/DX2                !
 ! A32   A(4,9,29)             106.0686         estimate D2E/DX2                !
 ! A33   A(4,9,30)             108.9445         estimate D2E/DX2                !
 ! A34   A(10,9,29)            109.4404         estimate D2E/DX2                !
 ! A35   A(10,9,30)            110.1116         estimate D2E/DX2                !
 ! A36   A(29,9,30)            106.6308         estimate D2E/DX2                !
 ! A37   A(9,10,11)            112.1765         estimate D2E/DX2                !
 ! A38   A(9,10,31)            109.8929         estimate D2E/DX2                !
 ! A39   A(9,10,32)            109.1748         estimate D2E/DX2                !
 ! A40   A(11,10,31)           109.6358         estimate D2E/DX2                !
 ! A41   A(11,10,32)           109.1388         estimate D2E/DX2                !
 ! A42   A(31,10,32)           106.6637         estimate D2E/DX2                !
 ! A43   A(10,11,12)           120.6323         estimate D2E/DX2                !
 ! A44   A(10,11,16)           120.9567         estimate D2E/DX2                !
 ! A45   A(12,11,16)           118.4078         estimate D2E/DX2                !
 ! A46   A(11,12,13)           120.9181         estimate D2E/DX2                !
 ! A47   A(11,12,33)           119.4313         estimate D2E/DX2                !
 ! A48   A(13,12,33)           119.6501         estimate D2E/DX2                !
 ! A49   A(12,13,14)           120.1754         estimate D2E/DX2                !
 ! A50   A(12,13,34)           119.806          estimate D2E/DX2                !
 ! A51   A(14,13,34)           120.018          estimate D2E/DX2                !
 ! A52   A(13,14,15)           119.4421         estimate D2E/DX2                !
 ! A53   A(13,14,35)           120.2673         estimate D2E/DX2                !
 ! A54   A(15,14,35)           120.2903         estimate D2E/DX2                !
 ! A55   A(14,15,16)           120.2033         estimate D2E/DX2                !
 ! A56   A(14,15,36)           120.1163         estimate D2E/DX2                !
 ! A57   A(16,15,36)           119.6798         estimate D2E/DX2                !
 ! A58   A(11,16,15)           120.8533         estimate D2E/DX2                !
 ! A59   A(11,16,37)           119.2736         estimate D2E/DX2                !
 ! A60   A(15,16,37)           119.8728         estimate D2E/DX2                !
 ! A61   A(2,17,18)            119.4039         estimate D2E/DX2                !
 ! A62   A(2,17,22)            118.6749         estimate D2E/DX2                !
 ! A63   A(18,17,22)           121.8043         estimate D2E/DX2                !
 ! A64   A(17,18,19)           118.8171         estimate D2E/DX2                !
 ! A65   A(17,18,38)           120.584          estimate D2E/DX2                !
 ! A66   A(19,18,38)           120.5977         estimate D2E/DX2                !
 ! A67   A(18,19,20)           120.1777         estimate D2E/DX2                !
 ! A68   A(18,19,39)           119.6144         estimate D2E/DX2                !
 ! A69   A(20,19,39)           120.2077         estimate D2E/DX2                !
 ! A70   A(19,20,21)           120.3142         estimate D2E/DX2                !
 ! A71   A(19,20,40)           119.9105         estimate D2E/DX2                !
 ! A72   A(21,20,40)           119.7752         estimate D2E/DX2                !
 ! A73   A(20,21,22)           120.0647         estimate D2E/DX2                !
 ! A74   A(20,21,41)           120.3147         estimate D2E/DX2                !
 ! A75   A(22,21,41)           119.6206         estimate D2E/DX2                !
 ! A76   A(17,22,21)           118.819          estimate D2E/DX2                !
 ! A77   A(17,22,42)           119.757          estimate D2E/DX2                !
 ! A78   A(21,22,42)           121.4239         estimate D2E/DX2                !
 ! D1    D(1,2,3,4)           -144.0093         estimate D2E/DX2                !
 ! D2    D(1,2,3,24)           -13.0015         estimate D2E/DX2                !
 ! D3    D(17,2,3,4)           102.0224         estimate D2E/DX2                !
 ! D4    D(17,2,3,24)         -126.9698         estimate D2E/DX2                !
 ! D5    D(23,2,3,4)           -14.0473         estimate D2E/DX2                !
 ! D6    D(23,2,3,24)          116.9605         estimate D2E/DX2                !
 ! D7    D(1,2,17,18)          -54.1399         estimate D2E/DX2                !
 ! D8    D(1,2,17,22)          122.0025         estimate D2E/DX2                !
 ! D9    D(3,2,17,18)           57.6846         estimate D2E/DX2                !
 ! D10   D(3,2,17,22)         -126.173          estimate D2E/DX2                !
 ! D11   D(23,2,17,18)         175.9086         estimate D2E/DX2                !
 ! D12   D(23,2,17,22)          -7.949          estimate D2E/DX2                !
 ! D13   D(2,3,4,5)            167.2468         estimate D2E/DX2                !
 ! D14   D(2,3,4,8)             61.0998         estimate D2E/DX2                !
 ! D15   D(2,3,4,9)            -67.8712         estimate D2E/DX2                !
 ! D16   D(24,3,4,5)            39.0464         estimate D2E/DX2                !
 ! D17   D(24,3,4,8)           -67.1006         estimate D2E/DX2                !
 ! D18   D(24,3,4,9)           163.9284         estimate D2E/DX2                !
 ! D19   D(3,4,5,6)           -140.1397         estimate D2E/DX2                !
 ! D20   D(3,4,5,25)           102.2725         estimate D2E/DX2                !
 ! D21   D(3,4,5,26)           -29.155          estimate D2E/DX2                !
 ! D22   D(8,4,5,6)            -19.6642         estimate D2E/DX2                !
 ! D23   D(8,4,5,25)          -137.252          estimate D2E/DX2                !
 ! D24   D(8,4,5,26)            91.3205         estimate D2E/DX2                !
 ! D25   D(9,4,5,6)             94.2699         estimate D2E/DX2                !
 ! D26   D(9,4,5,25)           -23.318          estimate D2E/DX2                !
 ! D27   D(9,4,5,26)          -154.7455         estimate D2E/DX2                !
 ! D28   D(3,4,8,6)            135.0759         estimate D2E/DX2                !
 ! D29   D(3,4,8,27)          -107.1843         estimate D2E/DX2                !
 ! D30   D(3,4,8,28)            24.313          estimate D2E/DX2                !
 ! D31   D(5,4,8,6)             19.7389         estimate D2E/DX2                !
 ! D32   D(5,4,8,27)           137.4787         estimate D2E/DX2                !
 ! D33   D(5,4,8,28)           -91.024          estimate D2E/DX2                !
 ! D34   D(9,4,8,6)            -94.9383         estimate D2E/DX2                !
 ! D35   D(9,4,8,27)            22.8016         estimate D2E/DX2                !
 ! D36   D(9,4,8,28)           154.2989         estimate D2E/DX2                !
 ! D37   D(3,4,9,10)           -60.1354         estimate D2E/DX2                !
 ! D38   D(3,4,9,29)           178.6195         estimate D2E/DX2                !
 ! D39   D(3,4,9,30)            64.178          estimate D2E/DX2                !
 ! D40   D(5,4,9,10)            64.1986         estimate D2E/DX2                !
 ! D41   D(5,4,9,29)           -57.0464         estimate D2E/DX2                !
 ! D42   D(5,4,9,30)          -171.488          estimate D2E/DX2                !
 ! D43   D(8,4,9,10)           167.7599         estimate D2E/DX2                !
 ! D44   D(8,4,9,29)            46.5148         estimate D2E/DX2                !
 ! D45   D(8,4,9,30)           -67.9267         estimate D2E/DX2                !
 ! D46   D(4,5,6,7)            -89.0782         estimate D2E/DX2                !
 ! D47   D(4,5,6,8)             16.7999         estimate D2E/DX2                !
 ! D48   D(25,5,6,7)            32.2691         estimate D2E/DX2                !
 ! D49   D(25,5,6,8)           138.1472         estimate D2E/DX2                !
 ! D50   D(26,5,6,7)           154.4207         estimate D2E/DX2                !
 ! D51   D(26,5,6,8)           -99.7012         estimate D2E/DX2                !
 ! D52   D(5,6,8,4)            -16.756          estimate D2E/DX2                !
 ! D53   D(5,6,8,27)          -138.3589         estimate D2E/DX2                !
 ! D54   D(5,6,8,28)            98.9642         estimate D2E/DX2                !
 ! D55   D(7,6,8,4)             88.9161         estimate D2E/DX2                !
 ! D56   D(7,6,8,27)           -32.6869         estimate D2E/DX2                !
 ! D57   D(7,6,8,28)          -155.3638         estimate D2E/DX2                !
 ! D58   D(4,9,10,11)         -172.9766         estimate D2E/DX2                !
 ! D59   D(4,9,10,31)           64.7873         estimate D2E/DX2                !
 ! D60   D(4,9,10,32)          -51.8728         estimate D2E/DX2                !
 ! D61   D(29,9,10,11)         -53.5779         estimate D2E/DX2                !
 ! D62   D(29,9,10,31)        -175.8139         estimate D2E/DX2                !
 ! D63   D(29,9,10,32)          67.526          estimate D2E/DX2                !
 ! D64   D(30,9,10,11)          63.3235         estimate D2E/DX2                !
 ! D65   D(30,9,10,31)         -58.9125         estimate D2E/DX2                !
 ! D66   D(30,9,10,32)        -175.5726         estimate D2E/DX2                !
 ! D67   D(9,10,11,12)          76.2641         estimate D2E/DX2                !
 ! D68   D(9,10,11,16)        -103.082          estimate D2E/DX2                !
 ! D69   D(31,10,11,12)       -161.3537         estimate D2E/DX2                !
 ! D70   D(31,10,11,16)         19.3002         estimate D2E/DX2                !
 ! D71   D(32,10,11,12)        -44.8605         estimate D2E/DX2                !
 ! D72   D(32,10,11,16)        135.7934         estimate D2E/DX2                !
 ! D73   D(10,11,12,13)       -179.2982         estimate D2E/DX2                !
 ! D74   D(10,11,12,33)          0.9524         estimate D2E/DX2                !
 ! D75   D(16,11,12,13)          0.0643         estimate D2E/DX2                !
 ! D76   D(16,11,12,33)       -179.6851         estimate D2E/DX2                !
 ! D77   D(10,11,16,15)        179.2733         estimate D2E/DX2                !
 ! D78   D(10,11,16,37)         -0.8852         estimate D2E/DX2                !
 ! D79   D(12,11,16,15)         -0.0871         estimate D2E/DX2                !
 ! D80   D(12,11,16,37)        179.7545         estimate D2E/DX2                !
 ! D81   D(11,12,13,14)         -0.003          estimate D2E/DX2                !
 ! D82   D(11,12,13,34)       -179.7055         estimate D2E/DX2                !
 ! D83   D(33,12,13,14)        179.7458         estimate D2E/DX2                !
 ! D84   D(33,12,13,34)          0.0433         estimate D2E/DX2                !
 ! D85   D(12,13,14,15)         -0.0368         estimate D2E/DX2                !
 ! D86   D(12,13,14,35)       -179.8043         estimate D2E/DX2                !
 ! D87   D(34,13,14,15)        179.665          estimate D2E/DX2                !
 ! D88   D(34,13,14,35)         -0.1024         estimate D2E/DX2                !
 ! D89   D(13,14,15,16)          0.0142         estimate D2E/DX2                !
 ! D90   D(13,14,15,36)       -179.7179         estimate D2E/DX2                !
 ! D91   D(35,14,15,16)        179.7816         estimate D2E/DX2                !
 ! D92   D(35,14,15,36)          0.0495         estimate D2E/DX2                !
 ! D93   D(14,15,16,11)          0.0488         estimate D2E/DX2                !
 ! D94   D(14,15,16,37)       -179.7919         estimate D2E/DX2                !
 ! D95   D(36,15,16,11)        179.782          estimate D2E/DX2                !
 ! D96   D(36,15,16,37)         -0.0586         estimate D2E/DX2                !
 ! D97   D(2,17,18,19)         176.6886         estimate D2E/DX2                !
 ! D98   D(2,17,18,38)          -3.6875         estimate D2E/DX2                !
 ! D99   D(22,17,18,19)          0.6712         estimate D2E/DX2                !
 ! D100  D(22,17,18,38)       -179.7049         estimate D2E/DX2                !
 ! D101  D(2,17,22,21)        -176.5145         estimate D2E/DX2                !
 ! D102  D(2,17,22,42)           3.5903         estimate D2E/DX2                !
 ! D103  D(18,17,22,21)         -0.469          estimate D2E/DX2                !
 ! D104  D(18,17,22,42)        179.6358         estimate D2E/DX2                !
 ! D105  D(17,18,19,20)         -0.464          estimate D2E/DX2                !
 ! D106  D(17,18,19,39)        179.7067         estimate D2E/DX2                !
 ! D107  D(38,18,19,20)        179.9121         estimate D2E/DX2                !
 ! D108  D(38,18,19,39)          0.0828         estimate D2E/DX2                !
 ! D109  D(18,19,20,21)          0.0721         estimate D2E/DX2                !
 ! D110  D(18,19,20,40)       -179.8221         estimate D2E/DX2                !
 ! D111  D(39,19,20,21)        179.9003         estimate D2E/DX2                !
 ! D112  D(39,19,20,40)          0.0062         estimate D2E/DX2                !
 ! D113  D(19,20,21,22)          0.1339         estimate D2E/DX2                !
 ! D114  D(19,20,21,41)       -179.8644         estimate D2E/DX2                !
 ! D115  D(40,20,21,22)       -179.9718         estimate D2E/DX2                !
 ! D116  D(40,20,21,41)          0.0299         estimate D2E/DX2                !
 ! D117  D(20,21,22,17)          0.0599         estimate D2E/DX2                !
 ! D118  D(20,21,22,42)        179.9533         estimate D2E/DX2                !
 ! D119  D(41,21,22,17)       -179.9418         estimate D2E/DX2                !
 ! D120  D(41,21,22,42)         -0.0484         estimate D2E/DX2                !
 --------------------------------------------------------------------------------
 Trust Radius=3.00D-01 FncErr=1.00D-07 GrdErr=1.00D-06 EigMax=2.50D+02 EigMin=1.00D-04
 Number of steps in this run=    252 maximum allowed number of steps=    252.
 GradGradGradGradGradGradGradGradGradGradGradGradGradGradGradGradGradGrad

 Leave Link  103 at Mon Sep 21 05:44:27 2020, MaxMem=  2147483648 cpu:               0.1 elap:               0.0
 (Enter /prod/apps/gaussian/g16b1/l202.exe)
                          Input orientation:                          
 ---------------------------------------------------------------------
 Center     Atomic      Atomic             Coordinates (Angstroms)
 Number     Number       Type             X           Y           Z
 ---------------------------------------------------------------------
      1          8           0       -0.342000   -3.956000    0.148000
      2         16           0       -0.180000   -2.574000   -0.337000
      3          7           0       -1.094000   -1.633000    0.718000
      4          6           0       -1.837000   -0.452000    0.242000
      5          6           0       -2.830000    0.031000    1.328000
      6         16           0       -4.154000    0.398000    0.057000
      7          8           0       -3.995000    1.833000   -0.441000
      8          6           0       -2.937000   -0.707000   -0.824000
      9          6           0       -0.908000    0.685000   -0.209000
     10          6           0        0.036000    1.231000    0.877000
     11          6           0        0.796000    2.455000    0.411000
     12          6           0        0.163000    3.705000    0.339000
     13          6           0        0.853000    4.833000   -0.103000
     14          6           0        2.195000    4.732000   -0.483000
     15          6           0        2.836000    3.494000   -0.415000
     16          6           0        2.141000    2.366000    0.029000
     17          6           0        1.519000   -2.086000   -0.061000
     18          6           0        2.065000   -2.197000    1.220000
     19          6           0        3.408000   -1.880000    1.407000
     20          6           0        4.191000   -1.468000    0.323000
     21          6           0        3.632000   -1.370000   -0.954000
     22          6           0        2.285000   -1.681000   -1.154000
     23          8           0       -0.511000   -2.259000   -1.737000
     24          1           0       -1.675000   -2.280000    1.255000
     25          1           0       -2.549000    0.903000    1.916000
     26          1           0       -3.200000   -0.761000    1.984000
     27          1           0       -2.735000   -0.391000   -1.847000
     28          1           0       -3.333000   -1.724000   -0.808000
     29          1           0       -1.562000    1.489000   -0.561000
     30          1           0       -0.330000    0.349000   -1.076000
     31          1           0        0.742000    0.454000    1.181000
     32          1           0       -0.550000    1.489000    1.767000
     33          1           0       -0.878000    3.794000    0.636000
     34          1           0        0.347000    5.792000   -0.147000
     35          1           0        2.734000    5.609000   -0.824000
     36          1           0        3.879000    3.404000   -0.703000
     37          1           0        2.646000    1.406000    0.083000
     38          1           0        1.453000   -2.518000    2.054000
     39          1           0        3.844000   -1.957000    2.397000
     40          1           0        5.237000   -1.225000    0.473000
     41          1           0        4.239000   -1.053000   -1.794000
     42          1           0        1.829000   -1.612000   -2.134000
 ---------------------------------------------------------------------
                    Distance matrix (angstroms):
                    1          2          3          4          5
     1  O    0.000000
     2  S    1.473565   0.000000
     3  N    2.507336   1.683420   0.000000
     4  C    3.810758   2.753865   1.474241   0.000000
     5  C    4.845484   4.071947   2.480865   1.548785   0.000000
     6  S    5.787654   4.978021   3.731686   2.474917   1.871659
     7  O    6.870506   5.829810   4.666073   3.216314   2.780969
     8  C    4.270224   3.365101   2.575245   1.552862   2.277542
     9  C    4.688996   3.341773   2.503407   1.535972   2.546403
    10  C    5.251599   3.999810   3.082966   2.596891   3.139643
    11  C    6.516528   5.177154   4.514210   3.925799   4.456965
    12  C    7.680002   6.324592   5.497084   4.614115   4.840914
    13  C    8.873418   7.482345   6.802500   5.940231   6.218638
    14  C    9.072810   7.683722   7.264513   6.607307   7.115458
    15  C    8.119061   6.776648   6.558561   6.151381   6.865419
    16  C    6.793168   5.470338   5.189600   4.879649   5.643622
    17  C    2.646489   1.789112   2.764022   3.744930   5.032376
    18  C    3.168109   2.757971   3.247981   4.384873   5.379282
    19  C    4.467366   4.049311   4.561111   5.559356   6.524631
    20  C    5.173863   4.556806   5.302308   6.113559   7.249239
    21  C    4.867697   4.044954   5.019943   5.673015   6.994839
    22  C    3.711059   2.746118   3.863202   4.522183   5.937549
    23  O    2.541967   1.472680   2.599767   2.989978   4.473934
    24  H    2.410667   2.203616   1.022027   2.096186   2.584584
    25  H    5.621971   4.772599   3.159672   2.268313   1.088618
    26  H    4.663377   4.218342   2.607370   2.233341   1.092932
    27  H    4.734522   3.684239   3.288567   2.274653   3.204331
    28  H    3.852511   3.299356   2.711103   2.226769   2.809899
    29  H    5.624865   4.297449   3.406134   2.118470   2.702204
    30  H    4.475639   3.018700   2.780370   2.156333   3.482864
    31  H    4.657279   3.510440   2.817949   2.890294   3.599961
    32  H    5.684404   4.590391   3.338146   2.783788   2.741694
    33  H    7.783826   6.479611   5.431916   4.370747   4.295269
    34  H    9.776771   8.384735   7.612840   6.626365   6.742260
    35  H   10.094344   8.700003   8.335341   7.665906   8.167208
    36  H    8.527054   7.235048   7.219511   6.959484   7.778996
    37  H    6.138682   4.899293   4.860694   4.855382   5.781628
    38  H    2.987090   2.895981   3.009208   4.286700   5.036722
    39  H    5.155250   4.903878   5.225692   6.259617   7.045366
    40  H    6.220066   5.640903   6.348862   7.119857   8.208840
    41  H    5.760585   4.895289   5.923465   6.436169   7.803378
    42  H    3.926207   2.861946   4.083904   4.520015   6.032510
                    6          7          8          9         10
     6  S    0.000000
     7  O    1.527256   0.000000
     8  C    1.865013   2.778066   0.000000
     9  C    3.269502   3.301711   2.536283   0.000000
    10  C    4.349987   4.283514   3.935476   1.539041   0.000000
    11  C    5.372063   4.905759   5.045667   2.533953   1.514243
    12  C    5.445389   4.626202   5.516186   3.250807   2.535005
    13  C    6.690656   5.711160   6.750966   4.507578   3.821295
    14  C    7.706164   6.835354   7.485748   5.107044   4.332191
    15  C    7.659510   7.030089   7.151448   4.685131   3.824975
    16  C    6.595516   6.177013   5.996417   3.489815   2.537391
    17  C    6.194119   6.775482   4.726494   3.686553   3.752549
    18  C    6.838315   7.464812   5.605180   4.380262   3.998209
    19  C    8.012217   8.485628   6.827321   5.274328   4.618399
    20  C    8.555217   8.859509   7.259691   5.560417   4.985533
    21  C    8.047965   8.288155   6.603653   5.038814   4.800935
    22  C    6.873826   7.231526   5.322298   4.084878   4.202702
    23  O    4.852786   5.528321   3.021216   3.340588   4.394577
    24  H    3.840876   5.017528   2.896414   3.394526   3.923968
    25  H    2.507375   2.917407   3.201600   2.693702   2.805233
    26  H    2.442688   3.638885   2.820806   3.486177   3.957930
    27  H    2.502259   2.917295   1.089582   2.679319   4.210641
    28  H    2.434163   3.636644   1.091495   3.470260   4.787631
    29  H    2.879352   2.460127   2.604268   1.094548   2.165182
    30  H    3.988617   4.004710   2.824020   1.094837   2.173957
    31  H    5.023677   5.193428   4.347757   2.169784   1.092969
    32  H    4.135601   4.106291   4.151321   2.163136   1.096385
    33  H    4.753970   3.836814   5.160434   3.221926   2.731748
    34  H    7.028218   5.883288   7.313001   5.259308   4.684871
    35  H    8.681891   7.725562   8.488351   6.155336   5.416594
    36  H    8.610617   8.033465   7.960705   5.527419   4.689027
    37  H    6.874354   6.675312   6.037989   3.638134   2.733708
    38  H    6.627934   7.405196   5.552901   4.577630   4.177107
    39  H    8.659655   9.157962   7.610473   6.029337   5.193709
    40  H    9.539291   9.768141   8.292455   6.471032   5.765896
    41  H    8.716309   8.829403   7.249524   5.659017   5.478696
    42  H    6.681083   6.975188   5.024926   4.058695   4.512607
                   11         12         13         14         15
    11  C    0.000000
    12  C    1.402987   0.000000
    13  C    2.433584   1.394219   0.000000
    14  C    2.818007   2.420627   1.398415   0.000000
    15  C    2.433803   2.785313   2.412997   1.395761   0.000000
    16  C    1.401025   2.408631   2.786119   2.421367   1.397335
    17  C    4.622358   5.961075   6.951106   6.864414   5.744232
    18  C    4.889371   6.263176   7.255355   7.136396   5.971193
    19  C    5.158177   6.546974   7.339788   6.982980   5.703222
    20  C    5.188805   6.556292   7.143271   6.563052   5.196356
    21  C    4.953458   6.281834   6.850128   6.286590   4.958088
    22  C    4.666138   5.978372   6.751846   6.448636   5.256458
    23  O    5.342654   6.350854   7.404520   7.600594   6.785802
    24  H    5.407255   6.327521   7.670053   8.195468   7.515125
    25  H    3.982807   4.206314   5.576277   6.551487   6.414442
    26  H    5.365166   5.827602   7.216316   8.084872   7.764890
    27  H    5.066186   5.473044   6.573086   7.239511   6.941174
    28  H    5.999887   6.558328   7.811138   8.505548   8.089409
    29  H    2.727289   2.948946   4.150220   4.963686   4.835674
    30  H    2.813233   3.675324   4.738404   5.092933   4.511264
    31  H    2.144718   3.407815   4.564714   4.814705   4.021648
    32  H    2.140936   2.730972   4.080153   4.807762   4.499572
    33  H    2.155417   1.086191   2.149884   3.402254   3.871485
    34  H    3.412995   2.150726   1.085197   2.156757   3.398198
    35  H    3.902408   3.404090   2.158745   1.084404   2.156597
    36  H    3.412695   3.871049   3.399811   2.155885   1.085768
    37  H    2.151856   3.393557   3.872179   3.403826   2.154959
    38  H    5.278430   6.582633   7.684390   7.716828   6.644757
    39  H    5.718413   7.059984   7.829443   7.467016   6.215851
    40  H    5.767905   7.075898   7.500040   6.756741   5.368641
    41  H    5.387238   6.618310   6.997819   6.273985   4.954317
    42  H    4.907607   6.096046   6.827559   6.565523   5.480898
                   16         17         18         19         20
    16  C    0.000000
    17  C    4.496141   0.000000
    18  C    4.716484   1.396924   0.000000
    19  C    4.640333   2.401204   1.392518   0.000000
    20  C    4.357579   2.769289   2.419902   1.399246   0.000000
    21  C    4.140902   2.403097   2.804584   2.425819   1.397431
    22  C    4.218819   1.394787   2.439371   2.803471   2.420689
    23  O    5.616270   2.638144   3.922177   5.038545   5.194043
    24  H    6.135980   3.459932   3.741085   5.100980   5.994825
    25  H    5.262817   5.421372   5.602090   6.594696   7.320307
    26  H    6.490488   5.310990   5.510537   6.726868   7.608262
    27  H    5.907267   4.915215   5.975628   7.109296   7.337459
    28  H    6.884282   4.922495   5.785751   7.097298   7.612836
    29  H    3.850901   4.745860   5.469341   6.318551   6.528577
    30  H    3.375671   3.221529   4.182076   5.010626   5.069332
    31  H    2.634397   2.932216   2.963048   3.550519   4.040526
    32  H    3.321333   4.516965   4.552365   5.210137   5.771141
    33  H    3.394406   6.387943   6.700327   7.152518   7.313096
    34  H    3.871290   7.965166   8.285188   8.405012   8.228295
    35  H    3.405335   7.827606   8.096859   7.843262   7.315900
    36  H    2.152652   6.010147   6.193523   5.709168   4.988627
    37  H    1.086067   3.672183   3.822557   3.623730   3.271773
    38  H    5.331738   2.159677   1.083116   2.155847   3.405217
    39  H    5.214975   3.385857   2.146572   1.084493   2.158936
    40  H    4.762104   3.853570   3.400644   2.155602   1.084281
    41  H    4.406188   3.386558   3.888343   3.408943   2.157827
    42  H    4.538766   2.148978   3.412805   3.886354   3.411250
                   21         22         23         24         25
    21  C    0.000000
    22  C    1.396829   0.000000
    23  O    4.309044   2.914033   0.000000
    24  H    5.819968   4.673722   3.210514   0.000000
    25  H    7.183884   6.282477   5.243672   3.366346   0.000000
    26  H    7.461833   6.385818   4.829137   2.272538   1.788105
    27  H    6.503428   5.229221   2.906493   3.783428   3.983617
    28  H    6.975518   5.628809   3.018766   2.704454   3.864707
    29  H    5.941882   5.019956   4.066335   4.185210   2.730036
    30  H    4.320566   3.311376   2.696543   3.762210   3.766025
    31  H    4.029553   3.520128   4.176733   3.649948   3.401839
    32  H    5.750378   5.159299   5.130988   3.966501   2.088444
    33  H    7.038117   6.571476   6.511884   6.157260   3.576104
    34  H    7.920651   7.785604   8.251234   8.438677   6.045255
    35  H    7.037737   7.311265   8.559732   9.273502   7.587103
    36  H    4.786970   5.348033   7.239532   8.184652   7.377896
    37  H    3.123098   3.345155   5.168295   5.799243   5.531810
    38  H    3.887674   3.418195   4.277389   3.237195   5.266715
    39  H    3.408623   3.887963   6.012253   5.645162   7.020072
    40  H    2.152529   3.401378   6.244418   7.035644   8.199538
    41  H    1.083761   2.149907   4.901039   6.765894   7.979159
    42  H    2.168357   1.083096   2.460044   4.920321   6.472604
                   26         27         28         29         30
    26  H    0.000000
    27  H    3.876814   0.000000
    28  H    2.956404   1.792767   0.000000
    29  H    3.771282   2.562055   3.677067   0.000000
    30  H    4.339654   2.631742   3.658847   1.755747   0.000000
    31  H    4.202428   4.687466   5.030450   3.068258   2.500851
    32  H    3.483115   4.622729   4.969817   2.538450   3.070936
    33  H    5.287420   5.208451   6.209709   2.685831   3.885778
    34  H    7.750108   7.114648   8.394616   4.725620   5.563058
    35  H    9.147356   8.182695   9.517438   5.958119   6.092553
    36  H    8.641726   7.710756   8.849879   5.769911   5.214196
    37  H    6.518083   5.992434   6.807292   4.257803   3.364091
    38  H    4.974169   6.105839   5.632697   5.655484   4.603876
    39  H    7.156740   7.984180   7.863564   7.060419   5.899292
    40  H    8.583786   8.344504   8.679566   7.393332   5.989020
    41  H    8.348489   7.005550   7.665352   6.452415   4.832897
    42  H    6.555377   4.733213   5.330766   4.856893   3.102606
                   31         32         33         34         35
    31  H    0.000000
    32  H    1.756099   0.000000
    33  H    3.751936   2.588391   0.000000
    34  H    5.514876   4.794144   2.470975   0.000000
    35  H    5.878955   5.871315   4.297949   2.487888   0.000000
    36  H    4.700290   5.420716   4.957224   4.299617   2.487507
    37  H    2.395229   3.613469   4.292660   4.957348   4.300651
    38  H    3.178118   4.488923   6.876455   8.667395   8.716190
    39  H    4.112661   5.619524   7.646725   8.874004   8.297668
    40  H    4.850292   6.521472   7.912658   8.575243   7.392616
    41  H    4.832254   6.486679   7.455334   8.044520   6.898418
    42  H    4.054522   5.522105   6.650232   7.807926   7.394455
                   36         37         38         39         40
    36  H    0.000000
    37  H    2.475902   0.000000
    38  H    6.968257   4.550370   0.000000
    39  H    6.192863   4.254359   2.479768   0.000000
    40  H    4.965358   3.713158   4.300008   2.485568   0.000000
    41  H    4.602687   3.479577   4.971431   4.305545   2.482917
    42  H    5.604509   3.832871   4.301344   4.970836   4.308211
                   41         42
    41  H    0.000000
    42  H    2.497235   0.000000
 Symmetry turned off by external request.
 Stoichiometry    C17H19NO3S2
 Framework group  C1[X(C17H19NO3S2)]
 Deg. of freedom   120
 Full point group                 C1      NOp   1
 Rotational constants (GHZ):           0.2249124           0.2180467           0.1225034
 Leave Link  202 at Mon Sep 21 05:44:27 2020, MaxMem=  2147483648 cpu:               0.0 elap:               0.0
 (Enter /prod/apps/gaussian/g16b1/l301.exe)
 Standard basis: 6-31G(d) (6D, 7F)
 Ernie: Thresh=  0.10000D-02 Tol=  0.10000D-05 Strict=F.
   391 basis functions,   768 primitive gaussians,   391 cartesian basis functions
    92 alpha electrons       92 beta electrons
       nuclear repulsion energy      2308.7196264171 Hartrees.
 IExCor=  402 DFT=T Ex+Corr=B3LYP ExCW=0 ScaHFX=  0.200000
 ScaDFX=  0.800000  0.720000  1.000000  0.810000 ScalE2=  1.000000  1.000000
 IRadAn=      5 IRanWt=     -1 IRanGd=            0 ICorTp=0 IEmpDi=  4
 NAtoms=   42 NActive=   42 NUniq=   42 SFac= 1.00D+00 NAtFMM=   60 NAOKFM=F Big=F
 Integral buffers will be    131072 words long.
 Raffenetti 2 integral format.
 Two-electron integral symmetry is turned off.
 Using the following non-standard input for PCM:
 MSTModel=DFT cav
 --- end of non-standard input.
 MST model for solvation energy: B3LYP parametrization.
 MST cavity parameters:
 ISph   IAn     Re0     Alpha   Atom Type   QCorr
 ------------------------------------------------
   1      8     1.40     1.25      O          F
   2     16     1.75     1.25      S          F
   3      7     1.50     1.25      NH         F
   4      6     1.50     1.25      C          F
   5      6     1.50     1.25      CH2        F
   6     16     1.75     1.25      S          F
   7      8     1.40     1.25      O          F
   8      6     1.50     1.25      CH2        F
   9      6     1.50     1.25      CH2        F
  10      6     1.50     1.25      CH2        F
  11      6     1.50     1.25      C          F
  12      6     1.50     1.25      CH         F
  13      6     1.50     1.25      CH         F
  14      6     1.50     1.25      CH         F
  15      6     1.50     1.25      CH         F
  16      6     1.50     1.25      CH         F
  17      6     1.50     1.25      C          F
  18      6     1.50     1.25      CH         F
  19      6     1.50     1.25      CH         F
  20      6     1.50     1.25      CH         F
  21      6     1.50     1.25      CH         F
  22      6     1.50     1.25      CH         F
  23      8     1.40     1.25      O          F
  24      1     0.90     1.25      NH         F
  25      1     1.20     1.25      CH2        F
  26      1     1.20     1.25      CH2        F
  27      1     1.20     1.25      CH2        F
  28      1     1.20     1.25      CH2        F
  29      1     1.20     1.25      CH2        F
  30      1     1.20     1.25      CH2        F
  31      1     1.20     1.25      CH2        F
  32      1     1.20     1.25      CH2        F
  33      1     1.20     1.25      CH         F
  34      1     1.20     1.25      CH         F
  35      1     1.20     1.25      CH         F
  36      1     1.20     1.25      CH         F
  37      1     1.20     1.25      CH         F
  38      1     1.20     1.25      CH         F
  39      1     1.20     1.25      CH         F
  40      1     1.20     1.25      CH         F
  41      1     1.20     1.25      CH         F
  42      1     1.20     1.25      CH         F
 ------------------------------------------------------------------------------
 Polarizable Continuum Model (PCM)
 =================================
 Model                : PCM.
 Atomic radii         : MST.
 Polarization charges : Total charges.
 Charge compensation  : None.
 Solution method      : On-the-fly selection.
 Cavity type          : Scaled VdW (van der Waals Surface) (Alpha=1.250).
 Cavity algorithm     : GePol (No added spheres)
                        Default sphere list used, NSphG=   42.
                        Lebedev-Laikov grids with approx.  5.0 points / Ang**2.
                        Smoothing algorithm: York/Karplus (Gamma=1.0000).
                        Polarization charges: spherical gaussians, with
                                              point-specific exponents (IZeta= 3).
                        Self-potential: point-specific (ISelfS= 7).
                        Self-field    : sphere-specific E.n sum rule (ISelfD= 2).
 1st derivatives      : Analytical E(r).r(x)/FMM algorithm (CHGder, D1EAlg=3).
                        Cavity 1st derivative terms included.
 Solvent              : Water, Eps=  78.355300 Eps(inf)=   1.777849
 ------------------------------------------------------------------------------
 GePol: Number of generator spheres                  =      42
 GePol: Total number of spheres                      =      42
 GePol: Number of exposed spheres                    =      42 (100.00%)
 GePol: Number of points                             =    3031
 GePol: Average weight of points                     =       0.13
 GePol: Minimum weight of points                     =   0.25D-11
 GePol: Maximum weight of points                     =    0.22001
 GePol: Number of points with low weight             =     207
 GePol: Fraction of low-weight points (<1% of avg)   =       6.83%
 GePol: Cavity surface area                          =    393.905 Ang**2
 GePol: Cavity volume                                =    397.643 Ang**3
 PCM non-electrostatic energy =         0.0026664256 Hartrees.
 Nuclear repulsion after PCM non-electrostatic terms =     2308.7222928427 Hartrees.
 Leave Link  301 at Mon Sep 21 05:44:27 2020, MaxMem=  2147483648 cpu:               0.3 elap:               0.1
 (Enter /prod/apps/gaussian/g16b1/l302.exe)
 NPDir=0 NMtPBC=     1 NCelOv=     1 NCel=       1 NClECP=     1 NCelD=      1
         NCelK=      1 NCelE2=     1 NClLst=     1 CellRange=     0.0.
 One-electron integrals computed using PRISM.
 NBasis=   391 RedAO= T EigKep=  4.55D-04  NBF=   391
 NBsUse=   391 1.00D-06 EigRej= -1.00D+00 NBFU=   391
 Precomputing XC quadrature grid using
 IXCGrd= 4 IRadAn=           5 IRanWt=          -1 IRanGd=           0 AccXCQ= 0.00D+00.
 Generated NRdTot=       0 NPtTot=           0 NUsed=           0 NTot=          32
 NSgBfM=   388   388   388   388   388 MxSgAt=    42 MxSgA2=    42.
 Leave Link  302 at Mon Sep 21 05:44:28 2020, MaxMem=  2147483648 cpu:               2.5 elap:               0.6
 (Enter /prod/apps/gaussian/g16b1/l303.exe)
 DipDrv:  MaxL=1.
 Leave Link  303 at Mon Sep 21 05:44:28 2020, MaxMem=  2147483648 cpu:               0.2 elap:               0.1
 (Enter /prod/apps/gaussian/g16b1/l401.exe)
 ExpMin= 1.17D-01 ExpMax= 2.19D+04 ExpMxC= 3.30D+03 IAcc=3 IRadAn=         5 AccDes= 0.00D+00
 Harris functional with IExCor=  402 and IRadAn=       5 diagonalized for initial guess.
 HarFok:  IExCor=  402 AccDes= 0.00D+00 IRadAn=         5 IDoV= 1 UseB2=F ITyADJ=14
 ICtDFT=  3500011 ScaDFX=  1.000000  1.000000  1.000000  1.000000
 FoFCou: FMM=F IPFlag=           0 FMFlag=      100000 FMFlg1=           0
         NFxFlg=           0 DoJE=T BraDBF=F KetDBF=T FulRan=T
         wScrn=  0.000000 ICntrl=       500 IOpCl=  0 I1Cent=   200000004 NGrid=           0
         NMat0=    1 NMatS0=      1 NMatT0=    0 NMatD0=    1 NMtDS0=    0 NMtDT0=    0
 Symmetry not used in FoFCou.
 Harris En= -1735.98266754064    
 JPrj=0 DoOrth=F DoCkMO=F.
 Leave Link  401 at Mon Sep 21 05:44:31 2020, MaxMem=  2147483648 cpu:              14.0 elap:               3.5
 (Enter /prod/apps/gaussian/g16b1/l502.exe)
 Two-electron integral symmetry not used.
 Closed shell SCF:
 Using DIIS extrapolation, IDIIS=  1040.
 NGot=  2147483648 LenX=  2147172117 LenY=  2147018795
 Requested convergence on RMS density matrix=1.00D-08 within2000 cycles.
 Requested convergence on MAX density matrix=1.00D-06.
 Requested convergence on             energy=1.00D-06.
 No special actions if energy rises.

 Cycle   1  Pass 1  IDiag  1:
 FoFJK:  IHMeth= 1 ICntrl=       0 DoSepK=F KAlg= 0 I1Cent=           0 FoldK=F
 IRaf= 790000000 NMat=       1 IRICut=       1 DoRegI=T DoRafI=F ISym2E= 0 IDoP0=0 IntGTp=1.
 FoFCou: FMM=F IPFlag=           0 FMFlag=      100000 FMFlg1=           0
         NFxFlg=           0 DoJE=F BraDBF=F KetDBF=F FulRan=T
         wScrn=  0.000000 ICntrl=         0 IOpCl=  0 I1Cent=           0 NGrid=           0
         NMat0=    1 NMatS0=      1 NMatT0=    0 NMatD0=    1 NMtDS0=    0 NMtDT0=    0
 Symmetry not used in FoFCou.
 Inv3:  Mode=1 IEnd=    27560883.
 Iteration    1 A*A^-1 deviation from unit magnitude is 3.11D-15 for    444.
 Iteration    1 A*A^-1 deviation from orthogonality  is 2.66D-15 for   1903    559.
 Iteration    1 A^-1*A deviation from unit magnitude is 3.33D-15 for   2789.
 Iteration    1 A^-1*A deviation from orthogonality  is 8.60D-15 for   2396   2393.
 E= -1735.14895630283    
 DIIS: error= 3.10D-02 at cycle   1 NSaved=   1.
 NSaved= 1 IEnMin= 1 EnMin= -1735.14895630283     IErMin= 1 ErrMin= 3.10D-02
 ErrMax= 3.10D-02  0.00D+00 EMaxC= 1.00D-01 BMatC= 8.85D-01 BMatP= 8.85D-01
 IDIUse=3 WtCom= 6.90D-01 WtEn= 3.10D-01
 Coeff-Com:  0.100D+01
 Coeff-En:   0.100D+01
 Coeff:      0.100D+01
 Gap=     0.249 Goal=   None    Shift=    0.000
 GapD=    0.249 DampG=1.000 DampE=0.500 DampFc=0.5000 IDamp=-1.
 Damping current iteration by 5.00D-01
 RMSDP=6.17D-03 MaxDP=5.59D-01              OVMax= 2.44D-01

 Cycle   2  Pass 1  IDiag  1:
 E= -1735.36763927885     Delta-E=       -0.218682976017 Rises=F Damp=T
 DIIS: error= 1.11D-02 at cycle   2 NSaved=   2.
 NSaved= 2 IEnMin= 2 EnMin= -1735.36763927885     IErMin= 2 ErrMin= 1.11D-02
 ErrMax= 1.11D-02  0.00D+00 EMaxC= 1.00D-01 BMatC= 1.24D-01 BMatP= 8.85D-01
 IDIUse=3 WtCom= 8.89D-01 WtEn= 1.11D-01
 Coeff-Com:  0.216D+00 0.784D+00
 Coeff-En:   0.343D+00 0.657D+00
 Coeff:      0.230D+00 0.770D+00
 Gap=     0.268 Goal=   None    Shift=    0.000
 RMSDP=1.90D-03 MaxDP=1.29D-01 DE=-2.19D-01 OVMax= 1.75D-01

 Cycle   3  Pass 1  IDiag  1:
 E= -1735.86428990183     Delta-E=       -0.496650622978 Rises=F Damp=F
 DIIS: error= 9.95D-03 at cycle   3 NSaved=   3.
 NSaved= 3 IEnMin= 3 EnMin= -1735.86428990183     IErMin= 3 ErrMin= 9.95D-03
 ErrMax= 9.95D-03  0.00D+00 EMaxC= 1.00D-01 BMatC= 8.49D-02 BMatP= 1.24D-01
 IDIUse=3 WtCom= 9.01D-01 WtEn= 9.95D-02
 Coeff-Com:  0.713D-01 0.455D+00 0.473D+00
 Coeff-En:   0.000D+00 0.000D+00 0.100D+01
 Coeff:      0.642D-01 0.410D+00 0.526D+00
 Gap=     0.202 Goal=   None    Shift=    0.000
 RMSDP=1.11D-03 MaxDP=5.07D-02 DE=-4.97D-01 OVMax= 9.74D-02

 Cycle   4  Pass 1  IDiag  1:
 E= -1735.92918726945     Delta-E=       -0.064897367625 Rises=F Damp=F
 DIIS: error= 4.61D-03 at cycle   4 NSaved=   4.
 NSaved= 4 IEnMin= 4 EnMin= -1735.92918726945     IErMin= 4 ErrMin= 4.61D-03
 ErrMax= 4.61D-03  0.00D+00 EMaxC= 1.00D-01 BMatC= 1.37D-02 BMatP= 8.49D-02
 IDIUse=3 WtCom= 9.54D-01 WtEn= 4.61D-02
 Coeff-Com:  0.507D-02 0.997D-01 0.302D+00 0.594D+00
 Coeff-En:   0.000D+00 0.000D+00 0.148D+00 0.852D+00
 Coeff:      0.484D-02 0.951D-01 0.295D+00 0.606D+00
 Gap=     0.196 Goal=   None    Shift=    0.000
 RMSDP=4.13D-04 MaxDP=2.03D-02 DE=-6.49D-02 OVMax= 3.33D-02

 Cycle   5  Pass 1  IDiag  1:
 E= -1735.94045454092     Delta-E=       -0.011267271462 Rises=F Damp=F
 DIIS: error= 1.43D-03 at cycle   5 NSaved=   5.
 NSaved= 5 IEnMin= 5 EnMin= -1735.94045454092     IErMin= 5 ErrMin= 1.43D-03
 ErrMax= 1.43D-03  0.00D+00 EMaxC= 1.00D-01 BMatC= 1.30D-03 BMatP= 1.37D-02
 IDIUse=3 WtCom= 9.86D-01 WtEn= 1.43D-02
 Coeff-Com: -0.313D-02 0.191D-01 0.122D+00 0.346D+00 0.516D+00
 Coeff-En:   0.000D+00 0.000D+00 0.000D+00 0.325D-01 0.967D+00
 Coeff:     -0.308D-02 0.188D-01 0.120D+00 0.342D+00 0.522D+00
 Gap=     0.194 Goal=   None    Shift=    0.000
 RMSDP=1.28D-04 MaxDP=7.26D-03 DE=-1.13D-02 OVMax= 9.56D-03

 Cycle   6  Pass 1  IDiag  1:
 E= -1735.94156313270     Delta-E=       -0.001108591785 Rises=F Damp=F
 DIIS: error= 4.36D-04 at cycle   6 NSaved=   6.
 NSaved= 6 IEnMin= 6 EnMin= -1735.94156313270     IErMin= 6 ErrMin= 4.36D-04
 ErrMax= 4.36D-04  0.00D+00 EMaxC= 1.00D-01 BMatC= 1.34D-04 BMatP= 1.30D-03
 IDIUse=3 WtCom= 9.96D-01 WtEn= 4.36D-03
 Coeff-Com: -0.208D-02 0.398D-02 0.459D-01 0.148D+00 0.309D+00 0.495D+00
 Coeff-En:   0.000D+00 0.000D+00 0.000D+00 0.000D+00 0.405D-02 0.996D+00
 Coeff:     -0.207D-02 0.396D-02 0.457D-01 0.148D+00 0.308D+00 0.497D+00
 Gap=     0.194 Goal=   None    Shift=    0.000
 RMSDP=3.67D-05 MaxDP=2.05D-03 DE=-1.11D-03 OVMax= 2.35D-03

 Cycle   7  Pass 1  IDiag  1:
 E= -1735.94166081540     Delta-E=       -0.000097682694 Rises=F Damp=F
 DIIS: error= 1.32D-04 at cycle   7 NSaved=   7.
 NSaved= 7 IEnMin= 7 EnMin= -1735.94166081540     IErMin= 7 ErrMin= 1.32D-04
 ErrMax= 1.32D-04  0.00D+00 EMaxC= 1.00D-01 BMatC= 1.33D-05 BMatP= 1.34D-04
 IDIUse=3 WtCom= 9.99D-01 WtEn= 1.32D-03
 Coeff-Com: -0.870D-03-0.640D-04 0.120D-01 0.447D-01 0.119D+00 0.292D+00
 Coeff-Com:  0.533D+00
 Coeff-En:   0.000D+00 0.000D+00 0.000D+00 0.000D+00 0.000D+00 0.440D-01
 Coeff-En:   0.956D+00
 Coeff:     -0.869D-03-0.639D-04 0.120D-01 0.447D-01 0.119D+00 0.291D+00
 Coeff:      0.534D+00
 Gap=     0.194 Goal=   None    Shift=    0.000
 RMSDP=1.07D-05 MaxDP=4.70D-04 DE=-9.77D-05 OVMax= 6.30D-04

 Cycle   8  Pass 1  IDiag  1:
 E= -1735.94167185675     Delta-E=       -0.000011041355 Rises=F Damp=F
 DIIS: error= 1.81D-05 at cycle   8 NSaved=   8.
 NSaved= 8 IEnMin= 8 EnMin= -1735.94167185675     IErMin= 8 ErrMin= 1.81D-05
 ErrMax= 1.81D-05  0.00D+00 EMaxC= 1.00D-01 BMatC= 4.87D-07 BMatP= 1.33D-05
 IDIUse=1 WtCom= 1.00D+00 WtEn= 0.00D+00
 Coeff-Com: -0.195D-03-0.357D-03 0.111D-02 0.628D-02 0.245D-01 0.822D-01
 Coeff-Com:  0.226D+00 0.660D+00
 Coeff:     -0.195D-03-0.357D-03 0.111D-02 0.628D-02 0.245D-01 0.822D-01
 Coeff:      0.226D+00 0.660D+00
 Gap=     0.194 Goal=   None    Shift=    0.000
 RMSDP=2.68D-06 MaxDP=1.36D-04 DE=-1.10D-05 OVMax= 1.67D-04

 Cycle   9  Pass 1  IDiag  1:
 E= -1735.94167226164     Delta-E=       -0.000000404891 Rises=F Damp=F
 DIIS: error= 5.97D-06 at cycle   9 NSaved=   9.
 NSaved= 9 IEnMin= 9 EnMin= -1735.94167226164     IErMin= 9 ErrMin= 5.97D-06
 ErrMax= 5.97D-06  0.00D+00 EMaxC= 1.00D-01 BMatC= 7.07D-08 BMatP= 4.87D-07
 IDIUse=1 WtCom= 1.00D+00 WtEn= 0.00D+00
 Coeff-Com: -0.130D-04-0.153D-03-0.631D-03-0.128D-02 0.255D-03 0.124D-01
 Coeff-Com:  0.582D-01 0.334D+00 0.597D+00
 Coeff:     -0.130D-04-0.153D-03-0.631D-03-0.128D-02 0.255D-03 0.124D-01
 Coeff:      0.582D-01 0.334D+00 0.597D+00
 Gap=     0.194 Goal=   None    Shift=    0.000
 RMSDP=7.95D-07 MaxDP=3.36D-05 DE=-4.05D-07 OVMax= 4.53D-05

 Cycle  10  Pass 1  IDiag  1:
 E= -1735.94167232590     Delta-E=       -0.000000064259 Rises=F Damp=F
 DIIS: error= 1.66D-06 at cycle  10 NSaved=  10.
 NSaved=10 IEnMin=10 EnMin= -1735.94167232590     IErMin=10 ErrMin= 1.66D-06
 ErrMax= 1.66D-06  0.00D+00 EMaxC= 1.00D-01 BMatC= 3.94D-09 BMatP= 7.07D-08
 IDIUse=1 WtCom= 1.00D+00 WtEn= 0.00D+00
 Coeff-Com:  0.595D-06-0.505D-04-0.357D-03-0.883D-03-0.101D-02 0.253D-02
 Coeff-Com:  0.181D-01 0.135D+00 0.292D+00 0.555D+00
 Coeff:      0.595D-06-0.505D-04-0.357D-03-0.883D-03-0.101D-02 0.253D-02
 Coeff:      0.181D-01 0.135D+00 0.292D+00 0.555D+00
 Gap=     0.194 Goal=   None    Shift=    0.000
 RMSDP=2.16D-07 MaxDP=1.23D-05 DE=-6.43D-08 OVMax= 1.21D-05

 Cycle  11  Pass 1  IDiag  1:
 E= -1735.94167232898     Delta-E=       -0.000000003084 Rises=F Damp=F
 DIIS: error= 9.24D-07 at cycle  11 NSaved=  11.
 NSaved=11 IEnMin=11 EnMin= -1735.94167232898     IErMin=11 ErrMin= 9.24D-07
 ErrMax= 9.24D-07  0.00D+00 EMaxC= 1.00D-01 BMatC= 6.11D-10 BMatP= 3.94D-09
 IDIUse=1 WtCom= 1.00D+00 WtEn= 0.00D+00
 Coeff-Com:  0.132D-05-0.283D-05-0.116D-03-0.311D-03-0.679D-03-0.509D-03
 Coeff-Com:  0.875D-03 0.237D-01 0.688D-01 0.298D+00 0.610D+00
 Coeff:      0.132D-05-0.283D-05-0.116D-03-0.311D-03-0.679D-03-0.509D-03
 Coeff:      0.875D-03 0.237D-01 0.688D-01 0.298D+00 0.610D+00
 Gap=     0.194 Goal=   None    Shift=    0.000
 RMSDP=7.93D-08 MaxDP=4.26D-06 DE=-3.08D-09 OVMax= 6.05D-06

 Cycle  12  Pass 1  IDiag  1:
 E= -1735.94167232947     Delta-E=       -0.000000000487 Rises=F Damp=F
 DIIS: error= 4.70D-07 at cycle  12 NSaved=  12.
 NSaved=12 IEnMin=12 EnMin= -1735.94167232947     IErMin=12 ErrMin= 4.70D-07
 ErrMax= 4.70D-07  0.00D+00 EMaxC= 1.00D-01 BMatC= 1.03D-10 BMatP= 6.11D-10
 IDIUse=1 WtCom= 1.00D+00 WtEn= 0.00D+00
 Coeff-Com:  0.444D-06 0.348D-05-0.371D-04-0.100D-03-0.330D-03-0.588D-03
 Coeff-Com: -0.150D-02 0.387D-04 0.106D-01 0.120D+00 0.368D+00 0.504D+00
 Coeff:      0.444D-06 0.348D-05-0.371D-04-0.100D-03-0.330D-03-0.588D-03
 Coeff:     -0.150D-02 0.387D-04 0.106D-01 0.120D+00 0.368D+00 0.504D+00
 Gap=     0.194 Goal=   None    Shift=    0.000
 RMSDP=2.87D-08 MaxDP=1.66D-06 DE=-4.87D-10 OVMax= 2.29D-06

 Cycle  13  Pass 1  IDiag  1:
 E= -1735.94167232955     Delta-E=       -0.000000000075 Rises=F Damp=F
 DIIS: error= 1.10D-07 at cycle  13 NSaved=  13.
 NSaved=13 IEnMin=13 EnMin= -1735.94167232955     IErMin=13 ErrMin= 1.10D-07
 ErrMax= 1.10D-07  0.00D+00 EMaxC= 1.00D-01 BMatC= 7.23D-12 BMatP= 1.03D-10
 IDIUse=1 WtCom= 1.00D+00 WtEn= 0.00D+00
 Coeff-Com: -0.312D-07 0.217D-05-0.519D-05-0.116D-04-0.866D-04-0.226D-03
 Coeff-Com: -0.879D-03-0.286D-02-0.332D-02 0.214D-01 0.109D+00 0.258D+00
 Coeff-Com:  0.619D+00
 Coeff:     -0.312D-07 0.217D-05-0.519D-05-0.116D-04-0.866D-04-0.226D-03
 Coeff:     -0.879D-03-0.286D-02-0.332D-02 0.214D-01 0.109D+00 0.258D+00
 Coeff:      0.619D+00
 Gap=     0.194 Goal=   None    Shift=    0.000
 RMSDP=8.34D-09 MaxDP=3.89D-07 DE=-7.50D-11 OVMax= 5.72D-07

 Error on total polarization charges =  0.02162
 SCF Done:  E(RB3LYP) =  -1735.94167233     A.U. after   13 cycles
            NFock= 13  Conv=0.83D-08     -V/T= 2.0068
 KE= 1.724231890361D+03 PE=-8.692085916018D+03 EE= 2.923190060484D+03
 Leave Link  502 at Mon Sep 21 05:46:40 2020, MaxMem=  2147483648 cpu:             514.3 elap:             128.7
 (Enter /prod/apps/gaussian/g16b1/l601.exe)
 Copying SCF densities to generalized density rwf, IOpCl= 0 IROHF=0.

 **********************************************************************

            Population analysis using the SCF Density.

 **********************************************************************

 Alpha  occ. eigenvalues --  -89.12534 -88.98715 -19.15754 -19.15509 -19.12034
 Alpha  occ. eigenvalues --  -14.37152 -10.26136 -10.23319 -10.21970 -10.21463
 Alpha  occ. eigenvalues --  -10.21444 -10.21345 -10.20757 -10.20627 -10.20592
 Alpha  occ. eigenvalues --  -10.19563 -10.19028 -10.18874 -10.18850 -10.18719
 Alpha  occ. eigenvalues --  -10.18664 -10.18623 -10.18581  -8.15042  -8.03546
 Alpha  occ. eigenvalues --   -6.11540  -6.11489  -6.11317  -5.99964  -5.99759
 Alpha  occ. eigenvalues --   -5.99322  -1.12189  -1.01206  -1.00853  -0.93964
 Alpha  occ. eigenvalues --   -0.87669  -0.85518  -0.84408  -0.78790  -0.78022
 Alpha  occ. eigenvalues --   -0.76441  -0.74182  -0.73537  -0.70200  -0.69118
 Alpha  occ. eigenvalues --   -0.66310  -0.62539  -0.62122  -0.60242  -0.59546
 Alpha  occ. eigenvalues --   -0.57756  -0.56777  -0.54616  -0.52628  -0.51478
 Alpha  occ. eigenvalues --   -0.50873  -0.49206  -0.48393  -0.47474  -0.46313
 Alpha  occ. eigenvalues --   -0.45734  -0.45440  -0.45199  -0.43939  -0.43750
 Alpha  occ. eigenvalues --   -0.43273  -0.41921  -0.41635  -0.41430  -0.40734
 Alpha  occ. eigenvalues --   -0.39127  -0.38891  -0.38450  -0.38054  -0.36837
 Alpha  occ. eigenvalues --   -0.36320  -0.36197  -0.35298  -0.35053  -0.34286
 Alpha  occ. eigenvalues --   -0.33413  -0.33169  -0.32754  -0.32042  -0.31477
 Alpha  occ. eigenvalues --   -0.29007  -0.27013  -0.26918  -0.26343  -0.25057
 Alpha  occ. eigenvalues --   -0.24344  -0.23338
 Alpha virt. eigenvalues --   -0.03933  -0.01868  -0.00231   0.00010   0.00433
 Alpha virt. eigenvalues --    0.03105   0.05200   0.06042   0.07092   0.08526
 Alpha virt. eigenvalues --    0.09368   0.09743   0.10594   0.11341   0.12074
 Alpha virt. eigenvalues --    0.13031   0.13104   0.13546   0.14397   0.15014
 Alpha virt. eigenvalues --    0.15674   0.15798   0.16233   0.16702   0.17633
 Alpha virt. eigenvalues --    0.17779   0.18688   0.19366   0.19524   0.20022
 Alpha virt. eigenvalues --    0.20831   0.21039   0.21280   0.22889   0.25280
 Alpha virt. eigenvalues --    0.26575   0.27161   0.27958   0.28539   0.29227
 Alpha virt. eigenvalues --    0.30479   0.30807   0.31522   0.32312   0.33429
 Alpha virt. eigenvalues --    0.33540   0.34393   0.34895   0.35710   0.37922
 Alpha virt. eigenvalues --    0.41095   0.42364   0.43120   0.44362   0.46301
 Alpha virt. eigenvalues --    0.48757   0.50023   0.50472   0.51861   0.52253
 Alpha virt. eigenvalues --    0.52650   0.53656   0.54177   0.54211   0.55619
 Alpha virt. eigenvalues --    0.55876   0.56410   0.56867   0.57663   0.58175
 Alpha virt. eigenvalues --    0.58723   0.59026   0.59676   0.59863   0.60059
 Alpha virt. eigenvalues --    0.60274   0.60751   0.61392   0.61769   0.61966
 Alpha virt. eigenvalues --    0.62674   0.63405   0.63597   0.63786   0.65282
 Alpha virt. eigenvalues --    0.66359   0.66597   0.67424   0.68236   0.70152
 Alpha virt. eigenvalues --    0.70561   0.71918   0.72755   0.74812   0.76596
 Alpha virt. eigenvalues --    0.77411   0.78417   0.79600   0.80887   0.81570
 Alpha virt. eigenvalues --    0.82287   0.82625   0.82855   0.83230   0.83992
 Alpha virt. eigenvalues --    0.84374   0.84490   0.85076   0.85529   0.86152
 Alpha virt. eigenvalues --    0.86722   0.86968   0.88070   0.88917   0.90015
 Alpha virt. eigenvalues --    0.90354   0.91615   0.91795   0.91947   0.93011
 Alpha virt. eigenvalues --    0.93402   0.94082   0.94388   0.94876   0.96267
 Alpha virt. eigenvalues --    0.97000   0.97903   0.99330   1.00402   1.01258
 Alpha virt. eigenvalues --    1.02427   1.03711   1.04260   1.05151   1.05891
 Alpha virt. eigenvalues --    1.06967   1.07705   1.08424   1.10362   1.10659
 Alpha virt. eigenvalues --    1.11180   1.11583   1.12213   1.12716   1.14610
 Alpha virt. eigenvalues --    1.16086   1.16466   1.17805   1.18947   1.19991
 Alpha virt. eigenvalues --    1.20866   1.21789   1.22158   1.25186   1.25789
 Alpha virt. eigenvalues --    1.27320   1.29994   1.31277   1.34961   1.37503
 Alpha virt. eigenvalues --    1.38483   1.40274   1.41431   1.42155   1.42336
 Alpha virt. eigenvalues --    1.43871   1.44957   1.45313   1.45791   1.47343
 Alpha virt. eigenvalues --    1.48402   1.48929   1.49183   1.49599   1.51108
 Alpha virt. eigenvalues --    1.51549   1.53319   1.57732   1.61042   1.64387
 Alpha virt. eigenvalues --    1.69735   1.70890   1.72941   1.73602   1.75445
 Alpha virt. eigenvalues --    1.77034   1.78174   1.78568   1.79772   1.80498
 Alpha virt. eigenvalues --    1.80677   1.81282   1.82782   1.83133   1.84252
 Alpha virt. eigenvalues --    1.84754   1.85608   1.87280   1.88058   1.88988
 Alpha virt. eigenvalues --    1.90141   1.91314   1.91727   1.93256   1.94815
 Alpha virt. eigenvalues --    1.94974   1.95869   1.97168   1.97611   1.98259
 Alpha virt. eigenvalues --    1.99810   2.00315   2.01882   2.02699   2.04721
 Alpha virt. eigenvalues --    2.05762   2.06934   2.08407   2.09488   2.09802
 Alpha virt. eigenvalues --    2.11846   2.12775   2.13652   2.13807   2.14277
 Alpha virt. eigenvalues --    2.14564   2.15021   2.15154   2.16425   2.18911
 Alpha virt. eigenvalues --    2.20419   2.21644   2.24662   2.25195   2.27316
 Alpha virt. eigenvalues --    2.27643   2.28436   2.28711   2.30105   2.31084
 Alpha virt. eigenvalues --    2.31808   2.33095   2.34374   2.40401   2.41295
 Alpha virt. eigenvalues --    2.42571   2.46868   2.51246   2.53779   2.56258
 Alpha virt. eigenvalues --    2.57855   2.57987   2.58835   2.63129   2.64997
 Alpha virt. eigenvalues --    2.66161   2.69263   2.70296   2.71936   2.72157
 Alpha virt. eigenvalues --    2.72422   2.73197   2.73393   2.74436   2.74628
 Alpha virt. eigenvalues --    2.75895   2.76964   2.77804   2.81457   2.83161
 Alpha virt. eigenvalues --    2.84197   2.93924   3.02465   3.05575   3.36820
 Alpha virt. eigenvalues --    3.41087   3.75771   3.82496   3.93095   3.99647
 Alpha virt. eigenvalues --    4.01581   4.06602   4.08667   4.10080   4.11515
 Alpha virt. eigenvalues --    4.14073   4.15479   4.17655   4.22602   4.25115
 Alpha virt. eigenvalues --    4.32682   4.33070   4.35040   4.35689   4.41708
 Alpha virt. eigenvalues --    4.54051   4.65236   4.70278   4.72099
          Condensed to atoms (all electrons):
               1          2          3          4          5          6
     1  O    8.278064   0.457245  -0.056641   0.001632  -0.000084  -0.000005
     2  S    0.457245  13.668865   0.133800  -0.005614   0.001390   0.000268
     3  N   -0.056641   0.133800   7.393445   0.230477  -0.034071   0.004176
     4  C    0.001632  -0.005614   0.230477   4.864260   0.312174  -0.066142
     5  C   -0.000084   0.001390  -0.034071   0.312174   5.652041   0.083741
     6  S   -0.000005   0.000268   0.004176  -0.066142   0.083741  14.886856
     7  O   -0.000000  -0.000001  -0.000050  -0.000134  -0.038734   0.292504
     8  C   -0.000077  -0.005945  -0.059141   0.332174  -0.119809   0.085973
     9  C   -0.000098  -0.003116  -0.061008   0.345949  -0.052475   0.006779
    10  C    0.000002  -0.000083   0.000837  -0.031295  -0.009104  -0.000536
    11  C   -0.000000  -0.000124   0.000170   0.003151   0.000198   0.000023
    12  C   -0.000000  -0.000002  -0.000001   0.000235   0.000012  -0.000002
    13  C    0.000000   0.000000   0.000000   0.000004  -0.000000   0.000000
    14  C   -0.000000  -0.000000  -0.000000  -0.000000   0.000000  -0.000000
    15  C    0.000000   0.000000  -0.000000   0.000002  -0.000000   0.000000
    16  C    0.000000   0.000016  -0.000005  -0.000009  -0.000006   0.000001
    17  C   -0.064489   0.192678  -0.054979  -0.003722  -0.000155   0.000008
    18  C    0.001254  -0.018340  -0.000148   0.000184  -0.000019   0.000000
    19  C    0.000148   0.002083   0.000096   0.000003  -0.000000   0.000000
    20  C   -0.000005  -0.000386   0.000007   0.000000   0.000000   0.000000
    21  C   -0.000051   0.003201  -0.000101   0.000004  -0.000000  -0.000000
    22  C   -0.001061  -0.031630   0.000874   0.000026  -0.000000  -0.000000
    23  O   -0.042265   0.396765  -0.052831   0.006706   0.000130   0.000255
    24  H    0.005147  -0.010327   0.294002  -0.021978  -0.006534   0.000500
    25  H    0.000000   0.000010   0.001333  -0.026898   0.351791  -0.017263
    26  H   -0.000017  -0.000108  -0.005143  -0.026693   0.331449  -0.006586
    27  H    0.000001   0.000676   0.001683  -0.027331   0.009670  -0.019076
    28  H   -0.000103   0.001092  -0.002680  -0.025319   0.003885  -0.007780
    29  H    0.000000  -0.000114   0.003350  -0.031901  -0.007735   0.005459
    30  H    0.000014   0.008184  -0.005827  -0.029418   0.005677  -0.000590
    31  H   -0.000001  -0.000758   0.004258  -0.006215  -0.000136  -0.000011
    32  H    0.000000  -0.000004  -0.000154  -0.005536   0.002649  -0.000149
    33  H   -0.000000  -0.000000  -0.000000  -0.000162  -0.000008  -0.000001
    34  H    0.000000  -0.000000   0.000000  -0.000000  -0.000000   0.000000
    35  H   -0.000000   0.000000   0.000000  -0.000000   0.000000  -0.000000
    36  H   -0.000000  -0.000000   0.000000  -0.000000  -0.000000  -0.000000
    37  H   -0.000000  -0.000062  -0.000000  -0.000018   0.000001  -0.000000
    38  H    0.001166  -0.000512   0.003773   0.000049   0.000002  -0.000000
    39  H    0.000001  -0.000065   0.000001   0.000000   0.000000  -0.000000
    40  H   -0.000000   0.000007   0.000000  -0.000000  -0.000000  -0.000000
    41  H    0.000000  -0.000073   0.000000   0.000000   0.000000  -0.000000
    42  H    0.000016  -0.007250   0.000228  -0.000015   0.000000  -0.000000
               7          8          9         10         11         12
     1  O   -0.000000  -0.000077  -0.000098   0.000002  -0.000000  -0.000000
     2  S   -0.000001  -0.005945  -0.003116  -0.000083  -0.000124  -0.000002
     3  N   -0.000050  -0.059141  -0.061008   0.000837   0.000170  -0.000001
     4  C   -0.000134   0.332174   0.345949  -0.031295   0.003151   0.000235
     5  C   -0.038734  -0.119809  -0.052475  -0.009104   0.000198   0.000012
     6  S    0.292504   0.085973   0.006779  -0.000536   0.000023  -0.000002
     7  O    8.455694  -0.038230  -0.007435  -0.000025   0.000034  -0.000199
     8  C   -0.038230   5.632953  -0.057314   0.004772  -0.000082  -0.000011
     9  C   -0.007435  -0.057314   5.198841   0.341741  -0.038899  -0.003923
    10  C   -0.000025   0.004772   0.341741   5.173419   0.353547  -0.063281
    11  C    0.000034  -0.000082  -0.038899   0.353547   4.656342   0.534199
    12  C   -0.000199  -0.000011  -0.003923  -0.063281   0.534199   5.000792
    13  C   -0.000001  -0.000000   0.000112   0.006256  -0.018703   0.518732
    14  C    0.000000   0.000000   0.000007   0.000336  -0.035007  -0.037011
    15  C   -0.000000  -0.000000  -0.000117   0.006990  -0.022305  -0.048296
    16  C    0.000000  -0.000001  -0.002426  -0.050994   0.550541  -0.040793
    17  C   -0.000000  -0.000268   0.002716  -0.001540  -0.000241  -0.000003
    18  C    0.000000   0.000002  -0.000017  -0.001478   0.000001  -0.000000
    19  C   -0.000000   0.000000   0.000009  -0.000317   0.000048   0.000000
    20  C    0.000000   0.000000   0.000001  -0.000016   0.000047   0.000000
    21  C   -0.000000  -0.000000  -0.000035   0.000139   0.000001   0.000000
    22  C    0.000000   0.000004  -0.000481   0.000372  -0.000215  -0.000002
    23  O   -0.000000   0.004507  -0.006591   0.000066  -0.000000   0.000000
    24  H    0.000002  -0.000392   0.004384  -0.000091   0.000002  -0.000000
    25  H    0.000415   0.009473  -0.006911   0.001824  -0.000131  -0.000008
    26  H    0.001265   0.002918   0.004420   0.000030   0.000004  -0.000001
    27  H   -0.000054   0.353417  -0.003781   0.000093  -0.000010   0.000001
    28  H    0.001294   0.329399   0.004148  -0.000110   0.000001   0.000000
    29  H    0.023927  -0.006727   0.351630  -0.037038  -0.001902   0.003963
    30  H    0.000220  -0.005236   0.352858  -0.035761  -0.000136  -0.000095
    31  H   -0.000003   0.000035  -0.031734   0.357191  -0.029704   0.004448
    32  H    0.000043   0.000061  -0.042072   0.360876  -0.028032  -0.004831
    33  H    0.000559   0.000005  -0.000109  -0.008502  -0.046436   0.358361
    34  H   -0.000000   0.000000  -0.000000  -0.000173   0.003665  -0.039167
    35  H    0.000000  -0.000000   0.000000   0.000006   0.000597   0.004670
    36  H   -0.000000   0.000000   0.000000  -0.000173   0.003730   0.000740
    37  H    0.000000   0.000000   0.000239  -0.009798  -0.041447   0.006252
    38  H    0.000000   0.000003  -0.000034  -0.000007   0.000002  -0.000000
    39  H    0.000000  -0.000000  -0.000000  -0.000003   0.000000   0.000000
    40  H    0.000000   0.000000   0.000000  -0.000000   0.000000   0.000000
    41  H    0.000000   0.000000  -0.000000  -0.000000   0.000001  -0.000000
[...]
    33  H    0.650451  -0.191115   0.194887  -0.245643   0.004971   0.000210
    34  H   -0.760852   0.272302  -0.212262   0.082731   0.000241   0.000103
    35  H    0.341847  -0.645245   0.368459  -0.070687  -0.000400  -0.000281
    36  H   -0.230032   0.426899  -0.972629   0.680193  -0.001214   0.004705
    37  H    0.163670  -0.161652   0.213201  -1.219990   0.055205  -0.021992
    38  H   -0.000988   0.001204   0.000041  -0.006842   1.428206  -1.884195
    39  H    0.001054  -0.001641  -0.004700   0.004242  -0.232703   0.599550
    40  H   -0.001438   0.002013  -0.015577   0.016194   0.096840  -0.152697
    41  H   -0.001722   0.004344  -0.002526   0.021705  -0.057832   0.098821
    42  H    0.002028  -0.001507  -0.013112   0.008909   0.585838  -0.148493
              19         20         21         22         23         24
     1  O   -0.009926  -0.034792   0.047985   0.093072   0.077146   0.034759
     2  S   -0.346136   0.242983  -0.501556  -1.070631  -0.654455  -0.109876
     3  N   -0.082736   0.006335  -0.028406   0.016481   0.069432   0.249942
     4  C   -0.069480   0.008575  -0.021030  -0.112239  -0.016184   0.345451
     5  C    0.090087   0.005178  -0.040124  -0.114144  -0.082286  -0.181615
     6  S    0.000182   0.000163  -0.000916  -0.001330  -0.006794   0.012387
     7  O    0.000145  -0.000041  -0.000070  -0.000700   0.000020   0.001252
     8  C    0.009498   0.014228  -0.049115  -0.020536  -0.044977  -0.039852
     9  C    0.205306  -0.084744   0.020331  -0.133867   0.170733  -0.010657
    10  C   -0.002222   0.009704   0.092953   0.082523  -0.015920  -0.030030
    11  C   -0.032421  -0.043795  -0.069902   0.154962  -0.002863   0.011483
    12  C    0.003244   0.035183   0.008622   0.009847   0.001707  -0.000750
    13  C    0.010012  -0.015822  -0.002602  -0.012445  -0.001774   0.000761
    14  C   -0.000423   0.036341  -0.026391   0.024428   0.000767  -0.000261
    15  C   -0.123675   0.032179  -0.099103   0.045233  -0.000789   0.000699
    16  C    0.062718  -0.063083   0.222959  -0.269915   0.008461  -0.002089
    17  C    3.638747  -4.837505   3.675983  -8.496962   0.240979   0.050117
    18  C   -6.290675   4.644737  -5.683139   2.667532  -0.168696  -0.057703
    19  C   13.804141  -4.857601   4.870554  -4.717473   0.013230   0.008444
    20  C   -4.857601  11.577192  -5.006418   3.967319  -0.012706  -0.001548
    21  C    4.870554  -5.006418  13.948350  -5.811977   0.009438   0.004962
    22  C   -4.717473   3.967319  -5.811977  20.235458   0.179022   0.007167
    23  O    0.013230  -0.012706   0.009438   0.179022   9.474115   0.008121
    24  H    0.008444  -0.001548   0.004962   0.007167   0.008121   0.842219
    25  H    0.013163   0.005603  -0.009545  -0.015187  -0.006876  -0.012015
    26  H    0.001722  -0.002073   0.001679  -0.000591   0.002986  -0.020890
    27  H    0.001851  -0.000642   0.005217   0.006041  -0.019583  -0.003882
    28  H   -0.000449   0.001883  -0.007060  -0.017865   0.020361  -0.012988
    29  H    0.019234  -0.006607  -0.014510  -0.020833  -0.013474  -0.011230
    30  H   -0.030669   0.024005   0.003536  -0.024052   0.052888   0.016367
    31  H   -0.089288   0.091382  -0.050150  -0.111308  -0.013339   0.006303
    32  H   -0.021169  -0.007468   0.008596   0.037427   0.003971   0.000253
    33  H   -0.003214   0.001765   0.001957   0.000906   0.000985   0.000979
    34  H    0.000099  -0.000391  -0.000331   0.000054  -0.000076   0.000036
    35  H    0.000470   0.000441   0.000406   0.000153   0.000030  -0.000013
    36  H   -0.007613   0.012695  -0.026147   0.012896  -0.000310   0.000013
    37  H    0.041329  -0.101997   0.068612  -0.088244   0.002420  -0.000830
    38  H    0.333143  -0.359171   0.194706  -0.114096   0.020176   0.011887
    39  H   -0.907227   0.470947  -0.228945   0.145915   0.000260   0.001762
    40  H    0.497831  -0.863290   0.473553  -0.158517   0.000080  -0.000091
    41  H   -0.244750   0.476216  -0.945772   0.520527   0.000830   0.000072
    42  H    0.096163  -0.186547   0.639616  -1.371168  -0.042602  -0.003029
              25         26         27         28         29         30
     1  O    0.004050   0.000962  -0.000557  -0.005837  -0.002482   0.015723
     2  S   -0.003239  -0.012081   0.040609   0.063882  -0.014315  -0.181545
     3  N    0.275210  -0.107832   0.124672   0.173612   0.103777   0.026835
     4  C   -1.065282   0.149169  -0.156236  -0.750454  -0.706170  -0.699683
     5  C    0.707368  -0.147331   0.171599  -0.010130   0.317320   0.058656
     6  S    0.096555  -0.207895   0.096732  -0.181612  -0.072471  -0.000880
     7  O    0.016085   0.009490   0.007319   0.010372   0.028244   0.004251
     8  C    0.219209   0.046598   0.220002   0.328743   0.156225  -0.171088
     9  C    0.112960   0.242156  -0.232618   0.397165  -0.077541   0.663975
    10  C   -0.085517   0.072512   0.054363   0.013149  -0.162708  -0.209843
    11  C    0.033342  -0.006883   0.002469  -0.016492  -0.114673  -0.121368
    12  C   -0.078607  -0.008156  -0.010227  -0.004149   0.011028   0.021784
    13  C    0.034183  -0.003179   0.000455   0.001336   0.016295  -0.048948
    14  C   -0.004387   0.000380  -0.001849  -0.000600   0.029380   0.011765
    15  C    0.005048  -0.000354   0.001240   0.001004  -0.045869   0.030065
    16  C   -0.016054   0.014288   0.002654  -0.001452   0.069739   0.060348
    17  C   -0.044447   0.014658  -0.019064  -0.048383   0.004724   0.018579
    18  C    0.019963  -0.007931  -0.003530   0.022238   0.015432   0.053633
    19  C    0.013163   0.001722   0.001851  -0.000449   0.019234  -0.030669
    20  C    0.005603  -0.002073  -0.000642   0.001883  -0.006607   0.024005
    21  C   -0.009545   0.001679   0.005217  -0.007060  -0.014510   0.003536
    22  C   -0.015187  -0.000591   0.006041  -0.017865  -0.020833  -0.024052
    23  O   -0.006876   0.002986  -0.019583   0.020361  -0.013474   0.052888
    24  H   -0.012015  -0.020890  -0.003882  -0.012988  -0.011230   0.016367
    25  H    1.363632  -0.331341   0.007795   0.019218   0.006440   0.018806
    26  H   -0.331341   1.553100   0.014648   0.011818   0.019567  -0.004534
    27  H    0.007795   0.014648   1.330033  -0.278723  -0.030494  -0.047794
    28  H    0.019218   0.011818  -0.278723   1.489351   0.033262   0.019192
    29  H    0.006440   0.019567  -0.030494   0.033262   2.315360  -0.646674
    30  H    0.018806  -0.004534  -0.047794   0.019192  -0.646674   2.261330
    31  H    0.063751  -0.016318   0.008043   0.009791   0.087000  -0.144019
    32  H   -0.130875   0.034421  -0.003941  -0.001258  -0.114426   0.112282
    33  H   -0.001429   0.003337   0.001074  -0.001202  -0.033120   0.005019
    34  H    0.003320  -0.000166  -0.000052   0.000049  -0.001728   0.000844
    35  H   -0.000260   0.000027  -0.000011  -0.000029  -0.000500  -0.000357
    36  H   -0.000170  -0.000053  -0.000180   0.000089   0.002036  -0.002832
    37  H    0.006238   0.002941   0.004559  -0.000607   0.021056  -0.021740
    38  H   -0.006466   0.005775  -0.001499  -0.001454  -0.001646   0.012793
    39  H    0.000216  -0.000270   0.000011  -0.000203   0.000356  -0.001075
    40  H    0.000080  -0.000049  -0.000044   0.000034   0.000078   0.000498
    41  H   -0.000340   0.000017   0.000157  -0.000212  -0.000638   0.003602
    42  H   -0.000502   0.000024  -0.000356  -0.002568  -0.000330   0.006961
              31         32         33         34         35         36
     1  O   -0.001991  -0.002644   0.000020  -0.000001   0.000005  -0.000051
     2  S    0.100714  -0.021492  -0.002220   0.000141  -0.000393   0.003060
     3  N   -0.069410  -0.045932  -0.003030   0.000075  -0.000075  -0.000845
     4  C    0.132440  -0.095853   0.044981   0.002467   0.000071   0.003697
     5  C    0.138112  -0.046613  -0.026109   0.003213  -0.000377   0.000454
     6  S    0.003892  -0.007519   0.000858   0.000301  -0.000038   0.000034
     7  O    0.003247  -0.002148   0.005073  -0.000528  -0.000004  -0.000009
     8  C    0.074617  -0.044806  -0.012908   0.000773  -0.000405   0.000325
     9  C   -0.166616   0.166601   0.105108   0.007066  -0.007874  -0.001410
    10  C   -0.591621  -0.186761  -0.423662  -0.005641   0.009645   0.056440
    11  C    0.114601   0.020572   1.235310  -0.005203   0.042696  -0.141930
    12  C   -0.255774   0.261010  -1.778975   0.553913  -0.083257   0.136777
    13  C   -0.158868   0.124957   0.650451  -0.760852   0.341847  -0.230032
    14  C    0.032577  -0.004651  -0.191115   0.272302  -0.645245   0.426899
    15  C    0.051043  -0.008044   0.194887  -0.212262   0.368459  -0.972629
    16  C    0.387364  -0.187084  -0.245643   0.082731  -0.070687   0.680193
    17  C    0.105569   0.004160   0.004971   0.000241  -0.000400  -0.001214
    18  C   -0.152567   0.019512   0.000210   0.000103  -0.000281   0.004705
    19  C   -0.089288  -0.021169  -0.003214   0.000099   0.000470  -0.007613
    20  C    0.091382  -0.007468   0.001765  -0.000391   0.000441   0.012695
    21  C   -0.050150   0.008596   0.001957  -0.000331   0.000406  -0.026147
    22  C   -0.111308   0.037427   0.000906   0.000054   0.000153   0.012896
    23  O   -0.013339   0.003971   0.000985  -0.000076   0.000030  -0.000310
    24  H    0.006303   0.000253   0.000979   0.000036  -0.000013   0.000013
    25  H    0.063751  -0.130875  -0.001429   0.003320  -0.000260  -0.000170
    26  H   -0.016318   0.034421   0.003337  -0.000166   0.000027  -0.000053
    27  H    0.008043  -0.003941   0.001074  -0.000052  -0.000011  -0.000180
    28  H    0.009791  -0.001258  -0.001202   0.000049  -0.000029   0.000089
    29  H    0.087000  -0.114426  -0.033120  -0.001728  -0.000500   0.002036
    30  H   -0.144019   0.112282   0.005019   0.000844  -0.000357  -0.002832
    31  H    2.461086  -0.600332  -0.006986   0.000691   0.001648  -0.001701
    32  H   -0.600332   2.004437  -0.029656  -0.006973   0.000599   0.004664
    33  H   -0.006986  -0.029656   2.337939  -0.086256  -0.017072   0.011669
    34  H    0.000691  -0.006973  -0.086256   1.699380  -0.054599  -0.020147
    35  H    0.001648   0.000599  -0.017072  -0.054599   1.636329  -0.050059
    36  H   -0.001701   0.004664   0.011669  -0.020147  -0.050059   1.753804
    37  H   -0.092551   0.018708   0.000860   0.016326  -0.022991  -0.140398
    38  H   -0.008427   0.012730   0.000622  -0.000033   0.000050  -0.000070
    39  H    0.010205  -0.003647   0.000002   0.000019  -0.000004  -0.000246
    40  H   -0.012733   0.000400  -0.000050  -0.000044   0.000093   0.001186
    41  H    0.006989  -0.000172   0.000179  -0.000055   0.000253  -0.003015
    42  H   -0.000023  -0.000455   0.000039  -0.000035   0.000004   0.002909
              37         38         39         40         41         42
     1  O    0.000794   0.090018  -0.000329  -0.000790   0.002337  -0.002575
     2  S   -0.002213  -0.339968   0.015807   0.001760  -0.020313  -0.025671
     3  N    0.029174  -0.053113  -0.002084   0.001066  -0.000979  -0.019760
     4  C   -0.072068   0.102788   0.001427  -0.002279   0.005314   0.042341
     5  C    0.028392  -0.014468   0.001249  -0.000065  -0.001948   0.002763
     6  S   -0.000436  -0.001166   0.000049   0.000009  -0.000046   0.000111
     7  O    0.000650  -0.000074   0.000001  -0.000002   0.000003  -0.000284
     8  C   -0.005999  -0.024716  -0.001377   0.000423  -0.001246  -0.035186
     9  C    0.096942  -0.017208  -0.000742   0.003322  -0.002114  -0.032735
    10  C   -0.513833   0.055687  -0.025627   0.005987   0.002365  -0.002759
    11  C    0.913819   0.004439   0.018485  -0.000846  -0.010534   0.025118
    12  C   -0.293047   0.006198   0.000370   0.003804   0.001547   0.006273
    13  C    0.163670  -0.000988   0.001054  -0.001438  -0.001722   0.002028
    14  C   -0.161652   0.001204  -0.001641   0.002013   0.004344  -0.001507
    15  C    0.213201   0.000041  -0.004700  -0.015577  -0.002526  -0.013112
    16  C   -1.219990  -0.006842   0.004242   0.016194   0.021705   0.008909
    17  C    0.055205   1.428206  -0.232703   0.096840  -0.057832   0.585838
    18  C   -0.021992  -1.884195   0.599550  -0.152697   0.098821  -0.148493
    19  C    0.041329   0.333143  -0.907227   0.497831  -0.244750   0.096163
    20  C   -0.101997  -0.359171   0.470947  -0.863290   0.476216  -0.186547
    21  C    0.068612   0.194706  -0.228945   0.473553  -0.945772   0.639616
    22  C   -0.088244  -0.114096   0.145915  -0.158517   0.520527  -1.371168
    23  O    0.002420   0.020176   0.000260   0.000080   0.000830  -0.042602
    24  H   -0.000830   0.011887   0.001762  -0.000091   0.000072  -0.003029
    25  H    0.006238  -0.006466   0.000216   0.000080  -0.000340  -0.000502
    26  H    0.002941   0.005775  -0.000270  -0.000049   0.000017   0.000024
    27  H    0.004559  -0.001499   0.000011  -0.000044   0.000157  -0.000356
    28  H   -0.000607  -0.001454  -0.000203   0.000034  -0.000212  -0.002568
    29  H    0.021056  -0.001646   0.000356   0.000078  -0.000638  -0.000330
    30  H   -0.021740   0.012793  -0.001075   0.000498   0.003602   0.006961
    31  H   -0.092551  -0.008427   0.010205  -0.012733   0.006989  -0.000023
    32  H    0.018708   0.012730  -0.003647   0.000400  -0.000172  -0.000455
    33  H    0.000860   0.000622   0.000002  -0.000050   0.000179   0.000039
    34  H    0.016326  -0.000033   0.000019  -0.000044  -0.000055  -0.000035
    35  H   -0.022991   0.000050  -0.000004   0.000093   0.000253   0.000004
    36  H   -0.140398  -0.000070  -0.000246   0.001186  -0.003015   0.002909
    37  H    2.650320  -0.003304   0.014095  -0.000890  -0.020343   0.021485
    38  H   -0.003304   2.425952  -0.122027  -0.017128   0.012711  -0.026159
    39  H    0.014095  -0.122027   1.827626  -0.059234  -0.021774   0.009167
    40  H   -0.000890  -0.017128  -0.059234   1.745133  -0.058634  -0.016225
    41  H   -0.020343   0.012711  -0.021774  -0.058634   1.847842  -0.092323
    42  H    0.021485  -0.026159   0.009167  -0.016225  -0.092323   2.258403
 Mulliken charges:
               1
     1  O   -1.186521
     2  S    2.754668
     3  N   -1.311477
     4  C    0.586802
     5  C    0.673436
     6  S    1.503386
     7  O   -1.212945
     8  C    0.438910
     9  C   -0.171098
    10  C    1.248143
    11  C    0.328916
    12  C    0.902759
    13  C   -0.069961
    14  C    0.611549
    15  C    0.177747
    16  C    0.820985
    17  C    0.647557
    18  C    0.615349
    19  C    0.115833
    20  C    0.821187
    21  C    0.323194
    22  C    0.477117
    23  O   -1.254453
    24  H   -0.116083
    25  H   -0.219695
    26  H   -0.324346
    27  H   -0.290261
    28  H   -0.272822
    29  H   -0.164113
    30  H   -0.146639
    31  H   -0.347043
    32  H   -0.261382
    33  H   -0.746552
    34  H   -0.488771
    35  H   -0.448295
    36  H   -0.513482
    37  H   -0.585671
    38  H   -0.714909
    39  H   -0.508963
    40  H   -0.489762
    41  H   -0.518543
    42  H   -0.683751
 Sum of Mulliken charges =  -0.00000
 Mulliken charges with hydrogens summed into heavy atoms:
               1
     1  O   -1.186521
     2  S    2.754668
     3  N   -1.427561
     4  C    0.586802
     5  C    0.129395
     6  S    1.503386
     7  O   -1.212945
     8  C   -0.124172
     9  C   -0.481850
    10  C    0.639719
    11  C    0.328916
    12  C    0.156206
    13  C   -0.558732
    14  C    0.163254
    15  C   -0.335735
    16  C    0.235314
    17  C    0.647557
    18  C   -0.099560
    19  C   -0.393130
    20  C    0.331425
    21  C   -0.195350
    22  C   -0.206633
    23  O   -1.254453
 Electronic spatial extent (au):  <R**2>=           8642.4808
 Charge=              0.0000 electrons
 Dipole moment (field-independent basis, Debye):
    X=              3.8087    Y=             -0.3364    Z=              3.4742  Tot=              5.1662
 Quadrupole moment (field-independent basis, Debye-Ang):
   XX=           -143.1509   YY=           -174.8322   ZZ=           -148.3884
   XY=             12.0742   XZ=             -9.3237   YZ=             -6.2755
 Traceless Quadrupole moment (field-independent basis, Debye-Ang):
   XX=             12.3063   YY=            -19.3750   ZZ=              7.0687
   XY=             12.0742   XZ=             -9.3237   YZ=             -6.2755
 Octapole moment (field-independent basis, Debye-Ang**2):
  XXX=            107.2125  YYY=            101.0329  ZZZ=              9.8156  XYY=             -1.7927
  XXY=            -81.8642  XXZ=             16.3023  XZZ=            -10.0898  YZZ=            -27.0135
  YYZ=              5.8038  XYZ=            -19.7764
 Hexadecapole moment (field-independent basis, Debye-Ang**3):
 XXXX=          -5557.7472 YYYY=          -5634.6806 ZZZZ=           -751.4846 XXXY=            264.2648
 XXXZ=            -68.8299 YYYX=             88.5337 YYYZ=            -91.8150 ZZZX=             -1.0644
 ZZZY=            -26.1858 XXYY=          -1925.8327 XXZZ=           -968.5550 YYZZ=          -1096.7588
 XXYZ=            -13.1698 YYXZ=            -74.7730 ZZXY=            -42.7275
 N-N= 2.307594373505D+03 E-N=-8.687863810389D+03  KE= 1.727267508708D+03
 Leave Link  601 at Mon Sep 21 09:15:22 2020, MaxMem=   262144000 cpu:               1.4 elap:               0.5
 (Enter /prod/apps/gaussian/g16b1/l9999.exe)
 1\1\GINC-PIRINEUS14\SP\RMP2-FC\Aug-CC-pVDZ\C17H19N1O3S2\UBAFAR01\21-Se
 p-2020\0\\#p mp2/aug-cc-pVDZ scf=(MaxCycle=2000,NoVarAcc,NoIncFock) ma
 xdisk=120GB geom=allcheck\\SM36_m0.n.10.pdb.xyz\\0,1\O,0,-0.3309337188
 ,-3.957090486,0.1525251725\S,0,-0.1704456694,-2.5761276027,-0.33698452
 62\N,0,-1.0890032589,-1.6313939385,0.7129114677\C,0,-1.8405301498,-0.4
 523102788,0.2369946679\C,0,-2.8450731267,0.0130011308,1.3210352124\S,0
 ,-4.1563537912,0.4008476858,0.0436772996\O,0,-3.9871207767,1.839266855
 7,-0.4382446578\C,0,-2.9344128048,-0.701875183,-0.8387656073\C,0,-0.91
 74643532,0.6983167997,-0.1999551022\C,0,0.0234478144,1.2390569518,0.89
 01268475\C,0,0.7902293608,2.4562483253,0.419021418\C,0,0.1747228278,3.
 7158073588,0.3762815365\C,0,0.8678862561,4.8388808258,-0.0762530731\C,
 0,2.1956215673,4.7213033086,-0.4957232268\C,0,2.8208034084,3.473881928
 9,-0.4575330302\C,0,2.1225377548,2.3513876581,-0.0035640885\C,0,1.5271
 867416,-2.0842840997,-0.0576275106\C,0,2.0686820966,-2.1830563936,1.22
 73924175\C,0,3.4119077594,-1.8656713306,1.4157170355\C,0,4.19675,-1.46
 52848028,0.329597714\C,0,3.6437194371,-1.3783998523,-0.9483804477\C,0,
 2.2976614212,-1.6902031409,-1.1507652317\O,0,-0.4962662763,-2.26608165
 88,-1.7399279095\H,0,-1.6641122719,-2.2751733163,1.2583893672\H,0,-2.5
 699478905,0.8733875708,1.930556707\H,0,-3.2233169481,-0.7927465097,1.9
 534629416\H,0,-2.726588224,-0.379724091,-1.8591003803\H,0,-3.333410050
 3,-1.7176388555,-0.8310384858\H,0,-1.5750791357,1.5026117513,-0.544668
 7807\H,0,-0.3366171571,0.377124471,-1.0704387663\H,0,0.7232660019,0.45
 82546999,1.1967845574\H,0,-0.5649718668,1.503555647,1.7755927043\H,0,-
 0.8564290437,3.8162141074,0.7039316357\H,0,0.3738870294,5.805234137,-0
 .097411024\H,0,2.737623014,5.594025692,-0.8454134143\H,0,3.8532938473,
 3.3731112984,-0.7775763621\H,0,2.6159935607,1.3841508559,0.027798986\H
 ,0,1.4530098683,-2.4948393563,2.0630145125\H,0,3.8455204844,-1.9325530
 503,2.4072670693\H,0,5.2424350119,-1.222150117,0.4822133282\H,0,4.2556
 598468,-1.0705261107,-1.7887837134\H,0,1.8462314036,-1.6305388856,-2.1
 331372599\\Version=ES64L-G16RevB.01\State=1-A\HF=-1728.8688729\MP2=-17
 32.3161292\RMSD=6.072e-09\PG=C01 [X(C17H19N1O3S2)]\\@


 REFRAIN FROM ILLUSIONS, INSIST ON WORK AND NOT WORDS,
 PATIENTLY SEEK DIVINE AND SCIENTIFIC TRUTH.
 LAST WORDS OF MARIA MENDELEEVA TO HER SON DMITRI, C. 1850
 Job cpu time:       0 days  8 hours 18 minutes 42.6 seconds.
 Elapsed time:       0 days  2 hours 23 minutes 30.5 seconds.
 File lengths (MBytes):  RWF= 113711 Int=      0 D2E=      0 Chk=     40 Scr=      1
 Normal termination of Gaussian 16 at Mon Sep 21 09:15:26 2020.
