 Entering Gaussian System, Link 0=g16
 Initial command:
 /prod/apps/gaussian/g16b1/l1.exe "/tmp/ubafar01/1460286/Gau-136549.inp" -scrdir="/tmp/ubafar01/1460286/"
 Entering Link 1 = /prod/apps/gaussian/g16b1/l1.exe PID=    136551.
  
 Copyright (c) 1988-2017, Gaussian, Inc.  All Rights Reserved.
  
 This is part of the Gaussian(R) 16 program.  It is based on
 the Gaussian(R) 09 system (copyright 2009, Gaussian, Inc.),
 the Gaussian(R) 03 system (copyright 2003, Gaussian, Inc.),
 the Gaussian(R) 98 system (copyright 1998, Gaussian, Inc.),
 the Gaussian(R) 94 system (copyright 1995, Gaussian, Inc.),
 the Gaussian 92(TM) system (copyright 1992, Gaussian, Inc.),
 the Gaussian 90(TM) system (copyright 1990, Gaussian, Inc.),
 the Gaussian 88(TM) system (copyright 1988, Gaussian, Inc.),
 the Gaussian 86(TM) system (copyright 1986, Carnegie Mellon
 University), and the Gaussian 82(TM) system (copyright 1983,
 Carnegie Mellon University). Gaussian is a federally registered
 trademark of Gaussian, Inc.
  
 This software contains proprietary and confidential information,
 including trade secrets, belonging to Gaussian, Inc.
  
 This software is provided under written license and may be
 used, copied, transmitted, or stored only in accord with that
 written license.
  
 The following legend is applicable only to US Government
 contracts under FAR:
  
                    RESTRICTED RIGHTS LEGEND
  
 Use, reproduction and disclosure by the US Government is
 subject to restrictions as set forth in subparagraphs (a)
 and (c) of the Commercial Computer Software - Restricted
 Rights clause in FAR 52.227-19.
  
 Gaussian, Inc.
 340 Quinnipiac St., Bldg. 40, Wallingford CT 06492
  
  
 ---------------------------------------------------------------
 Warning -- This program may not be used in any manner that
 competes with the business of Gaussian, Inc. or will provide
 assistance to any competitor of Gaussian, Inc.  The licensee
 of this program is prohibited from giving any competitor of
 Gaussian, Inc. access to this program.  By using this program,
 the user acknowledges that Gaussian, Inc. is engaged in the
 business of creating and licensing software in the field of
 computational chemistry and represents and warrants to the
 licensee that it is not a competitor of Gaussian, Inc. and that
 it will not use this program in any manner prohibited above.
 ---------------------------------------------------------------
  

 Cite this work as:
 Gaussian 16, Revision B.01,
 M. J. Frisch, G. W. Trucks, H. B. Schlegel, G. E. Scuseria, 
 M. A. Robb, J. R. Cheeseman, G. Scalmani, V. Barone, 
 G. A. Petersson, H. Nakatsuji, X. Li, M. Caricato, A. V. Marenich, 
 J. Bloino, B. G. Janesko, R. Gomperts, B. Mennucci, H. P. Hratchian, 
 J. V. Ortiz, A. F. Izmaylov, J. L. Sonnenberg, D. Williams-Young, 
 F. Ding, F. Lipparini, F. Egidi, J. Goings, B. Peng, A. Petrone, 
 T. Henderson, D. Ranasinghe, V. G. Zakrzewski, J. Gao, N. Rega, 
 G. Zheng, W. Liang, M. Hada, M. Ehara, K. Toyota, R. Fukuda, 
 J. Hasegawa, M. Ishida, T. Nakajima, Y. Honda, O. Kitao, H. Nakai, 
 T. Vreven, K. Throssell, J. A. Montgomery, Jr., J. E. Peralta, 
 F. Ogliaro, M. J. Bearpark, J. J. Heyd, E. N. Brothers, K. N. Kudin, 
 V. N. Staroverov, T. A. Keith, R. Kobayashi, J. Normand, 
 K. Raghavachari, A. P. Rendell, J. C. Burant, S. S. Iyengar, 
 J. Tomasi, M. Cossi, J. M. Millam, M. Klene, C. Adamo, R. Cammi, 
 J. W. Ochterski, R. L. Martin, K. Morokuma, O. Farkas, 
 J. B. Foresman, and D. J. Fox, Gaussian, Inc., Wallingford CT, 2016.
 
 ******************************************
 Gaussian 16:  ES64L-G16RevB.01 20-Dec-2017
                21-Sep-2020 
 ******************************************
 %nproc=4
 Will use up to    4 processors via shared memory.
 %Chk=SM36_m1.a.12.pdb.xyz.mst.a.w.chk
 %mem=16GB
 ----------------------------------------------------------------------
 #p b3lyp/6-31G(d) opt freq NoSymm scf=(MaxCycle=2000,NoVarAcc,NoIncFoc
 k) scrf=(iefpcm,read,solvent=water)
 ----------------------------------------------------------------------
 1/18=20,19=15,26=3,38=1,40=2/1,3;
 2/9=110,12=2,15=1,17=6,18=5,40=1/2;
 3/5=1,6=6,7=1,11=2,25=1,30=1,70=2203,71=1,72=1,74=-5/1,2,3;
 4//1;
 5/5=100002,7=2000,38=1,53=1/2;
 6/7=2,8=2,9=2,10=2,28=1/1;
 7/30=1/1,2,3,16;
 1/18=20,19=15,26=3/3(2);
 2/9=110,15=1/2;
 99//99;
 2/9=110,15=1/2;
 3/5=1,6=6,7=1,11=2,25=1,30=1,70=2205,71=1,72=1,74=-5/1,2,3;
 4/5=5,16=3,69=1/1;
 5/5=100002,7=2000,38=1,53=1/2;
 7/30=1/1,2,3,16;
 1/18=20,19=15,26=3/3(-5);
 2/9=110,15=1/2;
 6/7=2,8=2,9=2,10=2,19=2,28=1/1;
 99/9=1/99;
 Leave Link    1 at Mon Sep 21 18:30:30 2020, MaxMem=  2147483648 cpu:               0.1 elap:               0.0
 (Enter /prod/apps/gaussian/g16b1/l101.exe)
 --------------------
 SM36_m1.a.12.pdb.xyz
 --------------------
 Symbolic Z-matrix:
 Charge = -1 Multiplicity = 1
 O                    -1.364    -0.183    -2.269 
 S                    -1.466    -0.957    -0.99 
 N                    -0.331    -0.691     0.077 
 C                     0.308     0.612     0.199 
 C                    -0.572     1.909     0.132 
 S                     0.693     2.84     -0.875 
 O                     1.643     3.613     0.05 
 C                     1.227     1.058    -0.992 
 C                     1.073     0.632     1.547 
 C                     1.985    -0.571     1.873 
 C                     3.196    -0.763     0.981 
 C                     4.326     0.059     1.116 
 C                     5.444    -0.111     0.296 
 C                     5.456    -1.118    -0.674 
 C                     4.342    -1.95     -0.814 
 C                     3.225    -1.772     0.007 
 C                    -3.069    -0.453    -0.288 
 C                    -4.076     0.03     -1.129 
 C                    -5.324     0.362    -0.595 
 C                    -5.566     0.208     0.772 
 C                    -4.556    -0.276     1.609 
 C                    -3.307    -0.607     1.081 
 O                    -1.595    -2.434    -1.172 
 H                    -0.815     2.408     1.074 
 H                    -1.468     1.813    -0.485 
 H                     2.306     0.94     -0.887 
 H                     0.88      0.668    -1.951 
 H                     0.316     0.685     2.342 
 H                     1.65      1.563     1.601 
 H                     1.381    -1.483     1.866 
 H                     2.33     -0.433     2.906 
 H                     4.33      0.84      1.874 
 H                     6.308     0.537     0.419 
 H                     6.326    -1.255    -1.31 
 H                     4.342    -2.739    -1.562 
 H                     2.358    -2.416    -0.114 
 H                    -3.877     0.154    -2.188 
 H                    -6.105     0.743    -1.248 
 H                    -6.536     0.468     1.186 
 H                    -4.739    -0.392     2.674 
 H                    -2.514    -0.968     1.729 
 
 ITRead=  0  0  0  0  0  0  0  0  0  0  0  0  0  0  0  0  0  0  0  0
 ITRead=  0  0  0  0  0  0  0  0  0  0  0  0  0  0  0  0  0  0  0  0
 ITRead=  0
 MicOpt= -1 -1 -1 -1 -1 -1 -1 -1 -1 -1 -1 -1 -1 -1 -1 -1 -1 -1 -1 -1
 MicOpt= -1 -1 -1 -1 -1 -1 -1 -1 -1 -1 -1 -1 -1 -1 -1 -1 -1 -1 -1 -1
 MicOpt= -1
 NAtoms=     41 NQM=       41 NQMF=       0 NMMI=      0 NMMIF=      0
                NMic=       0 NMicF=      0.
                    Isotopes and Nuclear Properties:
 (Nuclear quadrupole moments (NQMom) in fm**2, nuclear magnetic moments (NMagM)
  in nuclear magnetons)

  Atom         1           2           3           4           5           6           7           8           9          10
 IAtWgt=          16          32          14          12          12          32          16          12          12          12
 AtmWgt=  15.9949146  31.9720718  14.0030740  12.0000000  12.0000000  31.9720718  15.9949146  12.0000000  12.0000000  12.0000000
 NucSpn=           0           0           2           0           0           0           0           0           0           0
 AtZEff=  -0.0000000  -0.0000000  -0.0000000  -0.0000000  -0.0000000  -0.0000000  -0.0000000  -0.0000000  -0.0000000  -0.0000000
 NQMom=    0.0000000   0.0000000   2.0440000   0.0000000   0.0000000   0.0000000   0.0000000   0.0000000   0.0000000   0.0000000
 NMagM=    0.0000000   0.0000000   0.4037610   0.0000000   0.0000000   0.0000000   0.0000000   0.0000000   0.0000000   0.0000000
 AtZNuc=   8.0000000  16.0000000   7.0000000   6.0000000   6.0000000  16.0000000   8.0000000   6.0000000   6.0000000   6.0000000

  Atom        11          12          13          14          15          16          17          18          19          20
 IAtWgt=          12          12          12          12          12          12          12          12          12          12
 AtmWgt=  12.0000000  12.0000000  12.0000000  12.0000000  12.0000000  12.0000000  12.0000000  12.0000000  12.0000000  12.0000000
 NucSpn=           0           0           0           0           0           0           0           0           0           0
 AtZEff=  -0.0000000  -0.0000000  -0.0000000  -0.0000000  -0.0000000  -0.0000000  -0.0000000  -0.0000000  -0.0000000  -0.0000000
 NQMom=    0.0000000   0.0000000   0.0000000   0.0000000   0.0000000   0.0000000   0.0000000   0.0000000   0.0000000   0.0000000
 NMagM=    0.0000000   0.0000000   0.0000000   0.0000000   0.0000000   0.0000000   0.0000000   0.0000000   0.0000000   0.0000000
 AtZNuc=   6.0000000   6.0000000   6.0000000   6.0000000   6.0000000   6.0000000   6.0000000   6.0000000   6.0000000   6.0000000

  Atom        21          22          23          24          25          26          27          28          29          30
 IAtWgt=          12          12          16           1           1           1           1           1           1           1
 AtmWgt=  12.0000000  12.0000000  15.9949146   1.0078250   1.0078250   1.0078250   1.0078250   1.0078250   1.0078250   1.0078250
 NucSpn=           0           0           0           1           1           1           1           1           1           1
 AtZEff=  -0.0000000  -0.0000000  -0.0000000  -0.0000000  -0.0000000  -0.0000000  -0.0000000  -0.0000000  -0.0000000  -0.0000000
 NQMom=    0.0000000   0.0000000   0.0000000   0.0000000   0.0000000   0.0000000   0.0000000   0.0000000   0.0000000   0.0000000
 NMagM=    0.0000000   0.0000000   0.0000000   2.7928460   2.7928460   2.7928460   2.7928460   2.7928460   2.7928460   2.7928460
 AtZNuc=   6.0000000   6.0000000   8.0000000   1.0000000   1.0000000   1.0000000   1.0000000   1.0000000   1.0000000   1.0000000

  Atom        31          32          33          34          35          36          37          38          39          40
 IAtWgt=           1           1           1           1           1           1           1           1           1           1
 AtmWgt=   1.0078250   1.0078250   1.0078250   1.0078250   1.0078250   1.0078250   1.0078250   1.0078250   1.0078250   1.0078250
 NucSpn=           1           1           1           1           1           1           1           1           1           1
 AtZEff=  -0.0000000  -0.0000000  -0.0000000  -0.0000000  -0.0000000  -0.0000000  -0.0000000  -0.0000000  -0.0000000  -0.0000000
 NQMom=    0.0000000   0.0000000   0.0000000   0.0000000   0.0000000   0.0000000   0.0000000   0.0000000   0.0000000   0.0000000
 NMagM=    2.7928460   2.7928460   2.7928460   2.7928460   2.7928460   2.7928460   2.7928460   2.7928460   2.7928460   2.7928460
 AtZNuc=   1.0000000   1.0000000   1.0000000   1.0000000   1.0000000   1.0000000   1.0000000   1.0000000   1.0000000   1.0000000

  Atom        41
 IAtWgt=           1
 AtmWgt=   1.0078250
 NucSpn=           1
 AtZEff=  -0.0000000
 NQMom=    0.0000000
 NMagM=    2.7928460
 AtZNuc=   1.0000000
 Leave Link  101 at Mon Sep 21 18:30:31 2020, MaxMem=  2147483648 cpu:               1.3 elap:               0.3
 (Enter /prod/apps/gaussian/g16b1/l103.exe)

 GradGradGradGradGradGradGradGradGradGradGradGradGradGradGradGradGradGrad
 Berny optimization.
 Initialization pass.
                           ----------------------------
                           !    Initial Parameters    !
                           ! (Angstroms and Degrees)  !
 --------------------------                            --------------------------
 ! Name  Definition              Value          Derivative Info.                !
 --------------------------------------------------------------------------------
 ! R1    R(1,2)                  1.4984         estimate D2E/DX2                !
 ! R2    R(2,3)                  1.5803         estimate D2E/DX2                !
 ! R3    R(2,17)                 1.8211         estimate D2E/DX2                !
 ! R4    R(2,23)                 1.4938         estimate D2E/DX2                !
 ! R5    R(3,4)                  1.4564         estimate D2E/DX2                !
 ! R6    R(4,5)                  1.5688         estimate D2E/DX2                !
 ! R7    R(4,8)                  1.5691         estimate D2E/DX2                !
 ! R8    R(4,9)                  1.5501         estimate D2E/DX2                !
 ! R9    R(5,6)                  1.8658         estimate D2E/DX2                !
 ! R10   R(5,24)                 1.0933         estimate D2E/DX2                !
 ! R11   R(5,25)                 1.0921         estimate D2E/DX2                !
 ! R12   R(6,7)                  1.5348         estimate D2E/DX2                !
 ! R13   R(6,8)                  1.864          estimate D2E/DX2                !
 ! R14   R(8,26)                 1.0905         estimate D2E/DX2                !
 ! R15   R(8,27)                 1.0919         estimate D2E/DX2                !
 ! R16   R(9,10)                 1.5444         estimate D2E/DX2                !
 ! R17   R(9,28)                 1.099          estimate D2E/DX2                !
 ! R18   R(9,29)                 1.0966         estimate D2E/DX2                !
 ! R19   R(10,11)                1.5163         estimate D2E/DX2                !
 ! R20   R(10,30)                1.0939         estimate D2E/DX2                !
 ! R21   R(10,31)                1.0978         estimate D2E/DX2                !
 ! R22   R(11,12)                1.4039         estimate D2E/DX2                !
 ! R23   R(11,16)                1.4027         estimate D2E/DX2                !
 ! R24   R(12,13)                1.3969         estimate D2E/DX2                !
 ! R25   R(12,32)                1.0884         estimate D2E/DX2                !
 ! R26   R(13,14)                1.3982         estimate D2E/DX2                !
 ! R27   R(13,33)                1.087          estimate D2E/DX2                !
 ! R28   R(14,15)                1.3974         estimate D2E/DX2                !
 ! R29   R(14,34)                1.0864         estimate D2E/DX2                !
 ! R30   R(15,16)                1.3976         estimate D2E/DX2                !
 ! R31   R(15,35)                1.0872         estimate D2E/DX2                !
 ! R32   R(16,36)                1.0868         estimate D2E/DX2                !
 ! R33   R(17,18)                1.3981         estimate D2E/DX2                !
 ! R34   R(17,22)                1.398          estimate D2E/DX2                !
 ! R35   R(18,19)                1.3975         estimate D2E/DX2                !
 ! R36   R(18,37)                1.0846         estimate D2E/DX2                !
 ! R37   R(19,20)                1.3968         estimate D2E/DX2                !
 ! R38   R(19,38)                1.087          estimate D2E/DX2                !
 ! R39   R(20,21)                1.3982         estimate D2E/DX2                !
 ! R40   R(20,39)                1.0862         estimate D2E/DX2                !
 ! R41   R(21,22)                1.3958         estimate D2E/DX2                !
 ! R42   R(21,40)                1.0868         estimate D2E/DX2                !
 ! R43   R(22,41)                1.0859         estimate D2E/DX2                !
 ! A1    A(1,2,3)              116.1335         estimate D2E/DX2                !
 ! A2    A(1,2,17)             104.2405         estimate D2E/DX2                !
 ! A3    A(1,2,23)             114.3699         estimate D2E/DX2                !
 ! A4    A(3,2,17)             108.986          estimate D2E/DX2                !
 ! A5    A(3,2,23)             108.1025         estimate D2E/DX2                !
 ! A6    A(17,2,23)            104.1583         estimate D2E/DX2                !
 ! A7    A(2,3,4)              121.4847         estimate D2E/DX2                !
 ! A8    A(3,4,5)              119.3399         estimate D2E/DX2                !
 ! A9    A(3,4,8)              116.5968         estimate D2E/DX2                !
 ! A10   A(3,4,9)              107.5137         estimate D2E/DX2                !
 ! A11   A(5,4,8)               93.5044         estimate D2E/DX2                !
 ! A12   A(5,4,9)              107.6567         estimate D2E/DX2                !
 ! A13   A(8,4,9)              111.5537         estimate D2E/DX2                !
 ! A14   A(4,5,6)               93.1684         estimate D2E/DX2                !
 ! A15   A(4,5,24)             117.7232         estimate D2E/DX2                !
 ! A16   A(4,5,25)             114.3095         estimate D2E/DX2                !
 ! A17   A(6,5,24)             112.828          estimate D2E/DX2                !
 ! A18   A(6,5,25)             107.1693         estimate D2E/DX2                !
 ! A19   A(24,5,25)            110.153          estimate D2E/DX2                !
 ! A20   A(5,6,7)              110.2245         estimate D2E/DX2                !
 ! A21   A(5,6,8)               75.5856         estimate D2E/DX2                !
 ! A22   A(7,6,8)              109.9988         estimate D2E/DX2                !
 ! A23   A(4,8,6)               93.2278         estimate D2E/DX2                !
 ! A24   A(4,8,26)             118.4036         estimate D2E/DX2                !
 ! A25   A(4,8,27)             112.2727         estimate D2E/DX2                !
 ! A26   A(6,8,26)             112.3876         estimate D2E/DX2                !
 ! A27   A(6,8,27)             107.792          estimate D2E/DX2                !
 ! A28   A(26,8,27)            111.1229         estimate D2E/DX2                !
 ! A29   A(4,9,10)             117.7068         estimate D2E/DX2                !
 ! A30   A(4,9,28)             106.843          estimate D2E/DX2                !
 ! A31   A(4,9,29)             108.2671         estimate D2E/DX2                !
 ! A32   A(10,9,28)            106.9544         estimate D2E/DX2                !
 ! A33   A(10,9,29)            109.8884         estimate D2E/DX2                !
 ! A34   A(28,9,29)            106.6095         estimate D2E/DX2                !
 ! A35   A(9,10,11)            116.4928         estimate D2E/DX2                !
 ! A36   A(9,10,30)            108.7842         estimate D2E/DX2                !
 ! A37   A(9,10,31)            106.6357         estimate D2E/DX2                !
 ! A38   A(11,10,30)           109.3693         estimate D2E/DX2                !
 ! A39   A(11,10,31)           108.5715         estimate D2E/DX2                !
 ! A40   A(30,10,31)           106.5199         estimate D2E/DX2                !
 ! A41   A(10,11,12)           120.8077         estimate D2E/DX2                !
 ! A42   A(10,11,16)           121.0702         estimate D2E/DX2                !
 ! A43   A(12,11,16)           118.1198         estimate D2E/DX2                !
 ! A44   A(11,12,13)           121.0994         estimate D2E/DX2                !
 ! A45   A(11,12,32)           119.3473         estimate D2E/DX2                !
 ! A46   A(13,12,32)           119.5532         estimate D2E/DX2                !
 ! A47   A(12,13,14)           120.1162         estimate D2E/DX2                !
 ! A48   A(12,13,33)           119.815          estimate D2E/DX2                !
 ! A49   A(14,13,33)           120.0672         estimate D2E/DX2                !
 ! A50   A(13,14,15)           119.4354         estimate D2E/DX2                !
 ! A51   A(13,14,34)           120.254          estimate D2E/DX2                !
 ! A52   A(15,14,34)           120.31           estimate D2E/DX2                !
 ! A53   A(14,15,16)           120.1608         estimate D2E/DX2                !
 ! A54   A(14,15,35)           120.0661         estimate D2E/DX2                !
 ! A55   A(16,15,35)           119.7731         estimate D2E/DX2                !
 ! A56   A(11,16,15)           121.0655         estimate D2E/DX2                !
 ! A57   A(11,16,36)           119.1485         estimate D2E/DX2                !
 ! A58   A(15,16,36)           119.7828         estimate D2E/DX2                !
 ! A59   A(2,17,18)            119.8506         estimate D2E/DX2                !
 ! A60   A(2,17,22)            119.7909         estimate D2E/DX2                !
 ! A61   A(18,17,22)           120.297          estimate D2E/DX2                !
 ! A62   A(17,18,19)           119.6998         estimate D2E/DX2                !
 ! A63   A(17,18,37)           119.6476         estimate D2E/DX2                !
 ! A64   A(19,18,37)           120.6489         estimate D2E/DX2                !
 ! A65   A(18,19,20)           120.1663         estimate D2E/DX2                !
 ! A66   A(18,19,38)           119.6944         estimate D2E/DX2                !
 ! A67   A(20,19,38)           120.1391         estimate D2E/DX2                !
 ! A68   A(19,20,21)           119.9262         estimate D2E/DX2                !
 ! A69   A(19,20,39)           120.0886         estimate D2E/DX2                !
 ! A70   A(21,20,39)           119.9846         estimate D2E/DX2                !
 ! A71   A(20,21,22)           120.1337         estimate D2E/DX2                !
 ! A72   A(20,21,40)           120.1278         estimate D2E/DX2                !
 ! A73   A(22,21,40)           119.738          estimate D2E/DX2                !
 ! A74   A(17,22,21)           119.7766         estimate D2E/DX2                !
 ! A75   A(17,22,41)           119.7797         estimate D2E/DX2                !
 ! A76   A(21,22,41)           120.4362         estimate D2E/DX2                !
 ! D1    D(1,2,3,4)             31.8185         estimate D2E/DX2                !
 ! D2    D(17,2,3,4)           -85.4762         estimate D2E/DX2                !
 ! D3    D(23,2,3,4)           161.9039         estimate D2E/DX2                !
 ! D4    D(1,2,17,18)           24.4461         estimate D2E/DX2                !
 ! D5    D(1,2,17,22)         -158.3974         estimate D2E/DX2                !
 ! D6    D(3,2,17,18)          149.0493         estimate D2E/DX2                !
 ! D7    D(3,2,17,22)          -33.7942         estimate D2E/DX2                !
 ! D8    D(23,2,17,18)         -95.7569         estimate D2E/DX2                !
 ! D9    D(23,2,17,22)          81.3996         estimate D2E/DX2                !
 ! D10   D(2,3,4,5)             42.458          estimate D2E/DX2                !
 ! D11   D(2,3,4,8)            -68.6331         estimate D2E/DX2                !
 ! D12   D(2,3,4,9)            165.2936         estimate D2E/DX2                !
 ! D13   D(3,4,5,6)           -140.5017         estimate D2E/DX2                !
 ! D14   D(3,4,5,24)           101.5912         estimate D2E/DX2                !
 ! D15   D(3,4,5,25)           -30.0501         estimate D2E/DX2                !
 ! D16   D(8,4,5,6)            -17.2052         estimate D2E/DX2                !
 ! D17   D(8,4,5,24)          -135.1123         estimate D2E/DX2                !
 ! D18   D(8,4,5,25)            93.2465         estimate D2E/DX2                !
 ! D19   D(9,4,5,6)             96.7331         estimate D2E/DX2                !
 ! D20   D(9,4,5,24)           -21.1741         estimate D2E/DX2                !
 ! D21   D(9,4,5,25)          -152.8153         estimate D2E/DX2                !
 ! D22   D(3,4,8,6)            142.6502         estimate D2E/DX2                !
 ! D23   D(3,4,8,26)           -99.6926         estimate D2E/DX2                !
 ! D24   D(3,4,8,27)            31.929          estimate D2E/DX2                !
 ! D25   D(5,4,8,6)             17.2232         estimate D2E/DX2                !
 ! D26   D(5,4,8,26)           134.8804         estimate D2E/DX2                !
 ! D27   D(5,4,8,27)           -93.498          estimate D2E/DX2                !
 ! D28   D(9,4,8,6)            -93.3202         estimate D2E/DX2                !
 ! D29   D(9,4,8,26)            24.337          estimate D2E/DX2                !
 ! D30   D(9,4,8,27)           155.9586         estimate D2E/DX2                !
 ! D31   D(3,4,9,10)            48.4459         estimate D2E/DX2                !
 ! D32   D(3,4,9,28)           -71.7612         estimate D2E/DX2                !
 ! D33   D(3,4,9,29)           173.7549         estimate D2E/DX2                !
 ! D34   D(5,4,9,10)           178.2119         estimate D2E/DX2                !
 ! D35   D(5,4,9,28)            58.0048         estimate D2E/DX2                !
 ! D36   D(5,4,9,29)           -56.4791         estimate D2E/DX2                !
 ! D37   D(8,4,9,10)           -80.5609         estimate D2E/DX2                !
 ! D38   D(8,4,9,28)           159.232          estimate D2E/DX2                !
 ! D39   D(8,4,9,29)            44.7481         estimate D2E/DX2                !
 ! D40   D(4,5,6,7)            -91.4885         estimate D2E/DX2                !
 ! D41   D(4,5,6,8)             14.8689         estimate D2E/DX2                !
 ! D42   D(24,5,6,7)            30.4365         estimate D2E/DX2                !
 ! D43   D(24,5,6,8)           136.7939         estimate D2E/DX2                !
 ! D44   D(25,5,6,7)           151.8558         estimate D2E/DX2                !
 ! D45   D(25,5,6,8)          -101.7868         estimate D2E/DX2                !
 ! D46   D(5,6,8,4)            -14.8671         estimate D2E/DX2                !
 ! D47   D(5,6,8,26)          -137.4489         estimate D2E/DX2                !
 ! D48   D(5,6,8,27)            99.7646         estimate D2E/DX2                !
 ! D49   D(7,6,8,4)             91.7693         estimate D2E/DX2                !
 ! D50   D(7,6,8,26)           -30.8125         estimate D2E/DX2                !
 ! D51   D(7,6,8,27)          -153.5991         estimate D2E/DX2                !
 ! D52   D(4,9,10,11)           65.6683         estimate D2E/DX2                !
 ! D53   D(4,9,10,30)          -58.4527         estimate D2E/DX2                !
 ! D54   D(4,9,10,31)         -172.9777         estimate D2E/DX2                !
 ! D55   D(28,9,10,11)        -174.1828         estimate D2E/DX2                !
 ! D56   D(28,9,10,30)          61.6962         estimate D2E/DX2                !
 ! D57   D(28,9,10,31)         -52.8288         estimate D2E/DX2                !
 ! D58   D(29,9,10,11)         -58.8371         estimate D2E/DX2                !
 ! D59   D(29,9,10,30)         177.0419         estimate D2E/DX2                !
 ! D60   D(29,9,10,31)          62.5169         estimate D2E/DX2                !
 ! D61   D(9,10,11,12)          75.7716         estimate D2E/DX2                !
 ! D62   D(9,10,11,16)        -104.7924         estimate D2E/DX2                !
 ! D63   D(30,10,11,12)       -160.4078         estimate D2E/DX2                !
 ! D64   D(30,10,11,16)         19.0282         estimate D2E/DX2                !
 ! D65   D(31,10,11,12)        -44.5537         estimate D2E/DX2                !
 ! D66   D(31,10,11,16)        134.8824         estimate D2E/DX2                !
 ! D67   D(10,11,12,13)       -179.8884         estimate D2E/DX2                !
 ! D68   D(10,11,12,32)          0.229          estimate D2E/DX2                !
 ! D69   D(16,11,12,13)          0.6593         estimate D2E/DX2                !
 ! D70   D(16,11,12,32)       -179.2233         estimate D2E/DX2                !
 ! D71   D(10,11,16,15)       -179.9163         estimate D2E/DX2                !
 ! D72   D(10,11,16,36)          0.7428         estimate D2E/DX2                !
 ! D73   D(12,11,16,15)         -0.4655         estimate D2E/DX2                !
 ! D74   D(12,11,16,36)       -179.8064         estimate D2E/DX2                !
 ! D75   D(11,12,13,14)         -0.4266         estimate D2E/DX2                !
 ! D76   D(11,12,13,33)       -179.965          estimate D2E/DX2                !
 ! D77   D(32,12,13,14)        179.4557         estimate D2E/DX2                !
 ! D78   D(32,12,13,33)         -0.0827         estimate D2E/DX2                !
 ! D79   D(12,13,14,15)         -0.0161         estimate D2E/DX2                !
 ! D80   D(12,13,14,34)       -179.7316         estimate D2E/DX2                !
 ! D81   D(33,13,14,15)        179.5211         estimate D2E/DX2                !
 ! D82   D(33,13,14,34)         -0.1944         estimate D2E/DX2                !
 ! D83   D(13,14,15,16)          0.2072         estimate D2E/DX2                !
 ! D84   D(13,14,15,35)       -179.7377         estimate D2E/DX2                !
 ! D85   D(34,14,15,16)        179.9226         estimate D2E/DX2                !
 ! D86   D(34,14,15,35)         -0.0223         estimate D2E/DX2                !
 ! D87   D(14,15,16,11)          0.039          estimate D2E/DX2                !
 ! D88   D(14,15,16,36)        179.3757         estimate D2E/DX2                !
 ! D89   D(35,15,16,11)        179.9841         estimate D2E/DX2                !
 ! D90   D(35,15,16,36)         -0.6792         estimate D2E/DX2                !
 ! D91   D(2,17,18,19)         177.2751         estimate D2E/DX2                !
 ! D92   D(2,17,18,37)          -3.4203         estimate D2E/DX2                !
 ! D93   D(22,17,18,19)          0.1332         estimate D2E/DX2                !
 ! D94   D(22,17,18,37)        179.4377         estimate D2E/DX2                !
 ! D95   D(2,17,22,21)        -177.1725         estimate D2E/DX2                !
 ! D96   D(2,17,22,41)           3.8184         estimate D2E/DX2                !
 ! D97   D(18,17,22,21)         -0.0289         estimate D2E/DX2                !
 ! D98   D(18,17,22,41)       -179.038          estimate D2E/DX2                !
 ! D99   D(17,18,19,20)         -0.2082         estimate D2E/DX2                !
 ! D100  D(17,18,19,38)        179.644          estimate D2E/DX2                !
 ! D101  D(37,18,19,20)       -179.5057         estimate D2E/DX2                !
 ! D102  D(37,18,19,38)          0.3465         estimate D2E/DX2                !
 ! D103  D(18,19,20,21)          0.179          estimate D2E/DX2                !
 ! D104  D(18,19,20,39)        179.899          estimate D2E/DX2                !
 ! D105  D(38,19,20,21)       -179.6725         estimate D2E/DX2                !
 ! D106  D(38,19,20,39)          0.0475         estimate D2E/DX2                !
 ! D107  D(19,20,21,22)         -0.0739         estimate D2E/DX2                !
 ! D108  D(19,20,21,40)        179.667          estimate D2E/DX2                !
 ! D109  D(39,20,21,22)       -179.7942         estimate D2E/DX2                !
 ! D110  D(39,20,21,40)         -0.0533         estimate D2E/DX2                !
 ! D111  D(20,21,22,17)         -0.001          estimate D2E/DX2                !
 ! D112  D(20,21,22,41)        179.0015         estimate D2E/DX2                !
 ! D113  D(40,21,22,17)       -179.7429         estimate D2E/DX2                !
 ! D114  D(40,21,22,41)         -0.7404         estimate D2E/DX2                !
 --------------------------------------------------------------------------------
 Trust Radius=3.00D-01 FncErr=1.00D-07 GrdErr=1.00D-06 EigMax=2.50D+02 EigMin=1.00D-04
 Number of steps in this run=    243 maximum allowed number of steps=    246.
 GradGradGradGradGradGradGradGradGradGradGradGradGradGradGradGradGradGrad

 Leave Link  103 at Mon Sep 21 18:30:31 2020, MaxMem=  2147483648 cpu:               0.1 elap:               0.0
 (Enter /prod/apps/gaussian/g16b1/l202.exe)
                          Input orientation:                          
 ---------------------------------------------------------------------
 Center     Atomic      Atomic             Coordinates (Angstroms)
 Number     Number       Type             X           Y           Z
 ---------------------------------------------------------------------
      1          8           0       -1.364000   -0.183000   -2.269000
      2         16           0       -1.466000   -0.957000   -0.990000
      3          7           0       -0.331000   -0.691000    0.077000
      4          6           0        0.308000    0.612000    0.199000
      5          6           0       -0.572000    1.909000    0.132000
      6         16           0        0.693000    2.840000   -0.875000
      7          8           0        1.643000    3.613000    0.050000
      8          6           0        1.227000    1.058000   -0.992000
      9          6           0        1.073000    0.632000    1.547000
     10          6           0        1.985000   -0.571000    1.873000
     11          6           0        3.196000   -0.763000    0.981000
     12          6           0        4.326000    0.059000    1.116000
     13          6           0        5.444000   -0.111000    0.296000
     14          6           0        5.456000   -1.118000   -0.674000
     15          6           0        4.342000   -1.950000   -0.814000
     16          6           0        3.225000   -1.772000    0.007000
     17          6           0       -3.069000   -0.453000   -0.288000
     18          6           0       -4.076000    0.030000   -1.129000
     19          6           0       -5.324000    0.362000   -0.595000
     20          6           0       -5.566000    0.208000    0.772000
     21          6           0       -4.556000   -0.276000    1.609000
     22          6           0       -3.307000   -0.607000    1.081000
     23          8           0       -1.595000   -2.434000   -1.172000
     24          1           0       -0.815000    2.408000    1.074000
     25          1           0       -1.468000    1.813000   -0.485000
     26          1           0        2.306000    0.940000   -0.887000
     27          1           0        0.880000    0.668000   -1.951000
     28          1           0        0.316000    0.685000    2.342000
     29          1           0        1.650000    1.563000    1.601000
     30          1           0        1.381000   -1.483000    1.866000
     31          1           0        2.330000   -0.433000    2.906000
     32          1           0        4.330000    0.840000    1.874000
     33          1           0        6.308000    0.537000    0.419000
     34          1           0        6.326000   -1.255000   -1.310000
     35          1           0        4.342000   -2.739000   -1.562000
     36          1           0        2.358000   -2.416000   -0.114000
     37          1           0       -3.877000    0.154000   -2.188000
     38          1           0       -6.105000    0.743000   -1.248000
     39          1           0       -6.536000    0.468000    1.186000
     40          1           0       -4.739000   -0.392000    2.674000
     41          1           0       -2.514000   -0.968000    1.729000
 ---------------------------------------------------------------------
                    Distance matrix (angstroms):
                    1          2          3          4          5
     1  O    0.000000
     2  S    1.498440   0.000000
     3  N    2.613210   1.580339   0.000000
     4  C    3.085228   2.650011   1.456370   0.000000
     5  C    3.281544   3.205008   2.611725   1.568789   0.000000
     6  S    3.913185   4.369407   3.797742   2.503135   1.865753
     7  O    5.369304   5.624267   4.735169   3.287921   2.795812
     8  C    3.143897   3.363403   2.574709   1.569063   2.285602
     9  C    4.600549   3.925278   2.425375   1.550074   2.517733
    10  C    5.340647   4.500574   2.933236   2.648413   3.964811
    11  C    5.629609   5.065246   3.641721   3.292824   4.696617
    12  C    6.625171   6.246179   4.830080   4.158247   5.327397
    13  C    7.275526   7.079379   5.808183   5.187546   6.348193
    14  C    7.066162   6.931079   5.851128   5.500630   6.793316
    15  C    6.147987   5.894904   4.920964   4.884994   6.319351
    16  C    5.363210   4.864536   3.717337   3.772162   5.289858
    17  C    2.627601   1.821107   2.772456   3.574286   3.462723
    18  C    2.949561   2.793849   3.999913   4.617550   4.171184
    19  C    4.333694   4.096334   5.146887   5.693185   5.050073
    20  C    5.201670   4.612144   5.356907   5.915693   5.314418
    21  C    5.023584   4.094711   4.513300   5.141511   4.777867
    22  C    3.895834   2.792995   3.141918   3.915624   3.835503
    23  O    2.514711   1.493752   2.489126   3.844368   4.648504
    24  H    4.265012   4.000890   3.291210   2.291805   1.093350
    25  H    2.679083   2.815658   2.806890   2.250430   1.092118
    26  H    4.079210   4.223411   3.247033   2.297604   3.203156
    27  H    2.420922   3.011289   2.725103   2.225493   2.826177
    28  H    4.983688   4.119941   2.728041   2.144258   2.677839
    29  H    5.206689   4.772121   3.365628   2.161242   2.686068
    30  H    5.130619   4.066795   2.599756   2.884310   4.280961
    31  H    6.363078   5.464706   3.892393   3.536716   4.647757
    32  H    7.115660   6.710091   5.224758   4.362808   5.311020
    33  H    8.161086   8.040671   6.760271   6.004500   7.021336
    34  H    7.823360   7.804260   6.823307   6.479128   7.724808
    35  H    6.292171   6.102096   5.358876   5.532041   6.972871
    36  H    4.845988   4.185574   3.200442   3.670048   5.229822
    37  H    2.536789   2.912464   4.291662   4.839603   4.402891
    38  H    4.937307   4.947412   6.095167   6.575526   5.820485
    39  H    6.253832   5.698289   6.408993   6.916303   6.225487
    40  H    5.988953   4.945367   5.124868   5.710153   5.396319
    41  H    4.233524   2.913998   2.751604   3.577846   3.820851
                    6          7          8          9         10
     6  S    0.000000
     7  O    1.534814   0.000000
     8  C    1.863966   2.790492   0.000000
     9  C    3.299356   3.384120   2.579092   0.000000
    10  C    4.566803   4.576696   3.381779   1.544419   0.000000
    11  C    4.763544   4.735815   3.329524   2.602597   1.516262
    12  C    4.989662   4.578838   3.878849   3.331081   2.539730
    13  C    5.714162   5.326940   4.561644   4.606809   3.829257
    14  C    6.196155   6.119273   4.766607   5.215940   4.339846
    15  C    6.021879   6.243242   4.333933   4.788257   3.831065
    16  C    5.334744   5.612735   3.605399   3.575181   2.542038
    17  C    5.033991   6.232940   4.608075   4.658392   5.497887
    18  C    5.541117   6.850904   5.403458   5.834002   6.790355
    19  C    6.513307   7.715187   6.599820   6.751494   7.770650
    20  C    6.986781   8.005310   7.069586   6.697516   7.670505
    21  C    6.590274   7.482139   6.479803   5.702100   6.552969
    22  C    5.630963   6.585883   5.256112   4.575661   5.351058
    23  O    5.756581   6.967362   4.493345   4.889943   5.055610
    24  H    2.501857   2.922732   3.203220   2.634853   4.165674
    25  H    2.424201   3.633806   2.844310   3.461281   4.813193
    26  H    2.492371   2.909032   1.090500   2.745817   3.162872
    27  H    2.431117   3.641318   1.091875   3.503505   4.168827
    28  H    3.890404   3.948085   3.476292   1.099037   2.140808
    29  H    2.945701   2.570632   2.675370   1.096634   2.177192
    30  H    5.164761   5.416246   3.827344   2.160984   1.093896
    31  H    5.261963   4.999882   4.316723   2.135686   1.097797
    32  H    4.978430   4.270418   4.229668   3.279976   2.736777
    33  H    6.205358   5.600014   5.298955   5.355990   4.693624
    34  H    6.977746   6.890393   5.608110   6.270345   5.426198
    35  H    6.701672   7.087387   4.944222   5.631686   4.696264
    36  H    5.565688   6.073464   3.757489   3.701412   2.737028
    37  H    5.461086   6.887941   5.319629   6.219422   7.168012
    38  H    7.123857   8.363803   7.343227   7.703767   8.770139
    39  H    7.882420   8.836151   8.084303   7.619324   8.611558
    40  H    7.248990   7.978429   7.150889   6.008165   6.773907
    41  H    5.618410   6.409778   5.050109   3.931882   4.518777
                   11         12         13         14         15
    11  C    0.000000
    12  C    1.403855   0.000000
    13  C    2.438818   1.396862   0.000000
    14  C    2.823588   2.422051   1.398246   0.000000
    15  C    2.438096   2.785900   2.414213   1.397433   0.000000
    16  C    1.402711   2.407206   2.786827   2.422568   1.397646
    17  C    6.399741   7.544494   8.539859   8.559605   7.578958
    18  C    7.613339   8.696808   9.627092   9.611657   8.653459
    19  C    8.737265   9.805194  10.815148  10.881408   9.941069
    20  C    8.818116   9.899101  11.024901  11.195252  10.263568
    21  C    7.792628   8.901977  10.087180  10.303456   9.372706
    22  C    6.505639   7.662080   8.800127   8.951610   7.993865
    23  O    5.511926   6.819695   7.556380   7.190025   5.967444
    24  H    5.113904   5.652384   6.791592   7.403622   7.010803
    25  H    5.526104   6.261801   7.217166   7.521187   6.929972
    26  H    2.679876   2.978014   3.514418   3.768718   3.535919
    27  H    4.001030   4.653202   5.146450   5.075461   4.486885
    28  H    3.499061   4.239700   5.578182   6.226288   5.754323
    29  H    2.860908   3.107767   4.347383   5.181604   5.041851
    30  H    2.143793   3.407828   4.566755   4.815646   4.020946
    31  H    2.136465   2.725836   4.075878   4.801823   4.493087
    32  H    2.157085   1.088366   2.153017   3.404988   3.874221
    33  H    3.419121   2.154673   1.086982   2.158606   3.401561
    34  H    3.909942   3.407649   2.160069   1.086354   2.159930
    35  H    3.418295   3.873079   3.401904   2.158050   1.087210
    36  H    2.152598   3.392867   3.873567   3.405291   2.154858
    37  H    7.804536   8.843905   9.649949   9.540182   8.594571
    38  H    9.682204  10.717374  11.683007  11.723887  10.797241
    39  H    9.811687  10.869923  12.026959  12.238589  11.321555
    40  H    8.122076   9.208962  10.460752  10.755194   9.851805
    41  H    5.762433   6.943781   8.131279   8.325732   7.378069
                   16         17         18         19         20
    16  C    0.000000
    17  C    6.437486   0.000000
    18  C    7.605413   1.398077   0.000000
    19  C    8.831861   2.417333   1.397456   0.000000
    20  C    9.043633   2.792048   2.421897   1.396771   0.000000
    21  C    8.083835   2.416838   2.796548   2.419604   1.398186
    22  C    6.721438   1.398042   2.425125   2.795751   2.421319
    23  O    5.006065   2.622688   3.496928   4.696380   5.150548
    24  H    5.910371   3.888558   4.598066   5.225204   5.244350
    25  H    5.926090   2.781504   3.224204   4.121436   4.577082
    26  H    2.999790   5.584790   6.451092   7.657431   8.078149
    27  H    3.909781   4.429087   5.064056   6.357829   7.012649
    28  H    4.466694   4.435106   5.636180   6.367095   6.106583
    29  H    4.017921   5.468230   6.526106   7.409554   7.388770
    30  H    2.634338   5.050061   6.406094   7.376827   7.233058
    31  H    3.316345   6.273056   7.585014   8.454155   8.204368
    32  H    3.395476   7.816092   8.962976   9.976180   9.977206
    33  H    3.873773   9.455584  10.510985  11.677425  11.883801
    34  H    3.408516   9.484393  10.482633  11.783396  12.161199
    35  H    2.155119   7.859503   8.872292  10.197198  10.597209
    36  H    1.086769   5.773731   6.957693   8.183017   8.394054
    37  H    7.678926   2.152049   1.084646   2.162111   3.408407
    38  H    9.744185   3.401369   2.153920   1.086983   2.158042
    39  H   10.083886   3.878274   3.406269   2.156882   1.086230
    40  H    8.511321   3.400892   3.883357   3.405452   2.159058
    41  H    6.045479   2.154423   3.406466   3.881491   3.407863
                   21         22         23         24         25
    21  C    0.000000
    22  C    1.395832   0.000000
    23  O    4.599831   3.368216   0.000000
    24  H    4.635209   3.911565   5.394245   0.000000
    25  H    4.276038   3.419163   4.304080   1.791903   0.000000
    26  H    7.402413   6.145893   5.165550   3.967516   3.894459
    27  H    6.566189   5.324436   4.044115   3.879594   2.995544
    28  H    5.019681   4.047902   5.072305   2.419858   3.528026
    29  H    6.472744   5.436097   5.847697   2.658567   3.759763
    30  H    6.063899   4.833316   4.357800   4.537572   4.950517
    31  H    7.008841   5.927619   6.003308   4.617199   5.564908
    32  H    8.959725   7.813221   7.423127   5.437798   6.334699
    33  H   10.959177   9.705421   8.591597   7.393700   7.931681
    34  H   11.309152   9.946430   8.009452   8.372270   8.416631
    35  H    9.761968   8.368875   5.957608   7.748210   7.459003
    36  H    7.439874   6.065701   4.092175   5.894934   5.714924
    37  H    3.881127   3.404465   3.596877   5.009691   3.384637
    38  H    3.405908   3.882724   5.517174   6.012321   4.819630
    39  H    2.157050   3.404863   6.196390   6.042018   5.503262
    40  H    1.086816   2.152788   5.370867   5.079151   5.053785
    41  H    2.159405   1.085852   3.377798   3.835753   3.705384
                   26         27         28         29         30
    26  H    0.000000
    27  H    1.799877   0.000000
    28  H    3.801522   4.329923   0.000000
    29  H    2.647378   3.743077   1.760546   0.000000
    30  H    3.782270   4.409908   2.461915   3.069316   0.000000
    31  H    4.033925   5.187017   2.371543   2.479807   1.756332
    32  H    3.424865   5.153902   4.044162   2.789204   3.754064
    33  H    4.228954   5.924293   6.294752   4.913936   5.518110
    34  H    4.599712   5.811000   7.295259   6.187085   5.881495
    35  H    4.258634   4.872824   6.570667   5.979853   4.700664
    36  H    3.444266   3.882024   4.451730   4.390322   2.396960
    37  H    6.367094   4.790555   6.195491   6.847593   6.838220
    38  H    8.421048   7.020688   7.356678   8.302363   8.407869
    39  H    9.094013   8.054677   6.952218   8.269332   8.182157
    40  H    8.005434   7.354413   5.179110   6.767029   6.268775
    41  H    5.806576   5.266700   3.334228   4.874550   3.931287
                   31         32         33         34         35
    31  H    0.000000
    32  H    2.585644   0.000000
    33  H    4.790674   2.474130   0.000000
    34  H    5.866716   4.302429   2.490187   0.000000
    35  H    5.415607   4.961399   4.303684   2.490385   0.000000
    36  H    3.612959   4.294469   4.960524   4.303877   2.477355
    37  H    8.051103   9.182880  10.520331  10.337184   8.735748
    38  H    9.475649  10.892452  12.526128  12.590695  11.016475
    39  H    9.076131  10.894112  12.867066  13.214756  11.669072
    40  H    7.072925   9.187197  11.313014  11.791999  10.291582
    41  H    5.013571   7.080270   9.044822   9.352192   7.808448
                   36         37         38         39         40
    36  H    0.000000
    37  H    7.055608   0.000000
    38  H    9.104263   2.488876   0.000000
    39  H    9.439846   4.307291   2.487115   0.000000
    40  H    7.889039   4.967917   4.305376   2.486554   0.000000
    41  H    5.406453   4.296457   4.968433   4.305047   2.485040
                   41
    41  H    0.000000
 Symmetry turned off by external request.
 Stoichiometry    C17H18NO3S2(1-)
 Framework group  C1[X(C17H18NO3S2)]
 Deg. of freedom   117
 Full point group                 C1      NOp   1
 Rotational constants (GHZ):           0.4161731           0.1340281           0.1207624
 Leave Link  202 at Mon Sep 21 18:30:31 2020, MaxMem=  2147483648 cpu:               0.1 elap:               0.0
 (Enter /prod/apps/gaussian/g16b1/l301.exe)
 Standard basis: 6-31G(d) (6D, 7F)
 Ernie: Thresh=  0.10000D-02 Tol=  0.10000D-05 Strict=F.
   389 basis functions,   764 primitive gaussians,   389 cartesian basis functions
    92 alpha electrons       92 beta electrons
       nuclear repulsion energy      2279.1943348644 Hartrees.
 IExCor=  402 DFT=T Ex+Corr=B3LYP ExCW=0 ScaHFX=  0.200000
 ScaDFX=  0.800000  0.720000  1.000000  0.810000 ScalE2=  1.000000  1.000000
 IRadAn=      5 IRanWt=     -1 IRanGd=            0 ICorTp=0 IEmpDi=  4
 NAtoms=   41 NActive=   41 NUniq=   41 SFac= 1.00D+00 NAtFMM=   60 NAOKFM=F Big=F
 Integral buffers will be    131072 words long.
 Raffenetti 2 integral format.
 Two-electron integral symmetry is turned off.
 Using the following non-standard input for PCM:
 MSTModel=DFT MSTcharged
 --- end of non-standard input.
 MST model for solvation energy: B3LYP parametrization.
 MST cavity parameters:
 ISph   IAn     Re0     Alpha   Atom Type   QCorr
 ------------------------------------------------
   1      8     1.40     1.25      O          F
   2     16     1.75     1.25      S          F
   3      7     1.40     1.15      N          T
   4      6     1.50     1.25      C          F
   5      6     1.50     1.25      CH2        F
   6     16     1.75     1.25      S          F
   7      8     1.40     1.25      O          F
   8      6     1.50     1.25      CH2        F
   9      6     1.50     1.25      CH2        F
  10      6     1.50     1.25      CH2        F
  11      6     1.50     1.25      C          F
  12      6     1.50     1.25      CH         F
  13      6     1.50     1.25      CH         F
  14      6     1.50     1.25      CH         F
  15      6     1.50     1.25      CH         F
  16      6     1.50     1.25      CH         F
  17      6     1.50     1.25      C          F
  18      6     1.50     1.25      CH         F
  19      6     1.50     1.25      CH         F
  20      6     1.50     1.25      CH         F
  21      6     1.50     1.25      CH         F
  22      6     1.50     1.25      CH         F
  23      8     1.40     1.25      O          F
  24      1     1.20     1.25      CH2        F
  25      1     1.20     1.25      CH2        F
  26      1     1.20     1.25      CH2        F
  27      1     1.20     1.25      CH2        F
  28      1     1.20     1.25      CH2        F
  29      1     1.20     1.25      CH2        F
  30      1     1.20     1.25      CH2        F
  31      1     1.20     1.25      CH2        F
  32      1     1.20     1.25      CH         F
  33      1     1.20     1.25      CH         F
  34      1     1.20     1.25      CH         F
  35      1     1.20     1.25      CH         F
  36      1     1.20     1.25      CH         F
  37      1     1.20     1.25      CH         F
  38      1     1.20     1.25      CH         F
  39      1     1.20     1.25      CH         F
  40      1     1.20     1.25      CH         F
  41      1     1.20     1.25      CH         F
 ------------------------------------------------------------------------------
 Polarizable Continuum Model (PCM)
 =================================
 Model                : PCM.
 Atomic radii         : MST.
 Polarization charges : Total charges.
 Charge compensation  : None.
 Solution method      : On-the-fly selection.
 Cavity type          : Scaled VdW (van der Waals Surface) (Alpha=1.250).
 Cavity algorithm     : GePol (No added spheres)
                        Default sphere list used, NSphG=   41.
                        Lebedev-Laikov grids with approx.  5.0 points / Ang**2.
                        Smoothing algorithm: York/Karplus (Gamma=1.0000).
                        Polarization charges: spherical gaussians, with
                                              point-specific exponents (IZeta= 3).
                        Self-potential: point-specific (ISelfS= 7).
                        Self-field    : sphere-specific E.n sum rule (ISelfD= 2).
 1st derivatives      : Analytical E(r).r(x)/FMM algorithm (CHGder, D1EAlg=3).
                        Cavity 1st derivative terms included.
 Solvent              : Water, Eps=  78.355300 Eps(inf)=   1.777849
 ------------------------------------------------------------------------------
 GePol: Number of generator spheres                  =      41
 GePol: Total number of spheres                      =      41
 GePol: Number of exposed spheres                    =      41 (100.00%)
 GePol: Number of points                             =    3008
 GePol: Average weight of points                     =       0.13
 GePol: Minimum weight of points                     =   0.44D-10
 GePol: Maximum weight of points                     =    0.22001
 GePol: Number of points with low weight             =     191
 GePol: Fraction of low-weight points (<1% of avg)   =       6.35%
 GePol: Cavity surface area                          =    398.172 Ang**2
 GePol: Cavity volume                                =    395.137 Ang**3
 PCM non-electrostatic energy =        -0.0790666212 Hartrees.
 Nuclear repulsion after PCM non-electrostatic terms =     2279.1152682432 Hartrees.
 Leave Link  301 at Mon Sep 21 18:30:31 2020, MaxMem=  2147483648 cpu:               0.3 elap:               0.1
 (Enter /prod/apps/gaussian/g16b1/l302.exe)
 NPDir=0 NMtPBC=     1 NCelOv=     1 NCel=       1 NClECP=     1 NCelD=      1
         NCelK=      1 NCelE2=     1 NClLst=     1 CellRange=     0.0.
 One-electron integrals computed using PRISM.
 NBasis=   389 RedAO= T EigKep=  4.74D-04  NBF=   389
 NBsUse=   389 1.00D-06 EigRej= -1.00D+00 NBFU=   389
 Precomputing XC quadrature grid using
 IXCGrd= 4 IRadAn=           5 IRanWt=          -1 IRanGd=           0 AccXCQ= 0.00D+00.
 Generated NRdTot=       0 NPtTot=           0 NUsed=           0 NTot=          32
 NSgBfM=   386   386   386   386   386 MxSgAt=    41 MxSgA2=    41.
 Leave Link  302 at Mon Sep 21 18:30:31 2020, MaxMem=  2147483648 cpu:               2.4 elap:               0.6
 (Enter /prod/apps/gaussian/g16b1/l303.exe)
 DipDrv:  MaxL=1.
 Leave Link  303 at Mon Sep 21 18:30:31 2020, MaxMem=  2147483648 cpu:               0.2 elap:               0.1
 (Enter /prod/apps/gaussian/g16b1/l401.exe)
 ExpMin= 1.17D-01 ExpMax= 2.19D+04 ExpMxC= 3.30D+03 IAcc=3 IRadAn=         5 AccDes= 0.00D+00
 Harris functional with IExCor=  402 and IRadAn=       5 diagonalized for initial guess.
 HarFok:  IExCor=  402 AccDes= 0.00D+00 IRadAn=         5 IDoV= 1 UseB2=F ITyADJ=14
 ICtDFT=  3500011 ScaDFX=  1.000000  1.000000  1.000000  1.000000
 FoFCou: FMM=F IPFlag=           0 FMFlag=      100000 FMFlg1=           0
         NFxFlg=           0 DoJE=T BraDBF=F KetDBF=T FulRan=T
         wScrn=  0.000000 ICntrl=       500 IOpCl=  0 I1Cent=   200000004 NGrid=           0
         NMat0=    1 NMatS0=      1 NMatT0=    0 NMatD0=    1 NMtDS0=    0 NMtDT0=    0
 Symmetry not used in FoFCou.
 Harris En= -1735.65173373387    
 JPrj=0 DoOrth=F DoCkMO=F.
 Leave Link  401 at Mon Sep 21 18:30:35 2020, MaxMem=  2147483648 cpu:              13.5 elap:               3.4
 (Enter /prod/apps/gaussian/g16b1/l502.exe)
 Two-electron integral symmetry not used.
 Closed shell SCF:
 Using DIIS extrapolation, IDIIS=  1040.
 NGot=  2147483648 LenX=  2147175290 LenY=  2147023528
 Requested convergence on RMS density matrix=1.00D-08 within2000 cycles.
 Requested convergence on MAX density matrix=1.00D-06.
 Requested convergence on             energy=1.00D-06.
 No special actions if energy rises.

 Cycle   1  Pass 1  IDiag  1:
 FoFJK:  IHMeth= 1 ICntrl=       0 DoSepK=F KAlg= 0 I1Cent=           0 FoldK=F
 IRaf= 760000000 NMat=       1 IRICut=       1 DoRegI=T DoRafI=F ISym2E= 0 IDoP0=0 IntGTp=1.
 FoFCou: FMM=F IPFlag=           0 FMFlag=      100000 FMFlg1=           0
         NFxFlg=           0 DoJE=F BraDBF=F KetDBF=F FulRan=T
         wScrn=  0.000000 ICntrl=         0 IOpCl=  0 I1Cent=           0 NGrid=           0
         NMat0=    1 NMatS0=      1 NMatT0=    0 NMatD0=    1 NMtDS0=    0 NMtDT0=    0
 Symmetry not used in FoFCou.
 Inv3:  Mode=1 IEnd=    27144192.
 Iteration    1 A*A^-1 deviation from unit magnitude is 3.33D-15 for   1524.
 Iteration    1 A*A^-1 deviation from orthogonality  is 2.22D-15 for   2071    860.
 Iteration    1 A^-1*A deviation from unit magnitude is 3.11D-15 for    564.
 Iteration    1 A^-1*A deviation from orthogonality  is 6.78D-14 for   2580   2433.
 E= -1734.71580675834    
 DIIS: error= 3.00D-02 at cycle   1 NSaved=   1.
 NSaved= 1 IEnMin= 1 EnMin= -1734.71580675834     IErMin= 1 ErrMin= 3.00D-02
 ErrMax= 3.00D-02  0.00D+00 EMaxC= 1.00D-01 BMatC= 9.21D-01 BMatP= 9.21D-01
 IDIUse=3 WtCom= 7.00D-01 WtEn= 3.00D-01
 Coeff-Com:  0.100D+01
 Coeff-En:   0.100D+01
 Coeff:      0.100D+01
 Gap=     0.261 Goal=   None    Shift=    0.000
 GapD=    0.261 DampG=1.000 DampE=0.500 DampFc=0.5000 IDamp=-1.
 Damping current iteration by 5.00D-01
 RMSDP=6.37D-03 MaxDP=5.16D-01              OVMax= 2.46D-01

 Cycle   2  Pass 1  IDiag  1:
 E= -1734.97259577351     Delta-E=       -0.256789015169 Rises=F Damp=T
 DIIS: error= 1.06D-02 at cycle   2 NSaved=   2.
 NSaved= 2 IEnMin= 2 EnMin= -1734.97259577351     IErMin= 2 ErrMin= 1.06D-02
 ErrMax= 1.06D-02  0.00D+00 EMaxC= 1.00D-01 BMatC= 1.08D-01 BMatP= 9.21D-01
 IDIUse=3 WtCom= 8.94D-01 WtEn= 1.06D-01
 Coeff-Com:  0.195D+00 0.805D+00
 Coeff-En:   0.312D+00 0.688D+00
 Coeff:      0.207D+00 0.793D+00
 Gap=     0.243 Goal=   None    Shift=    0.000
 RMSDP=1.87D-03 MaxDP=1.28D-01 DE=-2.57D-01 OVMax= 1.65D-01

 Cycle   3  Pass 1  IDiag  1:
 E= -1735.47496132007     Delta-E=       -0.502365546562 Rises=F Damp=F
 DIIS: error= 1.05D-02 at cycle   3 NSaved=   3.
 NSaved= 3 IEnMin= 3 EnMin= -1735.47496132007     IErMin= 3 ErrMin= 1.05D-02
 ErrMax= 1.05D-02  0.00D+00 EMaxC= 1.00D-01 BMatC= 6.97D-02 BMatP= 1.08D-01
 IDIUse=3 WtCom= 8.95D-01 WtEn= 1.05D-01
 Coeff-Com:  0.607D-01 0.450D+00 0.490D+00
 Coeff-En:   0.000D+00 0.000D+00 0.100D+01
 Coeff:      0.544D-01 0.402D+00 0.543D+00
 Gap=     0.201 Goal=   None    Shift=    0.000
 RMSDP=1.09D-03 MaxDP=5.11D-02 DE=-5.02D-01 OVMax= 7.01D-02

 Cycle   4  Pass 1  IDiag  1:
 E= -1735.52627940966     Delta-E=       -0.051318089590 Rises=F Damp=F
 DIIS: error= 4.81D-03 at cycle   4 NSaved=   4.
 NSaved= 4 IEnMin= 4 EnMin= -1735.52627940966     IErMin= 4 ErrMin= 4.81D-03
 ErrMax= 4.81D-03  0.00D+00 EMaxC= 1.00D-01 BMatC= 1.48D-02 BMatP= 6.97D-02
 IDIUse=3 WtCom= 9.52D-01 WtEn= 4.81D-02
 Coeff-Com:  0.673D-02 0.107D+00 0.326D+00 0.560D+00
 Coeff-En:   0.000D+00 0.000D+00 0.188D+00 0.812D+00
 Coeff:      0.640D-02 0.102D+00 0.319D+00 0.572D+00
 Gap=     0.198 Goal=   None    Shift=    0.000
 RMSDP=4.45D-04 MaxDP=2.19D-02 DE=-5.13D-02 OVMax= 4.00D-02

 Cycle   5  Pass 1  IDiag  1:
 E= -1735.53828542996     Delta-E=       -0.012006020299 Rises=F Damp=F
 DIIS: error= 1.58D-03 at cycle   5 NSaved=   5.
 NSaved= 5 IEnMin= 5 EnMin= -1735.53828542996     IErMin= 5 ErrMin= 1.58D-03
 ErrMax= 1.58D-03  0.00D+00 EMaxC= 1.00D-01 BMatC= 1.51D-03 BMatP= 1.48D-02
 IDIUse=3 WtCom= 9.84D-01 WtEn= 1.58D-02
 Coeff-Com: -0.182D-02 0.182D-01 0.133D+00 0.339D+00 0.511D+00
 Coeff-En:   0.000D+00 0.000D+00 0.000D+00 0.486D-01 0.951D+00
 Coeff:     -0.179D-02 0.179D-01 0.131D+00 0.335D+00 0.518D+00
 Gap=     0.195 Goal=   None    Shift=    0.000
 RMSDP=1.38D-04 MaxDP=9.14D-03 DE=-1.20D-02 OVMax= 9.68D-03

 Cycle   6  Pass 1  IDiag  1:
 E= -1735.53957741696     Delta-E=       -0.001291987002 Rises=F Damp=F
 DIIS: error= 3.85D-04 at cycle   6 NSaved=   6.
 NSaved= 6 IEnMin= 6 EnMin= -1735.53957741696     IErMin= 6 ErrMin= 3.85D-04
 ErrMax= 3.85D-04  0.00D+00 EMaxC= 1.00D-01 BMatC= 1.11D-04 BMatP= 1.51D-03
 IDIUse=3 WtCom= 9.96D-01 WtEn= 3.85D-03
 Coeff-Com: -0.133D-02 0.301D-02 0.480D-01 0.140D+00 0.289D+00 0.521D+00
 Coeff-En:   0.000D+00 0.000D+00 0.000D+00 0.000D+00 0.000D+00 0.100D+01
 Coeff:     -0.132D-02 0.300D-02 0.479D-01 0.139D+00 0.288D+00 0.523D+00
 Gap=     0.194 Goal=   None    Shift=    0.000
 RMSDP=3.47D-05 MaxDP=2.23D-03 DE=-1.29D-03 OVMax= 2.44D-03

 Cycle   7  Pass 1  IDiag  1:
 E= -1735.53966264210     Delta-E=       -0.000085225139 Rises=F Damp=F
 DIIS: error= 1.49D-04 at cycle   7 NSaved=   7.
 NSaved= 7 IEnMin= 7 EnMin= -1735.53966264210     IErMin= 7 ErrMin= 1.49D-04
 ErrMax= 1.49D-04  0.00D+00 EMaxC= 1.00D-01 BMatC= 1.13D-05 BMatP= 1.11D-04
 IDIUse=3 WtCom= 9.99D-01 WtEn= 1.49D-03
 Coeff-Com: -0.552D-03-0.465D-03 0.126D-01 0.422D-01 0.109D+00 0.299D+00
 Coeff-Com:  0.539D+00
 Coeff-En:   0.000D+00 0.000D+00 0.000D+00 0.000D+00 0.000D+00 0.439D-01
 Coeff-En:   0.956D+00
 Coeff:     -0.551D-03-0.464D-03 0.125D-01 0.421D-01 0.109D+00 0.298D+00
 Coeff:      0.539D+00
 Gap=     0.194 Goal=   None    Shift=    0.000
 RMSDP=1.02D-05 MaxDP=5.23D-04 DE=-8.52D-05 OVMax= 9.04D-04

 Cycle   8  Pass 1  IDiag  1:
 E= -1735.53967277699     Delta-E=       -0.000010134886 Rises=F Damp=F
 DIIS: error= 3.35D-05 at cycle   8 NSaved=   8.
 NSaved= 8 IEnMin= 8 EnMin= -1735.53967277699     IErMin= 8 ErrMin= 3.35D-05
 ErrMax= 3.35D-05  0.00D+00 EMaxC= 1.00D-01 BMatC= 5.02D-07 BMatP= 1.13D-05
 IDIUse=1 WtCom= 1.00D+00 WtEn= 0.00D+00
 Coeff-Com: -0.131D-03-0.418D-03 0.146D-02 0.683D-02 0.238D-01 0.881D-01
 Coeff-Com:  0.240D+00 0.641D+00
 Coeff:     -0.131D-03-0.418D-03 0.146D-02 0.683D-02 0.238D-01 0.881D-01
 Coeff:      0.240D+00 0.641D+00
 Gap=     0.194 Goal=   None    Shift=    0.000
 RMSDP=3.03D-06 MaxDP=1.15D-04 DE=-1.01D-05 OVMax= 2.49D-04

 Cycle   9  Pass 1  IDiag  1:
 E= -1735.53967321088     Delta-E=       -0.000000433895 Rises=F Damp=F
 DIIS: error= 1.06D-05 at cycle   9 NSaved=   9.
 NSaved= 9 IEnMin= 9 EnMin= -1735.53967321088     IErMin= 9 ErrMin= 1.06D-05
 ErrMax= 1.06D-05  0.00D+00 EMaxC= 1.00D-01 BMatC= 9.41D-08 BMatP= 5.02D-07
 IDIUse=1 WtCom= 1.00D+00 WtEn= 0.00D+00
 Coeff-Com: -0.101D-04-0.174D-03-0.642D-03-0.104D-02 0.645D-03 0.147D-01
 Coeff-Com:  0.691D-01 0.357D+00 0.561D+00
 Coeff:     -0.101D-04-0.174D-03-0.642D-03-0.104D-02 0.645D-03 0.147D-01
 Coeff:      0.691D-01 0.357D+00 0.561D+00
 Gap=     0.194 Goal=   None    Shift=    0.000
 RMSDP=1.03D-06 MaxDP=5.44D-05 DE=-4.34D-07 OVMax= 6.71D-05

 Cycle  10  Pass 1  IDiag  1:
 E= -1735.53967329770     Delta-E=       -0.000000086819 Rises=F Damp=F
 DIIS: error= 3.33D-06 at cycle  10 NSaved=  10.
 NSaved=10 IEnMin=10 EnMin= -1735.53967329770     IErMin=10 ErrMin= 3.33D-06
 ErrMax= 3.33D-06  0.00D+00 EMaxC= 1.00D-01 BMatC= 6.63D-09 BMatP= 9.41D-08
 IDIUse=1 WtCom= 1.00D+00 WtEn= 0.00D+00
 Coeff-Com:  0.415D-06-0.608D-04-0.432D-03-0.932D-03-0.981D-03 0.329D-02
 Coeff-Com:  0.250D-01 0.164D+00 0.306D+00 0.504D+00
 Coeff:      0.415D-06-0.608D-04-0.432D-03-0.932D-03-0.981D-03 0.329D-02
 Coeff:      0.250D-01 0.164D+00 0.306D+00 0.504D+00
 Gap=     0.194 Goal=   None    Shift=    0.000
 RMSDP=2.94D-07 MaxDP=1.53D-05 DE=-8.68D-08 OVMax= 2.01D-05

 Cycle  11  Pass 1  IDiag  1:
 E= -1735.53967330293     Delta-E=       -0.000000005224 Rises=F Damp=F
 DIIS: error= 1.07D-06 at cycle  11 NSaved=  11.
 NSaved=11 IEnMin=11 EnMin= -1735.53967330293     IErMin=11 ErrMin= 1.07D-06
 ErrMax= 1.07D-06  0.00D+00 EMaxC= 1.00D-01 BMatC= 6.85D-10 BMatP= 6.63D-09
 IDIUse=1 WtCom= 1.00D+00 WtEn= 0.00D+00
 Coeff-Com:  0.282D-06-0.246D-05-0.142D-03-0.339D-03-0.688D-03-0.628D-03
 Coeff-Com:  0.198D-02 0.304D-01 0.688D-01 0.261D+00 0.640D+00
 Coeff:      0.282D-06-0.246D-05-0.142D-03-0.339D-03-0.688D-03-0.628D-03
 Coeff:      0.198D-02 0.304D-01 0.688D-01 0.261D+00 0.640D+00
 Gap=     0.194 Goal=   None    Shift=    0.000
 RMSDP=8.83D-08 MaxDP=4.73D-06 DE=-5.22D-09 OVMax= 7.44D-06

 Cycle  12  Pass 1  IDiag  1:
 E= -1735.53967330347     Delta-E=       -0.000000000545 Rises=F Damp=F
 DIIS: error= 3.25D-07 at cycle  12 NSaved=  12.
 NSaved=12 IEnMin=12 EnMin= -1735.53967330347     IErMin=12 ErrMin= 3.25D-07
 ErrMax= 3.25D-07  0.00D+00 EMaxC= 1.00D-01 BMatC= 8.42D-11 BMatP= 6.85D-10
 IDIUse=1 WtCom= 1.00D+00 WtEn= 0.00D+00
 Coeff-Com: -0.374D-06 0.477D-05-0.378D-04-0.899D-04-0.291D-03-0.670D-03
 Coeff-Com: -0.158D-02-0.316D-03 0.500D-02 0.883D-01 0.343D+00 0.567D+00
 Coeff:     -0.374D-06 0.477D-05-0.378D-04-0.899D-04-0.291D-03-0.670D-03
 Coeff:     -0.158D-02-0.316D-03 0.500D-02 0.883D-01 0.343D+00 0.567D+00
 Gap=     0.194 Goal=   None    Shift=    0.000
 RMSDP=3.12D-08 MaxDP=1.75D-06 DE=-5.45D-10 OVMax= 2.74D-06

 Cycle  13  Pass 1  IDiag  1:
 E= -1735.53967330355     Delta-E=       -0.000000000075 Rises=F Damp=F
 DIIS: error= 7.78D-08 at cycle  13 NSaved=  13.
 NSaved=13 IEnMin=13 EnMin= -1735.53967330355     IErMin=13 ErrMin= 7.78D-08
 ErrMax= 7.78D-08  0.00D+00 EMaxC= 1.00D-01 BMatC= 5.68D-12 BMatP= 8.42D-11
 IDIUse=1 WtCom= 1.00D+00 WtEn= 0.00D+00
 Coeff-Com: -0.269D-06 0.252D-05-0.531D-05-0.103D-04-0.745D-04-0.242D-03
 Coeff-Com: -0.911D-03-0.279D-02-0.424D-02 0.148D-01 0.944D-01 0.266D+00
 Coeff-Com:  0.633D+00
 Coeff:     -0.269D-06 0.252D-05-0.531D-05-0.103D-04-0.745D-04-0.242D-03
 Coeff:     -0.911D-03-0.279D-02-0.424D-02 0.148D-01 0.944D-01 0.266D+00
 Coeff:      0.633D+00
 Gap=     0.194 Goal=   None    Shift=    0.000
 RMSDP=8.30D-09 MaxDP=4.00D-07 DE=-7.50D-11 OVMax= 4.78D-07

 Error on total polarization charges =  0.02271
 SCF Done:  E(RB3LYP) =  -1735.53967330     A.U. after   13 cycles
            NFock= 13  Conv=0.83D-08     -V/T= 2.0069
 KE= 1.723714267859D+03 PE=-8.659256472527D+03 EE= 2.920887263121D+03
 Leave Link  502 at Mon Sep 21 18:32:39 2020, MaxMem=  2147483648 cpu:             496.1 elap:             124.1
 (Enter /prod/apps/gaussian/g16b1/l601.exe)
 Copying SCF densities to generalized density rwf, IOpCl= 0 IROHF=0.

 **********************************************************************

            Population analysis using the SCF Density.

 **********************************************************************

 Alpha  occ. eigenvalues --  -89.07683 -88.97145 -19.11061 -19.10771 -19.10726
 Alpha  occ. eigenvalues --  -14.28254 -10.23325 -10.20770 -10.20006 -10.19668
 Alpha  occ. eigenvalues --  -10.19635 -10.19499 -10.19461 -10.19428 -10.19423
 Alpha  occ. eigenvalues --  -10.19219 -10.18769 -10.18708 -10.18586 -10.18430
 Alpha  occ. eigenvalues --  -10.18342 -10.17947 -10.17740  -8.10041  -8.01996
 Alpha  occ. eigenvalues --   -6.06566  -6.06441  -6.06381  -5.98426  -5.98196
 Alpha  occ. eigenvalues --   -5.97776  -1.06762  -0.99137  -0.95534  -0.88209
 Alpha  occ. eigenvalues --   -0.85811  -0.85056  -0.81018  -0.77793  -0.75539
 Alpha  occ. eigenvalues --   -0.74875  -0.73920  -0.72556  -0.68070  -0.66774
 Alpha  occ. eigenvalues --   -0.63015  -0.60859  -0.60426  -0.59887  -0.57369
 Alpha  occ. eigenvalues --   -0.56974  -0.53829  -0.51470  -0.50336  -0.48797
 Alpha  occ. eigenvalues --   -0.47036  -0.46189  -0.45626  -0.44747  -0.44609
 Alpha  occ. eigenvalues --   -0.44377  -0.43794  -0.43219  -0.42351  -0.41679
 Alpha  occ. eigenvalues --   -0.41445  -0.40782  -0.40078  -0.39915  -0.37663
 Alpha  occ. eigenvalues --   -0.37279  -0.36915  -0.36662  -0.36121  -0.34896
 Alpha  occ. eigenvalues --   -0.34748  -0.34243  -0.33356  -0.32582  -0.31808
 Alpha  occ. eigenvalues --   -0.31406  -0.29898  -0.29179  -0.27035  -0.25971
 Alpha  occ. eigenvalues --   -0.25620  -0.25002  -0.24860  -0.24456  -0.23972
 Alpha  occ. eigenvalues --   -0.21567  -0.21065
 Alpha virt. eigenvalues --   -0.01657  -0.00706  -0.00129   0.00157   0.02221
 Alpha virt. eigenvalues --    0.04254   0.07683   0.08660   0.10035   0.10760
 Alpha virt. eigenvalues --    0.11572   0.12158   0.13339   0.13669   0.14031
 Alpha virt. eigenvalues --    0.14279   0.14763   0.15823   0.16106   0.16426
 Alpha virt. eigenvalues --    0.16939   0.17111   0.17757   0.17915   0.18501
 Alpha virt. eigenvalues --    0.18875   0.19246   0.20117   0.20574   0.21319
 Alpha virt. eigenvalues --    0.21667   0.23999   0.24819   0.25435   0.26161
 Alpha virt. eigenvalues --    0.27402   0.29427   0.30336   0.30968   0.31029
 Alpha virt. eigenvalues --    0.32100   0.32875   0.33699   0.34231   0.34628
 Alpha virt. eigenvalues --    0.35157   0.36318   0.37080   0.39901   0.41433
 Alpha virt. eigenvalues --    0.42859   0.44348   0.47004   0.47943   0.49864
 Alpha virt. eigenvalues --    0.50600   0.51991   0.52637   0.53015   0.53869
 Alpha virt. eigenvalues --    0.54027   0.54234   0.55225   0.56013   0.56211
 Alpha virt. eigenvalues --    0.57073   0.57536   0.58796   0.59096   0.59776
 Alpha virt. eigenvalues --    0.59958   0.60483   0.60697   0.60901   0.61082
 Alpha virt. eigenvalues --    0.61272   0.61940   0.62414   0.62988   0.64124
 Alpha virt. eigenvalues --    0.64347   0.64828   0.65541   0.65763   0.67326
 Alpha virt. eigenvalues --    0.67917   0.68324   0.71130   0.72357   0.73395
 Alpha virt. eigenvalues --    0.74312   0.75141   0.76810   0.77732   0.79402
 Alpha virt. eigenvalues --    0.80077   0.81164   0.82468   0.83087   0.83420
 Alpha virt. eigenvalues --    0.83873   0.84223   0.84550   0.84786   0.85005
 Alpha virt. eigenvalues --    0.85470   0.86904   0.87031   0.87299   0.87843
 Alpha virt. eigenvalues --    0.88238   0.89049   0.89802   0.90632   0.91999
 Alpha virt. eigenvalues --    0.92243   0.92545   0.93730   0.94123   0.94513
 Alpha virt. eigenvalues --    0.95126   0.95660   0.96548   0.96980   0.99160
 Alpha virt. eigenvalues --    0.99538   1.00446   1.01757   1.02470   1.03183
 Alpha virt. eigenvalues --    1.04315   1.04714   1.06104   1.07188   1.07808
 Alpha virt. eigenvalues --    1.09091   1.10159   1.10745   1.12361   1.13037
 Alpha virt. eigenvalues --    1.13819   1.14119   1.15019   1.16717   1.16955
 Alpha virt. eigenvalues --    1.17885   1.19001   1.20220   1.22720   1.22973
 Alpha virt. eigenvalues --    1.23513   1.24552   1.25721   1.27828   1.28189
 Alpha virt. eigenvalues --    1.29221   1.34160   1.36370   1.39614   1.40462
 Alpha virt. eigenvalues --    1.41879   1.43215   1.43940   1.44570   1.45086
 Alpha virt. eigenvalues --    1.46838   1.48056   1.48434   1.48877   1.49390
 Alpha virt. eigenvalues --    1.50664   1.50889   1.51793   1.52457   1.54362
 Alpha virt. eigenvalues --    1.58725   1.62023   1.63874   1.70525   1.73284
 Alpha virt. eigenvalues --    1.75226   1.75525   1.76993   1.77974   1.78801
 Alpha virt. eigenvalues --    1.79694   1.80254   1.82029   1.82660   1.83765
 Alpha virt. eigenvalues --    1.84188   1.84875   1.85771   1.86689   1.87549
 Alpha virt. eigenvalues --    1.88616   1.89570   1.90889   1.90998   1.92238
 Alpha virt. eigenvalues --    1.92622   1.93786   1.94790   1.95662   1.97029
 Alpha virt. eigenvalues --    1.97768   1.98209   1.98676   1.99359   2.01367
 Alpha virt. eigenvalues --    2.02052   2.03011   2.05753   2.06247   2.09127
 Alpha virt. eigenvalues --    2.09503   2.10738   2.11610   2.12563   2.13364
 Alpha virt. eigenvalues --    2.14571   2.14656   2.15261   2.15330   2.15861
 Alpha virt. eigenvalues --    2.17388   2.17703   2.18325   2.21342   2.22677
 Alpha virt. eigenvalues --    2.25351   2.27080   2.28413   2.28767   2.29675
 Alpha virt. eigenvalues --    2.30685   2.31387   2.32081   2.33035   2.35270
 Alpha virt. eigenvalues --    2.36624   2.38740   2.41911   2.44319   2.45836
 Alpha virt. eigenvalues --    2.48723   2.53703   2.58198   2.58404   2.58660
 Alpha virt. eigenvalues --    2.62384   2.64433   2.65884   2.67224   2.70870
 Alpha virt. eigenvalues --    2.71375   2.71986   2.72218   2.73056   2.74010
 Alpha virt. eigenvalues --    2.74414   2.75162   2.75818   2.76997   2.78168
 Alpha virt. eigenvalues --    2.79033   2.81749   2.85425   2.89616   2.92290
 Alpha virt. eigenvalues --    3.03407   3.05653   3.37665   3.40754   3.80836
 Alpha virt. eigenvalues --    3.86598   3.94171   3.98206   4.02986   4.08881
 Alpha virt. eigenvalues --    4.09846   4.10502   4.11508   4.12688   4.15827
 Alpha virt. eigenvalues --    4.17840   4.22908   4.27854   4.33133   4.33756
 Alpha virt. eigenvalues --    4.35491   4.38629   4.42089   4.55620   4.66695
 Alpha virt. eigenvalues --    4.70436   4.74205
          Condensed to atoms (all electrons):
               1          2          3          4          5          6
     1  O    8.461725   0.335927  -0.056354  -0.000179  -0.004086   0.000603
     2  S    0.335927  13.774717   0.284407   0.005639  -0.012843   0.001687
     3  N   -0.056354   0.284407   7.472236   0.281552  -0.038574   0.004529
     4  C   -0.000179   0.005639   0.281552   4.786532   0.296480  -0.060155
     5  C   -0.004086  -0.012843  -0.038574   0.296480   5.730645   0.074584
     6  S    0.000603   0.001687   0.004529  -0.060155   0.074584  14.950074
     7  O   -0.000000   0.000011  -0.000041   0.000663  -0.037878   0.285372
     8  C   -0.006147  -0.012875  -0.051836   0.305266  -0.133848   0.073795
     9  C    0.000030   0.000224  -0.072528   0.371739  -0.060041   0.009915
    10  C   -0.000005  -0.000187  -0.007366  -0.033869   0.005223  -0.000335
    11  C    0.000000  -0.000003  -0.002771  -0.002563  -0.000080  -0.000052
    12  C    0.000000   0.000006  -0.000006  -0.000761  -0.000014   0.000027
    13  C    0.000000  -0.000001  -0.000002   0.000004  -0.000000  -0.000011
    14  C   -0.000000   0.000001   0.000001   0.000006   0.000000  -0.000002
    15  C    0.000000   0.000004   0.000049  -0.000037   0.000000   0.000008
    16  C   -0.000000  -0.000125   0.000303   0.001339   0.000031   0.000135
    17  C   -0.059762   0.116983  -0.063120  -0.004011   0.001971   0.000013
    18  C    0.000363  -0.021267   0.002774   0.000100  -0.000942   0.000005
    19  C    0.000616   0.001754  -0.000109  -0.000001  -0.000062  -0.000003
    20  C   -0.000004  -0.000758  -0.000002  -0.000000   0.000008  -0.000000
    21  C   -0.000056   0.002793   0.000555  -0.000026   0.000103   0.000001
    22  C    0.002142  -0.024575  -0.004500  -0.001098   0.000979   0.000014
    23  O   -0.051484   0.459537  -0.074626   0.002470  -0.000155   0.000004
    24  H    0.000118   0.000624   0.001394  -0.026152   0.343588  -0.018278
    25  H    0.008292   0.005913  -0.008735  -0.028522   0.322237  -0.009060
    26  H    0.000184   0.000501   0.001704  -0.025380   0.010482  -0.018478
    27  H    0.017103   0.002239  -0.004650  -0.025827   0.004308  -0.006479
    28  H    0.000004  -0.000229  -0.000046  -0.033519  -0.008802  -0.000631
    29  H    0.000004   0.000086   0.003794  -0.035167  -0.004666   0.003736
    30  H    0.000007   0.000658   0.016216  -0.010338   0.000208  -0.000069
    31  H    0.000000   0.000002   0.000334   0.004773  -0.000095   0.000036
    32  H    0.000000   0.000000   0.000001   0.000083   0.000001  -0.000004
    33  H   -0.000000  -0.000000  -0.000000   0.000000  -0.000000   0.000000
    34  H   -0.000000   0.000000   0.000000   0.000000   0.000000  -0.000000
    35  H    0.000000  -0.000002  -0.000002   0.000001  -0.000000   0.000000
    36  H   -0.000006   0.001252   0.005378  -0.000269   0.000028   0.000001
    37  H    0.013447  -0.002367   0.000184   0.000001  -0.000048   0.000006
    38  H    0.000002  -0.000018   0.000000   0.000000  -0.000000   0.000000
    39  H   -0.000000   0.000004   0.000000  -0.000000   0.000000  -0.000000
    40  H    0.000000  -0.000025   0.000004   0.000001  -0.000001   0.000000
    41  H    0.000112  -0.001925   0.015504  -0.000438  -0.000016  -0.000003
               7          8          9         10         11         12
     1  O   -0.000000  -0.006147   0.000030  -0.000005   0.000000   0.000000
     2  S    0.000011  -0.012875   0.000224  -0.000187  -0.000003   0.000006
     3  N   -0.000041  -0.051836  -0.072528  -0.007366  -0.002771  -0.000006
     4  C    0.000663   0.305266   0.371739  -0.033869  -0.002563  -0.000761
     5  C   -0.037878  -0.133848  -0.060041   0.005223  -0.000080  -0.000014
     6  S    0.285372   0.073795   0.009915  -0.000335  -0.000052   0.000027
     7  O    8.486408  -0.037738  -0.006042   0.000160  -0.000045   0.000012
     8  C   -0.037738   5.739311  -0.064185  -0.005157   0.000947  -0.001763
     9  C   -0.006042  -0.064185   5.190868   0.340771  -0.036834  -0.002508
    10  C    0.000160  -0.005157   0.340771   5.154564   0.362847  -0.063313
    11  C   -0.000045   0.000947  -0.036834   0.362847   4.666729   0.529669
    12  C    0.000012  -0.001763  -0.002508  -0.063313   0.529669   5.013922
    13  C   -0.000002  -0.000299   0.000054   0.006229  -0.018788   0.516059
    14  C    0.000000   0.000024   0.000007   0.000267  -0.035382  -0.037124
    15  C   -0.000000   0.000170  -0.000130   0.006838  -0.022274  -0.047216
    16  C   -0.000001  -0.000390  -0.002923  -0.051818   0.541233  -0.044316
    17  C   -0.000000  -0.000546  -0.000354   0.000012  -0.000001  -0.000000
    18  C   -0.000000   0.000016   0.000001  -0.000000   0.000000  -0.000000
    19  C    0.000000  -0.000000  -0.000000   0.000000  -0.000000  -0.000000
    20  C    0.000000   0.000000   0.000000   0.000000   0.000000   0.000000
    21  C   -0.000000   0.000001  -0.000006  -0.000000   0.000000  -0.000000
    22  C   -0.000000   0.000027  -0.000098  -0.000002  -0.000000  -0.000000
    23  O   -0.000000  -0.000041  -0.000044  -0.000009   0.000003   0.000000
    24  H    0.000177   0.010955  -0.007224   0.000116   0.000013  -0.000000
    25  H    0.001258   0.003291   0.004139  -0.000103   0.000001   0.000000
    26  H    0.000286   0.340123  -0.007237   0.000007   0.003130   0.004278
    27  H    0.001266   0.316369   0.003980   0.000037  -0.000087   0.000037
    28  H    0.000153   0.006987   0.347930  -0.031080   0.004859   0.000004
    29  H    0.020145  -0.005129   0.338662  -0.031524  -0.005811   0.003315
    30  H   -0.000001   0.000361  -0.036290   0.353206  -0.030347   0.004911
    31  H   -0.000002  -0.000071  -0.034214   0.357825  -0.032240  -0.006822
    32  H    0.000013  -0.000032   0.000568  -0.008567  -0.045538   0.359457
    33  H   -0.000000  -0.000002   0.000001  -0.000165   0.003547  -0.039296
    34  H    0.000000  -0.000000  -0.000000   0.000006   0.000603   0.004589
    35  H   -0.000000  -0.000004   0.000002  -0.000162   0.003732   0.000704
    36  H    0.000000   0.000013  -0.000215  -0.010580  -0.043932   0.006478
    37  H   -0.000000   0.000001   0.000000  -0.000000   0.000000   0.000000
    38  H   -0.000000   0.000000   0.000000  -0.000000   0.000000   0.000000
    39  H   -0.000000  -0.000000  -0.000000   0.000000  -0.000000  -0.000000
    40  H   -0.000000  -0.000000   0.000000  -0.000000  -0.000000   0.000000
    41  H    0.000000   0.000059  -0.000064  -0.000042   0.000002   0.000000
              13         14         15         16         17         18
     1  O    0.000000  -0.000000   0.000000  -0.000000  -0.059762   0.000363
     2  S   -0.000001   0.000001   0.000004  -0.000125   0.116983  -0.021267
     3  N   -0.000002   0.000001   0.000049   0.000303  -0.063120   0.002774
     4  C    0.000004   0.000006  -0.000037   0.001339  -0.004011   0.000100
     5  C   -0.000000   0.000000   0.000000   0.000031   0.001971  -0.000942
     6  S   -0.000011  -0.000002   0.000008   0.000135   0.000013   0.000005
     7  O   -0.000002   0.000000  -0.000000  -0.000001  -0.000000  -0.000000
     8  C   -0.000299   0.000024   0.000170  -0.000390  -0.000546   0.000016
     9  C    0.000054   0.000007  -0.000130  -0.002923  -0.000354   0.000001
    10  C    0.006229   0.000267   0.006838  -0.051818   0.000012  -0.000000
    11  C   -0.018788  -0.035382  -0.022274   0.541233  -0.000001   0.000000
    12  C    0.516059  -0.037124  -0.047216  -0.044316  -0.000000  -0.000000
    13  C    4.901664   0.541761  -0.029162  -0.046965  -0.000000   0.000000
    14  C    0.541761   4.891277   0.543647  -0.036780   0.000000  -0.000000
    15  C   -0.029162   0.543647   4.911602   0.508753   0.000000  -0.000000
    16  C   -0.046965  -0.036780   0.508753   5.009954  -0.000000   0.000000
    17  C   -0.000000   0.000000   0.000000  -0.000000   5.461666   0.469723
    18  C    0.000000  -0.000000  -0.000000   0.000000   0.469723   5.011590
    19  C   -0.000000   0.000000   0.000000  -0.000000  -0.025242   0.488594
    20  C   -0.000000   0.000000  -0.000000  -0.000000  -0.041695  -0.030020
[...]
    20  C   -0.000012  -0.000031   0.000225   0.000596  -4.737951   3.939566
    21  C   -0.000468  -0.000060   0.003178   0.009438   3.448504  -5.288442
    22  C   -0.000441  -0.001920   0.013370   0.013181  -8.809296   2.230118
    23  O   -0.000076   0.001913  -0.004750  -0.005725   0.162468   0.124199
    24  H    0.001093  -0.002897   0.003636  -0.010838  -0.013588   0.000029
    25  H   -0.001586  -0.000069  -0.000629  -0.001614  -0.093076   0.072131
    26  H   -0.023563   0.004890   0.010876  -0.126566   0.022210   0.004914
    27  H   -0.011554   0.013677  -0.005376   0.026282  -0.034717  -0.028962
    28  H   -0.026041   0.010124  -0.003872   0.080080   0.018771  -0.000029
    29  H    0.031460  -0.006069   0.012743  -0.023326   0.027569  -0.006195
    30  H   -0.046088  -0.014288   0.141661   0.097640   0.020525  -0.004733
    31  H    0.075825   0.001393  -0.037540  -0.047663  -0.000705  -0.001696
    32  H    0.366931  -0.185778   0.124757  -0.077323  -0.003020  -0.000270
    33  H   -0.817456   0.351091  -0.242877   0.099200   0.000131   0.000017
    34  H    0.368036  -0.729031   0.377413  -0.021084   0.000109   0.000010
    35  H   -0.217120   0.342035  -0.808873   0.595539  -0.000421  -0.000095
    36  H    0.104981  -0.155605   0.417919  -1.435334   0.002301  -0.001668
    37  H   -0.000041   0.000051   0.000116   0.000380   0.667183  -1.188696
    38  H    0.000007  -0.000004  -0.000027  -0.000057  -0.156827   0.733364
    39  H   -0.000002  -0.000000   0.000003   0.000022   0.110206  -0.141051
    40  H   -0.000092   0.000033   0.000190   0.000899  -0.107940   0.126063
    41  H    0.003000  -0.001272  -0.007426  -0.025477   0.285939  -0.181236
              19         20         21         22         23         24
     1  O   -0.012086   0.010093  -0.041701  -0.080683   0.037813   0.006370
     2  S   -0.411194  -0.007862   0.544897   0.422007  -0.788056   0.073726
     3  N    0.077924   0.044733  -0.569036   0.145147   0.141341   0.152944
     4  C    0.058778  -0.087794   0.412894  -1.499333   0.085730  -0.284233
     5  C    0.022578   0.057097  -0.201312   0.576034  -0.011094   0.037057
     6  S   -0.009255   0.010912  -0.017186   0.035592   0.001282   0.094707
     7  O    0.000550  -0.000389   0.001435  -0.001775   0.000247  -0.003583
     8  C   -0.047445   0.017667   0.040230   0.185848  -0.008516   0.170320
     9  C    0.072308  -0.074803  -0.020747  -0.343504   0.080299  -0.158469
    10  C    0.010776  -0.011589  -0.013694  -0.080771   0.006466   0.064382
    11  C   -0.001552   0.002663   0.007567  -0.016541   0.009401   0.002971
    12  C    0.001068  -0.000757  -0.005913  -0.013787   0.006629   0.002802
    13  C    0.000013  -0.000012  -0.000468  -0.000441  -0.000076   0.001093
    14  C    0.000038  -0.000031  -0.000060  -0.001920   0.001913  -0.002897
    15  C   -0.000920   0.000225   0.003178   0.013370  -0.004750   0.003636
    16  C   -0.001434   0.000596   0.009438   0.013181  -0.005725  -0.010838
    17  C    3.161096  -4.737951   3.448504  -8.809296   0.162468  -0.013588
    18  C   -4.892054   3.939566  -5.288442   2.230118   0.124199   0.000029
    19  C   12.446623  -4.033388   4.304849  -4.888238   0.043421  -0.007256
    20  C   -4.033388  10.679218  -4.275074   4.130023   0.002558   0.002951
    21  C    4.304849  -4.275074  14.705076  -7.025753  -0.047656   0.008781
    22  C   -4.888238   4.130023  -7.025753  21.046597  -0.089435   0.009471
    23  O    0.043421   0.002558  -0.047656  -0.089435   9.510641  -0.003698
    24  H   -0.007256   0.002951   0.008781   0.009471  -0.003698   1.528826
    25  H   -0.040859   0.053165  -0.031891   0.092759   0.018385  -0.291001
    26  H   -0.002349   0.002272  -0.003619   0.017794   0.005139   0.006661
    27  H    0.005857  -0.005352   0.008722  -0.018324  -0.015771   0.014026
    28  H   -0.004352   0.000090   0.017205  -0.043813  -0.001013   0.021155
    29  H    0.006252  -0.004829  -0.000413  -0.006508   0.001845  -0.096069
    30  H    0.005851  -0.005879   0.005270  -0.018347  -0.009108   0.005886
    31  H    0.000328  -0.000240   0.002142   0.002311   0.001552   0.006825
    32  H   -0.000135   0.000096   0.000408   0.000716   0.000048   0.004812
    33  H    0.000002  -0.000002  -0.000009  -0.000043  -0.000005  -0.000371
    34  H    0.000004  -0.000001  -0.000007  -0.000088   0.000093  -0.000027
    35  H   -0.000039  -0.000001   0.000069   0.000288  -0.000986   0.000131
    36  H   -0.000988   0.000775   0.001284  -0.003093   0.007686  -0.001105
    37  H    0.359180  -0.191039   0.111926  -0.045869   0.018485  -0.001627
    38  H   -0.902236   0.364563  -0.314950   0.158473  -0.000249  -0.000180
    39  H    0.409861  -0.753361   0.424345  -0.131881  -0.000032  -0.000129
    40  H   -0.285835   0.353328  -0.882778   0.678899  -0.001797   0.000111
    41  H    0.127042  -0.179980   0.426639  -1.034047   0.024250  -0.006926
              25         26         27         28         29         30
     1  O    0.080935   0.015005  -0.029694  -0.008126   0.002060   0.003231
     2  S   -0.316569  -0.064600   0.206444   0.028061  -0.026786   0.010285
     3  N    0.145956   0.078791   0.054705  -0.051113   0.093285   0.052964
     4  C   -0.586708  -0.161208  -0.477069  -0.141965   0.289288  -0.085764
     5  C    0.448706   0.229582  -0.139864  -0.330761  -0.047204  -0.034178
     6  S   -0.131354   0.118886  -0.290494  -0.010110  -0.117129  -0.006057
     7  O   -0.005652   0.017125   0.023314   0.009849   0.020066   0.000641
     8  C    0.086183   0.032413   0.423699   0.180398  -0.066494  -0.012527
     9  C    0.117346  -0.097765   0.192842   0.133620  -0.105525  -0.033211
    10  C   -0.080207  -0.034379   0.032160  -0.005650  -0.382606  -0.029575
    11  C    0.005017  -0.005719   0.001210   0.031194  -0.086299   0.009719
    12  C   -0.009193  -0.025922   0.020444   0.007882  -0.048744  -0.218754
    13  C   -0.001586  -0.023563  -0.011554  -0.026041   0.031460  -0.046088
    14  C   -0.000069   0.004890   0.013677   0.010124  -0.006069  -0.014288
    15  C   -0.000629   0.010876  -0.005376  -0.003872   0.012743   0.141661
    16  C   -0.001614  -0.126566   0.026282   0.080080  -0.023326   0.097640
    17  C   -0.093076   0.022210  -0.034717   0.018771   0.027569   0.020525
    18  C    0.072131   0.004914  -0.028962  -0.000029  -0.006195  -0.004733
    19  C   -0.040859  -0.002349   0.005857  -0.004352   0.006252   0.005851
    20  C    0.053165   0.002272  -0.005352   0.000090  -0.004829  -0.005879
    21  C   -0.031891  -0.003619   0.008722   0.017205  -0.000413   0.005270
    22  C    0.092759   0.017794  -0.018324  -0.043813  -0.006508  -0.018347
    23  O    0.018385   0.005139  -0.015771  -0.001013   0.001845  -0.009108
    24  H   -0.291001   0.006661   0.014026   0.021155  -0.096069   0.005886
    25  H    1.616437   0.045511  -0.023778   0.004560   0.024079  -0.010711
    26  H    0.045511   1.626622  -0.387988   0.033274  -0.085909  -0.030557
    27  H   -0.023778  -0.387988   1.708381   0.004333   0.031227   0.010872
    28  H    0.004560   0.033274   0.004333   1.712745  -0.407046  -0.012580
    29  H    0.024079  -0.085909   0.031227  -0.407046   2.059015   0.107023
    30  H   -0.010711  -0.030557   0.010872  -0.012580   0.107023   1.665964
    31  H   -0.000298   0.019696  -0.002906  -0.069825  -0.046415  -0.320479
    32  H   -0.000537   0.027691   0.000126   0.012802  -0.043848   0.010821
    33  H   -0.000023   0.004996  -0.000447   0.000313   0.002773  -0.000533
    34  H   -0.000081  -0.006684  -0.000179   0.000028   0.000039  -0.000210
    35  H   -0.000293  -0.001151   0.002303  -0.000366   0.000530   0.003562
    36  H    0.003515   0.044480  -0.006489   0.008528  -0.002127  -0.052827
    37  H    0.001540   0.000507  -0.000669   0.001268  -0.000582  -0.000648
    38  H   -0.000782   0.000038   0.000060   0.000007   0.000216   0.000155
    39  H   -0.000489   0.000053  -0.000079  -0.000276  -0.000133  -0.000149
    40  H    0.000682  -0.000593   0.000486   0.003556  -0.000158   0.001490
    41  H    0.033162   0.008454  -0.001703  -0.014456   0.007544  -0.026167
              31         32         33         34         35         36
     1  O    0.000720  -0.000512   0.000051  -0.000131   0.000626  -0.002569
     2  S   -0.009008   0.006279  -0.000551  -0.000028  -0.002158  -0.015659
     3  N    0.091431   0.027797  -0.003007   0.001109   0.002293  -0.099697
     4  C    0.115337  -0.081354   0.012400  -0.004515  -0.002100   0.061490
     5  C    0.042202   0.004038  -0.000709  -0.001370   0.001840  -0.001602
     6  S    0.000199   0.005130  -0.001545   0.000180  -0.000501  -0.002478
     7  O    0.001976   0.005014  -0.000384   0.000284   0.000023   0.000622
     8  C    0.023550   0.034915  -0.003454   0.003423   0.006666   0.018492
     9  C   -0.141155   0.024344   0.010600   0.000440  -0.000955   0.010364
    10  C    0.013097  -0.112193   0.024844  -0.006196   0.019003   0.051481
    11  C   -0.108713   0.761857  -0.102420   0.015305  -0.128661   0.631277
    12  C    0.126684  -1.251983   0.598794  -0.065636   0.110198  -0.069778
    13  C    0.075825   0.366931  -0.817456   0.368036  -0.217120   0.104981
    14  C    0.001393  -0.185778   0.351091  -0.729031   0.342035  -0.155605
    15  C   -0.037540   0.124757  -0.242877   0.377413  -0.808873   0.417919
    16  C   -0.047663  -0.077323   0.099200  -0.021084   0.595539  -1.435334
    17  C   -0.000705  -0.003020   0.000131   0.000109  -0.000421   0.002301
    18  C   -0.001696  -0.000270   0.000017   0.000010  -0.000095  -0.001668
    19  C    0.000328  -0.000135   0.000002   0.000004  -0.000039  -0.000988
    20  C   -0.000240   0.000096  -0.000002  -0.000001  -0.000001   0.000775
    21  C    0.002142   0.000408  -0.000009  -0.000007   0.000069   0.001284
    22  C    0.002311   0.000716  -0.000043  -0.000088   0.000288  -0.003093
    23  O    0.001552   0.000048  -0.000005   0.000093  -0.000986   0.007686
    24  H    0.006825   0.004812  -0.000371  -0.000027   0.000131  -0.001105
    25  H   -0.000298  -0.000537  -0.000023  -0.000081  -0.000293   0.003515
    26  H    0.019696   0.027691   0.004996  -0.006684  -0.001151   0.044480
    27  H   -0.002906   0.000126  -0.000447  -0.000179   0.002303  -0.006489
    28  H   -0.069825   0.012802   0.000313   0.000028  -0.000366   0.008528
    29  H   -0.046415  -0.043848   0.002773   0.000039   0.000530  -0.002127
    30  H   -0.320479   0.010821  -0.000533  -0.000210   0.003562  -0.052827
    31  H    1.404322  -0.003868  -0.002046   0.000524  -0.000695   0.015092
    32  H   -0.003868   2.137676  -0.090502  -0.015479   0.010137  -0.024520
    33  H   -0.002046  -0.090502   1.718595  -0.053549  -0.018899   0.007405
    34  H    0.000524  -0.015479  -0.053549   1.670158  -0.055182  -0.011124
    35  H   -0.000695   0.010137  -0.018899  -0.055182   1.743203  -0.103591
    36  H    0.015092  -0.024520   0.007405  -0.011124  -0.103591   2.286529
    37  H   -0.000175   0.000052  -0.000003   0.000004  -0.000029  -0.000030
    38  H    0.000021  -0.000007   0.000000  -0.000000   0.000002  -0.000023
    39  H   -0.000017   0.000003  -0.000000  -0.000000  -0.000001   0.000013
    40  H   -0.000322   0.000034  -0.000001   0.000001   0.000001   0.000029
    41  H    0.003779  -0.000773   0.000012  -0.000005  -0.000232   0.003869
              37         38         39         40         41
     1  O   -0.009280  -0.000772   0.000286  -0.001420   0.013084
     2  S   -0.045570   0.003244   0.005386   0.020895   0.045518
     3  N   -0.039148   0.006399   0.001383  -0.021165  -0.161720
     4  C    0.087806  -0.002404  -0.003071   0.039105   0.010512
     5  C   -0.020377   0.000103   0.000813  -0.019578   0.091040
     6  S   -0.001534  -0.000076   0.000347  -0.001622   0.009673
     7  O   -0.000270   0.000069  -0.000025   0.000143  -0.001578
     8  C   -0.005274  -0.000650   0.000454   0.000140   0.021009
     9  C   -0.002077   0.002625  -0.001861   0.000691  -0.065470
    10  C   -0.002639   0.000492  -0.000532   0.002066  -0.051518
    11  C    0.000350  -0.000013  -0.000012   0.001294  -0.017530
    12  C   -0.000059   0.000048  -0.000019  -0.000556   0.010948
    13  C   -0.000041   0.000007  -0.000002  -0.000092   0.003000
    14  C    0.000051  -0.000004  -0.000000   0.000033  -0.001272
    15  C    0.000116  -0.000027   0.000003   0.000190  -0.007426
    16  C    0.000380  -0.000057   0.000022   0.000899  -0.025477
    17  C    0.667183  -0.156827   0.110206  -0.107940   0.285939
    18  C   -1.188696   0.733364  -0.141051   0.126063  -0.181236
    19  C    0.359180  -0.902236   0.409861  -0.285835   0.127042
    20  C   -0.191039   0.364563  -0.753361   0.353328  -0.179980
    21  C    0.111926  -0.314950   0.424345  -0.882778   0.426639
    22  C   -0.045869   0.158473  -0.131881   0.678899  -1.034047
    23  O    0.018485  -0.000249  -0.000032  -0.001797   0.024250
    24  H   -0.001627  -0.000180  -0.000129   0.000111  -0.006926
    25  H    0.001540  -0.000782  -0.000489   0.000682   0.033162
    26  H    0.000507   0.000038   0.000053  -0.000593   0.008454
    27  H   -0.000669   0.000060  -0.000079   0.000486  -0.001703
    28  H    0.001268   0.000007  -0.000276   0.003556  -0.014456
    29  H   -0.000582   0.000216  -0.000133  -0.000158   0.007544
    30  H   -0.000648   0.000155  -0.000149   0.001490  -0.026167
    31  H   -0.000175   0.000021  -0.000017  -0.000322   0.003779
    32  H    0.000052  -0.000007   0.000003   0.000034  -0.000773
    33  H   -0.000003   0.000000  -0.000000  -0.000001   0.000012
    34  H    0.000004  -0.000000  -0.000000   0.000001  -0.000005
    35  H   -0.000029   0.000002  -0.000001   0.000001  -0.000232
    36  H   -0.000030  -0.000023   0.000013   0.000029   0.003869
    37  H    2.064438  -0.113354  -0.013647   0.012169  -0.025571
    38  H   -0.113354   1.768721  -0.055781  -0.025747   0.015395
    39  H   -0.013647  -0.055781   1.685010  -0.057131  -0.013391
    40  H    0.012169  -0.025747  -0.057131   1.825786  -0.153705
    41  H   -0.025571   0.015395  -0.013391  -0.153705   2.529043
 Mulliken charges:
               1
     1  O   -1.369433
     2  S    2.919505
     3  N   -1.846933
     4  C    0.721518
     5  C    0.582248
     6  S    1.472295
     7  O   -1.307855
     8  C    0.338529
     9  C    0.177123
    10  C    0.415322
    11  C    0.946498
    12  C    0.442978
    13  C    0.128479
    14  C    0.712312
    15  C   -0.001598
    16  C    0.746089
    17  C    0.746451
    18  C    0.101475
    19  C    0.427215
    20  C    0.697745
    21  C    0.255852
    22  C    0.394860
    23  O   -1.303925
    24  H   -0.337677
    25  H   -0.222669
    26  H   -0.319311
    27  H   -0.299754
    28  H   -0.188451
    29  H   -0.106603
    30  H   -0.180193
    31  H   -0.155237
    32  H   -0.674385
    33  H   -0.492392
    34  H   -0.466551
    35  H   -0.496103
    36  H   -0.687826
    37  H   -0.617248
    38  H   -0.479865
    39  H   -0.465113
    40  H   -0.507650
    41  H   -0.699726
 Sum of Mulliken charges =  -1.00000
 Mulliken charges with hydrogens summed into heavy atoms:
               1
     1  O   -1.369433
     2  S    2.919505
     3  N   -1.846933
     4  C    0.721518
     5  C    0.021902
     6  S    1.472295
     7  O   -1.307855
     8  C   -0.280536
     9  C   -0.117930
    10  C    0.079892
    11  C    0.946498
    12  C   -0.231407
    13  C   -0.363912
    14  C    0.245760
    15  C   -0.497700
    16  C    0.058263
    17  C    0.746451
    18  C   -0.515773
    19  C   -0.052649
    20  C    0.232632
    21  C   -0.251797
    22  C   -0.304866
    23  O   -1.303925
 Electronic spatial extent (au):  <R**2>=           9209.7541
 Charge=             -1.0000 electrons
 Dipole moment (field-independent basis, Debye):
    X=             -0.2839    Y=              1.0296    Z=              3.6608  Tot=              3.8134
 Quadrupole moment (field-independent basis, Debye-Ang):
   XX=           -173.9816   YY=           -199.7948   ZZ=           -160.6219
   XY=            -19.0470   XZ=             -9.8332   YZ=             -3.2428
 Traceless Quadrupole moment (field-independent basis, Debye-Ang):
   XX=              4.1511   YY=            -21.6620   ZZ=             17.5108
   XY=            -19.0470   XZ=             -9.8332   YZ=             -3.2428
 Octapole moment (field-independent basis, Debye-Ang**2):
  XXX=            -52.4701  YYY=            -53.3534  ZZZ=             14.4002  XYY=            -18.8527
  XXY=             40.2107  XXZ=            -22.6028  XZZ=             -1.8084  YZZ=              9.5200
  YYZ=              1.7689  XYZ=             26.6459
 Hexadecapole moment (field-independent basis, Debye-Ang**3):
 XXXX=          -9683.8861 YYYY=          -2750.8739 ZZZZ=          -1316.8101 XXXY=             46.6568
 XXXZ=           -104.0134 YYYX=           -222.0981 YYYZ=             -7.4780 ZZZX=            -44.0761
 ZZZY=             -0.6840 XXYY=          -2215.3235 XXZZ=          -1780.3055 YYZZ=           -603.8547
 XXYZ=             61.7148 YYXZ=            -43.5104 ZZXY=             12.9107
 N-N= 2.279175683022D+03 E-N=-8.654909624900D+03  KE= 1.726670118201D+03
 Leave Link  601 at Mon Sep 21 22:00:17 2020, MaxMem=   262144000 cpu:               2.6 elap:               1.0
 (Enter /prod/apps/gaussian/g16b1/l9999.exe)
 1\1\GINC-PIRINEUS20\SP\RMP2-FC\Aug-CC-pVDZ\C17H18N1O3S2(1-)\UBAFAR01\2
 1-Sep-2020\0\\#p mp2/aug-cc-pVDZ scf=(MaxCycle=2000,NoVarAcc,NoIncFock
 ) maxdisk=120GB geom=allcheck\\SM36_m1.a.12.pdb.xyz\\-1,1\O,0,-1.36378
 78354,-0.1829729565,-2.2693264938\S,0,-1.4663252063,-0.9575487545,-0.9
 896361576\N,0,-0.3311481659,-0.6906323756,0.0768429153\C,0,0.308122954
 8,0.6124744652,0.1987521277\C,0,-0.572762206,1.9092387914,0.1319385771
 \S,0,0.6919886533,2.840618229,-0.875082561\O,0,1.6419639197,3.61335947
 17,0.049912764\C,0,1.2265583561,1.0580731965,-0.9922822385\C,0,1.07331
 57343,0.6323652834,1.5472664464\C,0,1.9852500022,-0.5714914416,1.87266
 82485\C,0,3.1962758616,-0.7634108722,0.980888956\C,0,4.3261525898,0.05
 91260662,1.1161202475\C,0,5.4437978836,-0.1117498729,0.2965284024\C,0,
 5.4560479303,-1.1186567788,-0.6736244559\C,0,4.3423580376,-1.950155605
 2,-0.8140727766\C,0,3.2252609151,-1.7718485566,0.0064377661\C,0,-3.068
 5051273,-0.4526375167,-0.2881569524\C,0,-4.0759611692,0.0297680148,-1.
 1288714896\C,0,-5.3236892837,0.3617543763,-0.5952439131\C,0,-5.5659378
 012,0.2080514006,0.7722452869\C,0,-4.5558759914,-0.2758333739,1.609093
 4947\C,0,-3.3064474365,-0.6067053424,1.08136312\O,0,-1.5948843396,-2.4
 337043988,-1.1715052195\H,0,-0.8156466313,2.4074176831,1.0747059547\H,
 0,-1.4682588234,1.8129203232,-0.4846359794\H,0,2.3057338917,0.94064118
 93,-0.8870303953\H,0,0.8793270558,0.6687823623,-1.9506228413\H,0,0.316
 5496982,0.6853201145,2.3416708635\H,0,1.6504796106,1.5630354551,1.6011
 048565\H,0,1.3812673299,-1.4832129559,1.8653633139\H,0,2.330288307,-0.
 4327629149,2.905940963\H,0,4.3303213776,0.839948212,1.8738820222\H,0,6
 .3078125939,0.536281323,0.4196647783\H,0,6.3264612886,-1.2556785419,-1
 .3096266313\H,0,4.3419595891,-2.7390251255,-1.561948353\H,0,2.35761431
 56,-2.4157390534,-0.1144968041\H,0,-3.8775038459,0.1534722321,-2.18810
 95885\H,0,-6.1044918494,0.7422291878,-1.2479956764\H,0,-6.5362734244,0
 .4683731536,1.1855849944\H,0,-4.7388025747,-0.3916245921,2.6737749898\
 H,0,-2.5136061848,-0.9678595015,1.7285174384\\Version=ES64L-G16RevB.01
 \State=1-A\HF=-1728.3208964\MP2=-1731.7831926\RMSD=3.926e-09\PG=C01 [X
 (C17H18N1O3S2)]\\@


 HICKORY, DICKORY, DOCK
 TWO MICE RAN UP THE CLOCK
 THE CLOCK STRUCK ONE...
 THE OTHER ESCAPED WITH MINOR INJURIES.
 Job cpu time:       0 days  9 hours 49 minutes 12.7 seconds.
 Elapsed time:       0 days  2 hours 55 minutes 21.1 seconds.
 File lengths (MBytes):  RWF= 105653 Int=      0 D2E=      0 Chk=     41 Scr=      1
 Normal termination of Gaussian 16 at Mon Sep 21 22:00:28 2020.
