 Entering Gaussian System, Link 0=g16
 Initial command:
 /prod/apps/gaussian/g16b1/l1.exe "/tmp/ubafar01/1460284/Gau-136565.inp" -scrdir="/tmp/ubafar01/1460284/"
 Entering Link 1 = /prod/apps/gaussian/g16b1/l1.exe PID=    136570.
  
 Copyright (c) 1988-2017, Gaussian, Inc.  All Rights Reserved.
  
 This is part of the Gaussian(R) 16 program.  It is based on
 the Gaussian(R) 09 system (copyright 2009, Gaussian, Inc.),
 the Gaussian(R) 03 system (copyright 2003, Gaussian, Inc.),
 the Gaussian(R) 98 system (copyright 1998, Gaussian, Inc.),
 the Gaussian(R) 94 system (copyright 1995, Gaussian, Inc.),
 the Gaussian 92(TM) system (copyright 1992, Gaussian, Inc.),
 the Gaussian 90(TM) system (copyright 1990, Gaussian, Inc.),
 the Gaussian 88(TM) system (copyright 1988, Gaussian, Inc.),
 the Gaussian 86(TM) system (copyright 1986, Carnegie Mellon
 University), and the Gaussian 82(TM) system (copyright 1983,
 Carnegie Mellon University). Gaussian is a federally registered
 trademark of Gaussian, Inc.
  
 This software contains proprietary and confidential information,
 including trade secrets, belonging to Gaussian, Inc.
  
 This software is provided under written license and may be
 used, copied, transmitted, or stored only in accord with that
 written license.
  
 The following legend is applicable only to US Government
 contracts under FAR:
  
                    RESTRICTED RIGHTS LEGEND
  
 Use, reproduction and disclosure by the US Government is
 subject to restrictions as set forth in subparagraphs (a)
 and (c) of the Commercial Computer Software - Restricted
 Rights clause in FAR 52.227-19.
  
 Gaussian, Inc.
 340 Quinnipiac St., Bldg. 40, Wallingford CT 06492
  
  
 ---------------------------------------------------------------
 Warning -- This program may not be used in any manner that
 competes with the business of Gaussian, Inc. or will provide
 assistance to any competitor of Gaussian, Inc.  The licensee
 of this program is prohibited from giving any competitor of
 Gaussian, Inc. access to this program.  By using this program,
 the user acknowledges that Gaussian, Inc. is engaged in the
 business of creating and licensing software in the field of
 computational chemistry and represents and warrants to the
 licensee that it is not a competitor of Gaussian, Inc. and that
 it will not use this program in any manner prohibited above.
 ---------------------------------------------------------------
  

 Cite this work as:
 Gaussian 16, Revision B.01,
 M. J. Frisch, G. W. Trucks, H. B. Schlegel, G. E. Scuseria, 
 M. A. Robb, J. R. Cheeseman, G. Scalmani, V. Barone, 
 G. A. Petersson, H. Nakatsuji, X. Li, M. Caricato, A. V. Marenich, 
 J. Bloino, B. G. Janesko, R. Gomperts, B. Mennucci, H. P. Hratchian, 
 J. V. Ortiz, A. F. Izmaylov, J. L. Sonnenberg, D. Williams-Young, 
 F. Ding, F. Lipparini, F. Egidi, J. Goings, B. Peng, A. Petrone, 
 T. Henderson, D. Ranasinghe, V. G. Zakrzewski, J. Gao, N. Rega, 
 G. Zheng, W. Liang, M. Hada, M. Ehara, K. Toyota, R. Fukuda, 
 J. Hasegawa, M. Ishida, T. Nakajima, Y. Honda, O. Kitao, H. Nakai, 
 T. Vreven, K. Throssell, J. A. Montgomery, Jr., J. E. Peralta, 
 F. Ogliaro, M. J. Bearpark, J. J. Heyd, E. N. Brothers, K. N. Kudin, 
 V. N. Staroverov, T. A. Keith, R. Kobayashi, J. Normand, 
 K. Raghavachari, A. P. Rendell, J. C. Burant, S. S. Iyengar, 
 J. Tomasi, M. Cossi, J. M. Millam, M. Klene, C. Adamo, R. Cammi, 
 J. W. Ochterski, R. L. Martin, K. Morokuma, O. Farkas, 
 J. B. Foresman, and D. J. Fox, Gaussian, Inc., Wallingford CT, 2016.
 
 ******************************************
 Gaussian 16:  ES64L-G16RevB.01 20-Dec-2017
                21-Sep-2020 
 ******************************************
 %nproc=4
 Will use up to    4 processors via shared memory.
 %Chk=SM36_m0.n.8.pdb.xyz.mst.n.w.chk
 %mem=16GB
 ----------------------------------------------------------------------
 #p b3lyp/6-31G(d) opt freq NoSymm scf=(MaxCycle=2000,NoVarAcc,NoIncFoc
 k) scrf=(iefpcm,read,solvent=water)
 ----------------------------------------------------------------------
 1/18=20,19=15,26=3,38=1,40=2/1,3;
 2/9=110,12=2,15=1,17=6,18=5,40=1/2;
 3/5=1,6=6,7=1,11=2,25=1,30=1,70=2203,71=1,72=1,74=-5/1,2,3;
 4//1;
 5/5=100002,7=2000,38=1,53=1/2;
 6/7=2,8=2,9=2,10=2,28=1/1;
 7/30=1/1,2,3,16;
 1/18=20,19=15,26=3/3(2);
 2/9=110,15=1/2;
 99//99;
 2/9=110,15=1/2;
 3/5=1,6=6,7=1,11=2,25=1,30=1,70=2205,71=1,72=1,74=-5/1,2,3;
 4/5=5,16=3,69=1/1;
 5/5=100002,7=2000,38=1,53=1/2;
 7/30=1/1,2,3,16;
 1/18=20,19=15,26=3/3(-5);
 2/9=110,15=1/2;
 6/7=2,8=2,9=2,10=2,19=2,28=1/1;
 99/9=1/99;
 Leave Link    1 at Mon Sep 21 18:30:30 2020, MaxMem=  2147483648 cpu:               0.1 elap:               0.0
 (Enter /prod/apps/gaussian/g16b1/l101.exe)
 -------------------
 SM36_m0.n.8.pdb.xyz
 -------------------
 Symbolic Z-matrix:
 Charge =  0 Multiplicity = 1
 O                     3.295    -1.366     1.622 
 S                     2.359    -1.124     0.51 
 N                     0.841    -1.136     1.209 
 C                    -0.387    -1.544     0.51 
 C                    -0.455    -3.004    -0.012 
 S                    -1.384    -2.462    -1.545 
 O                    -2.885    -2.446    -1.261 
 C                    -0.601    -0.902    -0.878 
 C                    -1.559    -1.29      1.477 
 C                    -1.732     0.152     1.988 
 C                    -2.386     1.124     1.025 
 C                    -3.651     0.855     0.481 
 C                    -4.269     1.763    -0.379 
 C                    -3.633     2.962    -0.711 
 C                    -2.376     3.243    -0.175 
 C                    -1.761     2.33      0.686 
 C                     2.575     0.558    -0.064 
 C                     2.407     1.62      0.831 
 C                     2.642     2.919     0.382 
 C                     3.043     3.144    -0.94 
 C                     3.213     2.072    -1.818 
 C                     2.982     0.767    -1.382 
 O                     2.413    -1.998    -0.676 
 H                     0.918    -1.506     2.157 
 H                    -0.997    -3.734     0.59 
 H                     0.514    -3.384    -0.335 
 H                    -1.24     -0.025    -0.941 
 H                     0.324    -0.753    -1.437 
 H                    -1.411    -1.953     2.338 
 H                    -2.468    -1.631     0.971 
 H                    -0.759     0.546     2.298 
 H                    -2.346     0.097     2.894 
 H                    -4.15     -0.076     0.728 
 H                    -5.248     1.535    -0.79 
 H                    -4.114     3.668    -1.38 
 H                    -1.87      4.171    -0.426 
 H                    -0.78      2.552     1.096 
 H                     2.093     1.436     1.851 
 H                     2.513     3.753     1.062 
 H                     3.223     4.157    -1.282 
 H                     3.526     2.249    -2.842 
 H                     3.108    -0.08     -2.045 
 
 ITRead=  0  0  0  0  0  0  0  0  0  0  0  0  0  0  0  0  0  0  0  0
 ITRead=  0  0  0  0  0  0  0  0  0  0  0  0  0  0  0  0  0  0  0  0
 ITRead=  0  0
 MicOpt= -1 -1 -1 -1 -1 -1 -1 -1 -1 -1 -1 -1 -1 -1 -1 -1 -1 -1 -1 -1
 MicOpt= -1 -1 -1 -1 -1 -1 -1 -1 -1 -1 -1 -1 -1 -1 -1 -1 -1 -1 -1 -1
 MicOpt= -1 -1
 NAtoms=     42 NQM=       42 NQMF=       0 NMMI=      0 NMMIF=      0
                NMic=       0 NMicF=      0.
                    Isotopes and Nuclear Properties:
 (Nuclear quadrupole moments (NQMom) in fm**2, nuclear magnetic moments (NMagM)
  in nuclear magnetons)

  Atom         1           2           3           4           5           6           7           8           9          10
 IAtWgt=          16          32          14          12          12          32          16          12          12          12
 AtmWgt=  15.9949146  31.9720718  14.0030740  12.0000000  12.0000000  31.9720718  15.9949146  12.0000000  12.0000000  12.0000000
 NucSpn=           0           0           2           0           0           0           0           0           0           0
 AtZEff=  -0.0000000  -0.0000000  -0.0000000  -0.0000000  -0.0000000  -0.0000000  -0.0000000  -0.0000000  -0.0000000  -0.0000000
 NQMom=    0.0000000   0.0000000   2.0440000   0.0000000   0.0000000   0.0000000   0.0000000   0.0000000   0.0000000   0.0000000
 NMagM=    0.0000000   0.0000000   0.4037610   0.0000000   0.0000000   0.0000000   0.0000000   0.0000000   0.0000000   0.0000000
 AtZNuc=   8.0000000  16.0000000   7.0000000   6.0000000   6.0000000  16.0000000   8.0000000   6.0000000   6.0000000   6.0000000

  Atom        11          12          13          14          15          16          17          18          19          20
 IAtWgt=          12          12          12          12          12          12          12          12          12          12
 AtmWgt=  12.0000000  12.0000000  12.0000000  12.0000000  12.0000000  12.0000000  12.0000000  12.0000000  12.0000000  12.0000000
 NucSpn=           0           0           0           0           0           0           0           0           0           0
 AtZEff=  -0.0000000  -0.0000000  -0.0000000  -0.0000000  -0.0000000  -0.0000000  -0.0000000  -0.0000000  -0.0000000  -0.0000000
 NQMom=    0.0000000   0.0000000   0.0000000   0.0000000   0.0000000   0.0000000   0.0000000   0.0000000   0.0000000   0.0000000
 NMagM=    0.0000000   0.0000000   0.0000000   0.0000000   0.0000000   0.0000000   0.0000000   0.0000000   0.0000000   0.0000000
 AtZNuc=   6.0000000   6.0000000   6.0000000   6.0000000   6.0000000   6.0000000   6.0000000   6.0000000   6.0000000   6.0000000

  Atom        21          22          23          24          25          26          27          28          29          30
 IAtWgt=          12          12          16           1           1           1           1           1           1           1
 AtmWgt=  12.0000000  12.0000000  15.9949146   1.0078250   1.0078250   1.0078250   1.0078250   1.0078250   1.0078250   1.0078250
 NucSpn=           0           0           0           1           1           1           1           1           1           1
 AtZEff=  -0.0000000  -0.0000000  -0.0000000  -0.0000000  -0.0000000  -0.0000000  -0.0000000  -0.0000000  -0.0000000  -0.0000000
 NQMom=    0.0000000   0.0000000   0.0000000   0.0000000   0.0000000   0.0000000   0.0000000   0.0000000   0.0000000   0.0000000
 NMagM=    0.0000000   0.0000000   0.0000000   2.7928460   2.7928460   2.7928460   2.7928460   2.7928460   2.7928460   2.7928460
 AtZNuc=   6.0000000   6.0000000   8.0000000   1.0000000   1.0000000   1.0000000   1.0000000   1.0000000   1.0000000   1.0000000

  Atom        31          32          33          34          35          36          37          38          39          40
 IAtWgt=           1           1           1           1           1           1           1           1           1           1
 AtmWgt=   1.0078250   1.0078250   1.0078250   1.0078250   1.0078250   1.0078250   1.0078250   1.0078250   1.0078250   1.0078250
 NucSpn=           1           1           1           1           1           1           1           1           1           1
 AtZEff=  -0.0000000  -0.0000000  -0.0000000  -0.0000000  -0.0000000  -0.0000000  -0.0000000  -0.0000000  -0.0000000  -0.0000000
 NQMom=    0.0000000   0.0000000   0.0000000   0.0000000   0.0000000   0.0000000   0.0000000   0.0000000   0.0000000   0.0000000
 NMagM=    2.7928460   2.7928460   2.7928460   2.7928460   2.7928460   2.7928460   2.7928460   2.7928460   2.7928460   2.7928460
 AtZNuc=   1.0000000   1.0000000   1.0000000   1.0000000   1.0000000   1.0000000   1.0000000   1.0000000   1.0000000   1.0000000

  Atom        41          42
 IAtWgt=           1           1
 AtmWgt=   1.0078250   1.0078250
 NucSpn=           1           1
 AtZEff=  -0.0000000  -0.0000000
 NQMom=    0.0000000   0.0000000
 NMagM=    2.7928460   2.7928460
 AtZNuc=   1.0000000   1.0000000
 Leave Link  101 at Mon Sep 21 18:30:31 2020, MaxMem=  2147483648 cpu:               1.3 elap:               0.3
 (Enter /prod/apps/gaussian/g16b1/l103.exe)

 GradGradGradGradGradGradGradGradGradGradGradGradGradGradGradGradGradGrad
 Berny optimization.
 Initialization pass.
                           ----------------------------
                           !    Initial Parameters    !
                           ! (Angstroms and Degrees)  !
 --------------------------                            --------------------------
 ! Name  Definition              Value          Derivative Info.                !
 --------------------------------------------------------------------------------
 ! R1    R(1,2)                  1.4735         estimate D2E/DX2                !
 ! R2    R(2,3)                  1.6712         estimate D2E/DX2                !
 ! R3    R(2,17)                 1.7903         estimate D2E/DX2                !
 ! R4    R(2,23)                 1.4742         estimate D2E/DX2                !
 ! R5    R(3,4)                  1.4707         estimate D2E/DX2                !
 ! R6    R(3,24)                 1.0206         estimate D2E/DX2                !
 ! R7    R(4,5)                  1.552          estimate D2E/DX2                !
 ! R8    R(4,8)                  1.5442         estimate D2E/DX2                !
 ! R9    R(4,9)                  1.5405         estimate D2E/DX2                !
 ! R10   R(5,6)                  1.8727         estimate D2E/DX2                !
 ! R11   R(5,25)                 1.0904         estimate D2E/DX2                !
 ! R12   R(5,26)                 1.0898         estimate D2E/DX2                !
 ! R13   R(6,7)                  1.5277         estimate D2E/DX2                !
 ! R14   R(6,8)                  1.8686         estimate D2E/DX2                !
 ! R15   R(8,27)                 1.0869         estimate D2E/DX2                !
 ! R16   R(8,28)                 1.091          estimate D2E/DX2                !
 ! R17   R(9,10)                 1.5396         estimate D2E/DX2                !
 ! R18   R(9,29)                 1.0967         estimate D2E/DX2                !
 ! R19   R(9,30)                 1.0948         estimate D2E/DX2                !
 ! R20   R(10,11)                1.5165         estimate D2E/DX2                !
 ! R21   R(10,31)                1.0946         estimate D2E/DX2                !
 ! R22   R(10,32)                1.0958         estimate D2E/DX2                !
 ! R23   R(11,12)                1.403          estimate D2E/DX2                !
 ! R24   R(11,16)                1.4            estimate D2E/DX2                !
 ! R25   R(12,13)                1.395          estimate D2E/DX2                !
 ! R26   R(12,33)                1.0848         estimate D2E/DX2                !
 ! R27   R(13,14)                1.3973         estimate D2E/DX2                !
 ! R28   R(13,34)                1.086          estimate D2E/DX2                !
 ! R29   R(14,15)                1.3951         estimate D2E/DX2                !
 ! R30   R(14,35)                1.0851         estimate D2E/DX2                !
 ! R31   R(15,16)                1.3975         estimate D2E/DX2                !
 ! R32   R(15,36)                1.0864         estimate D2E/DX2                !
 ! R33   R(16,37)                1.0862         estimate D2E/DX2                !
 ! R34   R(17,18)                1.399          estimate D2E/DX2                !
 ! R35   R(17,22)                1.3952         estimate D2E/DX2                !
 ! R36   R(18,19)                1.3944         estimate D2E/DX2                !
 ! R37   R(18,38)                1.083          estimate D2E/DX2                !
 ! R38   R(19,20)                1.3997         estimate D2E/DX2                !
 ! R39   R(19,39)                1.0838         estimate D2E/DX2                !
 ! R40   R(20,21)                1.3961         estimate D2E/DX2                !
 ! R41   R(20,40)                1.0842         estimate D2E/DX2                !
 ! R42   R(21,22)                1.3952         estimate D2E/DX2                !
 ! R43   R(21,41)                1.0853         estimate D2E/DX2                !
 ! R44   R(22,42)                1.083          estimate D2E/DX2                !
 ! A1    A(1,2,3)              105.0793         estimate D2E/DX2                !
 ! A2    A(1,2,17)             108.6396         estimate D2E/DX2                !
 ! A3    A(1,2,23)             119.1095         estimate D2E/DX2                !
 ! A4    A(3,2,17)             104.5028         estimate D2E/DX2                !
 ! A5    A(3,2,23)             111.4376         estimate D2E/DX2                !
 ! A6    A(17,2,23)            107.1354         estimate D2E/DX2                !
 ! A7    A(2,3,4)              124.1668         estimate D2E/DX2                !
 ! A8    A(2,3,24)             108.8195         estimate D2E/DX2                !
 ! A9    A(4,3,24)             113.8226         estimate D2E/DX2                !
 ! A10   A(3,4,5)              117.2198         estimate D2E/DX2                !
 ! A11   A(3,4,8)              115.3141         estimate D2E/DX2                !
 ! A12   A(3,4,9)              106.9267         estimate D2E/DX2                !
 ! A13   A(5,4,8)               94.7446         estimate D2E/DX2                !
 ! A14   A(5,4,9)              109.4447         estimate D2E/DX2                !
 ! A15   A(8,4,9)              112.9695         estimate D2E/DX2                !
 ! A16   A(4,5,6)               91.4211         estimate D2E/DX2                !
 ! A17   A(4,5,25)             117.7661         estimate D2E/DX2                !
 ! A18   A(4,5,26)             112.8762         estimate D2E/DX2                !
 ! A19   A(6,5,25)             113.5228         estimate D2E/DX2                !
 ! A20   A(6,5,26)             107.4207         estimate D2E/DX2                !
 ! A21   A(25,5,26)            111.8477         estimate D2E/DX2                !
 ! A22   A(5,6,7)              109.7709         estimate D2E/DX2                !
 ! A23   A(5,6,8)               75.0215         estimate D2E/DX2                !
 ! A24   A(7,6,8)              109.6703         estimate D2E/DX2                !
 ! A25   A(4,8,6)               91.8239         estimate D2E/DX2                !
 ! A26   A(4,8,27)             117.9711         estimate D2E/DX2                !
 ! A27   A(4,8,28)             113.5674         estimate D2E/DX2                !
 ! A28   A(6,8,27)             113.9899         estimate D2E/DX2                !
 ! A29   A(6,8,28)             106.6424         estimate D2E/DX2                !
 ! A30   A(27,8,28)            111.011          estimate D2E/DX2                !
 ! A31   A(4,9,10)             116.6315         estimate D2E/DX2                !
 ! A32   A(4,9,29)             106.8852         estimate D2E/DX2                !
 ! A33   A(4,9,30)             106.8696         estimate D2E/DX2                !
 ! A34   A(10,9,29)            108.7113         estimate D2E/DX2                !
 ! A35   A(10,9,30)            110.5991         estimate D2E/DX2                !
 ! A36   A(29,9,30)            106.6543         estimate D2E/DX2                !
 ! A37   A(9,10,11)            115.9763         estimate D2E/DX2                !
 ! A38   A(9,10,31)            109.3449         estimate D2E/DX2                !
 ! A39   A(9,10,32)            106.8792         estimate D2E/DX2                !
 ! A40   A(11,10,31)           109.4197         estimate D2E/DX2                !
 ! A41   A(11,10,32)           108.3932         estimate D2E/DX2                !
 ! A42   A(31,10,32)           106.3788         estimate D2E/DX2                !
 ! A43   A(10,11,12)           120.8066         estimate D2E/DX2                !
 ! A44   A(10,11,16)           120.8881         estimate D2E/DX2                !
 ! A45   A(12,11,16)           118.28           estimate D2E/DX2                !
 ! A46   A(11,12,13)           120.9083         estimate D2E/DX2                !
 ! A47   A(11,12,33)           119.4064         estimate D2E/DX2                !
 ! A48   A(13,12,33)           119.6836         estimate D2E/DX2                !
 ! A49   A(12,13,14)           120.2239         estimate D2E/DX2                !
 ! A50   A(12,13,34)           119.7382         estimate D2E/DX2                !
 ! A51   A(14,13,34)           120.038          estimate D2E/DX2                !
 ! A52   A(13,14,15)           119.4504         estimate D2E/DX2                !
 ! A53   A(13,14,35)           120.2024         estimate D2E/DX2                !
 ! A54   A(15,14,35)           120.3472         estimate D2E/DX2                !
 ! A55   A(14,15,16)           120.1068         estimate D2E/DX2                !
 ! A56   A(14,15,36)           120.1953         estimate D2E/DX2                !
 ! A57   A(16,15,36)           119.6979         estimate D2E/DX2                !
 ! A58   A(11,16,15)           121.0303         estimate D2E/DX2                !
 ! A59   A(11,16,37)           119.2008         estimate D2E/DX2                !
 ! A60   A(15,16,37)           119.7677         estimate D2E/DX2                !
 ! A61   A(2,17,18)            119.5775         estimate D2E/DX2                !
 ! A62   A(2,17,22)            118.6083         estimate D2E/DX2                !
 ! A63   A(18,17,22)           121.7148         estimate D2E/DX2                !
 ! A64   A(17,18,19)           118.7487         estimate D2E/DX2                !
 ! A65   A(17,18,38)           120.557          estimate D2E/DX2                !
 ! A66   A(19,18,38)           120.6927         estimate D2E/DX2                !
 ! A67   A(18,19,20)           120.1445         estimate D2E/DX2                !
 ! A68   A(18,19,39)           119.6564         estimate D2E/DX2                !
 ! A69   A(20,19,39)           120.1991         estimate D2E/DX2                !
 ! A70   A(19,20,21)           120.3619         estimate D2E/DX2                !
 ! A71   A(19,20,40)           119.7147         estimate D2E/DX2                !
 ! A72   A(21,20,40)           119.9233         estimate D2E/DX2                !
 ! A73   A(20,21,22)           120.1026         estimate D2E/DX2                !
 ! A74   A(20,21,41)           120.2172         estimate D2E/DX2                !
 ! A75   A(22,21,41)           119.6801         estimate D2E/DX2                !
 ! A76   A(17,22,21)           118.9241         estimate D2E/DX2                !
 ! A77   A(17,22,42)           119.6777         estimate D2E/DX2                !
 ! A78   A(21,22,42)           121.3976         estimate D2E/DX2                !
 ! D1    D(1,2,3,4)           -150.8001         estimate D2E/DX2                !
 ! D2    D(1,2,3,24)           -12.4642         estimate D2E/DX2                !
 ! D3    D(17,2,3,4)            94.8944         estimate D2E/DX2                !
 ! D4    D(17,2,3,24)         -126.7696         estimate D2E/DX2                !
 ! D5    D(23,2,3,4)           -20.479          estimate D2E/DX2                !
 ! D6    D(23,2,3,24)          117.857          estimate D2E/DX2                !
 ! D7    D(1,2,17,18)          -57.7607         estimate D2E/DX2                !
 ! D8    D(1,2,17,22)          118.677          estimate D2E/DX2                !
 ! D9    D(3,2,17,18)           54.0071         estimate D2E/DX2                !
 ! D10   D(3,2,17,22)         -129.5553         estimate D2E/DX2                !
 ! D11   D(23,2,17,18)         172.3538         estimate D2E/DX2                !
 ! D12   D(23,2,17,22)         -11.2086         estimate D2E/DX2                !
 ! D13   D(2,3,4,5)             61.507          estimate D2E/DX2                !
 ! D14   D(2,3,4,8)            -48.7475         estimate D2E/DX2                !
 ! D15   D(2,3,4,9)           -175.2737         estimate D2E/DX2                !
 ! D16   D(24,3,4,5)           -75.0348         estimate D2E/DX2                !
 ! D17   D(24,3,4,8)           174.7108         estimate D2E/DX2                !
 ! D18   D(24,3,4,9)            48.1845         estimate D2E/DX2                !
 ! D19   D(3,4,5,6)           -143.1789         estimate D2E/DX2                !
 ! D20   D(3,4,5,25)            99.1595         estimate D2E/DX2                !
 ! D21   D(3,4,5,26)           -33.5754         estimate D2E/DX2                !
 ! D22   D(8,4,5,6)            -21.499          estimate D2E/DX2                !
 ! D23   D(8,4,5,25)          -139.1607         estimate D2E/DX2                !
 ! D24   D(8,4,5,26)            88.1045         estimate D2E/DX2                !
 ! D25   D(9,4,5,6)             94.8968         estimate D2E/DX2                !
 ! D26   D(9,4,5,25)           -22.7649         estimate D2E/DX2                !
 ! D27   D(9,4,5,26)          -155.4997         estimate D2E/DX2                !
 ! D28   D(3,4,8,6)            144.7138         estimate D2E/DX2                !
 ! D29   D(3,4,8,27)           -96.7642         estimate D2E/DX2                !
 ! D30   D(3,4,8,28)            35.6567         estimate D2E/DX2                !
 ! D31   D(5,4,8,6)             21.553          estimate D2E/DX2                !
 ! D32   D(5,4,8,27)           140.0751         estimate D2E/DX2                !
 ! D33   D(5,4,8,28)           -87.5041         estimate D2E/DX2                !
 ! D34   D(9,4,8,6)            -91.8994         estimate D2E/DX2                !
 ! D35   D(9,4,8,27)            26.6227         estimate D2E/DX2                !
 ! D36   D(9,4,8,28)           159.0436         estimate D2E/DX2                !
 ! D37   D(3,4,9,10)            57.9148         estimate D2E/DX2                !
 ! D38   D(3,4,9,29)           -63.9053         estimate D2E/DX2                !
 ! D39   D(3,4,9,30)          -177.7979         estimate D2E/DX2                !
 ! D40   D(5,4,9,10)          -174.1712         estimate D2E/DX2                !
 ! D41   D(5,4,9,29)            64.0087         estimate D2E/DX2                !
 ! D42   D(5,4,9,30)           -49.8839         estimate D2E/DX2                !
 ! D43   D(8,4,9,10)           -69.9951         estimate D2E/DX2                !
 ! D44   D(8,4,9,29)           168.1848         estimate D2E/DX2                !
 ! D45   D(8,4,9,30)            54.2922         estimate D2E/DX2                !
 ! D46   D(4,5,6,7)            -87.7022         estimate D2E/DX2                !
 ! D47   D(4,5,6,8)             18.2063         estimate D2E/DX2                !
 ! D48   D(25,5,6,7)            33.5655         estimate D2E/DX2                !
 ! D49   D(25,5,6,8)           139.4741         estimate D2E/DX2                !
 ! D50   D(26,5,6,7)           157.7571         estimate D2E/DX2                !
 ! D51   D(26,5,6,8)           -96.3343         estimate D2E/DX2                !
 ! D52   D(5,6,8,4)            -18.3056         estimate D2E/DX2                !
 ! D53   D(5,6,8,27)          -140.1628         estimate D2E/DX2                !
 ! D54   D(5,6,8,28)            96.9743         estimate D2E/DX2                !
 ! D55   D(7,6,8,4)             87.729          estimate D2E/DX2                !
 ! D56   D(7,6,8,27)           -34.1282         estimate D2E/DX2                !
 ! D57   D(7,6,8,28)          -156.9911         estimate D2E/DX2                !
 ! D58   D(4,9,10,11)           78.4305         estimate D2E/DX2                !
 ! D59   D(4,9,10,31)          -45.8351         estimate D2E/DX2                !
 ! D60   D(4,9,10,32)         -160.5965         estimate D2E/DX2                !
 ! D61   D(29,9,10,11)        -160.7122         estimate D2E/DX2                !
 ! D62   D(29,9,10,31)          75.0222         estimate D2E/DX2                !
 ! D63   D(29,9,10,32)         -39.7392         estimate D2E/DX2                !
 ! D64   D(30,9,10,11)         -43.9326         estimate D2E/DX2                !
 ! D65   D(30,9,10,31)        -168.1982         estimate D2E/DX2                !
 ! D66   D(30,9,10,32)          77.0404         estimate D2E/DX2                !
 ! D67   D(9,10,11,12)          56.0451         estimate D2E/DX2                !
 ! D68   D(9,10,11,16)        -125.8139         estimate D2E/DX2                !
 ! D69   D(31,10,11,12)       -179.728          estimate D2E/DX2                !
 ! D70   D(31,10,11,16)         -1.587          estimate D2E/DX2                !
 ! D71   D(32,10,11,12)        -64.1129         estimate D2E/DX2                !
 ! D72   D(32,10,11,16)        114.0281         estimate D2E/DX2                !
 ! D73   D(10,11,12,13)        178.3964         estimate D2E/DX2                !
 ! D74   D(10,11,12,33)         -2.0783         estimate D2E/DX2                !
 ! D75   D(16,11,12,13)          0.2079         estimate D2E/DX2                !
 ! D76   D(16,11,12,33)        179.7332         estimate D2E/DX2                !
 ! D77   D(10,11,16,15)       -178.388          estimate D2E/DX2                !
 ! D78   D(10,11,16,37)          2.0162         estimate D2E/DX2                !
 ! D79   D(12,11,16,15)         -0.2011         estimate D2E/DX2                !
 ! D80   D(12,11,16,37)       -179.7968         estimate D2E/DX2                !
 ! D81   D(11,12,13,14)         -0.0983         estimate D2E/DX2                !
 ! D82   D(11,12,13,34)        179.9372         estimate D2E/DX2                !
 ! D83   D(33,12,13,14)       -179.6223         estimate D2E/DX2                !
 ! D84   D(33,12,13,34)          0.4132         estimate D2E/DX2                !
 ! D85   D(12,13,14,15)         -0.0234         estimate D2E/DX2                !
 ! D86   D(12,13,14,35)        179.9974         estimate D2E/DX2                !
 ! D87   D(34,13,14,15)        179.941          estimate D2E/DX2                !
 ! D88   D(34,13,14,35)         -0.0381         estimate D2E/DX2                !
 ! D89   D(13,14,15,16)          0.0305         estimate D2E/DX2                !
 ! D90   D(13,14,15,36)        179.9209         estimate D2E/DX2                !
 ! D91   D(35,14,15,16)       -179.9904         estimate D2E/DX2                !
 ! D92   D(35,14,15,36)         -0.1            estimate D2E/DX2                !
 ! D93   D(14,15,16,11)          0.0843         estimate D2E/DX2                !
 ! D94   D(14,15,16,37)        179.6778         estimate D2E/DX2                !
 ! D95   D(36,15,16,11)       -179.8066         estimate D2E/DX2                !
 ! D96   D(36,15,16,37)         -0.2131         estimate D2E/DX2                !
 ! D97   D(2,17,18,19)         176.9585         estimate D2E/DX2                !
 ! D98   D(2,17,18,38)          -3.5016         estimate D2E/DX2                !
 ! D99   D(22,17,18,19)          0.6351         estimate D2E/DX2                !
 ! D100  D(22,17,18,38)       -179.825          estimate D2E/DX2                !
 ! D101  D(2,17,22,21)        -177.0256         estimate D2E/DX2                !
 ! D102  D(2,17,22,42)           3.2361         estimate D2E/DX2                !
 ! D103  D(18,17,22,21)         -0.6677         estimate D2E/DX2                !
 ! D104  D(18,17,22,42)        179.594          estimate D2E/DX2                !
 ! D105  D(17,18,19,20)         -0.2389         estimate D2E/DX2                !
 ! D106  D(17,18,19,39)        179.7907         estimate D2E/DX2                !
 ! D107  D(38,18,19,20)       -179.7782         estimate D2E/DX2                !
 ! D108  D(38,18,19,39)          0.2514         estimate D2E/DX2                !
 ! D109  D(18,19,20,21)         -0.1089         estimate D2E/DX2                !
 ! D110  D(18,19,20,40)        179.9474         estimate D2E/DX2                !
 ! D111  D(39,19,20,21)        179.8613         estimate D2E/DX2                !
 ! D112  D(39,19,20,40)         -0.0823         estimate D2E/DX2                !
 ! D113  D(19,20,21,22)          0.0768         estimate D2E/DX2                !
 ! D114  D(19,20,21,41)       -179.8726         estimate D2E/DX2                !
 ! D115  D(40,20,21,22)       -179.9797         estimate D2E/DX2                !
 ! D116  D(40,20,21,41)          0.071          estimate D2E/DX2                !
 ! D117  D(20,21,22,17)          0.3032         estimate D2E/DX2                !
 ! D118  D(20,21,22,42)       -179.9632         estimate D2E/DX2                !
 ! D119  D(41,21,22,17)       -179.7471         estimate D2E/DX2                !
 ! D120  D(41,21,22,42)         -0.0135         estimate D2E/DX2                !
 --------------------------------------------------------------------------------
 Trust Radius=3.00D-01 FncErr=1.00D-07 GrdErr=1.00D-06 EigMax=2.50D+02 EigMin=1.00D-04
 Number of steps in this run=    252 maximum allowed number of steps=    252.
 GradGradGradGradGradGradGradGradGradGradGradGradGradGradGradGradGradGrad

 Leave Link  103 at Mon Sep 21 18:30:31 2020, MaxMem=  2147483648 cpu:               0.1 elap:               0.0
 (Enter /prod/apps/gaussian/g16b1/l202.exe)
                          Input orientation:                          
 ---------------------------------------------------------------------
 Center     Atomic      Atomic             Coordinates (Angstroms)
 Number     Number       Type             X           Y           Z
 ---------------------------------------------------------------------
      1          8           0        3.295000   -1.366000    1.622000
      2         16           0        2.359000   -1.124000    0.510000
      3          7           0        0.841000   -1.136000    1.209000
      4          6           0       -0.387000   -1.544000    0.510000
      5          6           0       -0.455000   -3.004000   -0.012000
      6         16           0       -1.384000   -2.462000   -1.545000
      7          8           0       -2.885000   -2.446000   -1.261000
      8          6           0       -0.601000   -0.902000   -0.878000
      9          6           0       -1.559000   -1.290000    1.477000
     10          6           0       -1.732000    0.152000    1.988000
     11          6           0       -2.386000    1.124000    1.025000
     12          6           0       -3.651000    0.855000    0.481000
     13          6           0       -4.269000    1.763000   -0.379000
     14          6           0       -3.633000    2.962000   -0.711000
     15          6           0       -2.376000    3.243000   -0.175000
     16          6           0       -1.761000    2.330000    0.686000
     17          6           0        2.575000    0.558000   -0.064000
     18          6           0        2.407000    1.620000    0.831000
     19          6           0        2.642000    2.919000    0.382000
     20          6           0        3.043000    3.144000   -0.940000
     21          6           0        3.213000    2.072000   -1.818000
     22          6           0        2.982000    0.767000   -1.382000
     23          8           0        2.413000   -1.998000   -0.676000
     24          1           0        0.918000   -1.506000    2.157000
     25          1           0       -0.997000   -3.734000    0.590000
     26          1           0        0.514000   -3.384000   -0.335000
     27          1           0       -1.240000   -0.025000   -0.941000
     28          1           0        0.324000   -0.753000   -1.437000
     29          1           0       -1.411000   -1.953000    2.338000
     30          1           0       -2.468000   -1.631000    0.971000
     31          1           0       -0.759000    0.546000    2.298000
     32          1           0       -2.346000    0.097000    2.894000
     33          1           0       -4.150000   -0.076000    0.728000
     34          1           0       -5.248000    1.535000   -0.790000
     35          1           0       -4.114000    3.668000   -1.380000
     36          1           0       -1.870000    4.171000   -0.426000
     37          1           0       -0.780000    2.552000    1.096000
     38          1           0        2.093000    1.436000    1.851000
     39          1           0        2.513000    3.753000    1.062000
     40          1           0        3.223000    4.157000   -1.282000
     41          1           0        3.526000    2.249000   -2.842000
     42          1           0        3.108000   -0.080000   -2.045000
 ---------------------------------------------------------------------
                    Distance matrix (angstroms):
                    1          2          3          4          5
     1  O    0.000000
     2  S    1.473501   0.000000
     3  N    2.499117   1.671248   0.000000
     4  C    3.850370   2.777934   1.470731   0.000000
     5  C    4.406302   3.424249   2.580675   1.552001   0.000000
     6  S    5.755358   4.474742   3.780664   2.461658   1.872670
     7  O    6.904382   5.690664   4.658334   3.192186   2.788596
     8  C    4.652323   3.276801   2.547487   1.544184   2.278086
     9  C    4.856760   4.038981   2.419822   1.540516   2.524625
    10  C    5.263935   4.533094   2.980959   2.621054   3.948552
    11  C    6.231394   5.275770   3.943981   3.373344   4.673812
    12  C    7.381168   6.327510   4.967105   4.050893   5.034813
    13  C    8.426668   7.283919   6.085889   5.176533   6.116010
    14  C    8.495390   7.354611   6.363700   5.686070   6.795693
    15  C    7.525446   6.477665   5.607155   5.228835   6.537723
    16  C    6.332428   5.379172   4.365443   4.114210   5.535738
    17  C    2.657588   1.790323   2.738051   3.677135   4.676692
    18  C    3.214097   2.763129   3.192299   4.233246   5.503005
    19  C    4.508352   4.054913   4.513375   5.395331   6.695414
    20  C    5.193019   4.559186   5.271186   5.987048   7.134080
    21  C    4.864172   4.045160   5.008031   5.608479   6.517794
    22  C    3.697523   2.746575   3.862457   4.502282   5.283021
    23  O    2.541289   1.474241   2.601433   3.074526   3.111006
    24  H    2.440482   2.221489   1.020555   2.101685   2.972153
    25  H    5.009362   4.252204   3.242069   2.274775   1.090444
    26  H    3.954255   3.037376   2.746701   2.216174   1.089812
    27  H    5.378985   4.033113   3.191768   2.267239   3.217718
    28  H    4.308142   2.840717   2.723104   2.218561   2.775692
    29  H    4.796213   4.271033   2.648327   2.134816   2.746095
    30  H    5.805704   4.875397   3.354273   2.133225   2.627468
    31  H    4.532950   3.963303   2.564185   2.775505   4.246294
    32  H    5.964833   5.413993   3.810050   3.494856   4.651550
    33  H    7.608637   6.596432   5.124943   4.045086   4.772191
    34  H    9.338972   8.162520   6.943066   5.899115   6.646853
    35  H    9.447033   8.272551   7.371117   6.680387   7.731448
    36  H    7.844100   6.840874   6.179563   5.978011   7.324906
    37  H    5.677414   4.869260   4.030106   4.156328   5.674718
    38  H    3.057523   2.902178   2.931698   4.102326   5.447630
    39  H    5.208578   4.910555   5.169092   6.064067   7.457852
    40  H    6.240347   5.643290   6.316237   6.981745   8.149878
    41  H    5.748816   4.896419   5.922673   6.397994   7.172954
    42  H    3.890457   2.859888   4.104015   4.570158   5.037642
                    6          7          8          9         10
     6  S    0.000000
     7  O    1.527715   0.000000
     8  C    1.868576   2.783394   0.000000
     9  C    3.246027   3.254421   2.571835   0.000000
    10  C    4.408649   4.316829   3.256383   1.539615   0.000000
    11  C    4.524191   4.268454   3.303379   2.591453   1.516532
    12  C    4.499606   3.810239   3.773119   3.157452   2.539256
    13  C    5.247228   4.517639   4.561299   4.484378   3.825491
    14  C    5.930711   5.487118   4.914408   5.212324   4.335263
    15  C    5.950461   5.814052   4.563536   4.893330   3.827216
    16  C    5.299316   5.278670   3.773264   3.710914   2.537662
    17  C    5.194944   6.345741   3.589035   4.783277   4.788088
    18  C    6.056383   6.993860   4.281265   4.961307   4.541475
    19  C    6.991221   7.875938   5.167658   6.046744   5.419170
    20  C    7.168793   8.154283   5.445429   6.832324   6.350266
    21  C    6.462515   7.609742   4.926954   6.703138   6.528787
    22  C    5.432768   6.690269   3.984654   5.746809   5.827257
    23  O    3.922712   5.348994   3.213443   4.573123   5.375911
    24  H    4.462952   5.198955   3.447231   2.577709   3.130499
    25  H    2.515150   2.941035   3.214353   2.660028   4.194714
    26  H    2.432404   3.645617   2.774599   3.459120   4.790004
    27  H    2.514860   2.944430   1.086931   2.747492   2.975304
    28  H    2.418596   3.632479   1.091012   3.510763   4.095948
    29  H    3.916312   3.920271   3.478988   1.096720   2.157908
    30  H    2.862844   2.412455   2.726890   1.094805   2.180613
    31  H    4.920095   5.112575   3.494087   2.164472   1.094562
    32  H    5.213314   4.901163   4.274460   2.133314   1.095836
    33  H    4.302358   3.342641   3.982074   2.957715   2.736112
    34  H    5.610395   4.653383   5.247983   5.169974   4.689587
    35  H    6.712453   6.237435   5.786024   6.266757   5.420296
    36  H    6.744260   6.746269   5.248809   5.791429   4.690288
    37  H    5.699113   5.913246   3.982315   3.938650   2.731660
    38  H    6.230309   7.038107   4.491249   4.572533   4.037084
    39  H    7.785196   8.541799   5.927025   6.495018   5.643111
    40  H    8.068753   8.994872   6.354500   7.755605   7.161351
    41  H    6.927036   8.102068   5.551417   7.552186   7.441295
    42  H    5.109010   6.490660   3.974199   5.970718   6.304325
                   11         12         13         14         15
    11  C    0.000000
    12  C    1.403040   0.000000
    13  C    2.434179   1.394987   0.000000
    14  C    2.819033   2.420875   1.397255   0.000000
    15  C    2.435213   2.785409   2.411528   1.395101   0.000000
    16  C    1.399994   2.406190   2.783124   2.419797   1.397539
    17  C    5.110558   6.256861   6.956406   6.688579   5.633289
    18  C    4.822499   6.116134   6.786275   6.376545   5.150073
    19  C    5.377384   6.623575   7.048218   6.369625   5.059204
    20  C    6.116835   7.215844   7.462387   6.682405   5.473626
    21  C    6.350603   7.340367   7.625387   6.991800   5.942021
    22  C    5.893770   6.890225   7.387491   7.001892   6.024582
    23  O    5.972494   6.800761   7.673490   7.820290   7.117134
    24  H    4.372041   5.409164   6.634955   6.992857   6.232308
    25  H    5.071362   5.302313   6.470081   7.312832   7.152999
    26  H    5.530069   5.998517   7.026424   7.590171   7.231516
    27  H    2.549249   2.934179   3.561970   3.834256   3.543596
    28  H    4.114447   4.697341   5.342777   5.475961   4.985044
    29  H    3.484612   4.043626   5.418386   6.196040   5.851907
    30  H    2.756749   2.796388   4.072510   5.028121   5.007760
    31  H    2.145167   3.429378   4.579030   4.811550   4.000528
    32  H    2.132953   2.846078   4.145602   4.781278   4.395108
    33  H    2.154044   1.084791   2.149775   3.401096   3.870174
    34  H    3.413823   2.151337   1.085977   2.156570   3.397628
    35  H    3.904093   3.404506   2.157557   1.085061   2.157150
    36  H    3.414069   3.871752   3.399393   2.156635   1.086380
    37  H    2.150223   3.391265   3.869272   3.401905   2.154098
    38  H    4.565201   5.933633   6.749435   6.455974   5.228947
    39  H    5.559965   6.835997   7.213328   6.445349   5.068786
    40  H    6.781019   7.827084   7.916862   6.982750   5.780108
    41  H    7.153395   8.030871   8.189297   7.503387   6.552445
    42  H    6.407695   7.275918   7.784108   7.514945   6.679333
                   16         17         18         19         20
    16  C    0.000000
    17  C    4.743773   0.000000
    18  C    4.230526   1.398961   0.000000
    19  C    4.452611   2.403690   1.394355   0.000000
    20  C    5.136622   2.770162   2.421469   1.399682   0.000000
    21  C    5.574698   2.403280   2.805555   2.425582   1.396054
    22  C    5.405150   1.395154   2.440410   2.803284   2.418515
    23  O    6.165136   2.633235   3.919312   5.034749   5.187173
    24  H    4.904669   3.455226   3.707732   5.069855   5.977419
    25  H    6.112692   5.622114   6.349064   7.586039   8.122154
    26  H    6.234410   4.456515   5.475675   6.691060   7.026852
    27  H    2.909398   3.957682   4.375685   5.048504   5.327912
    28  H    4.284769   2.944631   3.887653   4.708022   4.777717
    29  H    4.603878   5.287998   5.441921   6.632430   7.520825
    30  H    4.033683   5.594175   5.861248   6.867425   7.538147
    31  H    2.604842   4.085920   3.650907   4.568259   5.629339
    32  H    3.194335   5.760080   5.400602   6.257313   7.281833
    33  H    3.390858   6.801091   6.773572   7.431084   8.055425
    34  H    3.869079   7.917129   7.825209   8.095748   8.447015
    35  H    3.405174   7.493109   7.183750   7.022050   7.189633
    36  H    2.153533   5.739585   5.136183   4.751685   5.045443
    37  H    1.086161   4.071567   3.331039   3.514907   4.371623
    38  H    4.124291   2.161118   1.082983   2.158391   3.407264
    39  H    4.520330   3.388177   2.148089   1.083788   2.158654
    40  H    5.661379   3.854378   3.401028   2.153857   1.084220
    41  H    6.356549   3.388387   3.890852   3.409477   2.156831
    42  H    6.080594   2.148370   3.413616   3.886063   3.408728
                   21         22         23         24         25
    21  C    0.000000
    22  C    1.395164   0.000000
    23  O    4.302216   2.909884   0.000000
    24  H    5.819771   4.685205   3.240830   0.000000
    25  H    7.565197   6.322992   4.030453   3.329669   0.000000
    26  H    6.265128   4.941461   2.375601   3.146453   1.805892
    27  H    4.999575   4.318221   4.160212   4.055605   4.019912
    28  H    4.058584   3.062416   2.548150   3.719769   3.839288
    29  H    7.406371   6.366730   4.869209   2.378405   2.529597
    30  H    7.332427   6.402305   5.164442   3.589877   2.594535
    31  H    5.920044   5.252268   5.037678   2.653849   4.614359
    32  H    7.550235   6.864449   6.307298   3.710320   4.669559
    33  H    8.081447   7.485197   6.981280   5.456333   4.831296
    34  H    8.540121   8.286929   8.437180   7.480110   6.909252
    35  H    7.511590   7.666096   8.671845   8.037516   8.269594
    36  H    5.672773   6.003587   7.514197   6.831776   8.017694
    37  H    4.966472   4.845550   5.834187   4.525073   6.310065
    38  H    3.888503   3.419089   4.275568   3.182707   6.153627
    39  H    3.407369   3.887067   6.008714   5.603582   8.282394
    40  H    2.152817   3.400027   6.237577   7.014935   9.142246
    41  H    1.085299   2.150316   4.895644   6.774341   8.248178
    42  H    2.166485   1.082984   2.456809   4.948371   6.094749
                   26         27         28         29         30
    26  H    0.000000
    27  H    3.837530   0.000000
    28  H    2.858787   1.795020   0.000000
    29  H    3.591422   3.807659   4.324448   0.000000
    30  H    3.697427   2.782618   3.790068   1.757732   0.000000
    31  H    4.898787   3.323932   4.100063   2.582964   3.069355
    32  H    5.542869   3.993162   5.158387   2.320746   2.588203
    33  H    5.815989   3.355035   5.016197   3.690169   2.303519
    34  H    7.589745   4.303541   6.058113   6.055832   4.566517
    35  H    8.499477   4.700090   6.264530   7.261224   6.026269
    36  H    7.922737   4.274171   5.484663   6.734520   5.997701
    37  H    6.241658   3.316911   4.307892   4.715480   4.512478
    38  H    5.523064   4.586793   4.328051   4.899031   5.566292
    39  H    7.542173   5.689490   5.598282   7.041618   7.335264
    40  H    8.068592   6.125665   5.704062   8.480003   8.424039
    41  H    6.862061   5.612453   4.608561   8.298384   8.094529
    42  H    4.535345   4.486306   2.928011   6.568118   6.526380
                   31         32         33         34         35
    31  H    0.000000
    32  H    1.753678   0.000000
    33  H    3.788227   2.824164   0.000000
    34  H    5.537597   4.905232   2.470880   0.000000
    35  H    5.876274   5.843367   4.296801   2.486714   0.000000
    36  H    4.668525   5.276974   4.956523   4.300218   2.489711
    37  H    2.338649   3.422307   4.289372   4.955230   4.300185
    38  H    3.020896   4.752419   6.520914   7.802241   7.344933
    39  H    4.745369   6.350783   7.692098   8.281458   7.063124
    40  H    6.458486   8.058309   8.736104   8.881148   7.353931
    41  H    6.905145   8.486058   8.779038   9.039003   7.906997
    42  H    5.848693   7.360106   7.769692   8.602673   8.163762
                   36         37         38         39         40
    36  H    0.000000
    37  H    2.475024   0.000000
    38  H    5.326380   3.173265   0.000000
    39  H    4.647532   3.505340   2.483427   0.000000
    40  H    5.164454   4.924928   4.300748   2.482268   0.000000
    41  H    6.216748   5.843055   4.973802   4.304579   2.483118
    42  H    6.743341   5.648880   4.302011   4.969845   4.306688
                   41         42
    41  H    0.000000
    42  H    2.496833   0.000000
 Symmetry turned off by external request.
 Stoichiometry    C17H19NO3S2
 Framework group  C1[X(C17H19NO3S2)]
 Deg. of freedom   120
 Full point group                 C1      NOp   1
 Rotational constants (GHZ):           0.2771082           0.1970090           0.1431332
 Leave Link  202 at Mon Sep 21 18:30:31 2020, MaxMem=  2147483648 cpu:               0.0 elap:               0.0
 (Enter /prod/apps/gaussian/g16b1/l301.exe)
 Standard basis: 6-31G(d) (6D, 7F)
 Ernie: Thresh=  0.10000D-02 Tol=  0.10000D-05 Strict=F.
   391 basis functions,   768 primitive gaussians,   391 cartesian basis functions
    92 alpha electrons       92 beta electrons
       nuclear repulsion energy      2349.1760223008 Hartrees.
 IExCor=  402 DFT=T Ex+Corr=B3LYP ExCW=0 ScaHFX=  0.200000
 ScaDFX=  0.800000  0.720000  1.000000  0.810000 ScalE2=  1.000000  1.000000
 IRadAn=      5 IRanWt=     -1 IRanGd=            0 ICorTp=0 IEmpDi=  4
 NAtoms=   42 NActive=   42 NUniq=   42 SFac= 1.00D+00 NAtFMM=   60 NAOKFM=F Big=F
 Integral buffers will be    131072 words long.
 Raffenetti 2 integral format.
 Two-electron integral symmetry is turned off.
 Using the following non-standard input for PCM:
 MSTModel=DFT cav
 --- end of non-standard input.
 MST model for solvation energy: B3LYP parametrization.
 MST cavity parameters:
 ISph   IAn     Re0     Alpha   Atom Type   QCorr
 ------------------------------------------------
   1      8     1.40     1.25      O          F
   2     16     1.75     1.25      S          F
   3      7     1.50     1.25      NH         F
   4      6     1.50     1.25      C          F
   5      6     1.50     1.25      CH2        F
   6     16     1.75     1.25      S          F
   7      8     1.40     1.25      O          F
   8      6     1.50     1.25      CH2        F
   9      6     1.50     1.25      CH2        F
  10      6     1.50     1.25      CH2        F
  11      6     1.50     1.25      C          F
  12      6     1.50     1.25      CH         F
  13      6     1.50     1.25      CH         F
  14      6     1.50     1.25      CH         F
  15      6     1.50     1.25      CH         F
  16      6     1.50     1.25      CH         F
  17      6     1.50     1.25      C          F
  18      6     1.50     1.25      CH         F
  19      6     1.50     1.25      CH         F
  20      6     1.50     1.25      CH         F
  21      6     1.50     1.25      CH         F
  22      6     1.50     1.25      CH         F
  23      8     1.40     1.25      O          F
  24      1     0.90     1.25      NH         F
  25      1     1.20     1.25      CH2        F
  26      1     1.20     1.25      CH2        F
  27      1     1.20     1.25      CH2        F
  28      1     1.20     1.25      CH2        F
  29      1     1.20     1.25      CH2        F
  30      1     1.20     1.25      CH2        F
  31      1     1.20     1.25      CH2        F
  32      1     1.20     1.25      CH2        F
  33      1     1.20     1.25      CH         F
  34      1     1.20     1.25      CH         F
  35      1     1.20     1.25      CH         F
  36      1     1.20     1.25      CH         F
  37      1     1.20     1.25      CH         F
  38      1     1.20     1.25      CH         F
  39      1     1.20     1.25      CH         F
  40      1     1.20     1.25      CH         F
  41      1     1.20     1.25      CH         F
  42      1     1.20     1.25      CH         F
 ------------------------------------------------------------------------------
 Polarizable Continuum Model (PCM)
 =================================
 Model                : PCM.
 Atomic radii         : MST.
 Polarization charges : Total charges.
 Charge compensation  : None.
 Solution method      : On-the-fly selection.
 Cavity type          : Scaled VdW (van der Waals Surface) (Alpha=1.250).
 Cavity algorithm     : GePol (No added spheres)
                        Default sphere list used, NSphG=   42.
                        Lebedev-Laikov grids with approx.  5.0 points / Ang**2.
                        Smoothing algorithm: York/Karplus (Gamma=1.0000).
                        Polarization charges: spherical gaussians, with
                                              point-specific exponents (IZeta= 3).
                        Self-potential: point-specific (ISelfS= 7).
                        Self-field    : sphere-specific E.n sum rule (ISelfD= 2).
 1st derivatives      : Analytical E(r).r(x)/FMM algorithm (CHGder, D1EAlg=3).
                        Cavity 1st derivative terms included.
 Solvent              : Water, Eps=  78.355300 Eps(inf)=   1.777849
 ------------------------------------------------------------------------------
 GePol: Number of generator spheres                  =      42
 GePol: Total number of spheres                      =      42
 GePol: Number of exposed spheres                    =      42 (100.00%)
 GePol: Number of points                             =    3029
 GePol: Average weight of points                     =       0.13
 GePol: Minimum weight of points                     =   0.37D-10
 GePol: Maximum weight of points                     =    0.22001
 GePol: Number of points with low weight             =     227
 GePol: Fraction of low-weight points (<1% of avg)   =       7.49%
 GePol: Cavity surface area                          =    393.369 Ang**2
 GePol: Cavity volume                                =    396.384 Ang**3
 PCM non-electrostatic energy =         0.0026186188 Hartrees.
 Nuclear repulsion after PCM non-electrostatic terms =     2349.1786409196 Hartrees.
 Leave Link  301 at Mon Sep 21 18:30:31 2020, MaxMem=  2147483648 cpu:               0.3 elap:               0.1
 (Enter /prod/apps/gaussian/g16b1/l302.exe)
 NPDir=0 NMtPBC=     1 NCelOv=     1 NCel=       1 NClECP=     1 NCelD=      1
         NCelK=      1 NCelE2=     1 NClLst=     1 CellRange=     0.0.
 One-electron integrals computed using PRISM.
 NBasis=   391 RedAO= T EigKep=  4.64D-04  NBF=   391
 NBsUse=   391 1.00D-06 EigRej= -1.00D+00 NBFU=   391
 Precomputing XC quadrature grid using
 IXCGrd= 4 IRadAn=           5 IRanWt=          -1 IRanGd=           0 AccXCQ= 0.00D+00.
 Generated NRdTot=       0 NPtTot=           0 NUsed=           0 NTot=          32
 NSgBfM=   388   388   388   388   388 MxSgAt=    42 MxSgA2=    42.
 Leave Link  302 at Mon Sep 21 18:30:31 2020, MaxMem=  2147483648 cpu:               2.6 elap:               0.7
 (Enter /prod/apps/gaussian/g16b1/l303.exe)
 DipDrv:  MaxL=1.
 Leave Link  303 at Mon Sep 21 18:30:32 2020, MaxMem=  2147483648 cpu:               0.2 elap:               0.1
 (Enter /prod/apps/gaussian/g16b1/l401.exe)
 ExpMin= 1.17D-01 ExpMax= 2.19D+04 ExpMxC= 3.30D+03 IAcc=3 IRadAn=         5 AccDes= 0.00D+00
 Harris functional with IExCor=  402 and IRadAn=       5 diagonalized for initial guess.
 HarFok:  IExCor=  402 AccDes= 0.00D+00 IRadAn=         5 IDoV= 1 UseB2=F ITyADJ=14
 ICtDFT=  3500011 ScaDFX=  1.000000  1.000000  1.000000  1.000000
 FoFCou: FMM=F IPFlag=           0 FMFlag=      100000 FMFlg1=           0
         NFxFlg=           0 DoJE=T BraDBF=F KetDBF=T FulRan=T
         wScrn=  0.000000 ICntrl=       500 IOpCl=  0 I1Cent=   200000004 NGrid=           0
         NMat0=    1 NMatS0=      1 NMatT0=    0 NMatD0=    1 NMtDS0=    0 NMtDT0=    0
 Symmetry not used in FoFCou.
 Harris En= -1735.98019877570    
 JPrj=0 DoOrth=F DoCkMO=F.
 Leave Link  401 at Mon Sep 21 18:30:35 2020, MaxMem=  2147483648 cpu:              14.9 elap:               3.7
 (Enter /prod/apps/gaussian/g16b1/l502.exe)
 Two-electron integral symmetry not used.
 Closed shell SCF:
 Using DIIS extrapolation, IDIIS=  1040.
 NGot=  2147483648 LenX=  2147172117 LenY=  2147018795
 Requested convergence on RMS density matrix=1.00D-08 within2000 cycles.
 Requested convergence on MAX density matrix=1.00D-06.
 Requested convergence on             energy=1.00D-06.
 No special actions if energy rises.

 Cycle   1  Pass 1  IDiag  1:
 FoFJK:  IHMeth= 1 ICntrl=       0 DoSepK=F KAlg= 0 I1Cent=           0 FoldK=F
 IRaf= 800000000 NMat=       1 IRICut=       1 DoRegI=T DoRafI=F ISym2E= 0 IDoP0=0 IntGTp=1.
 FoFCou: FMM=F IPFlag=           0 FMFlag=      100000 FMFlg1=           0
         NFxFlg=           0 DoJE=F BraDBF=F KetDBF=F FulRan=T
         wScrn=  0.000000 ICntrl=         0 IOpCl=  0 I1Cent=           0 NGrid=           0
         NMat0=    1 NMatS0=      1 NMatT0=    0 NMatD0=    1 NMtDS0=    0 NMtDT0=    0
 Symmetry not used in FoFCou.
 Inv3:  Mode=1 IEnd=    27524523.
 Iteration    1 A*A^-1 deviation from unit magnitude is 4.88D-15 for    210.
 Iteration    1 A*A^-1 deviation from orthogonality  is 2.80D-15 for   1154    210.
 Iteration    1 A^-1*A deviation from unit magnitude is 4.33D-15 for    210.
 Iteration    1 A^-1*A deviation from orthogonality  is 2.41D-14 for   2024   1947.
 E= -1735.14464423863    
 DIIS: error= 3.52D-02 at cycle   1 NSaved=   1.
 NSaved= 1 IEnMin= 1 EnMin= -1735.14464423863     IErMin= 1 ErrMin= 3.52D-02
 ErrMax= 3.52D-02  0.00D+00 EMaxC= 1.00D-01 BMatC= 8.86D-01 BMatP= 8.86D-01
 IDIUse=3 WtCom= 6.48D-01 WtEn= 3.52D-01
 Coeff-Com:  0.100D+01
 Coeff-En:   0.100D+01
 Coeff:      0.100D+01
 Gap=     0.250 Goal=   None    Shift=    0.000
 GapD=    0.250 DampG=1.000 DampE=0.500 DampFc=0.5000 IDamp=-1.
 Damping current iteration by 5.00D-01
 RMSDP=6.15D-03 MaxDP=5.57D-01              OVMax= 2.41D-01

 Cycle   2  Pass 1  IDiag  1:
 E= -1735.36534259060     Delta-E=       -0.220698351976 Rises=F Damp=T
 DIIS: error= 1.26D-02 at cycle   2 NSaved=   2.
 NSaved= 2 IEnMin= 2 EnMin= -1735.36534259060     IErMin= 2 ErrMin= 1.26D-02
 ErrMax= 1.26D-02  0.00D+00 EMaxC= 1.00D-01 BMatC= 1.23D-01 BMatP= 8.86D-01
 IDIUse=3 WtCom= 8.74D-01 WtEn= 1.26D-01
 Coeff-Com:  0.214D+00 0.786D+00
 Coeff-En:   0.342D+00 0.658D+00
 Coeff:      0.230D+00 0.770D+00
 Gap=     0.264 Goal=   None    Shift=    0.000
 RMSDP=1.89D-03 MaxDP=1.27D-01 DE=-2.21D-01 OVMax= 1.72D-01

 Cycle   3  Pass 1  IDiag  1:
 E= -1735.86199710553     Delta-E=       -0.496654514920 Rises=F Damp=F
 DIIS: error= 1.07D-02 at cycle   3 NSaved=   3.
 NSaved= 3 IEnMin= 3 EnMin= -1735.86199710553     IErMin= 3 ErrMin= 1.07D-02
 ErrMax= 1.07D-02  0.00D+00 EMaxC= 1.00D-01 BMatC= 8.36D-02 BMatP= 1.23D-01
 IDIUse=3 WtCom= 8.93D-01 WtEn= 1.07D-01
 Coeff-Com:  0.722D-01 0.454D+00 0.473D+00
 Coeff-En:   0.000D+00 0.000D+00 0.100D+01
 Coeff:      0.645D-01 0.406D+00 0.530D+00
 Gap=     0.201 Goal=   None    Shift=    0.000
 RMSDP=1.13D-03 MaxDP=5.24D-02 DE=-4.97D-01 OVMax= 9.58D-02

 Cycle   4  Pass 1  IDiag  1:
 E= -1735.92477300593     Delta-E=       -0.062775900405 Rises=F Damp=F
 DIIS: error= 4.45D-03 at cycle   4 NSaved=   4.
 NSaved= 4 IEnMin= 4 EnMin= -1735.92477300593     IErMin= 4 ErrMin= 4.45D-03
 ErrMax= 4.45D-03  0.00D+00 EMaxC= 1.00D-01 BMatC= 1.50D-02 BMatP= 8.36D-02
 IDIUse=3 WtCom= 9.56D-01 WtEn= 4.45D-02
 Coeff-Com:  0.629D-02 0.986D-01 0.310D+00 0.585D+00
 Coeff-En:   0.000D+00 0.000D+00 0.167D+00 0.833D+00
 Coeff:      0.601D-02 0.942D-01 0.304D+00 0.596D+00
 Gap=     0.194 Goal=   None    Shift=    0.000
 RMSDP=4.32D-04 MaxDP=2.22D-02 DE=-6.28D-02 OVMax= 3.89D-02

 Cycle   5  Pass 1  IDiag  1:
 E= -1735.93724820663     Delta-E=       -0.012475200702 Rises=F Damp=F
 DIIS: error= 1.32D-03 at cycle   5 NSaved=   5.
 NSaved= 5 IEnMin= 5 EnMin= -1735.93724820663     IErMin= 5 ErrMin= 1.32D-03
 ErrMax= 1.32D-03  0.00D+00 EMaxC= 1.00D-01 BMatC= 1.29D-03 BMatP= 1.50D-02
 IDIUse=3 WtCom= 9.87D-01 WtEn= 1.32D-02
 Coeff-Com: -0.252D-02 0.186D-01 0.127D+00 0.339D+00 0.517D+00
 Coeff-En:   0.000D+00 0.000D+00 0.000D+00 0.150D-01 0.985D+00
 Coeff:     -0.248D-02 0.184D-01 0.126D+00 0.335D+00 0.524D+00
 Gap=     0.192 Goal=   None    Shift=    0.000
 RMSDP=1.26D-04 MaxDP=7.24D-03 DE=-1.25D-02 OVMax= 9.49D-03

 Cycle   6  Pass 1  IDiag  1:
 E= -1735.93832293796     Delta-E=       -0.001074731331 Rises=F Damp=F
 DIIS: error= 4.73D-04 at cycle   6 NSaved=   6.
 NSaved= 6 IEnMin= 6 EnMin= -1735.93832293796     IErMin= 6 ErrMin= 4.73D-04
 ErrMax= 4.73D-04  0.00D+00 EMaxC= 1.00D-01 BMatC= 1.39D-04 BMatP= 1.29D-03
 IDIUse=3 WtCom= 9.95D-01 WtEn= 4.73D-03
 Coeff-Com: -0.185D-02 0.339D-02 0.468D-01 0.143D+00 0.310D+00 0.499D+00
 Coeff-En:   0.000D+00 0.000D+00 0.000D+00 0.000D+00 0.127D-01 0.987D+00
 Coeff:     -0.184D-02 0.338D-02 0.466D-01 0.142D+00 0.309D+00 0.501D+00
 Gap=     0.193 Goal=   None    Shift=    0.000
 RMSDP=3.69D-05 MaxDP=2.17D-03 DE=-1.07D-03 OVMax= 2.49D-03

 Cycle   7  Pass 1  IDiag  1:
 E= -1735.93842391100     Delta-E=       -0.000100973035 Rises=F Damp=F
 DIIS: error= 1.09D-04 at cycle   7 NSaved=   7.
 NSaved= 7 IEnMin= 7 EnMin= -1735.93842391100     IErMin= 7 ErrMin= 1.09D-04
 ErrMax= 1.09D-04  0.00D+00 EMaxC= 1.00D-01 BMatC= 1.28D-05 BMatP= 1.39D-04
 IDIUse=3 WtCom= 9.99D-01 WtEn= 1.09D-03
 Coeff-Com: -0.802D-03-0.240D-03 0.123D-01 0.431D-01 0.119D+00 0.289D+00
 Coeff-Com:  0.537D+00
 Coeff-En:   0.000D+00 0.000D+00 0.000D+00 0.000D+00 0.000D+00 0.323D-01
 Coeff-En:   0.968D+00
 Coeff:     -0.801D-03-0.239D-03 0.123D-01 0.431D-01 0.119D+00 0.289D+00
 Coeff:      0.538D+00
 Gap=     0.192 Goal=   None    Shift=    0.000
 RMSDP=1.06D-05 MaxDP=4.73D-04 DE=-1.01D-04 OVMax= 6.28D-04

 Cycle   8  Pass 1  IDiag  1:
 E= -1735.93843458263     Delta-E=       -0.000010671632 Rises=F Damp=F
 DIIS: error= 1.88D-05 at cycle   8 NSaved=   8.
 NSaved= 8 IEnMin= 8 EnMin= -1735.93843458263     IErMin= 8 ErrMin= 1.88D-05
 ErrMax= 1.88D-05  0.00D+00 EMaxC= 1.00D-01 BMatC= 5.06D-07 BMatP= 1.28D-05
 IDIUse=1 WtCom= 1.00D+00 WtEn= 0.00D+00
 Coeff-Com: -0.181D-03-0.381D-03 0.109D-02 0.586D-02 0.241D-01 0.802D-01
 Coeff-Com:  0.230D+00 0.660D+00
 Coeff:     -0.181D-03-0.381D-03 0.109D-02 0.586D-02 0.241D-01 0.802D-01
 Coeff:      0.230D+00 0.660D+00
 Gap=     0.192 Goal=   None    Shift=    0.000
 RMSDP=2.77D-06 MaxDP=1.55D-04 DE=-1.07D-05 OVMax= 1.65D-04

 Cycle   9  Pass 1  IDiag  1:
 E= -1735.93843499997     Delta-E=       -0.000000417336 Rises=F Damp=F
 DIIS: error= 6.33D-06 at cycle   9 NSaved=   9.
 NSaved= 9 IEnMin= 9 EnMin= -1735.93843499997     IErMin= 9 ErrMin= 6.33D-06
 ErrMax= 6.33D-06  0.00D+00 EMaxC= 1.00D-01 BMatC= 7.58D-08 BMatP= 5.06D-07
 IDIUse=1 WtCom= 1.00D+00 WtEn= 0.00D+00
 Coeff-Com: -0.148D-04-0.153D-03-0.659D-03-0.126D-02 0.287D-03 0.124D-01
 Coeff-Com:  0.617D-01 0.340D+00 0.588D+00
 Coeff:     -0.148D-04-0.153D-03-0.659D-03-0.126D-02 0.287D-03 0.124D-01
 Coeff:      0.617D-01 0.340D+00 0.588D+00
 Gap=     0.192 Goal=   None    Shift=    0.000
 RMSDP=8.39D-07 MaxDP=4.55D-05 DE=-4.17D-07 OVMax= 4.48D-05

 Cycle  10  Pass 1  IDiag  1:
 E= -1735.93843506782     Delta-E=       -0.000000067851 Rises=F Damp=F
 DIIS: error= 1.72D-06 at cycle  10 NSaved=  10.
 NSaved=10 IEnMin=10 EnMin= -1735.93843506782     IErMin=10 ErrMin= 1.72D-06
 ErrMax= 1.72D-06  0.00D+00 EMaxC= 1.00D-01 BMatC= 4.30D-09 BMatP= 7.58D-08
 IDIUse=1 WtCom= 1.00D+00 WtEn= 0.00D+00
 Coeff-Com: -0.236D-06-0.492D-04-0.382D-03-0.892D-03-0.107D-02 0.246D-02
 Coeff-Com:  0.196D-01 0.139D+00 0.292D+00 0.550D+00
 Coeff:     -0.236D-06-0.492D-04-0.382D-03-0.892D-03-0.107D-02 0.246D-02
 Coeff:      0.196D-01 0.139D+00 0.292D+00 0.550D+00
 Gap=     0.192 Goal=   None    Shift=    0.000
 RMSDP=2.31D-07 MaxDP=1.29D-05 DE=-6.79D-08 OVMax= 1.27D-05

 Cycle  11  Pass 1  IDiag  1:
 E= -1735.93843507122     Delta-E=       -0.000000003400 Rises=F Damp=F
 DIIS: error= 8.71D-07 at cycle  11 NSaved=  11.
 NSaved=11 IEnMin=11 EnMin= -1735.93843507122     IErMin=11 ErrMin= 8.71D-07
 ErrMax= 8.71D-07  0.00D+00 EMaxC= 1.00D-01 BMatC= 6.11D-10 BMatP= 4.30D-09
 IDIUse=1 WtCom= 1.00D+00 WtEn= 0.00D+00
 Coeff-Com:  0.885D-06-0.209D-05-0.122D-03-0.305D-03-0.693D-03-0.533D-03
 Coeff-Com:  0.117D-02 0.245D-01 0.674D-01 0.289D+00 0.620D+00
 Coeff:      0.885D-06-0.209D-05-0.122D-03-0.305D-03-0.693D-03-0.533D-03
 Coeff:      0.117D-02 0.245D-01 0.674D-01 0.289D+00 0.620D+00
 Gap=     0.192 Goal=   None    Shift=    0.000
 RMSDP=8.08D-08 MaxDP=4.13D-06 DE=-3.40D-09 OVMax= 5.41D-06

 Cycle  12  Pass 1  IDiag  1:
 E= -1735.93843507170     Delta-E=       -0.000000000484 Rises=F Damp=F
 DIIS: error= 3.80D-07 at cycle  12 NSaved=  12.
 NSaved=12 IEnMin=12 EnMin= -1735.93843507170     IErMin=12 ErrMin= 3.80D-07
 ErrMax= 3.80D-07  0.00D+00 EMaxC= 1.00D-01 BMatC= 1.02D-10 BMatP= 6.11D-10
 IDIUse=1 WtCom= 1.00D+00 WtEn= 0.00D+00
 Coeff-Com:  0.247D-06 0.383D-05-0.372D-04-0.922D-04-0.327D-03-0.593D-03
 Coeff-Com: -0.148D-02-0.161D-03 0.901D-02 0.113D+00 0.370D+00 0.511D+00
 Coeff:      0.247D-06 0.383D-05-0.372D-04-0.922D-04-0.327D-03-0.593D-03
 Coeff:     -0.148D-02-0.161D-03 0.901D-02 0.113D+00 0.370D+00 0.511D+00
 Gap=     0.192 Goal=   None    Shift=    0.000
 RMSDP=2.93D-08 MaxDP=1.60D-06 DE=-4.84D-10 OVMax= 2.13D-06

 Cycle  13  Pass 1  IDiag  1:
 E= -1735.93843507179     Delta-E=       -0.000000000091 Rises=F Damp=F
 DIIS: error= 9.73D-08 at cycle  13 NSaved=  13.
 NSaved=13 IEnMin=13 EnMin= -1735.93843507179     IErMin=13 ErrMin= 9.73D-08
 ErrMax= 9.73D-08  0.00D+00 EMaxC= 1.00D-01 BMatC= 7.97D-12 BMatP= 1.02D-10
 IDIUse=1 WtCom= 1.00D+00 WtEn= 0.00D+00
 Coeff-Com: -0.575D-07 0.233D-05-0.511D-05-0.100D-04-0.889D-04-0.235D-03
 Coeff-Com: -0.925D-03-0.306D-02-0.379D-02 0.211D-01 0.116D+00 0.270D+00
 Coeff-Com:  0.601D+00
 Coeff:     -0.575D-07 0.233D-05-0.511D-05-0.100D-04-0.889D-04-0.235D-03
 Coeff:     -0.925D-03-0.306D-02-0.379D-02 0.211D-01 0.116D+00 0.270D+00
 Coeff:      0.601D+00
 Gap=     0.192 Goal=   None    Shift=    0.000
 RMSDP=8.71D-09 MaxDP=4.35D-07 DE=-9.14D-11 OVMax= 5.26D-07

 Error on total polarization charges =  0.02136
 SCF Done:  E(RB3LYP) =  -1735.93843507     A.U. after   13 cycles
            NFock= 13  Conv=0.87D-08     -V/T= 2.0068
 KE= 1.724241778745D+03 PE=-8.772931334233D+03 EE= 2.963572479497D+03
 Leave Link  502 at Mon Sep 21 18:32:54 2020, MaxMem=  2147483648 cpu:             553.2 elap:             138.4
 (Enter /prod/apps/gaussian/g16b1/l601.exe)
 Copying SCF densities to generalized density rwf, IOpCl= 0 IROHF=0.

 **********************************************************************

            Population analysis using the SCF Density.

 **********************************************************************

 Alpha  occ. eigenvalues --  -89.12704 -88.98560 -19.15801 -19.15554 -19.11893
 Alpha  occ. eigenvalues --  -14.37060 -10.26044 -10.23309 -10.21465 -10.21410
 Alpha  occ. eigenvalues --  -10.21310 -10.21122 -10.20701 -10.20613 -10.20544
 Alpha  occ. eigenvalues --  -10.19593 -10.19191 -10.18951 -10.18928 -10.18764
 Alpha  occ. eigenvalues --  -10.18737 -10.18651 -10.18632  -8.15177  -8.03384
 Alpha  occ. eigenvalues --   -6.11681  -6.11628  -6.11453  -5.99805  -5.99594
 Alpha  occ. eigenvalues --   -5.99162  -1.12254  -1.01254  -1.00686  -0.94004
 Alpha  occ. eigenvalues --   -0.87611  -0.85610  -0.84346  -0.78823  -0.77976
 Alpha  occ. eigenvalues --   -0.76404  -0.74263  -0.73751  -0.69821  -0.68964
 Alpha  occ. eigenvalues --   -0.66281  -0.62505  -0.62248  -0.60478  -0.60111
 Alpha  occ. eigenvalues --   -0.57706  -0.56559  -0.54661  -0.52259  -0.51769
 Alpha  occ. eigenvalues --   -0.50496  -0.49118  -0.48176  -0.47411  -0.46082
 Alpha  occ. eigenvalues --   -0.45892  -0.45403  -0.45004  -0.44552  -0.43860
 Alpha  occ. eigenvalues --   -0.43294  -0.42375  -0.41663  -0.41379  -0.40362
 Alpha  occ. eigenvalues --   -0.38846  -0.38644  -0.38224  -0.37982  -0.36994
 Alpha  occ. eigenvalues --   -0.36475  -0.36301  -0.36182  -0.34877  -0.34011
 Alpha  occ. eigenvalues --   -0.33290  -0.33146  -0.32769  -0.31859  -0.31369
 Alpha  occ. eigenvalues --   -0.28886  -0.26950  -0.26755  -0.26203  -0.25132
 Alpha  occ. eigenvalues --   -0.24352  -0.23191
 Alpha virt. eigenvalues --   -0.03958  -0.01875  -0.00559  -0.00069   0.00912
 Alpha virt. eigenvalues --    0.03374   0.05359   0.06358   0.06883   0.08474
 Alpha virt. eigenvalues --    0.09537   0.09762   0.10637   0.11354   0.12106
 Alpha virt. eigenvalues --    0.13010   0.13645   0.14381   0.14631   0.14921
 Alpha virt. eigenvalues --    0.15617   0.16045   0.16285   0.17226   0.17326
 Alpha virt. eigenvalues --    0.17904   0.18261   0.19278   0.19555   0.20434
 Alpha virt. eigenvalues --    0.20598   0.21239   0.22702   0.23729   0.24765
 Alpha virt. eigenvalues --    0.25214   0.26600   0.27729   0.28467   0.29325
 Alpha virt. eigenvalues --    0.30413   0.30815   0.31571   0.32874   0.33207
 Alpha virt. eigenvalues --    0.34759   0.34973   0.35467   0.35705   0.36934
 Alpha virt. eigenvalues --    0.39914   0.41817   0.43025   0.44835   0.46333
 Alpha virt. eigenvalues --    0.48868   0.50311   0.50667   0.51296   0.52364
 Alpha virt. eigenvalues --    0.52746   0.53433   0.54141   0.54532   0.55172
 Alpha virt. eigenvalues --    0.55718   0.56500   0.57247   0.57979   0.58238
 Alpha virt. eigenvalues --    0.58665   0.59055   0.59314   0.59990   0.60162
 Alpha virt. eigenvalues --    0.60258   0.61038   0.61490   0.61540   0.62672
 Alpha virt. eigenvalues --    0.63069   0.63247   0.63682   0.63890   0.64363
 Alpha virt. eigenvalues --    0.65756   0.66495   0.67337   0.68118   0.70201
 Alpha virt. eigenvalues --    0.71231   0.72063   0.73223   0.74561   0.77169
 Alpha virt. eigenvalues --    0.77507   0.77824   0.80209   0.80876   0.81585
 Alpha virt. eigenvalues --    0.82245   0.82859   0.83684   0.84236   0.84524
 Alpha virt. eigenvalues --    0.84626   0.85219   0.85329   0.86298   0.86922
 Alpha virt. eigenvalues --    0.87072   0.88319   0.89507   0.89578   0.90024
 Alpha virt. eigenvalues --    0.90456   0.91260   0.91741   0.92500   0.92792
 Alpha virt. eigenvalues --    0.94451   0.94494   0.94983   0.95110   0.96395
 Alpha virt. eigenvalues --    0.96754   0.97161   0.98980   1.00813   1.01087
 Alpha virt. eigenvalues --    1.01796   1.03085   1.03508   1.04235   1.04853
 Alpha virt. eigenvalues --    1.06716   1.07746   1.08368   1.09489   1.10220
 Alpha virt. eigenvalues --    1.11269   1.12204   1.12686   1.13313   1.14572
 Alpha virt. eigenvalues --    1.15235   1.16720   1.17006   1.18727   1.19089
 Alpha virt. eigenvalues --    1.21270   1.22026   1.22413   1.23042   1.24778
 Alpha virt. eigenvalues --    1.26448   1.27118   1.30500   1.32567   1.36094
 Alpha virt. eigenvalues --    1.36515   1.40370   1.41440   1.41832   1.42941
 Alpha virt. eigenvalues --    1.43595   1.44698   1.45325   1.45793   1.47471
 Alpha virt. eigenvalues --    1.48076   1.48531   1.49087   1.50471   1.51407
 Alpha virt. eigenvalues --    1.51688   1.56098   1.57919   1.61191   1.62604
 Alpha virt. eigenvalues --    1.69864   1.70308   1.72642   1.74701   1.75995
 Alpha virt. eigenvalues --    1.76339   1.77356   1.78457   1.79011   1.80136
 Alpha virt. eigenvalues --    1.81384   1.81517   1.82780   1.84064   1.84773
 Alpha virt. eigenvalues --    1.85442   1.85865   1.87546   1.89001   1.89560
 Alpha virt. eigenvalues --    1.90852   1.91602   1.91937   1.93154   1.93754
 Alpha virt. eigenvalues --    1.94492   1.95600   1.97931   1.98265   1.98489
 Alpha virt. eigenvalues --    1.99708   2.00061   2.02416   2.02746   2.05284
 Alpha virt. eigenvalues --    2.06256   2.07664   2.09314   2.10277   2.10825
 Alpha virt. eigenvalues --    2.11955   2.13089   2.13624   2.13990   2.14251
 Alpha virt. eigenvalues --    2.14523   2.14619   2.16371   2.16631   2.19235
 Alpha virt. eigenvalues --    2.19953   2.21773   2.23506   2.25063   2.26493
 Alpha virt. eigenvalues --    2.27892   2.28450   2.28943   2.30721   2.31001
 Alpha virt. eigenvalues --    2.31444   2.31958   2.35315   2.37473   2.39310
 Alpha virt. eigenvalues --    2.41408   2.47614   2.50016   2.52738   2.57528
 Alpha virt. eigenvalues --    2.58336   2.58831   2.60531   2.63126   2.64531
 Alpha virt. eigenvalues --    2.65635   2.68845   2.70262   2.70840   2.71761
 Alpha virt. eigenvalues --    2.72600   2.73109   2.73668   2.74578   2.75338
 Alpha virt. eigenvalues --    2.76218   2.77289   2.78231   2.80138   2.83002
 Alpha virt. eigenvalues --    2.86477   2.89631   3.02396   3.06302   3.36744
 Alpha virt. eigenvalues --    3.41026   3.75050   3.83239   3.93423   3.99681
 Alpha virt. eigenvalues --    4.01287   4.07458   4.08273   4.09749   4.10931
 Alpha virt. eigenvalues --    4.12437   4.15508   4.17745   4.21187   4.25902
 Alpha virt. eigenvalues --    4.32503   4.33417   4.35180   4.36760   4.42279
 Alpha virt. eigenvalues --    4.54284   4.65037   4.69913   4.74233
          Condensed to atoms (all electrons):
               1          2          3          4          5          6
     1  O    8.269127   0.462385  -0.056768   0.001654   0.000010  -0.000002
     2  S    0.462385  13.682266   0.128847  -0.000416  -0.006671   0.000725
     3  N   -0.056768   0.128847   7.404805   0.226611  -0.054158   0.005313
     4  C    0.001654  -0.000416   0.226611   4.837970   0.332203  -0.064952
     5  C    0.000010  -0.006671  -0.054158   0.332203   5.664323   0.082233
     6  S   -0.000002   0.000725   0.005313  -0.064952   0.082233  14.892305
     7  O   -0.000000   0.000013  -0.000055  -0.000065  -0.038338   0.290834
     8  C   -0.000067  -0.002655  -0.041249   0.315649  -0.124440   0.087502
     9  C   -0.000097   0.000697  -0.056396   0.368658  -0.058027   0.005888
    10  C    0.000002  -0.000064  -0.008711  -0.035687   0.004871  -0.000514
    11  C   -0.000000  -0.000020  -0.000140  -0.002461  -0.000056  -0.000160
    12  C   -0.000000   0.000000   0.000003  -0.001053  -0.000022   0.000367
    13  C    0.000000  -0.000000   0.000000  -0.000013   0.000001   0.000032
    14  C   -0.000000   0.000000  -0.000000   0.000002   0.000000  -0.000001
    15  C    0.000000   0.000000   0.000000   0.000002  -0.000000   0.000001
    16  C    0.000000   0.000005   0.000090   0.000812  -0.000004   0.000087
    17  C   -0.063182   0.191962  -0.054497  -0.003955  -0.000306   0.000048
    18  C    0.000641  -0.020300   0.000031   0.000109   0.000005   0.000004
    19  C    0.000107   0.002197   0.000134   0.000001   0.000000  -0.000000
    20  C   -0.000005  -0.000445   0.000007   0.000001   0.000000  -0.000000
    21  C   -0.000049   0.003235  -0.000108   0.000004  -0.000000  -0.000002
    22  C   -0.001281  -0.033803   0.001225   0.000073   0.000012  -0.000005
    23  O   -0.042406   0.379037  -0.052574   0.006380  -0.007688   0.000270
    24  H    0.004122  -0.009920   0.293017  -0.020490  -0.000515  -0.000264
    25  H    0.000001   0.000289   0.001418  -0.029619   0.352294  -0.017974
    26  H   -0.000208   0.001387  -0.004614  -0.024999   0.324796  -0.006492
    27  H    0.000001   0.000140   0.001364  -0.026479   0.009791  -0.017912
    28  H    0.000024   0.010127  -0.006493  -0.027413   0.001558  -0.006664
    29  H   -0.000005  -0.000164  -0.006786  -0.034040  -0.006434  -0.000463
    30  H    0.000000   0.000032   0.003275  -0.032921  -0.005192   0.004809
    31  H   -0.000006  -0.000013   0.010128  -0.010957   0.000308  -0.000057
    32  H   -0.000000   0.000003   0.000241   0.004604  -0.000143   0.000034
    33  H    0.000000   0.000000  -0.000001   0.000128   0.000000  -0.000085
    34  H   -0.000000  -0.000000  -0.000000   0.000000   0.000000   0.000002
    35  H    0.000000   0.000000   0.000000  -0.000000   0.000000  -0.000000
    36  H   -0.000000   0.000000  -0.000000   0.000000   0.000000   0.000000
    37  H    0.000000  -0.000024   0.000024  -0.000024   0.000000   0.000002
    38  H    0.000726  -0.001300   0.004237   0.000083   0.000005  -0.000000
    39  H    0.000001  -0.000068   0.000001   0.000000  -0.000000   0.000000
    40  H   -0.000000   0.000007   0.000000  -0.000000  -0.000000  -0.000000
    41  H    0.000000  -0.000072   0.000000   0.000000   0.000000   0.000000
    42  H   -0.000003  -0.007817   0.000242  -0.000011   0.000001   0.000011
               7          8          9         10         11         12
     1  O   -0.000000  -0.000067  -0.000097   0.000002  -0.000000  -0.000000
     2  S    0.000013  -0.002655   0.000697  -0.000064  -0.000020   0.000000
     3  N   -0.000055  -0.041249  -0.056396  -0.008711  -0.000140   0.000003
     4  C   -0.000065   0.315649   0.368658  -0.035687  -0.002461  -0.001053
     5  C   -0.038338  -0.124440  -0.058027   0.004871  -0.000056  -0.000022
     6  S    0.290834   0.087502   0.005888  -0.000514  -0.000160   0.000367
     7  O    8.458170  -0.038412  -0.007742   0.000248  -0.000338   0.000469
     8  C   -0.038412   5.670584  -0.050411  -0.004256  -0.002192  -0.001666
     9  C   -0.007742  -0.050411   5.182967   0.332335  -0.034039  -0.003605
    10  C    0.000248  -0.004256   0.332335   5.162260   0.358712  -0.067710
    11  C   -0.000338  -0.002192  -0.034039   0.358712   4.667034   0.532025
    12  C    0.000469  -0.001666  -0.003605  -0.067710   0.532025   5.006763
    13  C   -0.000118  -0.000077   0.000276   0.006089  -0.018727   0.520866
    14  C    0.000002   0.000061   0.000001   0.000304  -0.035021  -0.037407
    15  C   -0.000000  -0.000066  -0.000186   0.007088  -0.023120  -0.047046
    16  C    0.000000  -0.002362   0.000667  -0.048699   0.544080  -0.045700
    17  C   -0.000000   0.001974  -0.000267   0.000022  -0.000035  -0.000000
    18  C   -0.000000   0.000149  -0.000045  -0.000102   0.000024   0.000001
    19  C    0.000000   0.000018  -0.000001  -0.000010   0.000016   0.000000
    20  C    0.000000   0.000001   0.000000  -0.000000   0.000001   0.000000
    21  C   -0.000000  -0.000080  -0.000000   0.000000   0.000000  -0.000000
    22  C   -0.000000  -0.000988  -0.000002   0.000002  -0.000002  -0.000000
    23  O   -0.000000  -0.007287   0.000102  -0.000002   0.000000   0.000000
    24  H    0.000002   0.004391  -0.005193   0.000077   0.000081   0.000000
    25  H   -0.000115   0.009914  -0.004816   0.000130   0.000011  -0.000001
    26  H    0.001177   0.003481   0.004049  -0.000114   0.000001   0.000000
    27  H   -0.000102   0.349043  -0.007195  -0.000944   0.008002   0.002848
    28  H    0.001207   0.321743   0.004502  -0.000055   0.000045   0.000069
    29  H    0.000262   0.006130   0.355360  -0.029469   0.003941   0.000151
    30  H    0.024223  -0.007501   0.351798  -0.031394  -0.007337   0.003009
    31  H   -0.000002  -0.000297  -0.036966   0.364182  -0.033936   0.004842
    32  H   -0.000000  -0.000068  -0.033546   0.361276  -0.030115  -0.005237
    33  H    0.000962  -0.000067   0.000653  -0.008730  -0.046031   0.359110
    34  H   -0.000003  -0.000002   0.000003  -0.000175   0.003569  -0.039566
    35  H    0.000000   0.000000  -0.000000   0.000007   0.000614   0.004685
    36  H   -0.000000  -0.000004   0.000001  -0.000169   0.003692   0.000717
    37  H    0.000000   0.000070   0.000198  -0.010965  -0.041248   0.006413
    38  H   -0.000000  -0.000038  -0.000027   0.000003  -0.000009   0.000000
    39  H   -0.000000  -0.000000   0.000000  -0.000000   0.000001   0.000000
    40  H    0.000000   0.000000  -0.000000   0.000000  -0.000000  -0.000000
    41  H   -0.000000  -0.000001   0.000000  -0.000000   0.000000  -0.000000
[...]
              19         20         21         22         23         24
     1  O   -0.020776  -0.011282   0.021390   0.065487   0.055848   0.006796
     2  S    0.101984   0.046569  -0.399264  -0.907207  -0.910835  -0.107681
     3  N   -0.211126   0.052563  -0.042849  -0.028953   0.185408   0.250684
     4  C   -0.031523  -0.079346   0.244734  -0.091812   0.038381   0.236478
     5  C    0.016972   0.009554  -0.039007   0.047248   0.033764   0.035504
     6  S   -0.012280   0.007716   0.001072   0.029553   0.036773  -0.000709
     7  O    0.001059  -0.000432  -0.000349  -0.003218  -0.004685  -0.001327
     8  C    0.007351  -0.001095   0.003797  -0.082499   0.058234  -0.042373
     9  C   -0.002417  -0.038349   0.032230  -0.077993  -0.073398  -0.183699
    10  C    0.033769   0.030718  -0.029224  -0.056834  -0.011498   0.001912
    11  C   -0.087394  -0.018734  -0.019275   0.076021   0.010056  -0.011487
    12  C   -0.003345   0.007496  -0.002841   0.016314  -0.002220   0.006719
    13  C    0.011229  -0.016900   0.009043  -0.004032   0.000422  -0.000428
    14  C   -0.031226   0.040347  -0.005776   0.012297  -0.000058   0.002426
    15  C    0.225775  -0.062863   0.043819  -0.075463  -0.000978  -0.008219
    16  C   -0.052725   0.024388  -0.001777  -0.019152  -0.005315  -0.001265
    17  C    3.919497  -4.942810   3.816112  -8.518342   0.272242   0.016338
    18  C   -6.999747   4.696496  -5.700587   3.080772  -0.052422  -0.027759
    19  C   14.137783  -4.781952   4.797896  -4.994612  -0.020203  -0.004226
    20  C   -4.781952  11.653011  -4.948246   3.956709   0.005799  -0.000370
    21  C    4.797896  -4.948246  13.412976  -5.462656  -0.025904   0.003113
    22  C   -4.994612   3.956709  -5.462656  19.438205   0.173161   0.020993
    23  O   -0.020203   0.005799  -0.025904   0.173161   9.491371   0.007377
    24  H   -0.004226  -0.000370   0.003113   0.020993   0.007377   0.862115
    25  H   -0.000311   0.001033  -0.001988   0.004345   0.006316   0.017107
    26  H   -0.000045  -0.002514   0.004880  -0.017078  -0.019266  -0.021953
    27  H    0.002565   0.016252  -0.034719   0.066646  -0.006254   0.002091
    28  H   -0.009445   0.024334   0.001724  -0.118284   0.054551   0.004710
    29  H    0.001816  -0.001584   0.000923  -0.007974  -0.004231  -0.030192
    30  H   -0.005869  -0.000893   0.002888   0.002016   0.004365   0.022210
    31  H    0.092511   0.005069  -0.000900  -0.028434  -0.005085   0.025970
    32  H   -0.004067   0.000340  -0.000597   0.002370   0.000476   0.002554
    33  H    0.002095  -0.000130   0.000071  -0.000043  -0.000682  -0.001040
    34  H    0.000319  -0.000491   0.000271  -0.000201   0.000027  -0.000080
    35  H   -0.001431   0.000524   0.000002   0.000417  -0.000015   0.000027
    36  H   -0.010732   0.006082  -0.006930  -0.003208   0.000003  -0.000132
    37  H   -0.033636   0.006026   0.013378   0.012753   0.000205   0.001576
    38  H    0.196464  -0.256836   0.140665  -0.204035   0.022726   0.001378
    39  H   -0.856009   0.549423  -0.294583   0.148357  -0.001403   0.000547
    40  H    0.421810  -0.856304   0.476376  -0.102962   0.000562   0.000100
    41  H   -0.290377   0.449271  -1.009417   0.594011  -0.000544  -0.000072
    42  H    0.133281  -0.186896   0.536239  -1.340012  -0.042210  -0.003297
              25         26         27         28         29         30
     1  O   -0.001254  -0.002367  -0.009377   0.018245   0.001322   0.003695
     2  S    0.020829   0.087475   0.118773  -0.242480  -0.060949  -0.016336
     3  N    0.114452   0.161212   0.276468   0.030472  -0.082338   0.005687
     4  C   -0.583648  -0.516156  -0.958209  -0.243851  -0.097513   0.166422
     5  C    0.163745   0.363058   0.413583  -0.229957  -0.207961  -0.091492
     6  S    0.107245  -0.180874  -0.025472  -0.244024   0.000144  -0.080228
     7  O    0.002796   0.018054   0.073016  -0.009666   0.008900  -0.004131
     8  C    0.146659   0.264304   0.173609   0.337809   0.198674   0.062948
     9  C    0.046070   0.072605  -0.044487   0.247748   0.085264  -0.050559
    10  C    0.103094  -0.042961   0.000091  -0.009593  -0.013659  -0.444292
    11  C    0.003429  -0.004794  -0.010794   0.075644   0.026506   0.121524
    12  C    0.014575  -0.005723  -0.068205  -0.044328   0.018157  -0.179270
    13  C    0.000538   0.001902   0.016005   0.010580  -0.006669   0.056657
    14  C   -0.001507  -0.001182   0.020432   0.010283   0.005110   0.003267
    15  C   -0.001011   0.002858  -0.016167   0.018614   0.004030  -0.008880
    16  C   -0.004693  -0.009670  -0.143601  -0.013395   0.035968  -0.105001
    17  C    0.002972  -0.063626  -0.146739   0.020962   0.027302  -0.014543
    18  C    0.009402  -0.005687   0.057327   0.056071  -0.004707   0.012691
    19  C   -0.000311  -0.000045   0.002565  -0.009445   0.001816  -0.005869
    20  C    0.001033  -0.002514   0.016252   0.024334  -0.001584  -0.000893
    21  C   -0.001988   0.004880  -0.034719   0.001724   0.000923   0.002888
    22  C    0.004345  -0.017078   0.066646  -0.118284  -0.007974   0.002016
    23  O    0.006316  -0.019266  -0.006254   0.054551  -0.004231   0.004365
    24  H    0.017107  -0.021953   0.002091   0.004710  -0.030192   0.022210
    25  H    1.553654  -0.353154  -0.005300   0.026220  -0.000053  -0.064870
    26  H   -0.353154   1.445601   0.080626  -0.052101   0.006877   0.031080
    27  H   -0.005300   0.080626   2.076839  -0.579982   0.046912  -0.085234
    28  H    0.026220  -0.052101  -0.579982   1.985930  -0.001571   0.057146
    29  H   -0.000053   0.006877   0.046912  -0.001571   1.734739  -0.470373
    30  H   -0.064870   0.031080  -0.085234   0.057146  -0.470373   2.128570
    31  H    0.007521  -0.003947  -0.034637   0.015135   0.011964   0.068407
    32  H    0.003208   0.001944   0.016453  -0.006042  -0.145417   0.038174
    33  H    0.007275  -0.000590   0.044566  -0.004383   0.016234  -0.083412
    34  H   -0.000493   0.000054   0.002825   0.000696   0.000828   0.009908
    35  H   -0.000027  -0.000035  -0.004508  -0.000912   0.000131   0.000149
    36  H   -0.000086   0.000128   0.005685   0.002873  -0.000157   0.000401
    37  H    0.000957  -0.003035   0.020194   0.002446   0.004200   0.000496
    38  H    0.000292  -0.000691  -0.014034   0.012159   0.006724   0.002722
    39  H   -0.000040   0.000156  -0.002332  -0.000709  -0.000301  -0.000400
    40  H    0.000036  -0.000095   0.000094  -0.001262  -0.000006  -0.000003
    41  H   -0.000046  -0.000110  -0.000053   0.003154  -0.000007   0.000066
    42  H    0.000877  -0.000102  -0.000388   0.008920   0.000903  -0.001233
              31         32         33         34         35         36
     1  O   -0.010902   0.000969  -0.000233   0.000030  -0.000008   0.000141
     2  S   -0.010839   0.016169   0.004161  -0.000894   0.000444  -0.001314
     3  N   -0.105913   0.075844   0.016321  -0.000912   0.000651   0.000048
     4  C   -0.064875   0.088500  -0.052362   0.000387  -0.001456  -0.006425
     5  C    0.012858   0.043674   0.034082  -0.001249  -0.000963   0.000048
     6  S   -0.006110   0.001450   0.008648  -0.000464   0.000115   0.000426
     7  O    0.003648   0.000204   0.011857   0.001240   0.000155   0.000085
     8  C    0.009836  -0.005686   0.028165  -0.001660   0.001022   0.002930
     9  C   -0.053228  -0.207055   0.004934   0.025751  -0.000591   0.003841
    10  C   -0.117673   0.075923  -0.164185   0.018628  -0.000145   0.021297
    11  C    0.286807  -0.136732   0.822789  -0.042050   0.058276  -0.075168
    12  C   -0.046879  -0.009984  -1.492421   0.611355  -0.101777   0.075939
    13  C    0.033659  -0.011054   0.654531  -0.887310   0.373092  -0.196278
    14  C   -0.046906   0.011248  -0.194943   0.358446  -0.794281   0.396023
    15  C    0.093696  -0.015457   0.180882  -0.282006   0.471687  -0.827974
    16  C   -0.366037   0.204894  -0.291956   0.117993  -0.073308   0.497643
    17  C    0.046701  -0.005707  -0.002359   0.001384  -0.001559   0.008565
    18  C   -0.063407   0.000742  -0.002214  -0.000760   0.001329   0.011213
    19  C    0.092511  -0.004067   0.002095   0.000319  -0.001431  -0.010732
    20  C    0.005069   0.000340  -0.000130  -0.000491   0.000524   0.006082
    21  C   -0.000900  -0.000597   0.000071   0.000271   0.000002  -0.006930
    22  C   -0.028434   0.002370  -0.000043  -0.000201   0.000417  -0.003208
    23  O   -0.005085   0.000476  -0.000682   0.000027  -0.000015   0.000003
    24  H    0.025970   0.002554  -0.001040  -0.000080   0.000027  -0.000132
    25  H    0.007521   0.003208   0.007275  -0.000493  -0.000027  -0.000086
    26  H   -0.003947   0.001944  -0.000590   0.000054  -0.000035   0.000128
    27  H   -0.034637   0.016453   0.044566   0.002825  -0.004508   0.005685
    28  H    0.015135  -0.006042  -0.004383   0.000696  -0.000912   0.002873
    29  H    0.011964  -0.145417   0.016234   0.000828   0.000131  -0.000157
    30  H    0.068407   0.038174  -0.083412   0.009908   0.000149   0.000401
    31  H    1.974472  -0.320794   0.002024   0.001281   0.000047  -0.001401
    32  H   -0.320794   1.334609  -0.007174  -0.002939   0.000495   0.000702
    33  H    0.002024  -0.007174   2.287595  -0.100781  -0.017362   0.009768
    34  H    0.001281  -0.002939  -0.100781   1.744655  -0.056378  -0.020244
    35  H    0.000047   0.000495  -0.017362  -0.056378   1.677151  -0.053543
    36  H   -0.001401   0.000702   0.009768  -0.020244  -0.053543   1.778000
    37  H   -0.067100   0.021445  -0.024035   0.008450  -0.017030  -0.105174
    38  H   -0.001813   0.002491  -0.000380  -0.000054  -0.000038   0.003678
    39  H    0.007795  -0.000174   0.000134   0.000049   0.000073  -0.003323
    40  H   -0.001482   0.000025  -0.000001  -0.000039   0.000052  -0.000726
    41  H    0.000250  -0.000018  -0.000016   0.000023  -0.000041   0.000106
    42  H    0.000483   0.000043   0.000258  -0.000056   0.000058  -0.000278
              37         38         39         40         41         42
     1  O    0.000289   0.075198  -0.001365  -0.000304   0.001376  -0.000297
     2  S   -0.004768  -0.382395   0.034147   0.002728  -0.016677  -0.019771
     3  N    0.008236  -0.127829  -0.009266   0.000856   0.001163  -0.023575
     4  C    0.001725   0.281610   0.006174  -0.002795   0.006347   0.061182
     5  C   -0.026732  -0.008512   0.001009   0.000270  -0.000816  -0.003408
     6  S   -0.002619   0.004862  -0.000595   0.000211  -0.000042   0.001308
     7  O   -0.001302  -0.000851   0.000073  -0.000026   0.000042  -0.000172
     8  C    0.029980  -0.043490  -0.007182   0.000082  -0.003574  -0.004891
     9  C   -0.055459  -0.001866  -0.001806  -0.000857   0.000797  -0.000559
    10  C    0.003750  -0.040159   0.011243   0.000573  -0.000876   0.001894
    11  C    0.268339   0.037260  -0.001810  -0.002707   0.000906  -0.004332
    12  C   -0.052001  -0.008447  -0.002305   0.001193  -0.000403   0.002914
    13  C    0.042759   0.000736   0.002480  -0.001622   0.000716  -0.001409
    14  C   -0.053363  -0.003573  -0.002145   0.003707  -0.001424   0.000890
    15  C    0.222497  -0.019978   0.013019  -0.006522   0.000876  -0.003861
    16  C   -0.979733   0.028490   0.004059   0.001097   0.001440   0.003237
    17  C    0.036990   1.197124  -0.264732   0.030755  -0.008116   0.671664
    18  C   -0.016416  -1.614172   0.549325  -0.068686   0.133437  -0.194127
    19  C   -0.033636   0.196464  -0.856009   0.421810  -0.290377   0.133281
    20  C    0.006026  -0.256836   0.549423  -0.856304   0.449271  -0.186896
    21  C    0.013378   0.140665  -0.294583   0.476376  -1.009417   0.536239
    22  C    0.012753  -0.204035   0.148357  -0.102962   0.594011  -1.340012
    23  O    0.000205   0.022726  -0.001403   0.000562  -0.000544  -0.042210
    24  H    0.001576   0.001378   0.000547   0.000100  -0.000072  -0.003297
    25  H    0.000957   0.000292  -0.000040   0.000036  -0.000046   0.000877
    26  H   -0.003035  -0.000691   0.000156  -0.000095  -0.000110  -0.000102
    27  H    0.020194  -0.014034  -0.002332   0.000094  -0.000053  -0.000388
    28  H    0.002446   0.012159  -0.000709  -0.001262   0.003154   0.008920
    29  H    0.004200   0.006724  -0.000301  -0.000006  -0.000007   0.000903
    30  H    0.000496   0.002722  -0.000400  -0.000003   0.000066  -0.001233
    31  H   -0.067100  -0.001813   0.007795  -0.001482   0.000250   0.000483
    32  H    0.021445   0.002491  -0.000174   0.000025  -0.000018   0.000043
    33  H   -0.024035  -0.000380   0.000134  -0.000001  -0.000016   0.000258
    34  H    0.008450  -0.000054   0.000049  -0.000039   0.000023  -0.000056
    35  H   -0.017030  -0.000038   0.000073   0.000052  -0.000041   0.000058
    36  H   -0.105174   0.003678  -0.003323  -0.000726   0.000106  -0.000278
    37  H    2.420767   0.009747  -0.014167   0.006983  -0.001227  -0.001228
    38  H    0.009747   2.599016  -0.136211  -0.009821   0.012191  -0.029614
    39  H   -0.014167  -0.136211   1.906410  -0.068996  -0.024310   0.012006
    40  H    0.006983  -0.009821  -0.068996   1.736868  -0.066838  -0.012908
    41  H   -0.001227   0.012191  -0.024310  -0.066838   1.794762  -0.092335
    42  H   -0.001228  -0.029614   0.012006  -0.012908  -0.092335   2.168122
 Mulliken charges:
               1
     1  O   -1.177206
     2  S    2.834409
     3  N   -1.018098
     4  C    0.206554
     5  C    0.367340
     6  S    1.520648
     7  O   -1.274386
     8  C    0.303364
     9  C    0.701845
    10  C    0.452153
    11  C    0.498392
    12  C    0.739083
    13  C   -0.030302
    14  C    0.745705
    15  C   -0.022489
    16  C    0.964757
    17  C    0.652081
    18  C    0.538479
    19  C    0.361300
    20  C    0.618304
    21  C    0.463290
    22  C    0.397330
    23  O   -1.270862
    24  H   -0.082421
    25  H   -0.346166
    26  H   -0.235053
    27  H   -0.340561
    28  H   -0.214445
    29  H   -0.107968
    30  H   -0.094469
    31  H   -0.341773
    32  H   -0.066046
    33  H   -0.695689
    34  H   -0.505537
    35  H   -0.460487
    36  H   -0.512531
    37  H   -0.685162
    38  H   -0.730734
    39  H   -0.552315
    40  H   -0.479415
    41  H   -0.483596
    42  H   -0.637323
 Sum of Mulliken charges =  -0.00000
 Mulliken charges with hydrogens summed into heavy atoms:
               1
     1  O   -1.177206
     2  S    2.834409
     3  N   -1.100519
     4  C    0.206554
     5  C   -0.213879
     6  S    1.520648
     7  O   -1.274386
     8  C   -0.251642
     9  C    0.499408
    10  C    0.044334
    11  C    0.498392
    12  C    0.043394
    13  C   -0.535838
    14  C    0.285218
    15  C   -0.535020
    16  C    0.279596
    17  C    0.652081
    18  C   -0.192255
    19  C   -0.191016
    20  C    0.138889
    21  C   -0.020306
    22  C   -0.239993
    23  O   -1.270862
 Electronic spatial extent (au):  <R**2>=           7941.3976
 Charge=             -0.0000 electrons
 Dipole moment (field-independent basis, Debye):
    X=              0.9318    Y=              4.8270    Z=              0.9950  Tot=              5.0158
 Quadrupole moment (field-independent basis, Debye-Ang):
   XX=           -175.5703   YY=           -145.5249   ZZ=           -147.7868
   XY=              7.6545   XZ=            -13.2303   YZ=            -10.9788
 Traceless Quadrupole moment (field-independent basis, Debye-Ang):
   XX=            -19.2763   YY=             10.7691   ZZ=              8.5072
   XY=              7.6545   XZ=            -13.2303   YZ=            -10.9788
 Octapole moment (field-independent basis, Debye-Ang**2):
  XXX=            -30.0564  YYY=             12.7114  ZZZ=             -0.2462  XYY=             42.1973
  XXY=             71.9397  XXZ=            -35.7307  XZZ=             18.3532  YZZ=             -0.1544
  YYZ=              4.1350  XYZ=             30.8021
 Hexadecapole moment (field-independent basis, Debye-Ang**3):
 XXXX=          -6017.5087 YYYY=          -3573.9591 ZZZZ=          -1261.0518 XXXY=             -9.1370
 XXXZ=           -101.6773 YYYX=             85.2873 YYYZ=           -106.9019 ZZZX=            -39.6927
 ZZZY=            -31.9549 XXYY=          -1716.4176 XXZZ=          -1204.8339 YYZZ=           -851.8499
 XXYZ=           -134.0157 YYXZ=             -8.5694 ZZXY=             46.3054
 N-N= 2.349007517819D+03 E-N=-8.770783091023D+03  KE= 1.727309766503D+03
 Leave Link  601 at Mon Sep 21 22:14:43 2020, MaxMem=   262144000 cpu:               2.0 elap:               1.1
 (Enter /prod/apps/gaussian/g16b1/l9999.exe)
 1\1\GINC-PIRINEUS20\SP\RMP2-FC\Aug-CC-pVDZ\C17H19N1O3S2\UBAFAR01\21-Se
 p-2020\0\\#p mp2/aug-cc-pVDZ scf=(MaxCycle=2000,NoVarAcc,NoIncFock) ma
 xdisk=120GB geom=allcheck\\SM36_m0.n.8.pdb.xyz\\0,1\O,0,3.2950775654,-
 1.3673969544,1.6208265083\S,0,2.359130011,-1.1243140815,0.5100760481\N
 ,0,0.8416133271,-1.1350120426,1.2093676495\C,0,-0.3861645599,-1.543263
 1267,0.5104619477\C,0,-0.4536156929,-3.0020074319,-0.0135333184\S,0,-1
 .3806144248,-2.4602110216,-1.5469564252\O,0,-2.8815971468,-2.447268483
 6,-1.2645874621\C,0,-0.6003200724,-0.8994458175,-0.8776360748\C,0,-1.5
 589648009,-1.2897977686,1.4769598796\C,0,-1.7318627965,0.1529461077,1.
 9876950709\C,0,-2.3883906946,1.1241513993,1.0258213035\C,0,-3.65375111
 69,0.8551524584,0.4824058756\C,0,-4.2731963274,1.7627356254,-0.3763473
 625\C,0,-3.6383903282,2.9630778856,-0.7075507427\C,0,-2.3807003427,3.2
 444905415,-0.1723792159\C,0,-1.7646436846,2.3312334021,0.686977386\C,0
 ,2.5756166219,0.5567126345,-0.0657101926\C,0,2.4029701265,1.6195404221
 ,0.8274352924\C,0,2.6403569382,2.9180114425,0.3782595208\C,0,3.0481612
 115,3.1413655382,-0.9415851528\C,0,3.2224426283,2.0693655969,-1.818092
 0872\C,0,2.9892466823,0.7640289981,-1.3814305266\O,0,2.4124068425,-1.9
 99234414,-0.6757685686\H,0,0.9182845178,-1.5074739503,2.1570469431\H,0
 ,-0.9967962689,-3.732693798,0.587659979\H,0,0.5157696975,-3.3838506515
 ,-0.3335440226\H,0,-1.2409594514,-0.022797065,-0.9391616742\H,0,0.3239
 862973,-0.7484891388,-1.4354211143\H,0,-1.4106848466,-1.9529286781,2.3
 374517557\H,0,-2.4670575787,-1.6315430647,0.9711356842\H,0,-0.75926540
 33,0.547613703,2.2961996092\H,0,-2.3447724168,0.0977110568,2.894694623
 1\H,0,-4.1524581839,-0.0767486881,0.7295980509\H,0,-5.2521622622,1.534
 5357879,-0.7861740707\H,0,-4.1198364936,3.6693867194,-1.3759488617\H,0
 ,-1.8765972522,4.1727192236,-0.4231691998\H,0,-0.7835136159,2.55304203
 85,1.0966397841\H,0,2.0836876083,1.4365217797,1.8467783253\H,0,2.50743
 8935,3.7536158257,1.0564127896\H,0,3.2295467279,4.1541257151,-1.284472
 4357\H,0,3.5398096902,2.2445876368,-2.8401083962\H,0,3.1177703332,-0.0
 831953617,-2.043327122\\Version=ES64L-G16RevB.01\State=1-A\HF=-1728.86
 61785\MP2=-1732.3156143\RMSD=8.457e-09\PG=C01 [X(C17H19N1O3S2)]\\@


 I WOULD TAKE COUNSEL OF MYSELF.
 I WOULD STOP AND LOOK WITHIN
 AND LOOKING WITHIN, LOOK BACK, ALSO
 THAT I MAY LOOK AHEAD WITH CLEARER UNDERSTANDING
 OF THE WAY I HAVE BEEN MOVING, AND IN WHAT DIRECTION.
 I NEED TO KNOW IF I AM GOING FORWARD OR RETREATING,
 WHETHER I HAVE BEEN WASTING, OR ENJOYING
 THE PRECIOUS MOMENTS OF LIFE.  THERE HAVE BEEN FRICTIONS,
 ANNOYANCES AND SOMETIMES WRATH,
 BUT WERE THEY BECAUSE I WAS RIGHT AND OTHERS WRONG.....
 HAVE I HAD MY THOUGHTS TOO SHARPLY FOCUSED
 ON THAT WHICH PLEASED ME, SERVED MY SELF-ESTEEM,
 UNDERGIRDED MY SECURITY,
 OF WHICH I DID NOT INQUIRE WHETHER IT SERVED OR HAMPERED OTHERS.....
 HAVE I BEEN TRYING TO STOP THE CLOCK
 TO HOLD THE WORLD
 IN PERPETUATION OF WHAT WAS AN IS ALREADY SLIPPING AWAY.....
 HAVE I BEEN CRITICAL OF OTHERS FOR WHAT REALLY NEEDED CHANGING IN ME...
 LET ME INDEED TAKE COUNSEL OF MYSELF
 AND SET MY DIRECTIONS STRAIGHT.

                          R.T. WESTON AS ADAPTED BY D. OSBORN 1967
 Job cpu time:       0 days  9 hours 59 minutes 24.1 seconds.
 Elapsed time:       0 days  2 hours 59 minutes 53.6 seconds.
 File lengths (MBytes):  RWF= 114847 Int=      0 D2E=      0 Chk=     42 Scr=      1
 Normal termination of Gaussian 16 at Mon Sep 21 22:14:58 2020.
