 Entering Gaussian System, Link 0=g16
 Initial command:
 /prod/apps/gaussian/g16b1/l1.exe "/tmp/ubafar01/1460067/Gau-210469.inp" -scrdir="/tmp/ubafar01/1460067/"
 Entering Link 1 = /prod/apps/gaussian/g16b1/l1.exe PID=    210470.
  
 Copyright (c) 1988-2017, Gaussian, Inc.  All Rights Reserved.
  
 This is part of the Gaussian(R) 16 program.  It is based on
 the Gaussian(R) 09 system (copyright 2009, Gaussian, Inc.),
 the Gaussian(R) 03 system (copyright 2003, Gaussian, Inc.),
 the Gaussian(R) 98 system (copyright 1998, Gaussian, Inc.),
 the Gaussian(R) 94 system (copyright 1995, Gaussian, Inc.),
 the Gaussian 92(TM) system (copyright 1992, Gaussian, Inc.),
 the Gaussian 90(TM) system (copyright 1990, Gaussian, Inc.),
 the Gaussian 88(TM) system (copyright 1988, Gaussian, Inc.),
 the Gaussian 86(TM) system (copyright 1986, Carnegie Mellon
 University), and the Gaussian 82(TM) system (copyright 1983,
 Carnegie Mellon University). Gaussian is a federally registered
 trademark of Gaussian, Inc.
  
 This software contains proprietary and confidential information,
 including trade secrets, belonging to Gaussian, Inc.
  
 This software is provided under written license and may be
 used, copied, transmitted, or stored only in accord with that
 written license.
  
 The following legend is applicable only to US Government
 contracts under FAR:
  
                    RESTRICTED RIGHTS LEGEND
  
 Use, reproduction and disclosure by the US Government is
 subject to restrictions as set forth in subparagraphs (a)
 and (c) of the Commercial Computer Software - Restricted
 Rights clause in FAR 52.227-19.
  
 Gaussian, Inc.
 340 Quinnipiac St., Bldg. 40, Wallingford CT 06492
  
  
 ---------------------------------------------------------------
 Warning -- This program may not be used in any manner that
 competes with the business of Gaussian, Inc. or will provide
 assistance to any competitor of Gaussian, Inc.  The licensee
 of this program is prohibited from giving any competitor of
 Gaussian, Inc. access to this program.  By using this program,
 the user acknowledges that Gaussian, Inc. is engaged in the
 business of creating and licensing software in the field of
 computational chemistry and represents and warrants to the
 licensee that it is not a competitor of Gaussian, Inc. and that
 it will not use this program in any manner prohibited above.
 ---------------------------------------------------------------
  

 Cite this work as:
 Gaussian 16, Revision B.01,
 M. J. Frisch, G. W. Trucks, H. B. Schlegel, G. E. Scuseria, 
 M. A. Robb, J. R. Cheeseman, G. Scalmani, V. Barone, 
 G. A. Petersson, H. Nakatsuji, X. Li, M. Caricato, A. V. Marenich, 
 J. Bloino, B. G. Janesko, R. Gomperts, B. Mennucci, H. P. Hratchian, 
 J. V. Ortiz, A. F. Izmaylov, J. L. Sonnenberg, D. Williams-Young, 
 F. Ding, F. Lipparini, F. Egidi, J. Goings, B. Peng, A. Petrone, 
 T. Henderson, D. Ranasinghe, V. G. Zakrzewski, J. Gao, N. Rega, 
 G. Zheng, W. Liang, M. Hada, M. Ehara, K. Toyota, R. Fukuda, 
 J. Hasegawa, M. Ishida, T. Nakajima, Y. Honda, O. Kitao, H. Nakai, 
 T. Vreven, K. Throssell, J. A. Montgomery, Jr., J. E. Peralta, 
 F. Ogliaro, M. J. Bearpark, J. J. Heyd, E. N. Brothers, K. N. Kudin, 
 V. N. Staroverov, T. A. Keith, R. Kobayashi, J. Normand, 
 K. Raghavachari, A. P. Rendell, J. C. Burant, S. S. Iyengar, 
 J. Tomasi, M. Cossi, J. M. Millam, M. Klene, C. Adamo, R. Cammi, 
 J. W. Ochterski, R. L. Martin, K. Morokuma, O. Farkas, 
 J. B. Foresman, and D. J. Fox, Gaussian, Inc., Wallingford CT, 2016.
 
 ******************************************
 Gaussian 16:  ES64L-G16RevB.01 20-Dec-2017
                21-Sep-2020 
 ******************************************
 %nproc=4
 Will use up to    4 processors via shared memory.
 %Chk=SM36_m1.a.2.pdb.xyz.mst.a.w.chk
 %mem=16GB
 ----------------------------------------------------------------------
 #p b3lyp/6-31G(d) opt freq NoSymm scf=(MaxCycle=2000,NoVarAcc,NoIncFoc
 k) scrf=(iefpcm,read,solvent=water)
 ----------------------------------------------------------------------
 1/18=20,19=15,26=3,38=1,40=2/1,3;
 2/9=110,12=2,15=1,17=6,18=5,40=1/2;
 3/5=1,6=6,7=1,11=2,25=1,30=1,70=2203,71=1,72=1,74=-5/1,2,3;
 4//1;
 5/5=100002,7=2000,38=1,53=1/2;
 6/7=2,8=2,9=2,10=2,28=1/1;
 7/30=1/1,2,3,16;
 1/18=20,19=15,26=3/3(2);
 2/9=110,15=1/2;
 99//99;
 2/9=110,15=1/2;
 3/5=1,6=6,7=1,11=2,25=1,30=1,70=2205,71=1,72=1,74=-5/1,2,3;
 4/5=5,16=3,69=1/1;
 5/5=100002,7=2000,38=1,53=1/2;
 7/30=1/1,2,3,16;
 1/18=20,19=15,26=3/3(-5);
 2/9=110,15=1/2;
 6/7=2,8=2,9=2,10=2,19=2,28=1/1;
 99/9=1/99;
 Leave Link    1 at Mon Sep 21 05:44:30 2020, MaxMem=  2147483648 cpu:               0.1 elap:               0.0
 (Enter /prod/apps/gaussian/g16b1/l101.exe)
 -------------------
 SM36_m1.a.2.pdb.xyz
 -------------------
 Symbolic Z-matrix:
 Charge = -1 Multiplicity = 1
 O                    -0.154    -1.366     1.253 
 S                     0.379    -1.393    -0.114 
 N                    -0.034     0.05     -0.855 
 C                     0.045     1.375    -0.204 
 C                    -0.014     2.5      -1.268 
 S                     1.262     3.531    -0.368 
 O                     0.571     4.446     0.637 
 C                     1.432     1.816     0.346 
 C                    -1.039     1.579     0.875 
 C                    -2.512     1.582     0.409 
 C                    -3.195     0.244     0.214 
 C                    -3.535    -0.556     1.315 
 C                    -4.197    -1.772     1.144 
 C                    -4.542    -2.209    -0.138 
 C                    -4.221    -1.418    -1.241 
 C                    -3.556    -0.203    -1.063 
 C                     2.165    -1.513     0.016 
 C                     2.757    -1.397     1.274 
 C                     4.144    -1.498     1.381 
 C                     4.919    -1.712     0.238 
 C                     4.312    -1.832    -1.016 
 C                     2.927    -1.736    -1.135 
 O                    -0.056    -2.434    -1.056 
 H                    -0.962     3.016    -1.407 
 H                     0.407     2.225    -2.238 
 H                     1.574     1.813     1.427 
 H                     2.276     1.337    -0.152 
 H                    -0.827     2.56      1.312 
 H                    -0.888     0.836     1.661 
 H                    -2.604     2.163    -0.514 
 H                    -3.071     2.141     1.168 
 H                    -3.279    -0.223     2.317 
 H                    -4.45     -2.375     2.011 
 H                    -5.06     -3.153    -0.274 
 H                    -4.489    -1.743    -2.243 
 H                    -3.312     0.411    -1.926 
 H                     2.135    -1.235     2.146 
 H                     4.616    -1.413     2.353 
 H                     5.999    -1.789     0.324 
 H                     4.916    -2.005    -1.9 
 H                     2.448    -1.843    -2.101 
 
 ITRead=  0  0  0  0  0  0  0  0  0  0  0  0  0  0  0  0  0  0  0  0
 ITRead=  0  0  0  0  0  0  0  0  0  0  0  0  0  0  0  0  0  0  0  0
 ITRead=  0
 MicOpt= -1 -1 -1 -1 -1 -1 -1 -1 -1 -1 -1 -1 -1 -1 -1 -1 -1 -1 -1 -1
 MicOpt= -1 -1 -1 -1 -1 -1 -1 -1 -1 -1 -1 -1 -1 -1 -1 -1 -1 -1 -1 -1
 MicOpt= -1
 NAtoms=     41 NQM=       41 NQMF=       0 NMMI=      0 NMMIF=      0
                NMic=       0 NMicF=      0.
                    Isotopes and Nuclear Properties:
 (Nuclear quadrupole moments (NQMom) in fm**2, nuclear magnetic moments (NMagM)
  in nuclear magnetons)

  Atom         1           2           3           4           5           6           7           8           9          10
 IAtWgt=          16          32          14          12          12          32          16          12          12          12
 AtmWgt=  15.9949146  31.9720718  14.0030740  12.0000000  12.0000000  31.9720718  15.9949146  12.0000000  12.0000000  12.0000000
 NucSpn=           0           0           2           0           0           0           0           0           0           0
 AtZEff=  -0.0000000  -0.0000000  -0.0000000  -0.0000000  -0.0000000  -0.0000000  -0.0000000  -0.0000000  -0.0000000  -0.0000000
 NQMom=    0.0000000   0.0000000   2.0440000   0.0000000   0.0000000   0.0000000   0.0000000   0.0000000   0.0000000   0.0000000
 NMagM=    0.0000000   0.0000000   0.4037610   0.0000000   0.0000000   0.0000000   0.0000000   0.0000000   0.0000000   0.0000000
 AtZNuc=   8.0000000  16.0000000   7.0000000   6.0000000   6.0000000  16.0000000   8.0000000   6.0000000   6.0000000   6.0000000

  Atom        11          12          13          14          15          16          17          18          19          20
 IAtWgt=          12          12          12          12          12          12          12          12          12          12
 AtmWgt=  12.0000000  12.0000000  12.0000000  12.0000000  12.0000000  12.0000000  12.0000000  12.0000000  12.0000000  12.0000000
 NucSpn=           0           0           0           0           0           0           0           0           0           0
 AtZEff=  -0.0000000  -0.0000000  -0.0000000  -0.0000000  -0.0000000  -0.0000000  -0.0000000  -0.0000000  -0.0000000  -0.0000000
 NQMom=    0.0000000   0.0000000   0.0000000   0.0000000   0.0000000   0.0000000   0.0000000   0.0000000   0.0000000   0.0000000
 NMagM=    0.0000000   0.0000000   0.0000000   0.0000000   0.0000000   0.0000000   0.0000000   0.0000000   0.0000000   0.0000000
 AtZNuc=   6.0000000   6.0000000   6.0000000   6.0000000   6.0000000   6.0000000   6.0000000   6.0000000   6.0000000   6.0000000

  Atom        21          22          23          24          25          26          27          28          29          30
 IAtWgt=          12          12          16           1           1           1           1           1           1           1
 AtmWgt=  12.0000000  12.0000000  15.9949146   1.0078250   1.0078250   1.0078250   1.0078250   1.0078250   1.0078250   1.0078250
 NucSpn=           0           0           0           1           1           1           1           1           1           1
 AtZEff=  -0.0000000  -0.0000000  -0.0000000  -0.0000000  -0.0000000  -0.0000000  -0.0000000  -0.0000000  -0.0000000  -0.0000000
 NQMom=    0.0000000   0.0000000   0.0000000   0.0000000   0.0000000   0.0000000   0.0000000   0.0000000   0.0000000   0.0000000
 NMagM=    0.0000000   0.0000000   0.0000000   2.7928460   2.7928460   2.7928460   2.7928460   2.7928460   2.7928460   2.7928460
 AtZNuc=   6.0000000   6.0000000   8.0000000   1.0000000   1.0000000   1.0000000   1.0000000   1.0000000   1.0000000   1.0000000

  Atom        31          32          33          34          35          36          37          38          39          40
 IAtWgt=           1           1           1           1           1           1           1           1           1           1
 AtmWgt=   1.0078250   1.0078250   1.0078250   1.0078250   1.0078250   1.0078250   1.0078250   1.0078250   1.0078250   1.0078250
 NucSpn=           1           1           1           1           1           1           1           1           1           1
 AtZEff=  -0.0000000  -0.0000000  -0.0000000  -0.0000000  -0.0000000  -0.0000000  -0.0000000  -0.0000000  -0.0000000  -0.0000000
 NQMom=    0.0000000   0.0000000   0.0000000   0.0000000   0.0000000   0.0000000   0.0000000   0.0000000   0.0000000   0.0000000
 NMagM=    2.7928460   2.7928460   2.7928460   2.7928460   2.7928460   2.7928460   2.7928460   2.7928460   2.7928460   2.7928460
 AtZNuc=   1.0000000   1.0000000   1.0000000   1.0000000   1.0000000   1.0000000   1.0000000   1.0000000   1.0000000   1.0000000

  Atom        41
 IAtWgt=           1
 AtmWgt=   1.0078250
 NucSpn=           1
 AtZEff=  -0.0000000
 NQMom=    0.0000000
 NMagM=    2.7928460
 AtZNuc=   1.0000000
 Leave Link  101 at Mon Sep 21 05:44:30 2020, MaxMem=  2147483648 cpu:               1.3 elap:               0.3
 (Enter /prod/apps/gaussian/g16b1/l103.exe)

 GradGradGradGradGradGradGradGradGradGradGradGradGradGradGradGradGradGrad
 Berny optimization.
 Initialization pass.
                           ----------------------------
                           !    Initial Parameters    !
                           ! (Angstroms and Degrees)  !
 --------------------------                            --------------------------
 ! Name  Definition              Value          Derivative Info.                !
 --------------------------------------------------------------------------------
 ! R1    R(1,2)                  1.4675         estimate D2E/DX2                !
 ! R2    R(2,3)                  1.6739         estimate D2E/DX2                !
 ! R3    R(2,17)                 1.7947         estimate D2E/DX2                !
 ! R4    R(2,23)                 1.4698         estimate D2E/DX2                !
 ! R5    R(3,4)                  1.4784         estimate D2E/DX2                !
 ! R6    R(4,5)                  1.5496         estimate D2E/DX2                !
 ! R7    R(4,8)                  1.5559         estimate D2E/DX2                !
 ! R8    R(4,9)                  1.543          estimate D2E/DX2                !
 ! R9    R(5,6)                  1.8711         estimate D2E/DX2                !
 ! R10   R(5,24)                 1.0882         estimate D2E/DX2                !
 ! R11   R(5,25)                 1.0926         estimate D2E/DX2                !
 ! R12   R(6,7)                  1.5247         estimate D2E/DX2                !
 ! R13   R(6,8)                  1.8655         estimate D2E/DX2                !
 ! R14   R(8,26)                 1.0903         estimate D2E/DX2                !
 ! R15   R(8,27)                 1.0908         estimate D2E/DX2                !
 ! R16   R(9,10)                 1.545          estimate D2E/DX2                !
 ! R17   R(9,28)                 1.0947         estimate D2E/DX2                !
 ! R18   R(9,29)                 1.0921         estimate D2E/DX2                !
 ! R19   R(10,11)                1.5148         estimate D2E/DX2                !
 ! R20   R(10,30)                1.0945         estimate D2E/DX2                !
 ! R21   R(10,31)                1.0959         estimate D2E/DX2                !
 ! R22   R(11,12)                1.4028         estimate D2E/DX2                !
 ! R23   R(11,16)                1.4003         estimate D2E/DX2                !
 ! R24   R(12,13)                1.395          estimate D2E/DX2                !
 ! R25   R(12,32)                1.0865         estimate D2E/DX2                !
 ! R26   R(13,14)                1.3977         estimate D2E/DX2                !
 ! R27   R(13,33)                1.086          estimate D2E/DX2                !
 ! R28   R(14,15)                1.3948         estimate D2E/DX2                !
 ! R29   R(14,34)                1.0853         estimate D2E/DX2                !
 ! R30   R(15,16)                1.3965         estimate D2E/DX2                !
 ! R31   R(15,35)                1.0869         estimate D2E/DX2                !
 ! R32   R(16,36)                1.0869         estimate D2E/DX2                !
 ! R33   R(17,18)                1.3952         estimate D2E/DX2                !
 ! R34   R(17,22)                1.3983         estimate D2E/DX2                !
 ! R35   R(18,19)                1.3948         estimate D2E/DX2                !
 ! R36   R(18,37)                1.0833         estimate D2E/DX2                !
 ! R37   R(19,20)                1.3975         estimate D2E/DX2                !
 ! R38   R(19,38)                1.0839         estimate D2E/DX2                !
 ! R39   R(20,21)                1.3983         estimate D2E/DX2                !
 ! R40   R(20,39)                1.0862         estimate D2E/DX2                !
 ! R41   R(21,22)                1.3934         estimate D2E/DX2                !
 ! R42   R(21,40)                1.0845         estimate D2E/DX2                !
 ! R43   R(22,41)                1.0835         estimate D2E/DX2                !
 ! A1    A(1,2,3)              107.8722         estimate D2E/DX2                !
 ! A2    A(1,2,17)             107.1692         estimate D2E/DX2                !
 ! A3    A(1,2,23)             120.1696         estimate D2E/DX2                !
 ! A4    A(3,2,17)             109.5868         estimate D2E/DX2                !
 ! A5    A(3,2,23)             104.7043         estimate D2E/DX2                !
 ! A6    A(17,2,23)            107.0729         estimate D2E/DX2                !
 ! A7    A(2,3,4)              124.3677         estimate D2E/DX2                !
 ! A8    A(3,4,5)              110.2601         estimate D2E/DX2                !
 ! A9    A(3,4,8)              117.2148         estimate D2E/DX2                !
 ! A10   A(3,4,9)              112.8843         estimate D2E/DX2                !
 ! A11   A(5,4,8)               94.065          estimate D2E/DX2                !
 ! A12   A(5,4,9)              110.9417         estimate D2E/DX2                !
 ! A13   A(8,4,9)              109.9743         estimate D2E/DX2                !
 ! A14   A(4,5,6)               92.5102         estimate D2E/DX2                !
 ! A15   A(4,5,24)             117.7174         estimate D2E/DX2                !
 ! A16   A(4,5,25)             114.3425         estimate D2E/DX2                !
 ! A17   A(6,5,24)             113.2179         estimate D2E/DX2                !
 ! A18   A(6,5,25)             107.6343         estimate D2E/DX2                !
 ! A19   A(24,5,25)            109.9749         estimate D2E/DX2                !
 ! A20   A(5,6,7)              109.7947         estimate D2E/DX2                !
 ! A21   A(5,6,8)               74.911          estimate D2E/DX2                !
 ! A22   A(7,6,8)              109.9213         estimate D2E/DX2                !
 ! A23   A(4,8,6)               92.5242         estimate D2E/DX2                !
 ! A24   A(4,8,26)             117.7627         estimate D2E/DX2                !
 ! A25   A(4,8,27)             113.8233         estimate D2E/DX2                !
 ! A26   A(6,8,26)             113.1965         estimate D2E/DX2                !
 ! A27   A(6,8,27)             107.4268         estimate D2E/DX2                !
 ! A28   A(26,8,27)            110.5291         estimate D2E/DX2                !
 ! A29   A(4,9,10)             117.3312         estimate D2E/DX2                !
 ! A30   A(4,9,28)             105.1642         estimate D2E/DX2                !
 ! A31   A(4,9,29)             108.4335         estimate D2E/DX2                !
 ! A32   A(10,9,28)            107.6571         estimate D2E/DX2                !
 ! A33   A(10,9,29)            110.5018         estimate D2E/DX2                !
 ! A34   A(28,9,29)            107.1941         estimate D2E/DX2                !
 ! A35   A(9,10,11)            117.8387         estimate D2E/DX2                !
 ! A36   A(9,10,30)            109.6049         estimate D2E/DX2                !
 ! A37   A(9,10,31)            106.1653         estimate D2E/DX2                !
 ! A38   A(11,10,30)           108.8086         estimate D2E/DX2                !
 ! A39   A(11,10,31)           108.0412         estimate D2E/DX2                !
 ! A40   A(30,10,31)           105.6884         estimate D2E/DX2                !
 ! A41   A(10,11,12)           120.7948         estimate D2E/DX2                !
 ! A42   A(10,11,16)           121.0359         estimate D2E/DX2                !
 ! A43   A(12,11,16)           118.1137         estimate D2E/DX2                !
 ! A44   A(11,12,13)           121.0584         estimate D2E/DX2                !
 ! A45   A(11,12,32)           119.4682         estimate D2E/DX2                !
 ! A46   A(13,12,32)           119.4733         estimate D2E/DX2                !
 ! A47   A(12,13,14)           120.1389         estimate D2E/DX2                !
 ! A48   A(12,13,33)           119.7818         estimate D2E/DX2                !
 ! A49   A(14,13,33)           120.0778         estimate D2E/DX2                !
 ! A50   A(13,14,15)           119.4221         estimate D2E/DX2                !
 ! A51   A(13,14,34)           120.3106         estimate D2E/DX2                !
 ! A52   A(15,14,34)           120.2664         estimate D2E/DX2                !
 ! A53   A(14,15,16)           120.1472         estimate D2E/DX2                !
 ! A54   A(14,15,35)           120.1788         estimate D2E/DX2                !
 ! A55   A(16,15,35)           119.6739         estimate D2E/DX2                !
 ! A56   A(11,16,15)           121.1137         estimate D2E/DX2                !
 ! A57   A(11,16,36)           119.0709         estimate D2E/DX2                !
 ! A58   A(15,16,36)           119.8153         estimate D2E/DX2                !
 ! A59   A(2,17,18)            118.8167         estimate D2E/DX2                !
 ! A60   A(2,17,22)            119.5605         estimate D2E/DX2                !
 ! A61   A(18,17,22)           121.6179         estimate D2E/DX2                !
 ! A62   A(17,18,19)           119.0195         estimate D2E/DX2                !
 ! A63   A(17,18,37)           119.6444         estimate D2E/DX2                !
 ! A64   A(19,18,37)           121.3357         estimate D2E/DX2                !
 ! A65   A(18,19,20)           119.9887         estimate D2E/DX2                !
 ! A66   A(18,19,38)           119.7463         estimate D2E/DX2                !
 ! A67   A(20,19,38)           120.2647         estimate D2E/DX2                !
 ! A68   A(19,20,21)           120.3907         estimate D2E/DX2                !
 ! A69   A(19,20,39)           119.837          estimate D2E/DX2                !
 ! A70   A(21,20,39)           119.7719         estimate D2E/DX2                !
 ! A71   A(20,21,22)           120.1415         estimate D2E/DX2                !
 ! A72   A(20,21,40)           120.192          estimate D2E/DX2                !
 ! A73   A(22,21,40)           119.6658         estimate D2E/DX2                !
 ! A74   A(17,22,21)           118.8393         estimate D2E/DX2                !
 ! A75   A(17,22,41)           120.5776         estimate D2E/DX2                !
 ! A76   A(21,22,41)           120.5797         estimate D2E/DX2                !
 ! D1    D(1,2,3,4)             42.3586         estimate D2E/DX2                !
 ! D2    D(17,2,3,4)           -73.9975         estimate D2E/DX2                !
 ! D3    D(23,2,3,4)           171.4487         estimate D2E/DX2                !
 ! D4    D(1,2,17,18)           -7.6641         estimate D2E/DX2                !
 ! D5    D(1,2,17,22)          171.5387         estimate D2E/DX2                !
 ! D6    D(3,2,17,18)          109.1356         estimate D2E/DX2                !
 ! D7    D(3,2,17,22)          -71.6615         estimate D2E/DX2                !
 ! D8    D(23,2,17,18)        -137.8401         estimate D2E/DX2                !
 ! D9    D(23,2,17,22)          41.3627         estimate D2E/DX2                !
 ! D10   D(2,3,4,5)            163.8331         estimate D2E/DX2                !
 ! D11   D(2,3,4,8)             57.8835         estimate D2E/DX2                !
 ! D12   D(2,3,4,9)            -71.4625         estimate D2E/DX2                !
 ! D13   D(3,4,5,6)           -140.8584         estimate D2E/DX2                !
 ! D14   D(3,4,5,24)           101.1857         estimate D2E/DX2                !
 ! D15   D(3,4,5,25)           -30.2087         estimate D2E/DX2                !
 ! D16   D(8,4,5,6)            -19.8643         estimate D2E/DX2                !
 ! D17   D(8,4,5,24)          -137.8202         estimate D2E/DX2                !
 ! D18   D(8,4,5,25)            90.7854         estimate D2E/DX2                !
 ! D19   D(9,4,5,6)             93.3318         estimate D2E/DX2                !
 ! D20   D(9,4,5,24)           -24.6241         estimate D2E/DX2                !
 ! D21   D(9,4,5,25)          -156.0185         estimate D2E/DX2                !
 ! D22   D(3,4,8,6)            135.1997         estimate D2E/DX2                !
 ! D23   D(3,4,8,26)          -106.8462         estimate D2E/DX2                !
 ! D24   D(3,4,8,27)            24.8857         estimate D2E/DX2                !
 ! D25   D(5,4,8,6)             19.9276         estimate D2E/DX2                !
 ! D26   D(5,4,8,26)           137.8817         estimate D2E/DX2                !
 ! D27   D(5,4,8,27)           -90.3864         estimate D2E/DX2                !
 ! D28   D(9,4,8,6)            -94.0942         estimate D2E/DX2                !
 ! D29   D(9,4,8,26)            23.8599         estimate D2E/DX2                !
 ! D30   D(9,4,8,27)           155.5918         estimate D2E/DX2                !
 ! D31   D(3,4,9,10)           -63.8608         estimate D2E/DX2                !
 ! D32   D(3,4,9,28)           176.5468         estimate D2E/DX2                !
 ! D33   D(3,4,9,29)            62.1426         estimate D2E/DX2                !
 ! D34   D(5,4,9,10)            60.471          estimate D2E/DX2                !
 ! D35   D(5,4,9,28)           -59.1213         estimate D2E/DX2                !
 ! D36   D(5,4,9,29)          -173.5256         estimate D2E/DX2                !
 ! D37   D(8,4,9,10)           163.1716         estimate D2E/DX2                !
 ! D38   D(8,4,9,28)            43.5793         estimate D2E/DX2                !
 ! D39   D(8,4,9,29)           -70.825          estimate D2E/DX2                !
 ! D40   D(4,5,6,7)            -89.1172         estimate D2E/DX2                !
 ! D41   D(4,5,6,8)             17.0248         estimate D2E/DX2                !
 ! D42   D(24,5,6,7)            32.5774         estimate D2E/DX2                !
 ! D43   D(24,5,6,8)           138.7193         estimate D2E/DX2                !
 ! D44   D(25,5,6,7)           154.3401         estimate D2E/DX2                !
 ! D45   D(25,5,6,8)           -99.518          estimate D2E/DX2                !
 ! D46   D(5,6,8,4)            -16.954          estimate D2E/DX2                !
 ! D47   D(5,6,8,26)          -138.7005         estimate D2E/DX2                !
 ! D48   D(5,6,8,27)            98.9967         estimate D2E/DX2                !
 ! D49   D(7,6,8,4)             89.0292         estimate D2E/DX2                !
 ! D50   D(7,6,8,26)           -32.7173         estimate D2E/DX2                !
 ! D51   D(7,6,8,27)          -155.0201         estimate D2E/DX2                !
 ! D52   D(4,9,10,11)           82.359          estimate D2E/DX2                !
 ! D53   D(4,9,10,30)          -42.7507         estimate D2E/DX2                !
 ! D54   D(4,9,10,31)         -156.4607         estimate D2E/DX2                !
 ! D55   D(28,9,10,11)        -159.3773         estimate D2E/DX2                !
 ! D56   D(28,9,10,30)          75.513          estimate D2E/DX2                !
 ! D57   D(28,9,10,31)         -38.197          estimate D2E/DX2                !
 ! D58   D(29,9,10,11)         -42.619          estimate D2E/DX2                !
 ! D59   D(29,9,10,30)        -167.7286         estimate D2E/DX2                !
 ! D60   D(29,9,10,31)          78.5614         estimate D2E/DX2                !
 ! D61   D(9,10,11,12)          71.1166         estimate D2E/DX2                !
 ! D62   D(9,10,11,16)        -111.6451         estimate D2E/DX2                !
 ! D63   D(30,10,11,12)       -163.3821         estimate D2E/DX2                !
 ! D64   D(30,10,11,16)         13.8563         estimate D2E/DX2                !
 ! D65   D(31,10,11,12)        -49.0914         estimate D2E/DX2                !
 ! D66   D(31,10,11,16)        128.147          estimate D2E/DX2                !
 ! D67   D(10,11,12,13)        178.2186         estimate D2E/DX2                !
 ! D68   D(10,11,12,32)         -1.7559         estimate D2E/DX2                !
 ! D69   D(16,11,12,13)          0.9014         estimate D2E/DX2                !
 ! D70   D(16,11,12,32)       -179.0731         estimate D2E/DX2                !
 ! D71   D(10,11,16,15)       -178.0892         estimate D2E/DX2                !
 ! D72   D(10,11,16,36)          1.882          estimate D2E/DX2                !
 ! D73   D(12,11,16,15)         -0.7788         estimate D2E/DX2                !
 ! D74   D(12,11,16,36)        179.1924         estimate D2E/DX2                !
 ! D75   D(11,12,13,14)         -0.4595         estimate D2E/DX2                !
 ! D76   D(11,12,13,33)        179.9811         estimate D2E/DX2                !
 ! D77   D(32,12,13,14)        179.515          estimate D2E/DX2                !
 ! D78   D(32,12,13,33)         -0.0444         estimate D2E/DX2                !
 ! D79   D(12,13,14,15)         -0.1281         estimate D2E/DX2                !
 ! D80   D(12,13,14,34)       -179.7958         estimate D2E/DX2                !
 ! D81   D(33,13,14,15)        179.4299         estimate D2E/DX2                !
 ! D82   D(33,13,14,34)         -0.2377         estimate D2E/DX2                !
 ! D83   D(13,14,15,16)          0.2496         estimate D2E/DX2                !
 ! D84   D(13,14,15,35)       -179.6177         estimate D2E/DX2                !
 ! D85   D(34,14,15,16)        179.9174         estimate D2E/DX2                !
 ! D86   D(34,14,15,35)          0.0501         estimate D2E/DX2                !
 ! D87   D(14,15,16,11)          0.2138         estimate D2E/DX2                !
 ! D88   D(14,15,16,36)       -179.7572         estimate D2E/DX2                !
 ! D89   D(35,15,16,11)       -179.9182         estimate D2E/DX2                !
 ! D90   D(35,15,16,36)          0.1108         estimate D2E/DX2                !
 ! D91   D(2,17,18,19)         179.6012         estimate D2E/DX2                !
 ! D92   D(2,17,18,37)          -0.1562         estimate D2E/DX2                !
 ! D93   D(22,17,18,19)          0.4154         estimate D2E/DX2                !
 ! D94   D(22,17,18,37)       -179.342          estimate D2E/DX2                !
 ! D95   D(2,17,22,21)        -179.7436         estimate D2E/DX2                !
 ! D96   D(2,17,22,41)          -0.3995         estimate D2E/DX2                !
 ! D97   D(18,17,22,21)         -0.5638         estimate D2E/DX2                !
 ! D98   D(18,17,22,41)        178.7803         estimate D2E/DX2                !
 ! D99   D(17,18,19,20)          0.0136         estimate D2E/DX2                !
 ! D100  D(17,18,19,38)       -179.7944         estimate D2E/DX2                !
 ! D101  D(37,18,19,20)        179.7668         estimate D2E/DX2                !
 ! D102  D(37,18,19,38)         -0.0412         estimate D2E/DX2                !
 ! D103  D(18,19,20,21)         -0.2845         estimate D2E/DX2                !
 ! D104  D(18,19,20,39)        179.9223         estimate D2E/DX2                !
 ! D105  D(38,19,20,21)        179.5225         estimate D2E/DX2                !
 ! D106  D(38,19,20,39)         -0.2707         estimate D2E/DX2                !
 ! D107  D(19,20,21,22)          0.1332         estimate D2E/DX2                !
 ! D108  D(19,20,21,40)       -179.5695         estimate D2E/DX2                !
 ! D109  D(39,20,21,22)        179.9265         estimate D2E/DX2                !
 ! D110  D(39,20,21,40)          0.2239         estimate D2E/DX2                !
 ! D111  D(20,21,22,17)          0.2836         estimate D2E/DX2                !
 ! D112  D(20,21,22,41)       -179.0605         estimate D2E/DX2                !
 ! D113  D(40,21,22,17)        179.9878         estimate D2E/DX2                !
 ! D114  D(40,21,22,41)          0.6436         estimate D2E/DX2                !
 --------------------------------------------------------------------------------
 Trust Radius=3.00D-01 FncErr=1.00D-07 GrdErr=1.00D-06 EigMax=2.50D+02 EigMin=1.00D-04
 Number of steps in this run=    243 maximum allowed number of steps=    246.
 GradGradGradGradGradGradGradGradGradGradGradGradGradGradGradGradGradGrad

 Leave Link  103 at Mon Sep 21 05:44:30 2020, MaxMem=  2147483648 cpu:               0.1 elap:               0.0
 (Enter /prod/apps/gaussian/g16b1/l202.exe)
                          Input orientation:                          
 ---------------------------------------------------------------------
 Center     Atomic      Atomic             Coordinates (Angstroms)
 Number     Number       Type             X           Y           Z
 ---------------------------------------------------------------------
      1          8           0       -0.154000   -1.366000    1.253000
      2         16           0        0.379000   -1.393000   -0.114000
      3          7           0       -0.034000    0.050000   -0.855000
      4          6           0        0.045000    1.375000   -0.204000
      5          6           0       -0.014000    2.500000   -1.268000
      6         16           0        1.262000    3.531000   -0.368000
      7          8           0        0.571000    4.446000    0.637000
      8          6           0        1.432000    1.816000    0.346000
      9          6           0       -1.039000    1.579000    0.875000
     10          6           0       -2.512000    1.582000    0.409000
     11          6           0       -3.195000    0.244000    0.214000
     12          6           0       -3.535000   -0.556000    1.315000
     13          6           0       -4.197000   -1.772000    1.144000
     14          6           0       -4.542000   -2.209000   -0.138000
     15          6           0       -4.221000   -1.418000   -1.241000
     16          6           0       -3.556000   -0.203000   -1.063000
     17          6           0        2.165000   -1.513000    0.016000
     18          6           0        2.757000   -1.397000    1.274000
     19          6           0        4.144000   -1.498000    1.381000
     20          6           0        4.919000   -1.712000    0.238000
     21          6           0        4.312000   -1.832000   -1.016000
     22          6           0        2.927000   -1.736000   -1.135000
     23          8           0       -0.056000   -2.434000   -1.056000
     24          1           0       -0.962000    3.016000   -1.407000
     25          1           0        0.407000    2.225000   -2.238000
     26          1           0        1.574000    1.813000    1.427000
     27          1           0        2.276000    1.337000   -0.152000
     28          1           0       -0.827000    2.560000    1.312000
     29          1           0       -0.888000    0.836000    1.661000
     30          1           0       -2.604000    2.163000   -0.514000
     31          1           0       -3.071000    2.141000    1.168000
     32          1           0       -3.279000   -0.223000    2.317000
     33          1           0       -4.450000   -2.375000    2.011000
     34          1           0       -5.060000   -3.153000   -0.274000
     35          1           0       -4.489000   -1.743000   -2.243000
     36          1           0       -3.312000    0.411000   -1.926000
     37          1           0        2.135000   -1.235000    2.146000
     38          1           0        4.616000   -1.413000    2.353000
     39          1           0        5.999000   -1.789000    0.324000
     40          1           0        4.916000   -2.005000   -1.900000
     41          1           0        2.448000   -1.843000   -2.101000
 ---------------------------------------------------------------------
                    Distance matrix (angstroms):
                    1          2          3          4          5
     1  O    0.000000
     2  S    1.467483   0.000000
     3  N    2.542267   1.673887   0.000000
     4  C    3.110552   2.789530   1.478400   0.000000
     5  C    4.617467   4.079413   2.484647   1.549581   0.000000
     6  S    5.349141   5.008990   3.746218   2.481193   1.871133
     7  O    5.889348   5.890228   4.681549   3.227228   2.785348
     8  C    3.669219   3.408532   2.590427   1.555876   2.272393
     9  C    3.098247   3.438260   2.518088   1.543021   2.547806
    10  C    3.868230   4.181152   3.175721   2.637587   3.145641
    11  C    3.594343   3.944722   3.342502   3.457092   4.171885
    12  C    3.477227   4.249942   4.163308   4.341949   5.329959
    13  C    4.064796   4.760880   4.964499   5.451172   6.447109
    14  C    4.679751   4.988254   5.093057   5.821510   6.629809
    15  C    4.771083   4.736112   4.453649   5.203362   5.748939
    16  C    4.276684   4.219114   3.537196   4.024322   4.460269
    17  C    2.632402   1.794741   2.834998   3.589338   4.743508
    18  C    2.911241   2.753442   3.796858   4.150110   5.415424
    19  C    4.301931   4.052317   4.985146   5.250539   6.347454
    20  C    5.185101   4.564785   5.369497   5.786260   6.659089
    21  C    5.030971   4.058918   4.738730   5.399211   6.127316
    22  C    3.915610   2.766296   3.469253   4.341775   5.158572
    23  O    2.545920   1.469786   2.492216   3.904432   4.938731
    24  H    5.189450   4.786378   3.156429   2.270273   1.088247
    25  H    5.039552   4.195484   2.614918   2.233987   1.092596
    26  H    3.622472   3.752485   3.301720   2.278123   3.202614
    27  H    3.896811   3.324598   2.736179   2.231929   2.800379
    28  H    3.983703   4.371970   3.409522   2.112549   2.705729
    29  H    2.356698   3.118390   2.770806   2.153888   3.480203
    30  H    4.645280   4.658693   3.344540   2.781051   2.718489
    31  H    4.562364   5.102468   4.205732   3.489785   3.925331
    32  H    3.493447   4.545286   4.546002   4.467440   5.561221
    33  H    4.477528   5.366488   5.796174   6.258894   7.361764
    34  H    5.440031   5.718909   5.988109   6.824127   7.642419
    35  H    5.581789   5.324713   4.998842   5.868271   6.243340
    36  H    4.820450   4.490127   3.467369   3.894102   3.959001
    37  H    2.460514   2.866374   3.919412   4.086894   5.497620
    38  H    4.895417   4.902923   5.835592   5.933400   7.061169
    39  H    6.237097   5.650934   6.416311   6.763120   7.555538
    40  H    6.004551   4.914134   5.460545   6.166641   6.708155
    41  H    4.271680   2.903692   3.360995   4.441682   5.061322
                    6          7          8          9         10
     6  S    0.000000
     7  O    1.524707   0.000000
     8  C    1.865455   2.782607   0.000000
     9  C    3.263427   3.296731   2.538080   0.000000
    10  C    4.318033   4.214187   3.951438   1.544958   0.000000
    11  C    5.568478   5.658488   4.888531   2.620588   1.514846
    12  C    6.522827   6.506837   5.588956   3.313886   2.537402
    13  C    7.759422   7.852031   6.722811   4.612432   3.824757
    14  C    8.166206   8.428073   7.219665   5.257958   4.334950
    15  C    7.437608   7.802349   6.703263   4.856397   3.826641
    16  C    6.135055   6.444791   5.562534   3.642342   2.538296
    17  C    5.138560   6.199690   3.424680   4.534750   5.622082
    18  C    5.405217   6.270966   3.597246   4.839979   6.114330
    19  C    6.054401   6.975027   4.405538   6.048756   7.398211
    20  C    6.421054   7.548859   4.961614   6.836243   8.130156
    21  C    6.203561   7.492715   4.843279   6.621480   7.762280
    22  C    5.576899   6.848930   4.128570   5.546033   6.555592
    23  O    6.147495   7.112930   4.716169   4.560616   4.930154
    24  H    2.508171   2.927956   3.200663   2.697855   2.785087
    25  H    2.435890   3.636669   2.809798   3.492707   3.992570
    26  H    2.504175   2.926226   1.090291   2.680901   4.217236
    27  H    2.426621   3.632551   1.090771   3.478867   4.826975
    28  H    2.851169   2.442749   2.567055   1.094657   2.147351
    29  H    4.000296   4.026085   2.841131   1.092083   2.182062
    30  H    4.103498   4.076459   4.141172   2.172464   1.094511
    31  H    4.802737   4.342712   4.588934   2.128548   1.095921
    32  H    6.474753   6.280483   5.498716   3.216235   2.736198
    33  H    8.553796   8.580464   7.411790   5.344112   4.688294
    34  H    9.200673   9.501731   8.198867   6.315098   5.420242
    35  H    8.025254   8.497160   7.377509   5.714902   4.690123
    36  H    5.751803   6.158562   5.444405   3.791616   2.731934
    37  H    5.458670   6.082511   3.611483   4.428127   5.705021
    38  H    6.564777   7.323562   4.959067   6.566245   7.972299
    39  H    7.156845   8.272628   5.818419   7.821794   9.154670
    40  H    6.807792   8.181124   5.637625   7.483830   8.565818
    41  H    5.769728   7.111350   4.517560   5.720649   6.529343
                   11         12         13         14         15
    11  C    0.000000
    12  C    1.402783   0.000000
    13  C    2.435808   1.395042   0.000000
    14  C    2.820553   2.420262   1.397683   0.000000
    15  C    2.435558   2.783303   2.411248   1.394751   0.000000
    16  C    1.400307   2.404149   2.782713   2.419061   1.396472
    17  C    5.644099   5.923956   6.466414   6.744774   6.509230
    18  C    6.264406   6.348088   6.965317   7.478535   7.417422
    19  C    7.632652   7.736844   8.348864   8.846439   8.766670
    20  C    8.346467   8.600371   9.161108   9.481503   9.263556
    21  C    7.885285   8.284754   8.779082   8.905410   8.546000
    22  C    6.574122   7.010873   7.479740   7.550079   7.155855
    23  O    4.317164   4.609985   4.735623   4.584490   4.291119
    24  H    3.911255   5.175790   6.316468   6.459674   5.505360
    25  H    4.786551   5.991422   6.972141   6.968713   5.973595
    26  H    5.164929   5.632636   6.799761   7.485397   7.151196
    27  H    5.591104   6.285162   7.296933   7.685014   7.140515
    28  H    3.489539   4.128284   5.491024   6.216678   5.819066
    29  H    2.786848   3.010646   4.244813   5.085287   4.960948
    30  H    2.135843   3.406606   4.557503   4.797041   3.995845
    31  H    2.126993   2.740568   4.071857   4.774094   4.448850
    32  H    2.155865   1.086475   2.148966   3.400940   3.869723
    33  H    3.415171   2.151837   1.085959   2.157364   3.397616
    34  H    3.905890   3.405137   2.159318   1.085337   2.156208
    35  H    3.414594   3.870200   3.399687   2.156615   1.086947
    36  H    2.149693   3.389528   3.869575   3.402094   2.154239
    37  H    5.859093   5.770659   6.433242   7.123739   7.204443
    38  H    8.266359   8.261398   8.902782   9.524057   9.539886
    39  H    9.416731   9.664343  10.228935  10.559476  10.345785
    40  H    8.678440   9.157250   9.610775   9.622891   9.179522
    41  H    6.446568   7.008688   7.395343   7.269623   6.737639
                   16         17         18         19         20
    16  C    0.000000
    17  C    5.967427   0.000000
    18  C    6.836752   1.395165   0.000000
    19  C    8.181697   2.404140   1.394783   0.000000
    20  C    8.706050   2.770090   2.418008   1.397451   0.000000
    21  C    8.035003   2.403413   2.802026   2.425982   1.398344
    22  C    6.662174   1.398275   2.438668   2.804994   2.419456
    23  O    4.150592   2.632540   3.797004   4.945206   5.190987
    24  H    4.148389   5.684620   6.363434   7.363449   7.723093
    25  H    4.793869   4.705712   5.565566   6.397113   6.479868
    26  H    6.048244   3.660939   3.424470   4.191627   5.002836
    27  H    6.100307   2.857104   3.120832   3.725149   4.053881
    28  H    4.552168   5.217376   5.338946   6.417396   7.240164
    29  H    3.951952   4.188632   4.292095   5.554006   6.499114
    30  H    2.608766   6.044604   6.679137   7.907557   8.495685
    31  H    3.272143   6.488029   6.818670   8.083558   8.919115
    32  H    3.391390   6.049449   6.236940   7.589641   8.587582
    33  H    3.868630   6.962851   7.310301   8.661574   9.558308
    34  H    3.403974   7.414467   8.159983   9.496929  10.095497
    35  H    2.152786   7.030768   8.061856   9.366007   9.729686
    36  H    1.086877   6.121329   7.095183   8.376901   8.771510
    37  H    6.614392   2.148275   1.083288   2.165750   3.408614
    38  H    8.939504   3.388063   2.149506   1.083879   2.157414
    39  H    9.784538   3.856241   3.400989   2.154752   1.086151
    40  H    8.701871   3.388380   3.886544   3.408518   2.157986
    41  H    6.309918   2.161175   3.418336   3.888414   3.404985
                   21         22         23         24         25
    21  C    0.000000
    22  C    1.393414   0.000000
    23  O    4.409470   3.064594   0.000000
    24  H    7.174333   6.146528   5.535931   0.000000
    25  H    5.762079   4.822502   4.828848   1.786170   0.000000
    26  H    5.172129   4.581469   5.182586   3.988742   3.868315
    27  H    3.864499   3.291416   4.525028   3.857293   2.938214
    28  H    7.149725   6.207732   5.580493   2.760276   3.773259
    29  H    6.428418   5.383960   4.332114   3.764372   4.336882
    30  H    8.002692   6.795572   5.283794   2.054561   3.470179
    31  H    8.663906   7.504062   5.913292   3.441530   4.868714
    32  H    8.445179   7.260848   5.162691   5.452319   6.350380
    33  H    9.286023   8.045233   5.358844   7.274046   7.924926
    34  H    9.493682   8.157290   5.115516   7.492253   7.916329
    35  H    8.886566   7.498318   4.640899   5.982199   6.302052
    36  H    7.999033   6.645330   4.410494   3.546532   4.149566
    37  H    3.885097   3.412217   4.060897   6.347143   5.846113
    38  H    3.408539   3.888855   5.872930   8.054050   7.213044
    39  H    2.154859   3.401275   6.243673   8.633650   7.344828
    40  H    1.084528   2.147954   5.061340   7.746249   6.191787
    41  H    2.156813   1.083534   2.776927   5.976589   4.553359
                   26         27         28         29         30
    26  H    0.000000
    27  H    1.792379   0.000000
    28  H    2.517148   3.642476   0.000000
    29  H    2.659084   3.680878   1.760028   0.000000
    30  H    4.620137   4.962632   2.578685   3.071841   0.000000
    31  H    4.663764   5.565898   2.287320   2.590668   1.745765
    32  H    5.337509   6.275953   3.842840   2.696052   3.763400
    33  H    7.359958   7.981014   6.161895   4.808416   5.511514
    34  H    8.459581   8.601853   7.285057   6.087851   5.860835
    35  H    7.929313   7.721652   6.675633   5.904207   4.668994
    36  H    6.089434   5.935511   4.612816   4.350054   2.358922
    37  H    3.181507   3.451937   4.885798   3.696322   6.409378
    38  H    4.529715   4.394670   6.818699   5.985890   8.551951
    39  H    5.811337   4.884586   8.153786   7.490592   9.504323
    40  H    6.067538   4.603702   8.008634   7.378239   8.708824
    41  H    5.155288   3.733709   6.462244   5.697243   6.639978
                   31         32         33         34         35
    31  H    0.000000
    32  H    2.636657   0.000000
    33  H    4.796514   2.469004   0.000000
    34  H    5.836259   4.297690   2.489701   0.000000
    35  H    5.360140   4.956622   4.300867   2.488193   0.000000
    36  H    3.553001   4.290232   4.955483   4.299617   2.474982
    37  H    6.281425   5.510425   6.684314   7.829633   7.962334
    38  H    8.551322   7.984261   9.123309  10.176134  10.204565
    39  H    9.920793   9.617988  10.600517  11.158834  10.797673
    40  H    9.507582   9.387046  10.156514  10.172628   9.414899
    41  H    7.551025   7.412264   8.048228   7.837352   6.939174
                   36         37         38         39         40
    36  H    0.000000
    37  H    6.997164   0.000000
    38  H    9.191844   2.495976   0.000000
    39  H    9.828389   4.307795   2.484131   0.000000
    40  H    8.575413   4.969605   4.304471   2.483087   0.000000
    41  H    6.187790   4.301702   4.972247   4.300365   2.481465
                   41
    41  H    0.000000
 Symmetry turned off by external request.
 Stoichiometry    C17H18NO3S2(1-)
 Framework group  C1[X(C17H18NO3S2)]
 Deg. of freedom   117
 Full point group                 C1      NOp   1
 Rotational constants (GHZ):           0.2852873           0.1845981           0.1285600
 Leave Link  202 at Mon Sep 21 05:44:30 2020, MaxMem=  2147483648 cpu:               0.0 elap:               0.0
 (Enter /prod/apps/gaussian/g16b1/l301.exe)
 Standard basis: 6-31G(d) (6D, 7F)
 Ernie: Thresh=  0.10000D-02 Tol=  0.10000D-05 Strict=F.
   389 basis functions,   764 primitive gaussians,   389 cartesian basis functions
    92 alpha electrons       92 beta electrons
       nuclear repulsion energy      2303.7575151819 Hartrees.
 IExCor=  402 DFT=T Ex+Corr=B3LYP ExCW=0 ScaHFX=  0.200000
 ScaDFX=  0.800000  0.720000  1.000000  0.810000 ScalE2=  1.000000  1.000000
 IRadAn=      5 IRanWt=     -1 IRanGd=            0 ICorTp=0 IEmpDi=  4
 NAtoms=   41 NActive=   41 NUniq=   41 SFac= 1.00D+00 NAtFMM=   60 NAOKFM=F Big=F
 Integral buffers will be    131072 words long.
 Raffenetti 2 integral format.
 Two-electron integral symmetry is turned off.
 Using the following non-standard input for PCM:
 MSTModel=DFT MSTcharged
 --- end of non-standard input.
 MST model for solvation energy: B3LYP parametrization.
 MST cavity parameters:
 ISph   IAn     Re0     Alpha   Atom Type   QCorr
 ------------------------------------------------
   1      8     1.40     1.25      O          F
   2     16     1.75     1.25      S          F
   3      7     1.40     1.15      N          T
   4      6     1.50     1.25      C          F
   5      6     1.50     1.25      CH2        F
   6     16     1.75     1.25      S          F
   7      8     1.40     1.25      O          F
   8      6     1.50     1.25      CH2        F
   9      6     1.50     1.25      CH2        F
  10      6     1.50     1.25      CH2        F
  11      6     1.50     1.25      C          F
  12      6     1.50     1.25      CH         F
  13      6     1.50     1.25      CH         F
  14      6     1.50     1.25      CH         F
  15      6     1.50     1.25      CH         F
  16      6     1.50     1.25      CH         F
  17      6     1.50     1.25      C          F
  18      6     1.50     1.25      CH         F
  19      6     1.50     1.25      CH         F
  20      6     1.50     1.25      CH         F
  21      6     1.50     1.25      CH         F
  22      6     1.50     1.25      CH         F
  23      8     1.40     1.25      O          F
  24      1     1.20     1.25      CH2        F
  25      1     1.20     1.25      CH2        F
  26      1     1.20     1.25      CH2        F
  27      1     1.20     1.25      CH2        F
  28      1     1.20     1.25      CH2        F
  29      1     1.20     1.25      CH2        F
  30      1     1.20     1.25      CH2        F
  31      1     1.20     1.25      CH2        F
  32      1     1.20     1.25      CH         F
  33      1     1.20     1.25      CH         F
  34      1     1.20     1.25      CH         F
  35      1     1.20     1.25      CH         F
  36      1     1.20     1.25      CH         F
  37      1     1.20     1.25      CH         F
  38      1     1.20     1.25      CH         F
  39      1     1.20     1.25      CH         F
  40      1     1.20     1.25      CH         F
  41      1     1.20     1.25      CH         F
 ------------------------------------------------------------------------------
 Polarizable Continuum Model (PCM)
 =================================
 Model                : PCM.
 Atomic radii         : MST.
 Polarization charges : Total charges.
 Charge compensation  : None.
 Solution method      : On-the-fly selection.
 Cavity type          : Scaled VdW (van der Waals Surface) (Alpha=1.250).
 Cavity algorithm     : GePol (No added spheres)
                        Default sphere list used, NSphG=   41.
                        Lebedev-Laikov grids with approx.  5.0 points / Ang**2.
                        Smoothing algorithm: York/Karplus (Gamma=1.0000).
                        Polarization charges: spherical gaussians, with
                                              point-specific exponents (IZeta= 3).
                        Self-potential: point-specific (ISelfS= 7).
                        Self-field    : sphere-specific E.n sum rule (ISelfD= 2).
 1st derivatives      : Analytical E(r).r(x)/FMM algorithm (CHGder, D1EAlg=3).
                        Cavity 1st derivative terms included.
 Solvent              : Water, Eps=  78.355300 Eps(inf)=   1.777849
 ------------------------------------------------------------------------------
 GePol: Number of generator spheres                  =      41
 GePol: Total number of spheres                      =      41
 GePol: Number of exposed spheres                    =      41 (100.00%)
 GePol: Number of points                             =    3064
 GePol: Average weight of points                     =       0.13
 GePol: Minimum weight of points                     =   0.22D-11
 GePol: Maximum weight of points                     =    0.22001
 GePol: Number of points with low weight             =     228
 GePol: Fraction of low-weight points (<1% of avg)   =       7.44%
 GePol: Cavity surface area                          =    398.630 Ang**2
 GePol: Cavity volume                                =    395.855 Ang**3
 PCM non-electrostatic energy =        -0.0783585774 Hartrees.
 Nuclear repulsion after PCM non-electrostatic terms =     2303.6791566044 Hartrees.
 Leave Link  301 at Mon Sep 21 05:44:31 2020, MaxMem=  2147483648 cpu:               0.3 elap:               0.1
 (Enter /prod/apps/gaussian/g16b1/l302.exe)
 NPDir=0 NMtPBC=     1 NCelOv=     1 NCel=       1 NClECP=     1 NCelD=      1
         NCelK=      1 NCelE2=     1 NClLst=     1 CellRange=     0.0.
 One-electron integrals computed using PRISM.
 NBasis=   389 RedAO= T EigKep=  4.70D-04  NBF=   389
 NBsUse=   389 1.00D-06 EigRej= -1.00D+00 NBFU=   389
 Precomputing XC quadrature grid using
 IXCGrd= 4 IRadAn=           5 IRanWt=          -1 IRanGd=           0 AccXCQ= 0.00D+00.
 Generated NRdTot=       0 NPtTot=           0 NUsed=           0 NTot=          32
 NSgBfM=   386   386   386   386   386 MxSgAt=    41 MxSgA2=    41.
 Leave Link  302 at Mon Sep 21 05:44:31 2020, MaxMem=  2147483648 cpu:               2.4 elap:               0.6
 (Enter /prod/apps/gaussian/g16b1/l303.exe)
 DipDrv:  MaxL=1.
 Leave Link  303 at Mon Sep 21 05:44:31 2020, MaxMem=  2147483648 cpu:               0.2 elap:               0.1
 (Enter /prod/apps/gaussian/g16b1/l401.exe)
 ExpMin= 1.17D-01 ExpMax= 2.19D+04 ExpMxC= 3.30D+03 IAcc=3 IRadAn=         5 AccDes= 0.00D+00
 Harris functional with IExCor=  402 and IRadAn=       5 diagonalized for initial guess.
 HarFok:  IExCor=  402 AccDes= 0.00D+00 IRadAn=         5 IDoV= 1 UseB2=F ITyADJ=14
 ICtDFT=  3500011 ScaDFX=  1.000000  1.000000  1.000000  1.000000
 FoFCou: FMM=F IPFlag=           0 FMFlag=      100000 FMFlg1=           0
         NFxFlg=           0 DoJE=T BraDBF=F KetDBF=T FulRan=T
         wScrn=  0.000000 ICntrl=       500 IOpCl=  0 I1Cent=   200000004 NGrid=           0
         NMat0=    1 NMatS0=      1 NMatT0=    0 NMatD0=    1 NMtDS0=    0 NMtDT0=    0
 Symmetry not used in FoFCou.
 Harris En= -1735.64125159389    
 JPrj=0 DoOrth=F DoCkMO=F.
 Leave Link  401 at Mon Sep 21 05:44:35 2020, MaxMem=  2147483648 cpu:              13.7 elap:               3.4
 (Enter /prod/apps/gaussian/g16b1/l502.exe)
 Two-electron integral symmetry not used.
 Closed shell SCF:
 Using DIIS extrapolation, IDIIS=  1040.
 NGot=  2147483648 LenX=  2147175290 LenY=  2147023528
 Requested convergence on RMS density matrix=1.00D-08 within2000 cycles.
 Requested convergence on MAX density matrix=1.00D-06.
 Requested convergence on             energy=1.00D-06.
 No special actions if energy rises.

 Cycle   1  Pass 1  IDiag  1:
 FoFJK:  IHMeth= 1 ICntrl=       0 DoSepK=F KAlg= 0 I1Cent=           0 FoldK=F
 IRaf= 780000000 NMat=       1 IRICut=       1 DoRegI=T DoRafI=F ISym2E= 0 IDoP0=0 IntGTp=1.
 FoFCou: FMM=F IPFlag=           0 FMFlag=      100000 FMFlg1=           0
         NFxFlg=           0 DoJE=F BraDBF=F KetDBF=F FulRan=T
         wScrn=  0.000000 ICntrl=         0 IOpCl=  0 I1Cent=           0 NGrid=           0
         NMat0=    1 NMatS0=      1 NMatT0=    0 NMatD0=    1 NMtDS0=    0 NMtDT0=    0
 Symmetry not used in FoFCou.
 Inv3:  Mode=1 IEnd=    28164288.
 Iteration    1 A*A^-1 deviation from unit magnitude is 3.55D-15 for    744.
 Iteration    1 A*A^-1 deviation from orthogonality  is 5.33D-15 for   2150   1317.
 Iteration    1 A^-1*A deviation from unit magnitude is 3.33D-15 for    744.
 Iteration    1 A^-1*A deviation from orthogonality  is 1.76D-13 for   2510   2458.
 E= -1734.68760160462    
 DIIS: error= 3.65D-02 at cycle   1 NSaved=   1.
 NSaved= 1 IEnMin= 1 EnMin= -1734.68760160462     IErMin= 1 ErrMin= 3.65D-02
 ErrMax= 3.65D-02  0.00D+00 EMaxC= 1.00D-01 BMatC= 9.27D-01 BMatP= 9.27D-01
 IDIUse=3 WtCom= 6.35D-01 WtEn= 3.65D-01
 Coeff-Com:  0.100D+01
 Coeff-En:   0.100D+01
 Coeff:      0.100D+01
 Gap=     0.168 Goal=   None    Shift=    0.000
 GapD=    0.168 DampG=1.000 DampE=0.500 DampFc=0.5000 IDamp=-1.
 Damping current iteration by 5.00D-01
 RMSDP=6.36D-03 MaxDP=5.18D-01              OVMax= 2.48D-01

 Cycle   2  Pass 1  IDiag  1:
 E= -1734.95042453105     Delta-E=       -0.262822926432 Rises=F Damp=T
 DIIS: error= 1.01D-02 at cycle   2 NSaved=   2.
 NSaved= 2 IEnMin= 2 EnMin= -1734.95042453105     IErMin= 2 ErrMin= 1.01D-02
 ErrMax= 1.01D-02  0.00D+00 EMaxC= 1.00D-01 BMatC= 1.05D-01 BMatP= 9.27D-01
 IDIUse=3 WtCom= 8.99D-01 WtEn= 1.01D-01
 Coeff-Com:  0.191D+00 0.809D+00
 Coeff-En:   0.309D+00 0.691D+00
 Coeff:      0.203D+00 0.797D+00
 Gap=     0.173 Goal=   None    Shift=    0.000
 RMSDP=1.82D-03 MaxDP=1.31D-01 DE=-2.63D-01 OVMax= 1.88D-01

 Cycle   3  Pass 1  IDiag  1:
 E= -1735.46122500829     Delta-E=       -0.510800477236 Rises=F Damp=F
 DIIS: error= 8.41D-03 at cycle   3 NSaved=   3.
 NSaved= 3 IEnMin= 3 EnMin= -1735.46122500829     IErMin= 3 ErrMin= 8.41D-03
 ErrMax= 8.41D-03  0.00D+00 EMaxC= 1.00D-01 BMatC= 6.34D-02 BMatP= 1.05D-01
 IDIUse=3 WtCom= 9.16D-01 WtEn= 8.41D-02
 Coeff-Com:  0.566D-01 0.441D+00 0.502D+00
 Coeff-En:   0.000D+00 0.000D+00 0.100D+01
 Coeff:      0.518D-01 0.404D+00 0.544D+00
 Gap=     0.157 Goal=   None    Shift=    0.000
 RMSDP=9.99D-04 MaxDP=4.49D-02 DE=-5.11D-01 OVMax= 7.33D-02

 Cycle   4  Pass 1  IDiag  1:
 E= -1735.51004300592     Delta-E=       -0.048817997634 Rises=F Damp=F
 DIIS: error= 4.62D-03 at cycle   4 NSaved=   4.
 NSaved= 4 IEnMin= 4 EnMin= -1735.51004300592     IErMin= 4 ErrMin= 4.62D-03
 ErrMax= 4.62D-03  0.00D+00 EMaxC= 1.00D-01 BMatC= 1.18D-02 BMatP= 6.34D-02
 IDIUse=3 WtCom= 9.54D-01 WtEn= 4.62D-02
 Coeff-Com:  0.471D-02 0.107D+00 0.315D+00 0.573D+00
 Coeff-En:   0.000D+00 0.000D+00 0.158D+00 0.842D+00
 Coeff:      0.449D-02 0.102D+00 0.308D+00 0.585D+00
 Gap=     0.155 Goal=   None    Shift=    0.000
 RMSDP=3.98D-04 MaxDP=1.96D-02 DE=-4.88D-02 OVMax= 3.60D-02

 Cycle   5  Pass 1  IDiag  1:
 E= -1735.51948613666     Delta-E=       -0.009443130737 Rises=F Damp=F
 DIIS: error= 1.77D-03 at cycle   5 NSaved=   5.
 NSaved= 5 IEnMin= 5 EnMin= -1735.51948613666     IErMin= 5 ErrMin= 1.77D-03
 ErrMax= 1.77D-03  0.00D+00 EMaxC= 1.00D-01 BMatC= 1.55D-03 BMatP= 1.18D-02
 IDIUse=3 WtCom= 9.82D-01 WtEn= 1.77D-02
 Coeff-Com: -0.261D-02 0.200D-01 0.129D+00 0.354D+00 0.499D+00
 Coeff-En:   0.000D+00 0.000D+00 0.000D+00 0.845D-01 0.916D+00
 Coeff:     -0.256D-02 0.196D-01 0.127D+00 0.349D+00 0.507D+00
 Gap=     0.159 Goal=   None    Shift=    0.000
 RMSDP=1.37D-04 MaxDP=8.74D-03 DE=-9.44D-03 OVMax= 1.01D-02

 Cycle   6  Pass 1  IDiag  1:
 E= -1735.52082649681     Delta-E=       -0.001340360146 Rises=F Damp=F
 DIIS: error= 3.99D-04 at cycle   6 NSaved=   6.
 NSaved= 6 IEnMin= 6 EnMin= -1735.52082649681     IErMin= 6 ErrMin= 3.99D-04
 ErrMax= 3.99D-04  0.00D+00 EMaxC= 1.00D-01 BMatC= 1.07D-04 BMatP= 1.55D-03
 IDIUse=3 WtCom= 9.96D-01 WtEn= 3.99D-03
 Coeff-Com: -0.163D-02 0.372D-02 0.464D-01 0.147D+00 0.284D+00 0.521D+00
 Coeff-En:   0.000D+00 0.000D+00 0.000D+00 0.000D+00 0.000D+00 0.100D+01
 Coeff:     -0.162D-02 0.371D-02 0.462D-01 0.146D+00 0.282D+00 0.523D+00
 Gap=     0.158 Goal=   None    Shift=    0.000
 RMSDP=3.48D-05 MaxDP=2.08D-03 DE=-1.34D-03 OVMax= 2.27D-03

 Cycle   7  Pass 1  IDiag  1:
 E= -1735.52090987845     Delta-E=       -0.000083381642 Rises=F Damp=F
 DIIS: error= 1.44D-04 at cycle   7 NSaved=   7.
 NSaved= 7 IEnMin= 7 EnMin= -1735.52090987845     IErMin= 7 ErrMin= 1.44D-04
 ErrMax= 1.44D-04  0.00D+00 EMaxC= 1.00D-01 BMatC= 1.09D-05 BMatP= 1.07D-04
 IDIUse=3 WtCom= 9.99D-01 WtEn= 1.44D-03
 Coeff-Com: -0.668D-03-0.119D-03 0.128D-01 0.468D-01 0.111D+00 0.301D+00
 Coeff-Com:  0.530D+00
 Coeff-En:   0.000D+00 0.000D+00 0.000D+00 0.000D+00 0.000D+00 0.413D-01
 Coeff-En:   0.959D+00
 Coeff:     -0.667D-03-0.119D-03 0.128D-01 0.467D-01 0.110D+00 0.300D+00
 Coeff:      0.530D+00
 Gap=     0.158 Goal=   None    Shift=    0.000
 RMSDP=1.00D-05 MaxDP=5.66D-04 DE=-8.34D-05 OVMax= 9.56D-04

 Cycle   8  Pass 1  IDiag  1:
 E= -1735.52091981784     Delta-E=       -0.000009939396 Rises=F Damp=F
 DIIS: error= 3.38D-05 at cycle   8 NSaved=   8.
 NSaved= 8 IEnMin= 8 EnMin= -1735.52091981784     IErMin= 8 ErrMin= 3.38D-05
 ErrMax= 3.38D-05  0.00D+00 EMaxC= 1.00D-01 BMatC= 4.66D-07 BMatP= 1.09D-05
 IDIUse=1 WtCom= 1.00D+00 WtEn= 0.00D+00
 Coeff-Com: -0.153D-03-0.369D-03 0.139D-02 0.738D-02 0.232D-01 0.851D-01
 Coeff-Com:  0.232D+00 0.651D+00
 Coeff:     -0.153D-03-0.369D-03 0.139D-02 0.738D-02 0.232D-01 0.851D-01
 Coeff:      0.232D+00 0.651D+00
 Gap=     0.158 Goal=   None    Shift=    0.000
 RMSDP=2.64D-06 MaxDP=1.38D-04 DE=-9.94D-06 OVMax= 2.74D-04

 Cycle   9  Pass 1  IDiag  1:
 E= -1735.52092024800     Delta-E=       -0.000000430157 Rises=F Damp=F
 DIIS: error= 1.36D-05 at cycle   9 NSaved=   9.
 NSaved= 9 IEnMin= 9 EnMin= -1735.52092024800     IErMin= 9 ErrMin= 1.36D-05
 ErrMax= 1.36D-05  0.00D+00 EMaxC= 1.00D-01 BMatC= 6.64D-08 BMatP= 4.66D-07
 IDIUse=1 WtCom= 1.00D+00 WtEn= 0.00D+00
 Coeff-Com: -0.769D-05-0.160D-03-0.679D-03-0.126D-02-0.214D-03 0.107D-01
 Coeff-Com:  0.590D-01 0.333D+00 0.600D+00
 Coeff:     -0.769D-05-0.160D-03-0.679D-03-0.126D-02-0.214D-03 0.107D-01
 Coeff:      0.590D-01 0.333D+00 0.600D+00
 Gap=     0.158 Goal=   None    Shift=    0.000
 RMSDP=7.99D-07 MaxDP=4.00D-05 DE=-4.30D-07 OVMax= 8.93D-05

 Cycle  10  Pass 1  IDiag  1:
 E= -1735.52092031443     Delta-E=       -0.000000066427 Rises=F Damp=F
 DIIS: error= 2.23D-06 at cycle  10 NSaved=  10.
 NSaved=10 IEnMin=10 EnMin= -1735.52092031443     IErMin=10 ErrMin= 2.23D-06
 ErrMax= 2.23D-06  0.00D+00 EMaxC= 1.00D-01 BMatC= 2.94D-09 BMatP= 6.64D-08
 IDIUse=1 WtCom= 1.00D+00 WtEn= 0.00D+00
 Coeff-Com:  0.137D-05-0.435D-04-0.377D-03-0.902D-03-0.116D-02 0.111D-02
 Coeff-Com:  0.169D-01 0.127D+00 0.273D+00 0.585D+00
 Coeff:      0.137D-05-0.435D-04-0.377D-03-0.902D-03-0.116D-02 0.111D-02
 Coeff:      0.169D-01 0.127D+00 0.273D+00 0.585D+00
 Gap=     0.158 Goal=   None    Shift=    0.000
 RMSDP=1.95D-07 MaxDP=1.04D-05 DE=-6.64D-08 OVMax= 1.52D-05

 Cycle  11  Pass 1  IDiag  1:
 E= -1735.52092031697     Delta-E=       -0.000000002545 Rises=F Damp=F
 DIIS: error= 7.26D-07 at cycle  11 NSaved=  11.
 NSaved=11 IEnMin=11 EnMin= -1735.52092031697     IErMin=11 ErrMin= 7.26D-07
 ErrMax= 7.26D-07  0.00D+00 EMaxC= 1.00D-01 BMatC= 4.49D-10 BMatP= 2.94D-09
 IDIUse=1 WtCom= 1.00D+00 WtEn= 0.00D+00
 Coeff-Com:  0.386D-06 0.129D-05-0.111D-03-0.297D-03-0.637D-03-0.108D-02
 Coeff-Com: -0.429D-03 0.158D-01 0.482D-01 0.296D+00 0.643D+00
 Coeff:      0.386D-06 0.129D-05-0.111D-03-0.297D-03-0.637D-03-0.108D-02
 Coeff:     -0.429D-03 0.158D-01 0.482D-01 0.296D+00 0.643D+00
 Gap=     0.158 Goal=   None    Shift=    0.000
 RMSDP=7.14D-08 MaxDP=4.64D-06 DE=-2.55D-09 OVMax= 5.22D-06

 Cycle  12  Pass 1  IDiag  1:
 E= -1735.52092031735     Delta-E=       -0.000000000378 Rises=F Damp=F
 DIIS: error= 3.25D-07 at cycle  12 NSaved=  12.
 NSaved=12 IEnMin=12 EnMin= -1735.52092031735     IErMin=12 ErrMin= 3.25D-07
 ErrMax= 3.25D-07  0.00D+00 EMaxC= 1.00D-01 BMatC= 6.20D-11 BMatP= 4.49D-10
 IDIUse=1 WtCom= 1.00D+00 WtEn= 0.00D+00
 Coeff-Com: -0.244D-06 0.487D-05-0.318D-04-0.880D-04-0.260D-03-0.683D-03
 Coeff-Com: -0.169D-02-0.178D-02 0.251D-02 0.114D+00 0.356D+00 0.532D+00
 Coeff:     -0.244D-06 0.487D-05-0.318D-04-0.880D-04-0.260D-03-0.683D-03
 Coeff:     -0.169D-02-0.178D-02 0.251D-02 0.114D+00 0.356D+00 0.532D+00
 Gap=     0.158 Goal=   None    Shift=    0.000
 RMSDP=2.92D-08 MaxDP=2.28D-06 DE=-3.78D-10 OVMax= 3.52D-06

 Cycle  13  Pass 1  IDiag  1:
 E= -1735.52092031739     Delta-E=       -0.000000000043 Rises=F Damp=F
 DIIS: error= 9.90D-08 at cycle  13 NSaved=  13.
 NSaved=13 IEnMin=13 EnMin= -1735.52092031739     IErMin=13 ErrMin= 9.90D-08
 ErrMax= 9.90D-08  0.00D+00 EMaxC= 1.00D-01 BMatC= 7.69D-12 BMatP= 6.20D-11
 IDIUse=1 WtCom= 1.00D+00 WtEn= 0.00D+00
 Coeff-Com: -0.239D-06 0.251D-05-0.339D-05-0.897D-05-0.603D-04-0.234D-03
 Coeff-Com: -0.908D-03-0.316D-02-0.548D-02 0.215D-01 0.103D+00 0.303D+00
 Coeff-Com:  0.581D+00
 Coeff:     -0.239D-06 0.251D-05-0.339D-05-0.897D-05-0.603D-04-0.234D-03
 Coeff:     -0.908D-03-0.316D-02-0.548D-02 0.215D-01 0.103D+00 0.303D+00
 Coeff:      0.581D+00
 Gap=     0.158 Goal=   None    Shift=    0.000
 RMSDP=9.97D-09 MaxDP=4.90D-07 DE=-4.32D-11 OVMax= 6.92D-07

 Error on total polarization charges =  0.02230
 SCF Done:  E(RB3LYP) =  -1735.52092032     A.U. after   13 cycles
            NFock= 13  Conv=0.10D-07     -V/T= 2.0068
 KE= 1.723837764660D+03 PE=-8.710065639156D+03 EE= 2.947027797573D+03
 Leave Link  502 at Mon Sep 21 05:46:42 2020, MaxMem=  2147483648 cpu:             507.2 elap:             126.9
 (Enter /prod/apps/gaussian/g16b1/l601.exe)
 Copying SCF densities to generalized density rwf, IOpCl= 0 IROHF=0.

 **********************************************************************

            Population analysis using the SCF Density.

 **********************************************************************

 Alpha  occ. eigenvalues --  -89.07486 -88.97314 -19.11674 -19.11094 -19.10887
 Alpha  occ. eigenvalues --  -14.26216 -10.22272 -10.21109 -10.19985 -10.19869
 Alpha  occ. eigenvalues --  -10.19748 -10.19722 -10.19624 -10.19575 -10.19529
 Alpha  occ. eigenvalues --  -10.18968 -10.18486 -10.18444 -10.18302 -10.18107
 Alpha  occ. eigenvalues --  -10.18102 -10.17848 -10.16549  -8.09872  -8.02165
 Alpha  occ. eigenvalues --   -6.06398  -6.06280  -6.06192  -5.98594  -5.98366
 Alpha  occ. eigenvalues --   -5.97945  -1.07797  -0.99780  -0.97369  -0.86453
 Alpha  occ. eigenvalues --   -0.86051  -0.84831  -0.78779  -0.77508  -0.75724
 Alpha  occ. eigenvalues --   -0.75230  -0.73752  -0.71937  -0.68216  -0.66211
 Alpha  occ. eigenvalues --   -0.63203  -0.61113  -0.60545  -0.59696  -0.57123
 Alpha  occ. eigenvalues --   -0.56800  -0.53623  -0.51484  -0.50344  -0.48423
 Alpha  occ. eigenvalues --   -0.47255  -0.46188  -0.45735  -0.45201  -0.44444
 Alpha  occ. eigenvalues --   -0.44407  -0.43159  -0.42779  -0.42501  -0.42168
 Alpha  occ. eigenvalues --   -0.41658  -0.41208  -0.39786  -0.38825  -0.38024
 Alpha  occ. eigenvalues --   -0.37310  -0.37054  -0.36703  -0.35982  -0.35355
 Alpha  occ. eigenvalues --   -0.35059  -0.33510  -0.33087  -0.32706  -0.32193
 Alpha  occ. eigenvalues --   -0.31044  -0.30292  -0.29291  -0.27975  -0.26441
 Alpha  occ. eigenvalues --   -0.25906  -0.25600  -0.24678  -0.23851  -0.22603
 Alpha  occ. eigenvalues --   -0.21356  -0.17961
 Alpha virt. eigenvalues --   -0.02160  -0.00817   0.00256   0.00519   0.01908
 Alpha virt. eigenvalues --    0.04244   0.07827   0.08652   0.10040   0.10679
 Alpha virt. eigenvalues --    0.11626   0.12161   0.13109   0.13824   0.13869
 Alpha virt. eigenvalues --    0.14210   0.15029   0.15280   0.16218   0.16534
 Alpha virt. eigenvalues --    0.16724   0.17587   0.17749   0.18251   0.18714
 Alpha virt. eigenvalues --    0.19254   0.19933   0.20653   0.21547   0.21814
 Alpha virt. eigenvalues --    0.22794   0.23172   0.24790   0.25062   0.27708
 Alpha virt. eigenvalues --    0.28106   0.29678   0.30217   0.31215   0.31348
 Alpha virt. eigenvalues --    0.31701   0.33079   0.33605   0.33950   0.34516
 Alpha virt. eigenvalues --    0.35440   0.36135   0.37066   0.38377   0.40983
 Alpha virt. eigenvalues --    0.43230   0.44893   0.45234   0.47652   0.49372
 Alpha virt. eigenvalues --    0.51344   0.52302   0.53063   0.54149   0.54247
 Alpha virt. eigenvalues --    0.54514   0.55591   0.55979   0.56443   0.57069
 Alpha virt. eigenvalues --    0.57743   0.58583   0.58846   0.59373   0.59726
 Alpha virt. eigenvalues --    0.60298   0.60604   0.60905   0.61107   0.61221
 Alpha virt. eigenvalues --    0.61787   0.62099   0.62424   0.62555   0.63354
 Alpha virt. eigenvalues --    0.63949   0.65121   0.65222   0.65378   0.66835
 Alpha virt. eigenvalues --    0.68201   0.70444   0.71492   0.71660   0.73156
 Alpha virt. eigenvalues --    0.74609   0.76357   0.76474   0.77996   0.79836
 Alpha virt. eigenvalues --    0.80256   0.80822   0.82455   0.82808   0.82991
 Alpha virt. eigenvalues --    0.83753   0.84126   0.84676   0.84806   0.84990
 Alpha virt. eigenvalues --    0.85382   0.85792   0.87414   0.87879   0.88094
 Alpha virt. eigenvalues --    0.88842   0.89260   0.90008   0.90562   0.91858
 Alpha virt. eigenvalues --    0.92544   0.92712   0.93166   0.94455   0.94864
 Alpha virt. eigenvalues --    0.95374   0.96021   0.96248   0.96946   0.98043
 Alpha virt. eigenvalues --    0.98992   1.00239   1.01494   1.02472   1.03335
 Alpha virt. eigenvalues --    1.03529   1.04955   1.06393   1.07190   1.08123
 Alpha virt. eigenvalues --    1.10113   1.11361   1.11622   1.12380   1.12917
 Alpha virt. eigenvalues --    1.14488   1.15616   1.15887   1.16597   1.17434
 Alpha virt. eigenvalues --    1.18545   1.19232   1.20389   1.21081   1.23165
 Alpha virt. eigenvalues --    1.24541   1.25379   1.25993   1.26832   1.27880
 Alpha virt. eigenvalues --    1.31141   1.33083   1.36578   1.38098   1.40389
 Alpha virt. eigenvalues --    1.42879   1.43525   1.43829   1.44601   1.45598
 Alpha virt. eigenvalues --    1.45931   1.47164   1.48634   1.49080   1.49874
 Alpha virt. eigenvalues --    1.50172   1.51695   1.52003   1.52979   1.55175
 Alpha virt. eigenvalues --    1.57431   1.62415   1.68191   1.68299   1.71651
 Alpha virt. eigenvalues --    1.75842   1.76510   1.77397   1.78833   1.80095
 Alpha virt. eigenvalues --    1.80410   1.81061   1.82363   1.83041   1.83520
 Alpha virt. eigenvalues --    1.83764   1.85042   1.86007   1.86924   1.87165
 Alpha virt. eigenvalues --    1.88829   1.89305   1.90301   1.91519   1.92338
 Alpha virt. eigenvalues --    1.93016   1.93989   1.95104   1.96279   1.97030
 Alpha virt. eigenvalues --    1.97583   1.98540   2.00043   2.00695   2.01861
 Alpha virt. eigenvalues --    2.03093   2.04048   2.05225   2.06649   2.09394
 Alpha virt. eigenvalues --    2.09932   2.10202   2.12756   2.13405   2.13603
 Alpha virt. eigenvalues --    2.14357   2.15000   2.15154   2.15394   2.15771
 Alpha virt. eigenvalues --    2.16341   2.18196   2.18798   2.20029   2.22280
 Alpha virt. eigenvalues --    2.23252   2.27465   2.28318   2.29246   2.30061
 Alpha virt. eigenvalues --    2.30733   2.31090   2.31699   2.32491   2.34342
 Alpha virt. eigenvalues --    2.35111   2.39500   2.43648   2.44014   2.50256
 Alpha virt. eigenvalues --    2.53538   2.56886   2.58206   2.58822   2.59278
 Alpha virt. eigenvalues --    2.59648   2.64438   2.65996   2.67125   2.71448
 Alpha virt. eigenvalues --    2.71855   2.72692   2.73437   2.73516   2.74685
 Alpha virt. eigenvalues --    2.75338   2.76258   2.76738   2.77059   2.78552
 Alpha virt. eigenvalues --    2.79969   2.80864   2.85412   2.90231   2.95054
 Alpha virt. eigenvalues --    3.03677   3.06190   3.38173   3.41518   3.78229
 Alpha virt. eigenvalues --    3.83190   3.94338   3.98970   4.05325   4.07004
 Alpha virt. eigenvalues --    4.09195   4.11053   4.11651   4.13043   4.16831
 Alpha virt. eigenvalues --    4.18915   4.24369   4.27050   4.32716   4.33960
 Alpha virt. eigenvalues --    4.34420   4.36749   4.44686   4.55964   4.66296
 Alpha virt. eigenvalues --    4.70417   4.76812
          Condensed to atoms (all electrons):
               1          2          3          4          5          6
     1  O    8.404473   0.371425  -0.077433   0.000185  -0.000027   0.000020
     2  S    0.371425  13.736795   0.332754  -0.005506  -0.000129   0.000649
     3  N   -0.077433   0.332754   7.573595   0.262942  -0.055789   0.005433
     4  C    0.000185  -0.005506   0.262942   4.792230   0.329838  -0.068315
     5  C   -0.000027  -0.000129  -0.055789   0.329838   5.698259   0.077158
     6  S    0.000020   0.000649   0.005433  -0.068315   0.077158  14.939282
     7  O   -0.000000  -0.000001  -0.000044   0.000511  -0.037950   0.283902
     8  C   -0.000275  -0.014719  -0.045176   0.298071  -0.126814   0.082324
     9  C   -0.004072  -0.006964  -0.074504   0.348483  -0.069471   0.013582
    10  C   -0.000746  -0.000728  -0.000130  -0.029119  -0.010550  -0.000429
    11  C   -0.000258   0.001672   0.002697  -0.003471  -0.000359  -0.000006
    12  C    0.002391   0.001270  -0.000767  -0.000312  -0.000006   0.000002
    13  C   -0.000304   0.000153  -0.000015  -0.000001   0.000000  -0.000000
    14  C   -0.000017   0.000239   0.000035   0.000001   0.000000  -0.000000
    15  C    0.000018   0.000248  -0.000342  -0.000014   0.000002   0.000000
    16  C   -0.000229   0.002400   0.002803   0.000595   0.000055  -0.000001
    17  C   -0.060705   0.117946  -0.064406  -0.003890  -0.000136   0.000047
    18  C    0.002345  -0.024485  -0.001071  -0.000136   0.000006   0.000027
    19  C    0.000728   0.001396  -0.000125   0.000008  -0.000001   0.000001
    20  C   -0.000005  -0.000609   0.000001   0.000005   0.000000  -0.000000
    21  C   -0.000046   0.002772  -0.000047   0.000006  -0.000000  -0.000004
    22  C    0.001934  -0.025475  -0.002777  -0.000134  -0.000026  -0.000034
    23  O   -0.040983   0.427037  -0.070903   0.002938  -0.000046   0.000001
    24  H    0.000001  -0.000006   0.001549  -0.026045   0.344919  -0.017128
    25  H    0.000008   0.000868   0.007334  -0.027280   0.313534  -0.005301
    26  H   -0.000099   0.000897   0.001348  -0.025774   0.010793  -0.017955
    27  H    0.000118  -0.000118  -0.000781  -0.028374   0.001728  -0.008580
    28  H    0.000123   0.000360   0.004767  -0.032795  -0.006378   0.002340
    29  H    0.012872   0.001309  -0.006164  -0.029331   0.005635  -0.000548
    30  H   -0.000017  -0.000023  -0.000272  -0.007513   0.002575  -0.000193
    31  H   -0.000001   0.000034   0.000124   0.004314   0.000258   0.000011
    32  H    0.000018   0.000051   0.000010   0.000057   0.000000  -0.000000
    33  H   -0.000005   0.000000  -0.000000   0.000000  -0.000000   0.000000
    34  H   -0.000000   0.000000   0.000000  -0.000000   0.000000  -0.000000
    35  H    0.000000  -0.000002  -0.000006   0.000001  -0.000000   0.000000
    36  H    0.000001   0.000152   0.001359  -0.000124   0.000145   0.000004
    37  H    0.014091  -0.003523   0.000254   0.000052   0.000006  -0.000002
    38  H    0.000002  -0.000009   0.000001   0.000000   0.000000   0.000000
    39  H    0.000000   0.000006  -0.000000  -0.000000  -0.000000  -0.000000
    40  H    0.000000  -0.000031   0.000002   0.000000   0.000000   0.000000
    41  H    0.000080   0.000751   0.000517   0.000031   0.000003  -0.000000
               7          8          9         10         11         12
     1  O   -0.000000  -0.000275  -0.004072  -0.000746  -0.000258   0.002391
     2  S   -0.000001  -0.014719  -0.006964  -0.000728   0.001672   0.001270
     3  N   -0.000044  -0.045176  -0.074504  -0.000130   0.002697  -0.000767
     4  C    0.000511   0.298071   0.348483  -0.029119  -0.003471  -0.000312
     5  C   -0.037950  -0.126814  -0.069471  -0.010550  -0.000359  -0.000006
     6  S    0.283902   0.082324   0.013582  -0.000429  -0.000006   0.000002
     7  O    8.477447  -0.038376  -0.008559  -0.000041  -0.000003   0.000000
     8  C   -0.038376   5.707883  -0.062913   0.004991   0.000053  -0.000005
     9  C   -0.008559  -0.062913   5.236492   0.334941  -0.030529  -0.004849
    10  C   -0.000041   0.004991   0.334941   5.178274   0.354515  -0.062534
    11  C   -0.000003   0.000053  -0.030529   0.354515   4.628127   0.537346
    12  C    0.000000  -0.000005  -0.004849  -0.062534   0.537346   5.005066
    13  C    0.000000  -0.000000   0.000057   0.006417  -0.018785   0.518405
    14  C   -0.000000   0.000000   0.000010   0.000281  -0.034490  -0.038033
    15  C    0.000000  -0.000000  -0.000134   0.007212  -0.022076  -0.047647
    16  C   -0.000000   0.000000  -0.000350  -0.051853   0.545222  -0.041680
    17  C   -0.000000   0.003028  -0.000687   0.000005  -0.000004   0.000001
    18  C   -0.000000   0.000820  -0.000034   0.000000   0.000000  -0.000000
    19  C   -0.000000   0.000058   0.000000   0.000000  -0.000000  -0.000000
    20  C    0.000000  -0.000005  -0.000000  -0.000000  -0.000000  -0.000000
    21  C    0.000000  -0.000105   0.000000  -0.000000  -0.000000   0.000000
    22  C   -0.000000  -0.000378  -0.000001   0.000000   0.000000   0.000000
    23  O   -0.000000  -0.000092  -0.000190   0.000021  -0.000197  -0.000013
    24  H    0.000386   0.010410  -0.007892   0.001396   0.000272   0.000004
    25  H    0.001292   0.003245   0.006392  -0.000012  -0.000010   0.000000
    26  H   -0.000092   0.346968  -0.004972   0.000092  -0.000007  -0.000000
    27  H    0.001315   0.325941   0.005339  -0.000107   0.000000   0.000000
    28  H    0.025111  -0.006361   0.317911  -0.030270   0.004136   0.000123
    29  H    0.000244  -0.003879   0.356218  -0.034388  -0.007321   0.002632
    30  H    0.000075   0.000144  -0.041112   0.360390  -0.035379   0.004646
    31  H   -0.000007  -0.000145  -0.034734   0.359293  -0.032573  -0.006160
    32  H    0.000000   0.000001   0.001117  -0.009052  -0.045019   0.358380
    33  H   -0.000000   0.000000  -0.000000  -0.000169   0.003573  -0.039489
    34  H    0.000000   0.000000   0.000000   0.000006   0.000633   0.004621
    35  H    0.000000  -0.000000   0.000001  -0.000171   0.003685   0.000745
    36  H    0.000000   0.000008   0.000134  -0.010972  -0.042086   0.006498
    37  H    0.000000   0.000111  -0.000070   0.000000   0.000000  -0.000000
    38  H   -0.000000  -0.000003   0.000000  -0.000000   0.000000   0.000000
    39  H   -0.000000   0.000000  -0.000000   0.000000  -0.000000   0.000000
    40  H   -0.000000  -0.000000  -0.000000  -0.000000   0.000000  -0.000000
    41  H   -0.000000  -0.000031   0.000001  -0.000000   0.000000   0.000000
              13         14         15         16         17         18
     1  O   -0.000304  -0.000017   0.000018  -0.000229  -0.060705   0.002345
     2  S    0.000153   0.000239   0.000248   0.002400   0.117946  -0.024485
     3  N   -0.000015   0.000035  -0.000342   0.002803  -0.064406  -0.001071
     4  C   -0.000001   0.000001  -0.000014   0.000595  -0.003890  -0.000136
     5  C    0.000000   0.000000   0.000002   0.000055  -0.000136   0.000006
     6  S   -0.000000  -0.000000   0.000000  -0.000001   0.000047   0.000027
     7  O    0.000000  -0.000000   0.000000  -0.000000  -0.000000  -0.000000
     8  C   -0.000000   0.000000  -0.000000   0.000000   0.003028   0.000820
     9  C    0.000057   0.000010  -0.000134  -0.000350  -0.000687  -0.000034
    10  C    0.006417   0.000281   0.007212  -0.051853   0.000005   0.000000
    11  C   -0.018785  -0.034490  -0.022076   0.545222  -0.000004   0.000000
    12  C    0.518405  -0.038033  -0.047647  -0.041680   0.000001  -0.000000
    13  C    4.903949   0.542919  -0.029548  -0.047452  -0.000000   0.000000
    14  C    0.542919   4.891173   0.546423  -0.037951   0.000000  -0.000000
    15  C   -0.029548   0.546423   4.910948   0.510764  -0.000000  -0.000000
    16  C   -0.047452  -0.037951   0.510764   5.002847   0.000004   0.000000
    17  C   -0.000000   0.000000  -0.000000   0.000004   5.416434   0.503695
    18  C    0.000000  -0.000000  -0.000000   0.000000   0.503695   4.974416
    19  C    0.000000   0.000000  -0.000000   0.000000  -0.030430   0.489683
    20  C   -0.000000   0.000000   0.000000   0.000000  -0.040171  -0.033172
[...]
    21  C   -0.001516   0.002284  -0.004792   0.016232   2.900886  -4.977741
    22  C    0.007277  -0.002548  -0.003481  -0.024535  -7.944257   1.990856
    23  O    0.046714  -0.030946   0.026149  -0.065545   0.135122   0.120426
    24  H   -0.001134   0.002064  -0.014292  -0.027528   0.009399  -0.009548
    25  H    0.002141  -0.002538   0.007429  -0.002184  -0.039810   0.000676
    26  H   -0.002443  -0.000082   0.000170   0.004129   0.007190   0.027835
    27  H    0.003876   0.000079  -0.003944  -0.016675  -0.116151  -0.022965
    28  H   -0.015844  -0.004599   0.017890   0.051970  -0.003305   0.003514
    29  H    0.023362  -0.008377  -0.001407   0.011078   0.026924  -0.048349
    30  H   -0.026276  -0.022643   0.181385   0.137481  -0.004309   0.008277
    31  H    0.036268   0.022267  -0.082126   0.042466  -0.005055   0.000547
    32  H    0.518903  -0.194231   0.143379  -0.129565   0.001685   0.000144
    33  H   -0.943182   0.367393  -0.251196   0.112439  -0.002170  -0.000229
    34  H    0.400527  -0.779296   0.411680  -0.086650   0.000561  -0.000356
    35  H   -0.213855   0.406701  -0.853431   0.598187  -0.000497  -0.000031
    36  H    0.057557  -0.110880   0.385906  -1.380414   0.003937  -0.000469
    37  H   -0.004328   0.000810  -0.000173   0.005261   0.415539  -1.219055
    38  H    0.000136  -0.000061   0.000040  -0.000110  -0.126605   0.783851
    39  H    0.000008  -0.000007   0.000006  -0.000083   0.136773  -0.156909
    40  H   -0.000130   0.000141  -0.000333   0.001263  -0.171282   0.134040
    41  H   -0.000706   0.000313   0.003741  -0.010695   0.779639  -0.141105
              19         20         21         22         23         24
     1  O   -0.033149  -0.004261  -0.001354  -0.108769   0.042817   0.000989
     2  S    0.003029  -0.141068   0.334811   0.061622  -0.663804  -0.021501
     3  N    0.002375   0.034484  -0.363373   0.083002   0.166749   0.190914
     4  C   -0.070333  -0.002834   0.177507  -0.855527   0.229319  -0.494784
     5  C   -0.030201  -0.007660   0.001441   0.040441   0.022967   0.184260
     6  S    0.002964  -0.000944  -0.019552   0.007845   0.002991   0.113854
     7  O   -0.000076  -0.000044   0.001670   0.001246  -0.000043   0.001447
     8  C    0.140457  -0.022428  -0.067312   0.158334   0.001044   0.163376
     9  C   -0.040466   0.017012   0.032560   0.097185  -0.055471   0.168659
    10  C    0.001031   0.003339   0.000362  -0.011399   0.014519  -0.111915
    11  C    0.000075   0.004333  -0.017117   0.018776   0.026187  -0.017041
    12  C   -0.004605  -0.001287   0.011080   0.004870  -0.002822   0.024461
    13  C   -0.000499   0.000404  -0.001516   0.007277   0.046714  -0.001134
    14  C   -0.000614  -0.000491   0.002284  -0.002548  -0.030946   0.002064
    15  C    0.001143   0.000183  -0.004792  -0.003481   0.026149  -0.014292
    16  C    0.001665  -0.003981   0.016232  -0.024535  -0.065545  -0.027528
    17  C    3.036736  -4.580721   2.900886  -7.944257   0.135122   0.009399
    18  C   -5.304598   3.823273  -4.977741   1.990856   0.120426  -0.009548
    19  C   13.151313  -4.147106   4.322717  -5.279048   0.025737   0.001676
    20  C   -4.147106  10.760293  -4.080848   4.053725  -0.001957  -0.002908
    21  C    4.322717  -4.080848  14.284917  -6.491872  -0.003099   0.000831
    22  C   -5.279048   4.053725  -6.491872  20.767018  -0.192870   0.003064
    23  O    0.025737  -0.001957  -0.003099  -0.192870   9.414065   0.003179
    24  H    0.001676  -0.002908   0.000831   0.003064   0.003179   1.371373
    25  H   -0.010273   0.007649   0.027381   0.007969  -0.000746  -0.301103
    26  H   -0.003173   0.002940  -0.006434  -0.019904   0.000806  -0.005916
    27  H   -0.018666   0.043806  -0.016064   0.078780   0.003301   0.026421
    28  H   -0.001978   0.000994  -0.001322   0.014211  -0.001523  -0.063042
    29  H    0.005875  -0.004150   0.002838  -0.018081  -0.009639   0.053622
    30  H   -0.000923   0.002055  -0.005012   0.007935   0.000390  -0.021414
    31  H    0.000213  -0.000082   0.000301  -0.000749   0.000527   0.011247
    32  H   -0.001289   0.000021   0.000935   0.001370  -0.000011  -0.001861
    33  H    0.000227  -0.000034  -0.000078  -0.000066  -0.000103  -0.000180
    34  H   -0.000051  -0.000042   0.000189  -0.000150  -0.000409   0.000023
    35  H   -0.000015   0.000054  -0.000086   0.000674   0.003813  -0.000298
    36  H    0.000906  -0.001372   0.003562  -0.015888  -0.006776   0.002688
    37  H    0.572840  -0.148242   0.094555  -0.127296   0.002656  -0.000925
    38  H   -0.949779   0.340600  -0.319888   0.139510   0.000300   0.000094
    39  H    0.417075  -0.792695   0.438697  -0.127835  -0.000229  -0.000071
    40  H   -0.294707   0.345185  -0.863745   0.735290  -0.001354  -0.000240
    41  H    0.193365  -0.269435   0.426494  -1.486286   0.034294   0.001284
              25         26         27         28         29         30
     1  O   -0.004517   0.022225   0.053177  -0.010328  -0.008432   0.011778
     2  S    0.019506  -0.066609  -0.095433   0.004793   0.141834   0.018224
     3  N   -0.146545   0.050029   0.198949   0.026460  -0.007441   0.028418
     4  C   -0.150006   0.061251  -0.809000  -0.659755   0.038058   0.117049
     5  C    0.285609   0.085198   0.091758   0.145083   0.108687  -0.177180
     6  S   -0.216701   0.067496  -0.228174  -0.054349  -0.002453  -0.004758
     7  O    0.019252   0.015286  -0.005167   0.022917  -0.004899   0.004054
     8  C    0.035888  -0.227199   0.557775  -0.018196  -0.041161   0.042480
     9  C    0.165017  -0.007744   0.094830  -0.027721  -0.090460  -0.360112
    10  C    0.086232   0.157299  -0.082184   0.285578  -0.483201  -0.331613
    11  C   -0.008232  -0.042136   0.021502   0.079187  -0.143509   0.178935
    12  C   -0.007367   0.012431  -0.008445  -0.040636  -0.114909  -0.204371
    13  C    0.002141  -0.002443   0.003876  -0.015844   0.023362  -0.026276
    14  C   -0.002538  -0.000082   0.000079  -0.004599  -0.008377  -0.022643
    15  C    0.007429   0.000170  -0.003944   0.017890  -0.001407   0.181385
    16  C   -0.002184   0.004129  -0.016675   0.051970   0.011078   0.137481
    17  C   -0.039810   0.007190  -0.116151  -0.003305   0.026924  -0.004309
    18  C    0.000676   0.027835  -0.022965   0.003514  -0.048349   0.008277
    19  C   -0.010273  -0.003173  -0.018666  -0.001978   0.005875  -0.000923
    20  C    0.007649   0.002940   0.043806   0.000994  -0.004150   0.002055
    21  C    0.027381  -0.006434  -0.016064  -0.001322   0.002838  -0.005012
    22  C    0.007969  -0.019904   0.078780   0.014211  -0.018081   0.007935
    23  O   -0.000746   0.000806   0.003301  -0.001523  -0.009639   0.000390
    24  H   -0.301103  -0.005916   0.026421  -0.063042   0.053622  -0.021414
    25  H    1.463187   0.014076   0.028453   0.032508  -0.012088   0.008849
    26  H    0.014076   1.499629  -0.256906  -0.042197  -0.030807   0.014702
    27  H    0.028453  -0.256906   1.691134   0.014082   0.030430  -0.004720
    28  H    0.032508  -0.042197   0.014082   2.072978  -0.579102   0.093573
    29  H   -0.012088  -0.030807   0.030430  -0.579102   2.401704  -0.003346
    30  H    0.008849   0.014702  -0.004720   0.093573  -0.003346   2.001097
    31  H    0.001095   0.005673  -0.001044  -0.217369   0.100618  -0.296546
    32  H   -0.000412   0.002891  -0.002197   0.020684  -0.068464   0.020891
    33  H    0.000091  -0.000229   0.000211   0.000802   0.002533  -0.001580
    34  H   -0.000113   0.000029  -0.000079   0.000009  -0.000513   0.000724
    35  H    0.000359  -0.000048   0.000024  -0.000044  -0.000107   0.004221
    36  H   -0.004632  -0.000287  -0.001175  -0.004191   0.002821  -0.057997
    37  H    0.000870   0.000425  -0.006814   0.002119  -0.006581   0.000390
    38  H   -0.000350  -0.000240   0.005008  -0.000136   0.000489   0.000000
    39  H    0.000076   0.000371  -0.004523  -0.000003  -0.000156   0.000055
    40  H    0.002789  -0.000822  -0.001090   0.000083   0.000075  -0.000481
    41  H   -0.016517  -0.003061   0.003513  -0.000751  -0.000066   0.003176
              31         32         33         34         35         36
     1  O    0.000789  -0.003236   0.001281  -0.000540   0.000809  -0.004636
     2  S   -0.004419   0.027693   0.009116   0.000624  -0.000924   0.058970
     3  N    0.001351   0.020166  -0.002718  -0.000115   0.002670  -0.049958
     4  C    0.269084  -0.020743   0.002905  -0.003836   0.006680   0.037668
     5  C    0.001784  -0.013411   0.000285  -0.000934   0.000209  -0.029518
     6  S   -0.003855  -0.000229   0.000047  -0.000025  -0.000060  -0.000885
     7  O    0.001994   0.001450  -0.000041   0.000005  -0.000008  -0.000092
     8  C   -0.017291  -0.001157  -0.000194   0.000163  -0.001781  -0.000242
     9  C   -0.108298  -0.073802   0.017639  -0.001636  -0.005700  -0.057989
    10  C    0.129211  -0.088806   0.008019  -0.003060   0.004212   0.099294
    11  C   -0.306496   0.861427  -0.071493   0.057269  -0.128855   0.560921
    12  C    0.131649  -1.433427   0.655467  -0.074523   0.093455   0.005317
    13  C    0.036268   0.518903  -0.943182   0.400527  -0.213855   0.057557
    14  C    0.022267  -0.194231   0.367393  -0.779296   0.406701  -0.110880
    15  C   -0.082126   0.143379  -0.251196   0.411680  -0.853431   0.385906
    16  C    0.042466  -0.129565   0.112439  -0.086650   0.598187  -1.380414
    17  C   -0.005055   0.001685  -0.002170   0.000561  -0.000497   0.003937
    18  C    0.000547   0.000144  -0.000229  -0.000356  -0.000031  -0.000469
    19  C    0.000213  -0.001289   0.000227  -0.000051  -0.000015   0.000906
    20  C   -0.000082   0.000021  -0.000034  -0.000042   0.000054  -0.001372
    21  C    0.000301   0.000935  -0.000078   0.000189  -0.000086   0.003562
    22  C   -0.000749   0.001370  -0.000066  -0.000150   0.000674  -0.015888
    23  O    0.000527  -0.000011  -0.000103  -0.000409   0.003813  -0.006776
    24  H    0.011247  -0.001861  -0.000180   0.000023  -0.000298   0.002688
    25  H    0.001095  -0.000412   0.000091  -0.000113   0.000359  -0.004632
    26  H    0.005673   0.002891  -0.000229   0.000029  -0.000048  -0.000287
    27  H   -0.001044  -0.002197   0.000211  -0.000079   0.000024  -0.001175
    28  H   -0.217369   0.020684   0.000802   0.000009  -0.000044  -0.004191
    29  H    0.100618  -0.068464   0.002533  -0.000513  -0.000107   0.002821
    30  H   -0.296546   0.020891  -0.001580   0.000724   0.004221  -0.057997
    31  H    1.400516  -0.029083  -0.002369   0.000953  -0.001524   0.029404
    32  H   -0.029083   2.302095  -0.087657  -0.014197   0.010210  -0.023027
    33  H   -0.002369  -0.087657   1.768288  -0.055512  -0.019020   0.009688
    34  H    0.000953  -0.014197  -0.055512   1.695329  -0.051285  -0.015747
    35  H   -0.001524   0.010210  -0.019020  -0.051285   1.751071  -0.094809
    36  H    0.029404  -0.023027   0.009688  -0.015747  -0.094809   2.312995
    37  H    0.000049   0.001127  -0.000214   0.000056   0.000010   0.000435
    38  H    0.000010  -0.000060   0.000018  -0.000002   0.000004  -0.000016
    39  H    0.000004   0.000006  -0.000001  -0.000001   0.000001  -0.000032
    40  H    0.000019   0.000046  -0.000007   0.000010  -0.000038   0.000501
    41  H    0.000078   0.000081   0.000011   0.000009  -0.000015   0.000372
              37         38         39         40         41
     1  O   -0.060318   0.000510  -0.000053  -0.000945   0.024170
     2  S    0.147025   0.007713   0.006989   0.027919  -0.078625
     3  N   -0.024165   0.003750   0.000918  -0.018108   0.009146
     4  C    0.001590  -0.003582  -0.000810   0.025248   0.126565
     5  C   -0.004566  -0.000709  -0.000327   0.000705  -0.098405
     6  S   -0.000501   0.000179   0.000062  -0.000742  -0.000996
     7  O   -0.000215   0.000036  -0.000011   0.000066  -0.000597
     8  C   -0.004098   0.000998  -0.000513  -0.011074  -0.033287
     9  C   -0.009297  -0.000604   0.000232   0.002326  -0.028968
    10  C    0.005912   0.000132   0.000229  -0.000131   0.014714
    11  C   -0.007894  -0.000060   0.000044  -0.001193   0.004228
    12  C    0.007061  -0.000074  -0.000004   0.000472  -0.001800
    13  C   -0.004328   0.000136   0.000008  -0.000130  -0.000706
    14  C    0.000810  -0.000061  -0.000007   0.000141   0.000313
    15  C   -0.000173   0.000040   0.000006  -0.000333   0.003741
    16  C    0.005261  -0.000110  -0.000083   0.001263  -0.010695
    17  C    0.415539  -0.126605   0.136773  -0.171282   0.779639
    18  C   -1.219055   0.783851  -0.156909   0.134040  -0.141105
    19  C    0.572840  -0.949779   0.417075  -0.294707   0.193365
    20  C   -0.148242   0.340600  -0.792695   0.345185  -0.269435
    21  C    0.094555  -0.319888   0.438697  -0.863745   0.426494
    22  C   -0.127296   0.139510  -0.127835   0.735290  -1.486286
    23  O    0.002656   0.000300  -0.000229  -0.001354   0.034294
    24  H   -0.000925   0.000094  -0.000071  -0.000240   0.001284
    25  H    0.000870  -0.000350   0.000076   0.002789  -0.016517
    26  H    0.000425  -0.000240   0.000371  -0.000822  -0.003061
    27  H   -0.006814   0.005008  -0.004523  -0.001090   0.003513
    28  H    0.002119  -0.000136  -0.000003   0.000083  -0.000751
    29  H   -0.006581   0.000489  -0.000156   0.000075  -0.000066
    30  H    0.000390   0.000000   0.000055  -0.000481   0.003176
    31  H    0.000049   0.000010   0.000004   0.000019   0.000078
    32  H    0.001127  -0.000060   0.000006   0.000046   0.000081
    33  H   -0.000214   0.000018  -0.000001  -0.000007   0.000011
    34  H    0.000056  -0.000002  -0.000001   0.000010   0.000009
    35  H    0.000010   0.000004   0.000001  -0.000038  -0.000015
    36  H    0.000435  -0.000016  -0.000032   0.000501   0.000372
    37  H    2.139295  -0.108631  -0.015424   0.013428  -0.030444
    38  H   -0.108631   1.773943  -0.056513  -0.025432   0.017183
    39  H   -0.015424  -0.056513   1.699755  -0.055100  -0.016022
    40  H    0.013428  -0.025432  -0.055100   1.814761  -0.155257
    41  H   -0.030444   0.017183  -0.016022  -0.155257   2.440355
 Mulliken charges:
               1
     1  O   -1.387690
     2  S    2.859892
     3  N   -1.481370
     4  C   -0.287265
     5  C    0.616830
     6  S    1.456090
     7  O   -1.283459
     8  C    0.832242
     9  C    0.429261
    10  C    0.441324
    11  C    0.945075
    12  C    0.652438
    13  C    0.008697
    14  C    0.708749
    15  C    0.020580
    16  C    0.751558
    17  C    0.760617
    18  C    0.333164
    19  C    0.310129
    20  C    0.774239
    21  C    0.158956
    22  C    0.429561
    23  O   -1.286727
    24  H   -0.239222
    25  H   -0.292970
    26  H   -0.335845
    27  H   -0.245691
    28  H   -0.143042
    29  H   -0.263247
    30  H   -0.362855
    31  H   -0.111809
    32  H   -0.748343
    33  H   -0.518186
    34  H   -0.479089
    35  H   -0.510937
    36  H   -0.711912
    37  H   -0.632270
    38  H   -0.481649
    39  H   -0.473983
    40  H   -0.502154
    41  H   -0.709690
 Sum of Mulliken charges =  -1.00000
 Mulliken charges with hydrogens summed into heavy atoms:
               1
     1  O   -1.387690
     2  S    2.859892
     3  N   -1.481370
     4  C   -0.287265
     5  C    0.084638
     6  S    1.456090
     7  O   -1.283459
     8  C    0.250707
     9  C    0.022972
    10  C   -0.033341
    11  C    0.945075
    12  C   -0.095905
    13  C   -0.509489
    14  C    0.229660
    15  C   -0.490357
    16  C    0.039646
    17  C    0.760617
    18  C   -0.299105
    19  C   -0.171521
    20  C    0.300256
    21  C   -0.343198
    22  C   -0.280129
    23  O   -1.286727
 Electronic spatial extent (au):  <R**2>=           8612.6009
 Charge=             -1.0000 electrons
 Dipole moment (field-independent basis, Debye):
    X=             -2.6250    Y=             -0.3827    Z=              1.5177  Tot=              3.0563
 Quadrupole moment (field-independent basis, Debye-Ang):
   XX=           -169.8291   YY=           -209.9040   ZZ=           -154.3433
   XY=              6.1739   XZ=             -1.8153   YZ=              9.9657
 Traceless Quadrupole moment (field-independent basis, Debye-Ang):
   XX=              8.1963   YY=            -31.8785   ZZ=             23.6822
   XY=              6.1739   XZ=             -1.8153   YZ=              9.9657
 Octapole moment (field-independent basis, Debye-Ang**2):
  XXX=           -109.2044  YYY=           -150.8660  ZZZ=              3.9322  XYY=             36.6016
  XXY=             -4.9560  XXZ=            -11.9741  XZZ=             -5.7169  YZZ=              6.3003
  YYZ=             27.0878  XYZ=             -8.0488
 Hexadecapole moment (field-independent basis, Debye-Ang**3):
 XXXX=          -7735.9990 YYYY=          -5296.8627 ZZZZ=           -936.9844 XXXY=             49.5898
 XXXZ=            -67.0167 YYYX=             13.6357 YYYZ=            214.0220 ZZZX=             -7.7975
 ZZZY=              2.6703 XXYY=          -1877.7170 XXZZ=          -1283.7781 YYZZ=           -846.5399
 XXYZ=             18.4216 YYXZ=             21.6313 ZZXY=             -1.7615
 N-N= 2.299760570504D+03 E-N=-8.696734999979D+03  KE= 1.726633363652D+03
 Leave Link  601 at Mon Sep 21 08:44:10 2020, MaxMem=   262144000 cpu:               0.9 elap:               0.3
 (Enter /prod/apps/gaussian/g16b1/l9999.exe)
 1\1\GINC-PIRINEUS21\SP\RMP2-FC\Aug-CC-pVDZ\C17H18N1O3S2(1-)\UBAFAR01\2
 1-Sep-2020\0\\#p mp2/aug-cc-pVDZ scf=(MaxCycle=2000,NoVarAcc,NoIncFock
 ) maxdisk=120GB geom=allcheck\\SM36_m1.a.2.pdb.xyz\\-1,1\O,0,0.1181783
 357,-1.0467214338,1.640245448\S,0,0.3970001482,-1.1469177187,0.1718445
 698\N,0,0.0209355654,0.1207164013,-0.6899983853\C,0,0.0091214327,1.446
 6591882,-0.0790422075\C,0,0.2227664,2.5334384911,-1.176396631\S,0,1.38
 22397564,3.5417586068,-0.115851498\O,0,0.5968750485,4.6034990113,0.661
 7698443\C,0,1.2647340297,1.8922645776,0.7463759721\C,0,-1.2688910709,1
 .7549712818,0.7447172501\C,0,-2.6169040451,1.5891951486,-0.0000408175\
 C,0,-3.2391862296,0.2051179047,0.023024446\C,0,-3.6888722101,-0.355038
 602,1.2296455926\C,0,-4.2938540702,-1.6131021568,1.2604092553\C,0,-4.4
 666125189,-2.33898397,0.0781028088\C,0,-4.0273327846,-1.7937269295,-1.
 1305454552\C,0,-3.4200222915,-0.5353346725,-1.1537946552\C,0,2.1982816
 178,-1.4136219316,0.0772420266\C,0,2.9028753557,-1.8551350925,1.200375
 7744\C,0,4.2739646433,-2.1090249588,1.1043334815\C,0,4.938376803,-1.92
 71879392,-0.1106983727\C,0,4.2297692797,-1.4863688787,-1.2331300022\C,
 0,2.8613189886,-1.2283921925,-1.1414637799\O,0,-0.1696619271,-2.358938
 3427,-0.4920772555\H,0,-0.6418598529,3.1112837922,-1.5122444171\H,0,0.
 7851184618,2.1593486116,-2.0359013136\H,0,1.1562445211,1.9918127656,1.
 8292950899\H,0,2.1699525236,1.3286842401,0.5068712295\H,0,-1.192896168
 9,2.792610958,1.0913928993\H,0,-1.254786364,1.1206559889,1.6368442795\
 H,0,-2.5119151491,1.9184112889,-1.0408601608\H,0,-3.330344867,2.284314
 5066,0.4622858478\H,0,-3.5694647152,0.2038499808,2.1554108046\H,0,-4.6
 353460807,-2.024323109,2.2070008966\H,0,-4.9396118463,-3.3170859921,0.
 0993616836\H,0,-4.1562631648,-2.3470956143,-2.0572875843\H,0,-3.078163
 8383,-0.1213605818,-2.0994751518\H,0,2.3795098876,-1.9901749056,2.1407
 699656\H,0,4.8215070704,-2.4472357307,1.9798282039\H,0,6.0043388508,-2
 .1237195392,-0.1832715017\H,0,4.7436056739,-1.3398178468,-2.1792205111
 \H,0,2.3122748013,-0.8722846054,-2.0078476697\\Version=ES64L-G16RevB.0
 1\State=1-A\HF=-1728.3112682\MP2=-1731.7739309\RMSD=3.037e-09\PG=C01 [
 X(C17H18N1O3S2)]\\@


 ERWIN WITH HIS PSI CAN DO
 CALCULATIONS QUITE A FEW.
 BUT ONE THING HAS NOT BEEN SEEN
 JUST WHAT DOES PSI REALLY MEAN.
 -- WALTER HUCKEL, TRANS. BY FELIX BLOCH
 Job cpu time:       0 days  6 hours 18 minutes 15.3 seconds.
 Elapsed time:       0 days  1 hours 42 minutes 31.4 seconds.
 File lengths (MBytes):  RWF= 108044 Int=      0 D2E=      0 Chk=     41 Scr=      1
 Normal termination of Gaussian 16 at Mon Sep 21 08:44:12 2020.
