 Entering Gaussian System, Link 0=g16
 Initial command:
 /prod/apps/gaussian/g16b1/l1.exe "/tmp/ubafar01/1460050/Gau-140232.inp" -scrdir="/tmp/ubafar01/1460050/"
 Entering Link 1 = /prod/apps/gaussian/g16b1/l1.exe PID=    140234.
  
 Copyright (c) 1988-2017, Gaussian, Inc.  All Rights Reserved.
  
 This is part of the Gaussian(R) 16 program.  It is based on
 the Gaussian(R) 09 system (copyright 2009, Gaussian, Inc.),
 the Gaussian(R) 03 system (copyright 2003, Gaussian, Inc.),
 the Gaussian(R) 98 system (copyright 1998, Gaussian, Inc.),
 the Gaussian(R) 94 system (copyright 1995, Gaussian, Inc.),
 the Gaussian 92(TM) system (copyright 1992, Gaussian, Inc.),
 the Gaussian 90(TM) system (copyright 1990, Gaussian, Inc.),
 the Gaussian 88(TM) system (copyright 1988, Gaussian, Inc.),
 the Gaussian 86(TM) system (copyright 1986, Carnegie Mellon
 University), and the Gaussian 82(TM) system (copyright 1983,
 Carnegie Mellon University). Gaussian is a federally registered
 trademark of Gaussian, Inc.
  
 This software contains proprietary and confidential information,
 including trade secrets, belonging to Gaussian, Inc.
  
 This software is provided under written license and may be
 used, copied, transmitted, or stored only in accord with that
 written license.
  
 The following legend is applicable only to US Government
 contracts under FAR:
  
                    RESTRICTED RIGHTS LEGEND
  
 Use, reproduction and disclosure by the US Government is
 subject to restrictions as set forth in subparagraphs (a)
 and (c) of the Commercial Computer Software - Restricted
 Rights clause in FAR 52.227-19.
  
 Gaussian, Inc.
 340 Quinnipiac St., Bldg. 40, Wallingford CT 06492
  
  
 ---------------------------------------------------------------
 Warning -- This program may not be used in any manner that
 competes with the business of Gaussian, Inc. or will provide
 assistance to any competitor of Gaussian, Inc.  The licensee
 of this program is prohibited from giving any competitor of
 Gaussian, Inc. access to this program.  By using this program,
 the user acknowledges that Gaussian, Inc. is engaged in the
 business of creating and licensing software in the field of
 computational chemistry and represents and warrants to the
 licensee that it is not a competitor of Gaussian, Inc. and that
 it will not use this program in any manner prohibited above.
 ---------------------------------------------------------------
  

 Cite this work as:
 Gaussian 16, Revision B.01,
 M. J. Frisch, G. W. Trucks, H. B. Schlegel, G. E. Scuseria, 
 M. A. Robb, J. R. Cheeseman, G. Scalmani, V. Barone, 
 G. A. Petersson, H. Nakatsuji, X. Li, M. Caricato, A. V. Marenich, 
 J. Bloino, B. G. Janesko, R. Gomperts, B. Mennucci, H. P. Hratchian, 
 J. V. Ortiz, A. F. Izmaylov, J. L. Sonnenberg, D. Williams-Young, 
 F. Ding, F. Lipparini, F. Egidi, J. Goings, B. Peng, A. Petrone, 
 T. Henderson, D. Ranasinghe, V. G. Zakrzewski, J. Gao, N. Rega, 
 G. Zheng, W. Liang, M. Hada, M. Ehara, K. Toyota, R. Fukuda, 
 J. Hasegawa, M. Ishida, T. Nakajima, Y. Honda, O. Kitao, H. Nakai, 
 T. Vreven, K. Throssell, J. A. Montgomery, Jr., J. E. Peralta, 
 F. Ogliaro, M. J. Bearpark, J. J. Heyd, E. N. Brothers, K. N. Kudin, 
 V. N. Staroverov, T. A. Keith, R. Kobayashi, J. Normand, 
 K. Raghavachari, A. P. Rendell, J. C. Burant, S. S. Iyengar, 
 J. Tomasi, M. Cossi, J. M. Millam, M. Klene, C. Adamo, R. Cammi, 
 J. W. Ochterski, R. L. Martin, K. Morokuma, O. Farkas, 
 J. B. Foresman, and D. J. Fox, Gaussian, Inc., Wallingford CT, 2016.
 
 ******************************************
 Gaussian 16:  ES64L-G16RevB.01 20-Dec-2017
                21-Sep-2020 
 ******************************************
 %nproc=4
 Will use up to    4 processors via shared memory.
 %Chk=SM36_m0.n.12.pdb.xyz.mst.n.w.chk
 %mem=16GB
 ----------------------------------------------------------------------
 #p b3lyp/6-31G(d) opt freq NoSymm scf=(MaxCycle=2000,NoVarAcc,NoIncFoc
 k) scrf=(iefpcm,read,solvent=water)
 ----------------------------------------------------------------------
 1/18=20,19=15,26=3,38=1,40=2/1,3;
 2/9=110,12=2,15=1,17=6,18=5,40=1/2;
 3/5=1,6=6,7=1,11=2,25=1,30=1,70=2203,71=1,72=1,74=-5/1,2,3;
 4//1;
 5/5=100002,7=2000,38=1,53=1/2;
 6/7=2,8=2,9=2,10=2,28=1/1;
 7/30=1/1,2,3,16;
 1/18=20,19=15,26=3/3(2);
 2/9=110,15=1/2;
 99//99;
 2/9=110,15=1/2;
 3/5=1,6=6,7=1,11=2,25=1,30=1,70=2205,71=1,72=1,74=-5/1,2,3;
 4/5=5,16=3,69=1/1;
 5/5=100002,7=2000,38=1,53=1/2;
 7/30=1/1,2,3,16;
 1/18=20,19=15,26=3/3(-5);
 2/9=110,15=1/2;
 6/7=2,8=2,9=2,10=2,19=2,28=1/1;
 99/9=1/99;
 Leave Link    1 at Mon Sep 21 05:44:26 2020, MaxMem=  2147483648 cpu:               0.1 elap:               0.0
 (Enter /prod/apps/gaussian/g16b1/l101.exe)
 --------------------
 SM36_m0.n.12.pdb.xyz
 --------------------
 Symbolic Z-matrix:
 Charge =  0 Multiplicity = 1
 O                    -1.237    -1.102    -1.869 
 S                    -1.626    -1.448    -0.495 
 N                    -0.433    -0.88      0.526 
 C                     0.23      0.435     0.468 
 C                    -0.647     1.716     0.468 
 S                     0.508     2.575    -0.725 
 O                     1.604     3.303     0.054 
 C                     0.937     0.763    -0.868 
 C                     1.189     0.493     1.674 
 C                     2.198    -0.661     1.826 
 C                     3.355    -0.678     0.847 
 C                     4.319     0.339     0.848 
 C                     5.391     0.312    -0.045 
 C                     5.521    -0.741    -0.955 
 C                     4.572    -1.764    -0.961 
 C                     3.5      -1.731    -0.066 
 C                    -3.175    -0.61     -0.152 
 C                    -3.657     0.316    -1.078 
 C                    -4.86      0.971    -0.813 
 C                    -5.563     0.698     0.362 
 C                    -5.07     -0.238     1.278 
 C                    -3.87     -0.902     1.025 
 O                    -1.799    -2.857    -0.112 
 H                    -0.623    -1.201     1.475 
 H                    -0.76      2.243     1.417 
 H                    -1.613     1.609    -0.026 
 H                     2.007     0.576    -0.93 
 H                     0.414     0.362    -1.736 
 H                     0.567     0.524     2.577 
 H                     1.706     1.454     1.62 
 H                     1.668    -1.615     1.763 
 H                     2.598    -0.592     2.843 
 H                     4.233     1.161     1.555 
 H                     6.127     1.109    -0.027 
 H                     6.356    -0.763    -1.649 
 H                     4.666    -2.589    -1.661 
 H                     2.763    -2.528    -0.073 
 H                    -3.101     0.502    -1.988 
 H                    -5.248     1.69     -1.528 
 H                    -6.497     1.209     0.566 
 H                    -5.62     -0.454     2.187 
 H                    -3.487    -1.636     1.724 
 
 ITRead=  0  0  0  0  0  0  0  0  0  0  0  0  0  0  0  0  0  0  0  0
 ITRead=  0  0  0  0  0  0  0  0  0  0  0  0  0  0  0  0  0  0  0  0
 ITRead=  0  0
 MicOpt= -1 -1 -1 -1 -1 -1 -1 -1 -1 -1 -1 -1 -1 -1 -1 -1 -1 -1 -1 -1
 MicOpt= -1 -1 -1 -1 -1 -1 -1 -1 -1 -1 -1 -1 -1 -1 -1 -1 -1 -1 -1 -1
 MicOpt= -1 -1
 NAtoms=     42 NQM=       42 NQMF=       0 NMMI=      0 NMMIF=      0
                NMic=       0 NMicF=      0.
                    Isotopes and Nuclear Properties:
 (Nuclear quadrupole moments (NQMom) in fm**2, nuclear magnetic moments (NMagM)
  in nuclear magnetons)

  Atom         1           2           3           4           5           6           7           8           9          10
 IAtWgt=          16          32          14          12          12          32          16          12          12          12
 AtmWgt=  15.9949146  31.9720718  14.0030740  12.0000000  12.0000000  31.9720718  15.9949146  12.0000000  12.0000000  12.0000000
 NucSpn=           0           0           2           0           0           0           0           0           0           0
 AtZEff=  -0.0000000  -0.0000000  -0.0000000  -0.0000000  -0.0000000  -0.0000000  -0.0000000  -0.0000000  -0.0000000  -0.0000000
 NQMom=    0.0000000   0.0000000   2.0440000   0.0000000   0.0000000   0.0000000   0.0000000   0.0000000   0.0000000   0.0000000
 NMagM=    0.0000000   0.0000000   0.4037610   0.0000000   0.0000000   0.0000000   0.0000000   0.0000000   0.0000000   0.0000000
 AtZNuc=   8.0000000  16.0000000   7.0000000   6.0000000   6.0000000  16.0000000   8.0000000   6.0000000   6.0000000   6.0000000

  Atom        11          12          13          14          15          16          17          18          19          20
 IAtWgt=          12          12          12          12          12          12          12          12          12          12
 AtmWgt=  12.0000000  12.0000000  12.0000000  12.0000000  12.0000000  12.0000000  12.0000000  12.0000000  12.0000000  12.0000000
 NucSpn=           0           0           0           0           0           0           0           0           0           0
 AtZEff=  -0.0000000  -0.0000000  -0.0000000  -0.0000000  -0.0000000  -0.0000000  -0.0000000  -0.0000000  -0.0000000  -0.0000000
 NQMom=    0.0000000   0.0000000   0.0000000   0.0000000   0.0000000   0.0000000   0.0000000   0.0000000   0.0000000   0.0000000
 NMagM=    0.0000000   0.0000000   0.0000000   0.0000000   0.0000000   0.0000000   0.0000000   0.0000000   0.0000000   0.0000000
 AtZNuc=   6.0000000   6.0000000   6.0000000   6.0000000   6.0000000   6.0000000   6.0000000   6.0000000   6.0000000   6.0000000

  Atom        21          22          23          24          25          26          27          28          29          30
 IAtWgt=          12          12          16           1           1           1           1           1           1           1
 AtmWgt=  12.0000000  12.0000000  15.9949146   1.0078250   1.0078250   1.0078250   1.0078250   1.0078250   1.0078250   1.0078250
 NucSpn=           0           0           0           1           1           1           1           1           1           1
 AtZEff=  -0.0000000  -0.0000000  -0.0000000  -0.0000000  -0.0000000  -0.0000000  -0.0000000  -0.0000000  -0.0000000  -0.0000000
 NQMom=    0.0000000   0.0000000   0.0000000   0.0000000   0.0000000   0.0000000   0.0000000   0.0000000   0.0000000   0.0000000
 NMagM=    0.0000000   0.0000000   0.0000000   2.7928460   2.7928460   2.7928460   2.7928460   2.7928460   2.7928460   2.7928460
 AtZNuc=   6.0000000   6.0000000   8.0000000   1.0000000   1.0000000   1.0000000   1.0000000   1.0000000   1.0000000   1.0000000

  Atom        31          32          33          34          35          36          37          38          39          40
 IAtWgt=           1           1           1           1           1           1           1           1           1           1
 AtmWgt=   1.0078250   1.0078250   1.0078250   1.0078250   1.0078250   1.0078250   1.0078250   1.0078250   1.0078250   1.0078250
 NucSpn=           1           1           1           1           1           1           1           1           1           1
 AtZEff=  -0.0000000  -0.0000000  -0.0000000  -0.0000000  -0.0000000  -0.0000000  -0.0000000  -0.0000000  -0.0000000  -0.0000000
 NQMom=    0.0000000   0.0000000   0.0000000   0.0000000   0.0000000   0.0000000   0.0000000   0.0000000   0.0000000   0.0000000
 NMagM=    2.7928460   2.7928460   2.7928460   2.7928460   2.7928460   2.7928460   2.7928460   2.7928460   2.7928460   2.7928460
 AtZNuc=   1.0000000   1.0000000   1.0000000   1.0000000   1.0000000   1.0000000   1.0000000   1.0000000   1.0000000   1.0000000

  Atom        41          42
 IAtWgt=           1           1
 AtmWgt=   1.0078250   1.0078250
 NucSpn=           1           1
 AtZEff=  -0.0000000  -0.0000000
 NQMom=    0.0000000   0.0000000
 NMagM=    2.7928460   2.7928460
 AtZNuc=   1.0000000   1.0000000
 Leave Link  101 at Mon Sep 21 05:44:27 2020, MaxMem=  2147483648 cpu:               1.2 elap:               0.3
 (Enter /prod/apps/gaussian/g16b1/l103.exe)

 GradGradGradGradGradGradGradGradGradGradGradGradGradGradGradGradGradGrad
 Berny optimization.
 Initialization pass.
                           ----------------------------
                           !    Initial Parameters    !
                           ! (Angstroms and Degrees)  !
 --------------------------                            --------------------------
 ! Name  Definition              Value          Derivative Info.                !
 --------------------------------------------------------------------------------
 ! R1    R(1,2)                  1.4693         estimate D2E/DX2                !
 ! R2    R(2,3)                  1.6698         estimate D2E/DX2                !
 ! R3    R(2,17)                 1.7942         estimate D2E/DX2                !
 ! R4    R(2,23)                 1.4703         estimate D2E/DX2                !
 ! R5    R(3,4)                  1.4738         estimate D2E/DX2                !
 ! R6    R(3,24)                 1.0197         estimate D2E/DX2                !
 ! R7    R(4,5)                  1.5524         estimate D2E/DX2                !
 ! R8    R(4,8)                  1.5467         estimate D2E/DX2                !
 ! R9    R(4,9)                  1.5419         estimate D2E/DX2                !
 ! R10   R(5,6)                  1.8695         estimate D2E/DX2                !
 ! R11   R(5,25)                 1.0914         estimate D2E/DX2                !
 ! R12   R(5,26)                 1.0902         estimate D2E/DX2                !
 ! R13   R(6,7)                  1.5291         estimate D2E/DX2                !
 ! R14   R(6,8)                  1.8676         estimate D2E/DX2                !
 ! R15   R(8,27)                 1.088          estimate D2E/DX2                !
 ! R16   R(8,28)                 1.0898         estimate D2E/DX2                !
 ! R17   R(9,10)                 1.5404         estimate D2E/DX2                !
 ! R18   R(9,29)                 1.0969         estimate D2E/DX2                !
 ! R19   R(9,30)                 1.0926         estimate D2E/DX2                !
 ! R20   R(10,11)                1.5157         estimate D2E/DX2                !
 ! R21   R(10,31)                1.0932         estimate D2E/DX2                !
 ! R22   R(10,32)                1.095          estimate D2E/DX2                !
 ! R23   R(11,12)                1.4013         estimate D2E/DX2                !
 ! R24   R(11,16)                1.4012         estimate D2E/DX2                !
 ! R25   R(12,13)                1.3955         estimate D2E/DX2                !
 ! R26   R(12,33)                1.0876         estimate D2E/DX2                !
 ! R27   R(13,14)                1.3978         estimate D2E/DX2                !
 ! R28   R(13,34)                1.085          estimate D2E/DX2                !
 ! R29   R(14,15)                1.3954         estimate D2E/DX2                !
 ! R30   R(14,35)                1.086          estimate D2E/DX2                !
 ! R31   R(15,16)                1.3969         estimate D2E/DX2                !
 ! R32   R(15,36)                1.086          estimate D2E/DX2                !
 ! R33   R(16,37)                1.0856         estimate D2E/DX2                !
 ! R34   R(17,18)                1.3954         estimate D2E/DX2                !
 ! R35   R(17,22)                1.3977         estimate D2E/DX2                !
 ! R36   R(18,19)                1.3952         estimate D2E/DX2                !
 ! R37   R(18,38)                1.0825         estimate D2E/DX2                !
 ! R38   R(19,20)                1.3962         estimate D2E/DX2                !
 ! R39   R(19,39)                1.0857         estimate D2E/DX2                !
 ! R40   R(20,21)                1.3994         estimate D2E/DX2                !
 ! R41   R(20,40)                1.084          estimate D2E/DX2                !
 ! R42   R(21,22)                1.3946         estimate D2E/DX2                !
 ! R43   R(21,41)                1.0842         estimate D2E/DX2                !
 ! R44   R(22,42)                1.0835         estimate D2E/DX2                !
 ! A1    A(1,2,3)              107.6093         estimate D2E/DX2                !
 ! A2    A(1,2,17)             107.2982         estimate D2E/DX2                !
 ! A3    A(1,2,23)             120.026          estimate D2E/DX2                !
 ! A4    A(3,2,17)             109.9401         estimate D2E/DX2                !
 ! A5    A(3,2,23)             104.5222         estimate D2E/DX2                !
 ! A6    A(17,2,23)            107.229          estimate D2E/DX2                !
 ! A7    A(2,3,4)              126.9294         estimate D2E/DX2                !
 ! A8    A(2,3,24)             109.1991         estimate D2E/DX2                !
 ! A9    A(4,3,24)             113.6613         estimate D2E/DX2                !
 ! A10   A(3,4,5)              118.8227         estimate D2E/DX2                !
 ! A11   A(3,4,8)              115.3932         estimate D2E/DX2                !
 ! A12   A(3,4,9)              106.4136         estimate D2E/DX2                !
 ! A13   A(5,4,8)               94.7747         estimate D2E/DX2                !
 ! A14   A(5,4,9)              108.6819         estimate D2E/DX2                !
 ! A15   A(8,4,9)              112.5395         estimate D2E/DX2                !
 ! A16   A(4,5,6)               91.7265         estimate D2E/DX2                !
 ! A17   A(4,5,25)             117.1896         estimate D2E/DX2                !
 ! A18   A(4,5,26)             114.8064         estimate D2E/DX2                !
 ! A19   A(6,5,25)             113.3894         estimate D2E/DX2                !
 ! A20   A(6,5,26)             107.6588         estimate D2E/DX2                !
 ! A21   A(25,5,26)            110.4659         estimate D2E/DX2                !
 ! A22   A(5,6,7)              109.6628         estimate D2E/DX2                !
 ! A23   A(5,6,8)               75.225          estimate D2E/DX2                !
 ! A24   A(7,6,8)              109.6515         estimate D2E/DX2                !
 ! A25   A(4,8,6)               91.9836         estimate D2E/DX2                !
 ! A26   A(4,8,27)             117.5366         estimate D2E/DX2                !
 ! A27   A(4,8,28)             112.9894         estimate D2E/DX2                !
 ! A28   A(6,8,27)             113.3932         estimate D2E/DX2                !
 ! A29   A(6,8,28)             107.9233         estimate D2E/DX2                !
 ! A30   A(27,8,28)            111.3046         estimate D2E/DX2                !
 ! A31   A(4,9,10)             117.1544         estimate D2E/DX2                !
 ! A32   A(4,9,29)             106.9933         estimate D2E/DX2                !
 ! A33   A(4,9,30)             106.7822         estimate D2E/DX2                !
 ! A34   A(10,9,29)            108.1412         estimate D2E/DX2                !
 ! A35   A(10,9,30)            110.7233         estimate D2E/DX2                !
 ! A36   A(29,9,30)            106.5079         estimate D2E/DX2                !
 ! A37   A(9,10,11)            116.402          estimate D2E/DX2                !
 ! A38   A(9,10,31)            109.3004         estimate D2E/DX2                !
 ! A39   A(9,10,32)            106.4818         estimate D2E/DX2                !
 ! A40   A(11,10,31)           108.8494         estimate D2E/DX2                !
 ! A41   A(11,10,32)           108.7688         estimate D2E/DX2                !
 ! A42   A(31,10,32)           106.5962         estimate D2E/DX2                !
 ! A43   A(10,11,12)           121.0999         estimate D2E/DX2                !
 ! A44   A(10,11,16)           120.549          estimate D2E/DX2                !
 ! A45   A(12,11,16)           118.3386         estimate D2E/DX2                !
 ! A46   A(11,12,13)           120.929          estimate D2E/DX2                !
 ! A47   A(11,12,33)           119.6422         estimate D2E/DX2                !
 ! A48   A(13,12,33)           119.4288         estimate D2E/DX2                !
 ! A49   A(12,13,14)           120.1741         estimate D2E/DX2                !
 ! A50   A(12,13,34)           119.7534         estimate D2E/DX2                !
 ! A51   A(14,13,34)           120.0716         estimate D2E/DX2                !
 ! A52   A(13,14,15)           119.461          estimate D2E/DX2                !
 ! A53   A(13,14,35)           120.1865         estimate D2E/DX2                !
 ! A54   A(15,14,35)           120.3523         estimate D2E/DX2                !
 ! A55   A(14,15,16)           120.1217         estimate D2E/DX2                !
 ! A56   A(14,15,36)           120.0542         estimate D2E/DX2                !
 ! A57   A(16,15,36)           119.824          estimate D2E/DX2                !
 ! A58   A(11,16,15)           120.9733         estimate D2E/DX2                !
 ! A59   A(11,16,37)           119.0571         estimate D2E/DX2                !
 ! A60   A(15,16,37)           119.9694         estimate D2E/DX2                !
 ! A61   A(2,17,18)            118.7684         estimate D2E/DX2                !
 ! A62   A(2,17,22)            119.5171         estimate D2E/DX2                !
 ! A63   A(18,17,22)           121.7138         estimate D2E/DX2                !
 ! A64   A(17,18,19)           118.9033         estimate D2E/DX2                !
 ! A65   A(17,18,38)           119.6332         estimate D2E/DX2                !
 ! A66   A(19,18,38)           121.4588         estimate D2E/DX2                !
 ! A67   A(18,19,20)           120.1466         estimate D2E/DX2                !
 ! A68   A(18,19,39)           119.6024         estimate D2E/DX2                !
 ! A69   A(20,19,39)           120.2503         estimate D2E/DX2                !
 ! A70   A(19,20,21)           120.2835         estimate D2E/DX2                !
 ! A71   A(19,20,40)           120.0021         estimate D2E/DX2                !
 ! A72   A(21,20,40)           119.7139         estimate D2E/DX2                !
 ! A73   A(20,21,22)           120.1895         estimate D2E/DX2                !
 ! A74   A(20,21,41)           120.2224         estimate D2E/DX2                !
 ! A75   A(22,21,41)           119.5877         estimate D2E/DX2                !
 ! A76   A(17,22,21)           118.7608         estimate D2E/DX2                !
 ! A77   A(17,22,42)           120.5971         estimate D2E/DX2                !
 ! A78   A(21,22,42)           120.6405         estimate D2E/DX2                !
 ! D1    D(1,2,3,4)             44.0335         estimate D2E/DX2                !
 ! D2    D(1,2,3,24)          -173.4668         estimate D2E/DX2                !
 ! D3    D(17,2,3,4)           -72.5183         estimate D2E/DX2                !
 ! D4    D(17,2,3,24)           69.9815         estimate D2E/DX2                !
 ! D5    D(23,2,3,4)           172.6817         estimate D2E/DX2                !
 ! D6    D(23,2,3,24)          -44.8186         estimate D2E/DX2                !
 ! D7    D(1,2,17,18)           -8.1586         estimate D2E/DX2                !
 ! D8    D(1,2,17,22)          171.5341         estimate D2E/DX2                !
 ! D9    D(3,2,17,18)          108.5881         estimate D2E/DX2                !
 ! D10   D(3,2,17,22)          -71.7193         estimate D2E/DX2                !
 ! D11   D(23,2,17,18)        -138.3465         estimate D2E/DX2                !
 ! D12   D(23,2,17,22)          41.3461         estimate D2E/DX2                !
 ! D13   D(2,3,4,5)             53.9058         estimate D2E/DX2                !
 ! D14   D(2,3,4,8)            -57.5865         estimate D2E/DX2                !
 ! D15   D(2,3,4,9)            176.81           estimate D2E/DX2                !
 ! D16   D(24,3,4,5)           -87.2156         estimate D2E/DX2                !
 ! D17   D(24,3,4,8)           161.2921         estimate D2E/DX2                !
 ! D18   D(24,3,4,9)            35.6886         estimate D2E/DX2                !
 ! D19   D(3,4,5,6)           -142.9006         estimate D2E/DX2                !
 ! D20   D(3,4,5,25)            99.5844         estimate D2E/DX2                !
 ! D21   D(3,4,5,26)           -32.5193         estimate D2E/DX2                !
 ! D22   D(8,4,5,6)            -20.412          estimate D2E/DX2                !
 ! D23   D(8,4,5,25)          -137.927          estimate D2E/DX2                !
 ! D24   D(8,4,5,26)            89.9693         estimate D2E/DX2                !
 ! D25   D(9,4,5,6)             95.3283         estimate D2E/DX2                !
 ! D26   D(9,4,5,25)           -22.1867         estimate D2E/DX2                !
 ! D27   D(9,4,5,26)          -154.2904         estimate D2E/DX2                !
 ! D28   D(3,4,8,6)            145.5489         estimate D2E/DX2                !
 ! D29   D(3,4,8,27)           -96.6704         estimate D2E/DX2                !
 ! D30   D(3,4,8,28)            35.1112         estimate D2E/DX2                !
 ! D31   D(5,4,8,6)             20.4375         estimate D2E/DX2                !
 ! D32   D(5,4,8,27)           138.2182         estimate D2E/DX2                !
 ! D33   D(5,4,8,28)           -90.0002         estimate D2E/DX2                !
 ! D34   D(9,4,8,6)            -92.0622         estimate D2E/DX2                !
 ! D35   D(9,4,8,27)            25.7185         estimate D2E/DX2                !
 ! D36   D(9,4,8,28)           157.5001         estimate D2E/DX2                !
 ! D37   D(3,4,9,10)            53.5911         estimate D2E/DX2                !
 ! D38   D(3,4,9,29)           -67.9195         estimate D2E/DX2                !
 ! D39   D(3,4,9,30)           178.3459         estimate D2E/DX2                !
 ! D40   D(5,4,9,10)          -177.3484         estimate D2E/DX2                !
 ! D41   D(5,4,9,29)            61.141          estimate D2E/DX2                !
 ! D42   D(5,4,9,30)           -52.5936         estimate D2E/DX2                !
 ! D43   D(8,4,9,10)           -73.7293         estimate D2E/DX2                !
 ! D44   D(8,4,9,29)           164.7601         estimate D2E/DX2                !
 ! D45   D(8,4,9,30)            51.0255         estimate D2E/DX2                !
 ! D46   D(4,5,6,7)            -88.6488         estimate D2E/DX2                !
 ! D47   D(4,5,6,8)             17.3188         estimate D2E/DX2                !
 ! D48   D(25,5,6,7)            32.0889         estimate D2E/DX2                !
 ! D49   D(25,5,6,8)           138.0565         estimate D2E/DX2                !
 ! D50   D(26,5,6,7)           154.6014         estimate D2E/DX2                !
 ! D51   D(26,5,6,8)           -99.431          estimate D2E/DX2                !
 ! D52   D(5,6,8,4)            -17.3877         estimate D2E/DX2                !
 ! D53   D(5,6,8,27)          -138.6532         estimate D2E/DX2                !
 ! D54   D(5,6,8,28)            97.5689         estimate D2E/DX2                !
 ! D55   D(7,6,8,4)             88.594          estimate D2E/DX2                !
 ! D56   D(7,6,8,27)           -32.6715         estimate D2E/DX2                !
 ! D57   D(7,6,8,28)          -156.4495         estimate D2E/DX2                !
 ! D58   D(4,9,10,11)           72.9415         estimate D2E/DX2                !
 ! D59   D(4,9,10,31)          -50.8409         estimate D2E/DX2                !
 ! D60   D(4,9,10,32)         -165.6259         estimate D2E/DX2                !
 ! D61   D(29,9,10,11)        -166.1477         estimate D2E/DX2                !
 ! D62   D(29,9,10,31)          70.0698         estimate D2E/DX2                !
 ! D63   D(29,9,10,32)         -44.7152         estimate D2E/DX2                !
 ! D64   D(30,9,10,11)         -49.8105         estimate D2E/DX2                !
 ! D65   D(30,9,10,31)        -173.5929         estimate D2E/DX2                !
 ! D66   D(30,9,10,32)          71.6221         estimate D2E/DX2                !
 ! D67   D(9,10,11,12)          65.1174         estimate D2E/DX2                !
 ! D68   D(9,10,11,16)        -116.1906         estimate D2E/DX2                !
 ! D69   D(31,10,11,12)       -170.8681         estimate D2E/DX2                !
 ! D70   D(31,10,11,16)          7.8239         estimate D2E/DX2                !
 ! D71   D(32,10,11,12)        -55.0973         estimate D2E/DX2                !
 ! D72   D(32,10,11,16)        123.5947         estimate D2E/DX2                !
 ! D73   D(10,11,12,13)        179.2782         estimate D2E/DX2                !
 ! D74   D(10,11,12,33)         -0.6283         estimate D2E/DX2                !
 ! D75   D(16,11,12,13)          0.5581         estimate D2E/DX2                !
 ! D76   D(16,11,12,33)       -179.3484         estimate D2E/DX2                !
 ! D77   D(10,11,16,15)       -179.2034         estimate D2E/DX2                !
 ! D78   D(10,11,16,37)          0.9267         estimate D2E/DX2                !
 ! D79   D(12,11,16,15)         -0.4759         estimate D2E/DX2                !
 ! D80   D(12,11,16,37)        179.6541         estimate D2E/DX2                !
 ! D81   D(11,12,13,14)         -0.2792         estimate D2E/DX2                !
 ! D82   D(11,12,13,34)       -179.9441         estimate D2E/DX2                !
 ! D83   D(33,12,13,14)        179.6275         estimate D2E/DX2                !
 ! D84   D(33,12,13,34)         -0.0374         estimate D2E/DX2                !
 ! D85   D(12,13,14,15)         -0.0948         estimate D2E/DX2                !
 ! D86   D(12,13,14,35)       -179.9058         estimate D2E/DX2                !
 ! D87   D(34,13,14,15)        179.5691         estimate D2E/DX2                !
 ! D88   D(34,13,14,35)         -0.2419         estimate D2E/DX2                !
 ! D89   D(13,14,15,16)          0.1762         estimate D2E/DX2                !
 ! D90   D(13,14,15,36)       -179.7338         estimate D2E/DX2                !
 ! D91   D(35,14,15,16)        179.9869         estimate D2E/DX2                !
 ! D92   D(35,14,15,36)          0.0769         estimate D2E/DX2                !
 ! D93   D(14,15,16,11)          0.1141         estimate D2E/DX2                !
 ! D94   D(14,15,16,37)        179.9829         estimate D2E/DX2                !
 ! D95   D(36,15,16,11)       -179.9756         estimate D2E/DX2                !
 ! D96   D(36,15,16,37)         -0.1069         estimate D2E/DX2                !
 ! D97   D(2,17,18,19)        -179.8874         estimate D2E/DX2                !
 ! D98   D(2,17,18,38)           0.8914         estimate D2E/DX2                !
 ! D99   D(22,17,18,19)          0.427          estimate D2E/DX2                !
 ! D100  D(22,17,18,38)       -178.7942         estimate D2E/DX2                !
 ! D101  D(2,17,22,21)         179.7787         estimate D2E/DX2                !
 ! D102  D(2,17,22,42)          -0.6712         estimate D2E/DX2                !
 ! D103  D(18,17,22,21)         -0.538          estimate D2E/DX2                !
 ! D104  D(18,17,22,42)        179.0121         estimate D2E/DX2                !
 ! D105  D(17,18,19,20)          0.0022         estimate D2E/DX2                !
 ! D106  D(17,18,19,39)       -179.6966         estimate D2E/DX2                !
 ! D107  D(38,18,19,20)        179.2086         estimate D2E/DX2                !
 ! D108  D(38,18,19,39)         -0.4903         estimate D2E/DX2                !
 ! D109  D(18,19,20,21)         -0.309          estimate D2E/DX2                !
 ! D110  D(18,19,20,40)        179.9403         estimate D2E/DX2                !
 ! D111  D(39,19,20,21)        179.3878         estimate D2E/DX2                !
 ! D112  D(39,19,20,40)         -0.3628         estimate D2E/DX2                !
 ! D113  D(19,20,21,22)          0.1953         estimate D2E/DX2                !
 ! D114  D(19,20,21,41)       -179.5977         estimate D2E/DX2                !
 ! D115  D(40,20,21,22)        179.9466         estimate D2E/DX2                !
 ! D116  D(40,20,21,41)          0.1537         estimate D2E/DX2                !
 ! D117  D(20,21,22,17)          0.221          estimate D2E/DX2                !
 ! D118  D(20,21,22,42)       -179.3289         estimate D2E/DX2                !
 ! D119  D(41,21,22,17)       -179.9848         estimate D2E/DX2                !
 ! D120  D(41,21,22,42)          0.4654         estimate D2E/DX2                !
 --------------------------------------------------------------------------------
 Trust Radius=3.00D-01 FncErr=1.00D-07 GrdErr=1.00D-06 EigMax=2.50D+02 EigMin=1.00D-04
 Number of steps in this run=    252 maximum allowed number of steps=    252.
 GradGradGradGradGradGradGradGradGradGradGradGradGradGradGradGradGradGrad

 Leave Link  103 at Mon Sep 21 05:44:27 2020, MaxMem=  2147483648 cpu:               0.1 elap:               0.0
 (Enter /prod/apps/gaussian/g16b1/l202.exe)
                          Input orientation:                          
 ---------------------------------------------------------------------
 Center     Atomic      Atomic             Coordinates (Angstroms)
 Number     Number       Type             X           Y           Z
 ---------------------------------------------------------------------
      1          8           0       -1.237000   -1.102000   -1.869000
      2         16           0       -1.626000   -1.448000   -0.495000
      3          7           0       -0.433000   -0.880000    0.526000
      4          6           0        0.230000    0.435000    0.468000
      5          6           0       -0.647000    1.716000    0.468000
      6         16           0        0.508000    2.575000   -0.725000
      7          8           0        1.604000    3.303000    0.054000
      8          6           0        0.937000    0.763000   -0.868000
      9          6           0        1.189000    0.493000    1.674000
     10          6           0        2.198000   -0.661000    1.826000
     11          6           0        3.355000   -0.678000    0.847000
     12          6           0        4.319000    0.339000    0.848000
     13          6           0        5.391000    0.312000   -0.045000
     14          6           0        5.521000   -0.741000   -0.955000
     15          6           0        4.572000   -1.764000   -0.961000
     16          6           0        3.500000   -1.731000   -0.066000
     17          6           0       -3.175000   -0.610000   -0.152000
     18          6           0       -3.657000    0.316000   -1.078000
     19          6           0       -4.860000    0.971000   -0.813000
     20          6           0       -5.563000    0.698000    0.362000
     21          6           0       -5.070000   -0.238000    1.278000
     22          6           0       -3.870000   -0.902000    1.025000
     23          8           0       -1.799000   -2.857000   -0.112000
     24          1           0       -0.623000   -1.201000    1.475000
     25          1           0       -0.760000    2.243000    1.417000
     26          1           0       -1.613000    1.609000   -0.026000
     27          1           0        2.007000    0.576000   -0.930000
     28          1           0        0.414000    0.362000   -1.736000
     29          1           0        0.567000    0.524000    2.577000
     30          1           0        1.706000    1.454000    1.620000
     31          1           0        1.668000   -1.615000    1.763000
     32          1           0        2.598000   -0.592000    2.843000
     33          1           0        4.233000    1.161000    1.555000
     34          1           0        6.127000    1.109000   -0.027000
     35          1           0        6.356000   -0.763000   -1.649000
     36          1           0        4.666000   -2.589000   -1.661000
     37          1           0        2.763000   -2.528000   -0.073000
     38          1           0       -3.101000    0.502000   -1.988000
     39          1           0       -5.248000    1.690000   -1.528000
     40          1           0       -6.497000    1.209000    0.566000
     41          1           0       -5.620000   -0.454000    2.187000
     42          1           0       -3.487000   -1.636000    1.724000
 ---------------------------------------------------------------------
                    Distance matrix (angstroms):
                    1          2          3          4          5
     1  O    0.000000
     2  S    1.469324   0.000000
     3  N    2.536085   1.669825   0.000000
     4  C    3.158485   2.813857   1.473824   0.000000
     5  C    3.708206   3.449160   2.605451   1.552446   0.000000
     6  S    4.227776   4.559757   3.793087   2.465793   1.869533
     7  O    5.583300   5.771161   4.676499   3.206976   2.785133
     8  C    3.034222   3.405381   2.553348   1.546716   2.280825
     9  C    4.580650   4.049230   2.415350   1.541908   2.514172
    10  C    5.064260   4.541958   2.942809   2.630286   3.948204
    11  C    5.351906   5.215767   3.806940   3.338867   4.678769
    12  C    6.350410   6.351381   4.916416   4.107741   5.167367
    13  C    7.018316   7.248337   5.972092   5.187892   6.220276
    14  C    6.829076   7.196600   6.137002   5.603801   6.790140
    15  C    5.916687   6.223521   5.295531   5.072534   6.433537
    16  C    5.107408   5.151699   4.067328   3.958486   5.418909
    17  C    2.635526   1.794239   2.837454   3.615308   3.490768
    18  C    2.914242   2.752553   3.794392   4.184859   3.661996
    19  C    4.305647   4.051104   4.981712   5.276017   4.466022
    20  C    5.189570   4.565056   5.369719   5.799936   5.021416
    21  C    5.034083   4.058173   4.741248   5.403613   4.902769
    22  C    3.917643   2.764788   3.473104   4.348312   4.189499
    23  O    2.546157   1.470340   2.486268   3.910308   4.751403
    24  H    3.401343   2.224392   1.019677   2.101941   3.086019
    25  H    4.713210   4.246078   3.264037   2.269265   1.091375
    26  H    3.299628   3.092795   2.809310   2.240304   1.090248
    27  H    3.771066   4.181446   3.192722   2.265395   3.209006
    28  H    2.210608   2.996295   2.715993   2.212872   2.795828
    29  H    5.066084   4.258546   2.679145   2.137609   2.709712
    30  H    5.231396   4.898679   3.349584   2.131676   2.632937
    31  H    4.679062   3.997110   2.546487   2.819108   4.258146
    32  H    6.096742   5.451344   3.826015   3.507532   4.636541
    33  H    6.838556   6.733295   5.195775   4.211016   5.030308
    34  H    7.906325   8.177181   6.877175   5.955998   6.819131
    35  H    7.603747   8.094027   7.129855   6.591265   7.724580
    36  H    6.090964   6.500054   5.805467   5.775406   7.161957
    37  H    4.610758   4.539582   3.645425   3.935497   5.471044
    38  H    2.462006   2.864817   3.917696   4.139080   3.678022
    39  H    4.898945   4.902348   5.831641   5.963852   5.015366
    40  H    6.239996   5.649072   6.413861   6.772090   5.872747
    41  H    6.006807   4.912555   5.463091   6.161800   5.691625
    42  H    4.272857   2.902176   3.366550   4.436515   4.569359
                    6          7          8          9         10
     6  S    0.000000
     7  O    1.529065   0.000000
     8  C    1.867574   2.783267   0.000000
     9  C    3.248644   3.269973   2.568690   0.000000
    10  C    4.453695   4.382478   3.297807   1.540422   0.000000
    11  C    4.599848   4.420770   3.296123   2.597446   1.515711
    12  C    4.690175   4.097189   3.816066   3.240817   2.540694
    13  C    5.424690   4.826723   4.551796   4.543625   3.826568
    14  C    6.014892   5.719695   4.825209   5.215421   4.333900
    15  C    5.949682   5.959340   4.428047   4.845819   3.823592
    16  C    5.284693   5.380555   3.664998   3.648904   2.533726
    17  C    4.902759   6.180036   4.393897   4.857508   5.725750
    18  C    4.751307   6.154812   4.620470   5.575711   6.608235
    19  C    5.603212   6.926269   5.800991   6.557748   7.709936
    20  C    6.446839   7.631958   6.615673   6.881342   8.013944
    21  C    6.560416   7.653701   6.456885   6.313973   7.300894
    22  C    5.858235   6.970620   5.427976   5.287788   6.125382
    23  O    5.933350   7.039429   4.600177   4.831194   4.955226
    24  H    4.514126   5.221569   3.432280   2.488490   2.893586
    25  H    2.511217   2.927433   3.208026   2.631948   4.165364
    26  H    2.433187   3.636636   2.815525   3.462176   4.806925
    27  H    2.506996   2.926977   1.087986   2.730720   3.026910
    28  H    2.434815   3.642757   1.089841   3.499412   4.113032
    29  H    3.887581   3.894065   3.473046   1.096929   2.151369
    30  H    2.861970   2.425193   2.694251   1.092578   2.181221
    31  H    5.009176   5.206871   3.620968   2.163568   1.093154
    32  H    5.208514   4.892605   4.285612   2.128160   1.095011
    33  H    4.590580   3.708478   4.110103   3.118705   2.744877
    34  H    5.848891   5.027696   5.269070   5.258964   4.690794
    35  H    6.796699   6.481826   5.683678   6.270387   5.419870
    36  H    6.695667   6.858041   5.076435   5.719307   4.686937
    37  H    5.617004   5.946425   3.846685   3.828306   2.722336
    38  H    4.349411   5.844005   4.198567   5.640428   6.631634
    39  H    5.878739   7.214873   6.288812   7.288387   8.498202
    40  H    7.252769   8.382910   7.584170   7.798392   8.982624
    41  H    7.430139   8.417298   7.335418   6.893654   7.829067
    42  H    6.300012   7.287037   5.660869   5.138104   5.768904
                   11         12         13         14         15
    11  C    0.000000
    12  C    1.401280   0.000000
    13  C    2.433323   1.395479   0.000000
    14  C    2.818285   2.421159   1.397787   0.000000
    15  C    2.435025   2.785516   2.412383   1.395409   0.000000
    16  C    1.401215   2.406462   2.783913   2.419682   1.396889
    17  C    6.606325   7.619753   8.616141   8.733979   7.874148
    18  C    7.339060   8.205278   9.106778   9.239484   8.488612
    19  C    8.541723   9.349459  10.300830  10.522180   9.821647
    20  C    9.036555   9.900455  10.968353  11.254344  10.513325
    21  C    8.447484   9.416536  10.558662  10.835524  10.015486
    22  C    7.230663   8.284391   9.401320   9.598813   8.715194
    23  O    5.677274   6.968927   7.857681   7.666192   6.519593
    24  H    4.061083   5.214220   6.384964   6.623084   5.765335
    25  H    5.078422   5.453918   6.610674   7.347217   7.081042
    26  H    5.538368   6.129062   7.123102   7.568322   7.106728
    27  H    2.558779   2.926226   3.507760   3.752774   3.472144
    28  H    4.050058   4.682586   5.256663   5.282804   4.733864
    29  H    3.494374   4.135356   5.494616   6.214287   5.813124
    30  H    2.803953   2.943973   4.201858   5.099301   5.023051
    31  H    2.136117   3.418061   4.565405   4.795520   3.984419
    32  H    2.136460   2.794392   4.118083   4.794886   4.443048
    33  H    2.157329   1.087625   2.149829   3.402447   3.873087
    34  H    3.411925   2.151137   1.085002   2.156599   3.397721
    35  H    3.904259   3.405698   2.158626   1.085977   2.158240
    36  H    3.414778   3.871521   3.398953   2.155125   1.086030
    37  H    2.149271   3.389552   3.869466   3.402625   2.155161
    38  H    7.149095   7.945179   8.713519   8.772173   8.066252
    39  H    9.233616   9.949777  10.829889  11.054838  10.425162
    40  H   10.035020  10.854597  11.937440  12.269811  11.562578
    41  H    9.077246  10.060094  11.261026  11.579137  10.747226
    42  H    6.964184   8.099484   9.259749   9.440452   8.495475
                   16         17         18         19         20
    16  C    0.000000
    17  C    6.769022   0.000000
    18  C    7.512456   1.395448   0.000000
    19  C    8.817506   2.403270   1.395156   0.000000
    20  C    9.392614   2.770849   2.419165   1.396196   0.000000
    21  C    8.802289   2.402979   2.802538   2.424471   1.399357
    22  C    7.496294   1.397719   2.439570   2.804723   2.421945
    23  O    5.417508   2.635144   3.801743   4.951233   5.199077
    24  H    4.433363   3.083685   4.245498   5.282490   5.408195
    25  H    6.011619   4.053837   4.281467   4.837446   5.154499
    26  H    6.107370   2.716557   2.637516   3.401385   4.072219
    27  H    2.880589   5.372616   5.671896   6.879346   7.680433
    28  H    4.085700   4.041629   4.124090   5.388681   6.343424
    29  H    4.546753   4.768224   5.589675   6.414377   6.520230
    30  H    4.025575   5.587866   6.110321   7.018913   7.415690
    31  H    2.591316   5.303951   6.336850   7.479168   7.720112
    32  H    3.251647   6.503682   7.437992   8.451690   8.626783
    33  H    3.395378   7.805687   8.360551   9.398201   9.879232
    34  H    3.868882   9.460327   9.872189  11.015943  11.703689
    35  H    3.405826   9.649061  10.087143  11.379996  12.175434
    36  H    2.154007   8.226470   8.834661  10.204772  10.932947
    37  H    1.085554   6.240578   7.093290   8.420257   8.939719
    38  H    7.228663   2.147770   1.082512   2.166718   3.409158
    39  H    9.506218   3.388319   2.149804   1.085693   2.157635
    40  H   10.439494   3.854863   3.400851   2.153614   1.084017
    41  H    9.480566   3.387223   3.886707   3.407085   2.158930
    42  H    7.213272   2.160879   3.419124   3.888180   3.407694
                   21         22         23         24         25
    21  C    0.000000
    22  C    1.394599   0.000000
    23  O    4.414828   3.066567   0.000000
    24  H    4.554337   3.291642   2.577573   0.000000
    25  H    4.975016   4.440359   5.424699   3.447212   0.000000
    26  H    4.130699   3.536067   4.470699   3.336046   1.792153
    27  H    7.458002   6.367546   5.190400   3.982293   3.992942
    28  H    6.286370   5.251045   4.230450   3.718717   3.854588
    29  H    5.834708   4.912143   4.925428   2.367727   2.462009
    30  H    6.992425   6.082478   5.819757   3.534726   2.597092
    31  H    6.894345   5.632269   4.132587   2.345852   4.571549
    32  H    7.834077   6.725790   5.761585   3.552062   4.620267
    33  H    9.411681   8.378274   7.436951   5.400572   5.110755
    34  H   11.352984  10.251382   8.863287   7.290720   7.127542
    35  H   11.806627  10.570746   8.558693   7.658829   8.311068
    36  H   10.438133   9.106254   6.653379   6.303536   7.890740
    37  H    8.271952   6.917093   4.574014   3.952497   6.115069
    38  H    3.884754   3.411854   4.061707   4.586182   4.483903
    39  H    3.409179   3.890393   5.880125   6.226276   5.396386
    40  H    2.153388   3.401196   6.250060   6.413911   5.891224
    41  H    1.084176   2.147894   5.065555   5.102447   5.611266
    42  H    2.158520   1.083534   2.776883   2.907529   4.751570
                   26         27         28         29         30
    26  H    0.000000
    27  H    3.871525   0.000000
    28  H    2.930501   1.798077   0.000000
    29  H    3.564440   3.791484   4.318752   0.000000
    30  H    3.707978   2.713666   3.758253   1.754443   0.000000
    31  H    4.935550   3.488216   4.209994   2.539708   3.072565
    32  H    5.550503   3.993624   5.162094   2.332632   2.545095
    33  H    6.072560   3.387112   5.104297   3.858732   2.544760
    34  H    7.756133   4.251341   6.009747   6.167385   4.730420
    35  H    8.471451   4.606917   6.048186   7.282030   6.101143
    36  H    7.728019   4.197841   5.176247   6.667324   5.989358
    37  H    6.022155   3.307688   4.078660   4.599959   4.454192
    38  H    2.699822   5.216944   3.526802   5.856102   6.085328
    39  H    3.933928   7.364348   5.819372   7.212822   7.636997
    40  H    4.935982   8.657755   7.333385   7.376547   8.274065
    41  H    5.020895   8.303476   7.243269   6.275950   7.591589
    42  H    4.135747   6.490046   5.584031   4.672058   6.043688
                   31         32         33         34         35
    31  H    0.000000
    32  H    1.754374   0.000000
    33  H    3.785322   2.721246   0.000000
    34  H    5.523310   4.856351   2.468332   0.000000
    35  H    5.860460   5.859170   4.298200   2.487511   0.000000
    36  H    4.654080   5.343281   4.959097   4.298800   2.488076
    37  H    2.324541   3.504052   4.291853   4.954430   4.302168
    38  H    6.426123   7.550761   8.171578   9.453568   9.547251
    39  H    8.341748   9.266762   9.983691  11.488307  11.861057
    40  H    8.722099   9.547112  10.775589  12.638316  13.190702
    41  H    7.392066   8.245296  10.004462  12.055570  12.579148
    42  H    5.155190   6.274498   8.212805  10.150371  10.441451
                   36         37         38         39         40
    36  H    0.000000
    37  H    2.479289   0.000000
    38  H    8.365853   6.872745   0.000000
    39  H   10.798839   9.169769   2.496508   0.000000
    40  H   11.999871  10.006053   4.307619   2.485196   0.000000
    41  H   11.187811   8.926576   4.968895   4.305386   2.482406
    42  H    8.879068   6.564097   4.301045   4.973822   4.300592
                   41         42
    41  H    0.000000
    42  H    2.482173   0.000000
 Symmetry turned off by external request.
 Stoichiometry    C17H19NO3S2
 Framework group  C1[X(C17H19NO3S2)]
 Deg. of freedom   120
 Full point group                 C1      NOp   1
 Rotational constants (GHZ):           0.4410822           0.1333579           0.1175905
 Leave Link  202 at Mon Sep 21 05:44:27 2020, MaxMem=  2147483648 cpu:               0.1 elap:               0.0
 (Enter /prod/apps/gaussian/g16b1/l301.exe)
 Standard basis: 6-31G(d) (6D, 7F)
 Ernie: Thresh=  0.10000D-02 Tol=  0.10000D-05 Strict=F.
   391 basis functions,   768 primitive gaussians,   391 cartesian basis functions
    92 alpha electrons       92 beta electrons
       nuclear repulsion energy      2307.8175159991 Hartrees.
 IExCor=  402 DFT=T Ex+Corr=B3LYP ExCW=0 ScaHFX=  0.200000
 ScaDFX=  0.800000  0.720000  1.000000  0.810000 ScalE2=  1.000000  1.000000
 IRadAn=      5 IRanWt=     -1 IRanGd=            0 ICorTp=0 IEmpDi=  4
 NAtoms=   42 NActive=   42 NUniq=   42 SFac= 1.00D+00 NAtFMM=   60 NAOKFM=F Big=F
 Integral buffers will be    131072 words long.
 Raffenetti 2 integral format.
 Two-electron integral symmetry is turned off.
 Using the following non-standard input for PCM:
 MSTModel=DFT cav
 --- end of non-standard input.
 MST model for solvation energy: B3LYP parametrization.
 MST cavity parameters:
 ISph   IAn     Re0     Alpha   Atom Type   QCorr
 ------------------------------------------------
   1      8     1.40     1.25      O          F
   2     16     1.75     1.25      S          F
   3      7     1.50     1.25      NH         F
   4      6     1.50     1.25      C          F
   5      6     1.50     1.25      CH2        F
   6     16     1.75     1.25      S          F
   7      8     1.40     1.25      O          F
   8      6     1.50     1.25      CH2        F
   9      6     1.50     1.25      CH2        F
  10      6     1.50     1.25      CH2        F
  11      6     1.50     1.25      C          F
  12      6     1.50     1.25      CH         F
  13      6     1.50     1.25      CH         F
  14      6     1.50     1.25      CH         F
  15      6     1.50     1.25      CH         F
  16      6     1.50     1.25      CH         F
  17      6     1.50     1.25      C          F
  18      6     1.50     1.25      CH         F
  19      6     1.50     1.25      CH         F
  20      6     1.50     1.25      CH         F
  21      6     1.50     1.25      CH         F
  22      6     1.50     1.25      CH         F
  23      8     1.40     1.25      O          F
  24      1     0.90     1.25      NH         F
  25      1     1.20     1.25      CH2        F
  26      1     1.20     1.25      CH2        F
  27      1     1.20     1.25      CH2        F
  28      1     1.20     1.25      CH2        F
  29      1     1.20     1.25      CH2        F
  30      1     1.20     1.25      CH2        F
  31      1     1.20     1.25      CH2        F
  32      1     1.20     1.25      CH2        F
  33      1     1.20     1.25      CH         F
  34      1     1.20     1.25      CH         F
  35      1     1.20     1.25      CH         F
  36      1     1.20     1.25      CH         F
  37      1     1.20     1.25      CH         F
  38      1     1.20     1.25      CH         F
  39      1     1.20     1.25      CH         F
  40      1     1.20     1.25      CH         F
  41      1     1.20     1.25      CH         F
  42      1     1.20     1.25      CH         F
 ------------------------------------------------------------------------------
 Polarizable Continuum Model (PCM)
 =================================
 Model                : PCM.
 Atomic radii         : MST.
 Polarization charges : Total charges.
 Charge compensation  : None.
 Solution method      : On-the-fly selection.
 Cavity type          : Scaled VdW (van der Waals Surface) (Alpha=1.250).
 Cavity algorithm     : GePol (No added spheres)
                        Default sphere list used, NSphG=   42.
                        Lebedev-Laikov grids with approx.  5.0 points / Ang**2.
                        Smoothing algorithm: York/Karplus (Gamma=1.0000).
                        Polarization charges: spherical gaussians, with
                                              point-specific exponents (IZeta= 3).
                        Self-potential: point-specific (ISelfS= 7).
                        Self-field    : sphere-specific E.n sum rule (ISelfD= 2).
 1st derivatives      : Analytical E(r).r(x)/FMM algorithm (CHGder, D1EAlg=3).
                        Cavity 1st derivative terms included.
 Solvent              : Water, Eps=  78.355300 Eps(inf)=   1.777849
 ------------------------------------------------------------------------------
 GePol: Number of generator spheres                  =      42
 GePol: Total number of spheres                      =      42
 GePol: Number of exposed spheres                    =      42 (100.00%)
 GePol: Number of points                             =    2984
 GePol: Average weight of points                     =       0.13
 GePol: Minimum weight of points                     =   0.21D-11
 GePol: Maximum weight of points                     =    0.22001
 GePol: Number of points with low weight             =     220
 GePol: Fraction of low-weight points (<1% of avg)   =       7.37%
 GePol: Cavity surface area                          =    392.114 Ang**2
 GePol: Cavity volume                                =    395.733 Ang**3
 PCM non-electrostatic energy =         0.0026216217 Hartrees.
 Nuclear repulsion after PCM non-electrostatic terms =     2307.8201376208 Hartrees.
 Leave Link  301 at Mon Sep 21 05:44:27 2020, MaxMem=  2147483648 cpu:               0.3 elap:               0.1
 (Enter /prod/apps/gaussian/g16b1/l302.exe)
 NPDir=0 NMtPBC=     1 NCelOv=     1 NCel=       1 NClECP=     1 NCelD=      1
         NCelK=      1 NCelE2=     1 NClLst=     1 CellRange=     0.0.
 One-electron integrals computed using PRISM.
 NBasis=   391 RedAO= T EigKep=  4.70D-04  NBF=   391
 NBsUse=   391 1.00D-06 EigRej= -1.00D+00 NBFU=   391
 Precomputing XC quadrature grid using
 IXCGrd= 4 IRadAn=           5 IRanWt=          -1 IRanGd=           0 AccXCQ= 0.00D+00.
 Generated NRdTot=       0 NPtTot=           0 NUsed=           0 NTot=          32
 NSgBfM=   387   386   387   387   387 MxSgAt=    42 MxSgA2=    42.
 Leave Link  302 at Mon Sep 21 05:44:28 2020, MaxMem=  2147483648 cpu:               2.3 elap:               0.6
 (Enter /prod/apps/gaussian/g16b1/l303.exe)
 DipDrv:  MaxL=1.
 Leave Link  303 at Mon Sep 21 05:44:28 2020, MaxMem=  2147483648 cpu:               0.2 elap:               0.1
 (Enter /prod/apps/gaussian/g16b1/l401.exe)
 ExpMin= 1.17D-01 ExpMax= 2.19D+04 ExpMxC= 3.30D+03 IAcc=3 IRadAn=         5 AccDes= 0.00D+00
 Harris functional with IExCor=  402 and IRadAn=       5 diagonalized for initial guess.
 HarFok:  IExCor=  402 AccDes= 0.00D+00 IRadAn=         5 IDoV= 1 UseB2=F ITyADJ=14
 ICtDFT=  3500011 ScaDFX=  1.000000  1.000000  1.000000  1.000000
 FoFCou: FMM=F IPFlag=           0 FMFlag=      100000 FMFlg1=           0
         NFxFlg=           0 DoJE=T BraDBF=F KetDBF=T FulRan=T
         wScrn=  0.000000 ICntrl=       500 IOpCl=  0 I1Cent=   200000004 NGrid=           0
         NMat0=    1 NMatS0=      1 NMatT0=    0 NMatD0=    1 NMtDS0=    0 NMtDT0=    0
 Symmetry not used in FoFCou.
 Harris En= -1735.98041668216    
 JPrj=0 DoOrth=F DoCkMO=F.
 Leave Link  401 at Mon Sep 21 05:44:31 2020, MaxMem=  2147483648 cpu:              12.8 elap:               3.2
 (Enter /prod/apps/gaussian/g16b1/l502.exe)
 Two-electron integral symmetry not used.
 Closed shell SCF:
 Using DIIS extrapolation, IDIIS=  1040.
 NGot=  2147483648 LenX=  2147172117 LenY=  2147018795
 Requested convergence on RMS density matrix=1.00D-08 within2000 cycles.
 Requested convergence on MAX density matrix=1.00D-06.
 Requested convergence on             energy=1.00D-06.
 No special actions if energy rises.

 Cycle   1  Pass 1  IDiag  1:
 FoFJK:  IHMeth= 1 ICntrl=       0 DoSepK=F KAlg= 0 I1Cent=           0 FoldK=F
 IRaf= 760000000 NMat=       1 IRICut=       1 DoRegI=T DoRafI=F ISym2E= 0 IDoP0=0 IntGTp=1.
 FoFCou: FMM=F IPFlag=           0 FMFlag=      100000 FMFlg1=           0
         NFxFlg=           0 DoJE=F BraDBF=F KetDBF=F FulRan=T
         wScrn=  0.000000 ICntrl=         0 IOpCl=  0 I1Cent=           0 NGrid=           0
         NMat0=    1 NMatS0=      1 NMatT0=    0 NMatD0=    1 NMtDS0=    0 NMtDT0=    0
 Symmetry not used in FoFCou.
 Inv3:  Mode=1 IEnd=    26712768.
 Iteration    1 A*A^-1 deviation from unit magnitude is 3.55D-15 for   1122.
 Iteration    1 A*A^-1 deviation from orthogonality  is 2.66D-15 for   2753    732.
 Iteration    1 A^-1*A deviation from unit magnitude is 3.33D-15 for   1112.
 Iteration    1 A^-1*A deviation from orthogonality  is 5.47D-13 for   2086   2061.
 E= -1735.14405525439    
 DIIS: error= 3.22D-02 at cycle   1 NSaved=   1.
 NSaved= 1 IEnMin= 1 EnMin= -1735.14405525439     IErMin= 1 ErrMin= 3.22D-02
 ErrMax= 3.22D-02  0.00D+00 EMaxC= 1.00D-01 BMatC= 8.86D-01 BMatP= 8.86D-01
 IDIUse=3 WtCom= 6.78D-01 WtEn= 3.22D-01
 Coeff-Com:  0.100D+01
 Coeff-En:   0.100D+01
 Coeff:      0.100D+01
 Gap=     0.247 Goal=   None    Shift=    0.000
 GapD=    0.247 DampG=1.000 DampE=0.500 DampFc=0.5000 IDamp=-1.
 Damping current iteration by 5.00D-01
 RMSDP=6.17D-03 MaxDP=5.57D-01              OVMax= 2.36D-01

 Cycle   2  Pass 1  IDiag  1:
 E= -1735.36089590524     Delta-E=       -0.216840650843 Rises=F Damp=T
 DIIS: error= 1.20D-02 at cycle   2 NSaved=   2.
 NSaved= 2 IEnMin= 2 EnMin= -1735.36089590524     IErMin= 2 ErrMin= 1.20D-02
 ErrMax= 1.20D-02  0.00D+00 EMaxC= 1.00D-01 BMatC= 1.25D-01 BMatP= 8.86D-01
 IDIUse=3 WtCom= 8.80D-01 WtEn= 1.20D-01
 Coeff-Com:  0.217D+00 0.783D+00
 Coeff-En:   0.346D+00 0.654D+00
 Coeff:      0.232D+00 0.768D+00
 Gap=     0.263 Goal=   None    Shift=    0.000
 RMSDP=1.91D-03 MaxDP=1.32D-01 DE=-2.17D-01 OVMax= 1.80D-01

 Cycle   3  Pass 1  IDiag  1:
 E= -1735.86238249996     Delta-E=       -0.501486594722 Rises=F Damp=F
 DIIS: error= 9.08D-03 at cycle   3 NSaved=   3.
 NSaved= 3 IEnMin= 3 EnMin= -1735.86238249996     IErMin= 3 ErrMin= 9.08D-03
 ErrMax= 9.08D-03  0.00D+00 EMaxC= 1.00D-01 BMatC= 8.23D-02 BMatP= 1.25D-01
 IDIUse=3 WtCom= 9.09D-01 WtEn= 9.08D-02
 Coeff-Com:  0.715D-01 0.450D+00 0.478D+00
 Coeff-En:   0.000D+00 0.000D+00 0.100D+01
 Coeff:      0.650D-01 0.410D+00 0.525D+00
 Gap=     0.201 Goal=   None    Shift=    0.000
 RMSDP=1.09D-03 MaxDP=4.46D-02 DE=-5.01D-01 OVMax= 9.62D-02

 Cycle   4  Pass 1  IDiag  1:
 E= -1735.92614603348     Delta-E=       -0.063763533518 Rises=F Damp=F
 DIIS: error= 4.48D-03 at cycle   4 NSaved=   4.
 NSaved= 4 IEnMin= 4 EnMin= -1735.92614603348     IErMin= 4 ErrMin= 4.48D-03
 ErrMax= 4.48D-03  0.00D+00 EMaxC= 1.00D-01 BMatC= 1.28D-02 BMatP= 8.23D-02
 IDIUse=3 WtCom= 9.55D-01 WtEn= 4.48D-02
 Coeff-Com:  0.493D-02 0.101D+00 0.299D+00 0.595D+00
 Coeff-En:   0.000D+00 0.000D+00 0.139D+00 0.861D+00
 Coeff:      0.471D-02 0.969D-01 0.291D+00 0.607D+00
 Gap=     0.194 Goal=   None    Shift=    0.000
 RMSDP=4.09D-04 MaxDP=1.96D-02 DE=-6.38D-02 OVMax= 3.47D-02

 Cycle   5  Pass 1  IDiag  1:
 E= -1735.93665844191     Delta-E=       -0.010512408430 Rises=F Damp=F
 DIIS: error= 1.38D-03 at cycle   5 NSaved=   5.
 NSaved= 5 IEnMin= 5 EnMin= -1735.93665844191     IErMin= 5 ErrMin= 1.38D-03
 ErrMax= 1.38D-03  0.00D+00 EMaxC= 1.00D-01 BMatC= 1.38D-03 BMatP= 1.28D-02
 IDIUse=3 WtCom= 9.86D-01 WtEn= 1.38D-02
 Coeff-Com: -0.330D-02 0.210D-01 0.122D+00 0.352D+00 0.509D+00
 Coeff-En:   0.000D+00 0.000D+00 0.000D+00 0.464D-01 0.954D+00
 Coeff:     -0.325D-02 0.207D-01 0.120D+00 0.348D+00 0.515D+00
 Gap=     0.192 Goal=   None    Shift=    0.000
 RMSDP=1.30D-04 MaxDP=7.15D-03 DE=-1.05D-02 OVMax= 9.30D-03

 Cycle   6  Pass 1  IDiag  1:
 E= -1735.93781099665     Delta-E=       -0.001152554747 Rises=F Damp=F
 DIIS: error= 4.14D-04 at cycle   6 NSaved=   6.
 NSaved= 6 IEnMin= 6 EnMin= -1735.93781099665     IErMin= 6 ErrMin= 4.14D-04
 ErrMax= 4.14D-04  0.00D+00 EMaxC= 1.00D-01 BMatC= 1.38D-04 BMatP= 1.38D-03
 IDIUse=3 WtCom= 9.96D-01 WtEn= 4.14D-03
 Coeff-Com: -0.220D-02 0.418D-02 0.436D-01 0.147D+00 0.304D+00 0.504D+00
 Coeff-En:   0.000D+00 0.000D+00 0.000D+00 0.000D+00 0.545D-02 0.995D+00
 Coeff:     -0.219D-02 0.417D-02 0.435D-01 0.146D+00 0.302D+00 0.506D+00
 Gap=     0.192 Goal=   None    Shift=    0.000
 RMSDP=3.63D-05 MaxDP=2.24D-03 DE=-1.15D-03 OVMax= 2.33D-03

 Cycle   7  Pass 1  IDiag  1:
 E= -1735.93791210661     Delta-E=       -0.000101109961 Rises=F Damp=F
 DIIS: error= 1.09D-04 at cycle   7 NSaved=   7.
 NSaved= 7 IEnMin= 7 EnMin= -1735.93791210661     IErMin= 7 ErrMin= 1.09D-04
 ErrMax= 1.09D-04  0.00D+00 EMaxC= 1.00D-01 BMatC= 1.19D-05 BMatP= 1.38D-04
 IDIUse=3 WtCom= 9.99D-01 WtEn= 1.09D-03
 Coeff-Com: -0.933D-03 0.530D-04 0.116D-01 0.454D-01 0.118D+00 0.287D+00
 Coeff-Com:  0.539D+00
 Coeff-En:   0.000D+00 0.000D+00 0.000D+00 0.000D+00 0.000D+00 0.195D-01
 Coeff-En:   0.980D+00
 Coeff:     -0.932D-03 0.529D-04 0.116D-01 0.453D-01 0.118D+00 0.287D+00
 Coeff:      0.539D+00
 Gap=     0.192 Goal=   None    Shift=    0.000
 RMSDP=1.02D-05 MaxDP=4.22D-04 DE=-1.01D-04 OVMax= 6.99D-04

 Cycle   8  Pass 1  IDiag  1:
 E= -1735.93792222826     Delta-E=       -0.000010121647 Rises=F Damp=F
 DIIS: error= 2.17D-05 at cycle   8 NSaved=   8.
 NSaved= 8 IEnMin= 8 EnMin= -1735.93792222826     IErMin= 8 ErrMin= 2.17D-05
 ErrMax= 2.17D-05  0.00D+00 EMaxC= 1.00D-01 BMatC= 4.99D-07 BMatP= 1.19D-05
 IDIUse=1 WtCom= 1.00D+00 WtEn= 0.00D+00
 Coeff-Com: -0.209D-03-0.323D-03 0.101D-02 0.640D-02 0.240D-01 0.789D-01
 Coeff-Com:  0.231D+00 0.659D+00
 Coeff:     -0.209D-03-0.323D-03 0.101D-02 0.640D-02 0.240D-01 0.789D-01
 Coeff:      0.231D+00 0.659D+00
 Gap=     0.192 Goal=   None    Shift=    0.000
 RMSDP=2.74D-06 MaxDP=1.35D-04 DE=-1.01D-05 OVMax= 1.98D-04

 Cycle   9  Pass 1  IDiag  1:
 E= -1735.93792265251     Delta-E=       -0.000000424247 Rises=F Damp=F
 DIIS: error= 6.49D-06 at cycle   9 NSaved=   9.
 NSaved= 9 IEnMin= 9 EnMin= -1735.93792265251     IErMin= 9 ErrMin= 6.49D-06
 ErrMax= 6.49D-06  0.00D+00 EMaxC= 1.00D-01 BMatC= 7.44D-08 BMatP= 4.99D-07
 IDIUse=1 WtCom= 1.00D+00 WtEn= 0.00D+00
 Coeff-Com: -0.157D-04-0.156D-03-0.645D-03-0.127D-02 0.222D-03 0.115D-01
 Coeff-Com:  0.613D-01 0.339D+00 0.590D+00
 Coeff:     -0.157D-04-0.156D-03-0.645D-03-0.127D-02 0.222D-03 0.115D-01
 Coeff:      0.613D-01 0.339D+00 0.590D+00
 Gap=     0.192 Goal=   None    Shift=    0.000
 RMSDP=8.23D-07 MaxDP=4.37D-05 DE=-4.24D-07 OVMax= 5.07D-05

 Cycle  10  Pass 1  IDiag  1:
 E= -1735.93792272065     Delta-E=       -0.000000068144 Rises=F Damp=F
 DIIS: error= 1.75D-06 at cycle  10 NSaved=  10.
 NSaved=10 IEnMin=10 EnMin= -1735.93792272065     IErMin=10 ErrMin= 1.75D-06
 ErrMax= 1.75D-06  0.00D+00 EMaxC= 1.00D-01 BMatC= 4.03D-09 BMatP= 7.44D-08
 IDIUse=1 WtCom= 1.00D+00 WtEn= 0.00D+00
 Coeff-Com:  0.963D-06-0.499D-04-0.362D-03-0.905D-03-0.109D-02 0.192D-02
 Coeff-Com:  0.184D-01 0.135D+00 0.285D+00 0.562D+00
 Coeff:      0.963D-06-0.499D-04-0.362D-03-0.905D-03-0.109D-02 0.192D-02
 Coeff:      0.184D-01 0.135D+00 0.285D+00 0.562D+00
 Gap=     0.192 Goal=   None    Shift=    0.000
 RMSDP=2.18D-07 MaxDP=1.32D-05 DE=-6.81D-08 OVMax= 1.45D-05

 Cycle  11  Pass 1  IDiag  1:
 E= -1735.93792272402     Delta-E=       -0.000000003368 Rises=F Damp=F
 DIIS: error= 5.60D-07 at cycle  11 NSaved=  11.
 NSaved=11 IEnMin=11 EnMin= -1735.93792272402     IErMin=11 ErrMin= 5.60D-07
 ErrMax= 5.60D-07  0.00D+00 EMaxC= 1.00D-01 BMatC= 4.56D-10 BMatP= 4.03D-09
 IDIUse=1 WtCom= 1.00D+00 WtEn= 0.00D+00
 Coeff-Com:  0.148D-05-0.146D-05-0.103D-03-0.284D-03-0.655D-03-0.702D-03
 Coeff-Com:  0.208D-03 0.191D-01 0.543D-01 0.266D+00 0.662D+00
 Coeff:      0.148D-05-0.146D-05-0.103D-03-0.284D-03-0.655D-03-0.702D-03
 Coeff:      0.208D-03 0.191D-01 0.543D-01 0.266D+00 0.662D+00
 Gap=     0.192 Goal=   None    Shift=    0.000
 RMSDP=6.76D-08 MaxDP=2.87D-06 DE=-3.37D-09 OVMax= 5.78D-06

 Cycle  12  Pass 1  IDiag  1:
 E= -1735.93792272439     Delta-E=       -0.000000000372 Rises=F Damp=F
 DIIS: error= 2.94D-07 at cycle  12 NSaved=  12.
 NSaved=12 IEnMin=12 EnMin= -1735.93792272439     IErMin=12 ErrMin= 2.94D-07
 ErrMax= 2.94D-07  0.00D+00 EMaxC= 1.00D-01 BMatC= 5.59D-11 BMatP= 4.56D-10
 IDIUse=1 WtCom= 1.00D+00 WtEn= 0.00D+00
 Coeff-Com:  0.401D-06 0.330D-05-0.270D-04-0.742D-04-0.267D-03-0.530D-03
 Coeff-Com: -0.156D-02-0.157D-02 0.332D-02 0.909D-01 0.351D+00 0.559D+00
 Coeff:      0.401D-06 0.330D-05-0.270D-04-0.742D-04-0.267D-03-0.530D-03
 Coeff:     -0.156D-02-0.157D-02 0.332D-02 0.909D-01 0.351D+00 0.559D+00
 Gap=     0.192 Goal=   None    Shift=    0.000
 RMSDP=2.42D-08 MaxDP=1.30D-06 DE=-3.72D-10 OVMax= 2.55D-06

 Cycle  13  Pass 1  IDiag  1:
 E= -1735.93792272446     Delta-E=       -0.000000000066 Rises=F Damp=F
 DIIS: error= 7.22D-08 at cycle  13 NSaved=  13.
 NSaved=13 IEnMin=13 EnMin= -1735.93792272446     IErMin=13 ErrMin= 7.22D-08
 ErrMax= 7.22D-08  0.00D+00 EMaxC= 1.00D-01 BMatC= 5.20D-12 BMatP= 5.59D-11
 IDIUse=1 WtCom= 1.00D+00 WtEn= 0.00D+00
 Coeff-Com:  0.769D-08 0.195D-05-0.278D-05-0.631D-05-0.657D-04-0.184D-03
 Coeff-Com: -0.806D-03-0.275D-02-0.439D-02 0.145D-01 0.998D-01 0.287D+00
 Coeff-Com:  0.607D+00
 Coeff:      0.769D-08 0.195D-05-0.278D-05-0.631D-05-0.657D-04-0.184D-03
 Coeff:     -0.806D-03-0.275D-02-0.439D-02 0.145D-01 0.998D-01 0.287D+00
 Coeff:      0.607D+00
 Gap=     0.192 Goal=   None    Shift=    0.000
 RMSDP=7.85D-09 MaxDP=3.89D-07 DE=-6.59D-11 OVMax= 5.68D-07

 Error on total polarization charges =  0.02216
 SCF Done:  E(RB3LYP) =  -1735.93792272     A.U. after   13 cycles
            NFock= 13  Conv=0.79D-08     -V/T= 2.0068
 KE= 1.724241004054D+03 PE=-8.690197740097D+03 EE= 2.922198675698D+03
 Leave Link  502 at Mon Sep 21 05:46:25 2020, MaxMem=  2147483648 cpu:             456.6 elap:             114.2
 (Enter /prod/apps/gaussian/g16b1/l601.exe)
 Copying SCF densities to generalized density rwf, IOpCl= 0 IROHF=0.

 **********************************************************************

            Population analysis using the SCF Density.

 **********************************************************************

 Alpha  occ. eigenvalues --  -89.12661 -88.98472 -19.15746 -19.15469 -19.11783
 Alpha  occ. eigenvalues --  -14.37347 -10.26151 -10.23309 -10.21473 -10.21403
 Alpha  occ. eigenvalues --  -10.21287 -10.20899 -10.20726 -10.20638 -10.20607
 Alpha  occ. eigenvalues --  -10.19605 -10.19317 -10.18973 -10.18937 -10.18844
 Alpha  occ. eigenvalues --  -10.18805 -10.18701 -10.18679  -8.15115  -8.03298
 Alpha  occ. eigenvalues --   -6.11606  -6.11565  -6.11413  -5.99719  -5.99508
 Alpha  occ. eigenvalues --   -5.99077  -1.12349  -1.01392  -1.00543  -0.93953
 Alpha  occ. eigenvalues --   -0.87625  -0.85630  -0.84346  -0.78885  -0.77875
 Alpha  occ. eigenvalues --   -0.76434  -0.74273  -0.73810  -0.69676  -0.68960
 Alpha  occ. eigenvalues --   -0.66163  -0.62568  -0.62197  -0.60778  -0.60221
 Alpha  occ. eigenvalues --   -0.57742  -0.56570  -0.55361  -0.52116  -0.51666
 Alpha  occ. eigenvalues --   -0.50433  -0.49301  -0.47558  -0.47431  -0.46221
 Alpha  occ. eigenvalues --   -0.45715  -0.45559  -0.45103  -0.44860  -0.43888
 Alpha  occ. eigenvalues --   -0.43398  -0.42385  -0.41543  -0.41355  -0.40142
 Alpha  occ. eigenvalues --   -0.38848  -0.38486  -0.38408  -0.37968  -0.37140
 Alpha  occ. eigenvalues --   -0.36391  -0.36202  -0.35798  -0.35166  -0.33911
 Alpha  occ. eigenvalues --   -0.33252  -0.33116  -0.32818  -0.31656  -0.31214
 Alpha  occ. eigenvalues --   -0.29484  -0.26983  -0.26601  -0.26204  -0.25156
 Alpha  occ. eigenvalues --   -0.24423  -0.23210
 Alpha virt. eigenvalues --   -0.03988  -0.01979  -0.00524  -0.00133   0.01041
 Alpha virt. eigenvalues --    0.03275   0.05517   0.06675   0.06902   0.08685
 Alpha virt. eigenvalues --    0.09291   0.10159   0.10945   0.11807   0.12304
 Alpha virt. eigenvalues --    0.12772   0.13431   0.14148   0.14736   0.15073
 Alpha virt. eigenvalues --    0.15541   0.16024   0.16838   0.17124   0.17363
 Alpha virt. eigenvalues --    0.17785   0.18447   0.19216   0.19493   0.20588
 Alpha virt. eigenvalues --    0.20727   0.21012   0.22753   0.22940   0.24462
 Alpha virt. eigenvalues --    0.24971   0.27179   0.27727   0.28422   0.29202
 Alpha virt. eigenvalues --    0.30286   0.30818   0.31750   0.32621   0.33127
 Alpha virt. eigenvalues --    0.33594   0.34696   0.35101   0.35659   0.36193
 Alpha virt. eigenvalues --    0.40517   0.42323   0.43008   0.44022   0.46488
 Alpha virt. eigenvalues --    0.48540   0.49191   0.50588   0.51593   0.52044
 Alpha virt. eigenvalues --    0.52303   0.53606   0.53940   0.54872   0.55262
 Alpha virt. eigenvalues --    0.55824   0.56740   0.57095   0.57611   0.58012
 Alpha virt. eigenvalues --    0.58796   0.59464   0.59637   0.59862   0.60031
 Alpha virt. eigenvalues --    0.60694   0.60966   0.61043   0.61604   0.62408
 Alpha virt. eigenvalues --    0.63169   0.63350   0.63572   0.63720   0.64165
 Alpha virt. eigenvalues --    0.66359   0.67410   0.67821   0.68457   0.71229
 Alpha virt. eigenvalues --    0.71911   0.72850   0.73239   0.74488   0.76085
 Alpha virt. eigenvalues --    0.77288   0.78102   0.79149   0.80765   0.81314
 Alpha virt. eigenvalues --    0.81974   0.82158   0.83390   0.83871   0.83975
 Alpha virt. eigenvalues --    0.84098   0.84770   0.85092   0.86000   0.86739
 Alpha virt. eigenvalues --    0.86829   0.87982   0.88143   0.89479   0.90075
 Alpha virt. eigenvalues --    0.90268   0.91286   0.91733   0.91902   0.92412
 Alpha virt. eigenvalues --    0.93186   0.94230   0.94928   0.95075   0.96261
 Alpha virt. eigenvalues --    0.96689   0.98127   0.99126   1.00432   1.01263
 Alpha virt. eigenvalues --    1.02502   1.03829   1.04116   1.04350   1.05747
 Alpha virt. eigenvalues --    1.07138   1.07445   1.08337   1.09038   1.11298
 Alpha virt. eigenvalues --    1.11649   1.13075   1.13776   1.14489   1.15247
 Alpha virt. eigenvalues --    1.16539   1.17087   1.17853   1.19220   1.19737
 Alpha virt. eigenvalues --    1.20813   1.21705   1.22529   1.23491   1.25346
 Alpha virt. eigenvalues --    1.27431   1.27833   1.29339   1.31855   1.35259
 Alpha virt. eigenvalues --    1.36812   1.39801   1.41854   1.42626   1.43226
 Alpha virt. eigenvalues --    1.43759   1.44934   1.45478   1.45989   1.47608
 Alpha virt. eigenvalues --    1.48559   1.48704   1.49059   1.49775   1.51394
 Alpha virt. eigenvalues --    1.51568   1.56848   1.57404   1.59582   1.63121
 Alpha virt. eigenvalues --    1.66543   1.70297   1.72074   1.75018   1.75298
 Alpha virt. eigenvalues --    1.75826   1.76474   1.78269   1.79080   1.80424
 Alpha virt. eigenvalues --    1.81345   1.81914   1.83215   1.84200   1.85136
 Alpha virt. eigenvalues --    1.85512   1.86337   1.87252   1.88405   1.89622
 Alpha virt. eigenvalues --    1.90548   1.91165   1.91298   1.92564   1.92896
 Alpha virt. eigenvalues --    1.94797   1.96328   1.97110   1.97717   1.98041
 Alpha virt. eigenvalues --    1.99109   1.99731   2.02037   2.03372   2.05097
 Alpha virt. eigenvalues --    2.06286   2.07354   2.08798   2.09509   2.10436
 Alpha virt. eigenvalues --    2.12483   2.12972   2.13788   2.13831   2.13993
 Alpha virt. eigenvalues --    2.14577   2.15385   2.15663   2.16090   2.17029
 Alpha virt. eigenvalues --    2.19166   2.21122   2.23411   2.24846   2.25701
 Alpha virt. eigenvalues --    2.27609   2.28447   2.28680   2.30226   2.30594
 Alpha virt. eigenvalues --    2.31366   2.32067   2.35276   2.37174   2.39645
 Alpha virt. eigenvalues --    2.41275   2.45987   2.49654   2.53149   2.57579
 Alpha virt. eigenvalues --    2.58191   2.58461   2.59338   2.63073   2.64842
 Alpha virt. eigenvalues --    2.65764   2.69607   2.70222   2.70689   2.71778
 Alpha virt. eigenvalues --    2.72666   2.73100   2.73593   2.74740   2.75479
 Alpha virt. eigenvalues --    2.76147   2.77048   2.77374   2.79598   2.82456
 Alpha virt. eigenvalues --    2.89154   2.89389   3.02297   3.05839   3.36806
 Alpha virt. eigenvalues --    3.40971   3.74941   3.82429   3.93122   3.98086
 Alpha virt. eigenvalues --    4.01209   4.04183   4.07877   4.09847   4.10813
 Alpha virt. eigenvalues --    4.11914   4.15835   4.17636   4.21815   4.27111
 Alpha virt. eigenvalues --    4.33091   4.33687   4.33963   4.37099   4.42148
 Alpha virt. eigenvalues --    4.54246   4.65086   4.70114   4.73505
          Condensed to atoms (all electrons):
               1          2          3          4          5          6
     1  O    8.296490   0.411475  -0.052489   0.001391  -0.001151   0.000176
     2  S    0.411475  13.674431   0.160377  -0.004525  -0.007457   0.000471
     3  N   -0.052489   0.160377   7.372100   0.216506  -0.046111   0.004646
     4  C    0.001391  -0.004525   0.216506   4.841443   0.329253  -0.064962
     5  C   -0.001151  -0.007457  -0.046111   0.329253   5.667133   0.084384
     6  S    0.000176   0.000471   0.004646  -0.064962   0.084384  14.894083
     7  O   -0.000000   0.000000  -0.000054  -0.000646  -0.038367   0.290005
     8  C   -0.010095  -0.004793  -0.045132   0.322442  -0.128947   0.089699
     9  C    0.000059   0.000755  -0.053110   0.375708  -0.056295   0.004924
    10  C   -0.000011  -0.000118  -0.007980  -0.037941   0.004937  -0.000345
    11  C    0.000001   0.000032  -0.000709  -0.002161  -0.000045  -0.000109
    12  C    0.000000   0.000003   0.000006  -0.000897  -0.000019   0.000169
    13  C    0.000000  -0.000000  -0.000000  -0.000003   0.000000  -0.000001
    14  C    0.000000   0.000000   0.000000   0.000004   0.000000  -0.000001
    15  C   -0.000000  -0.000001   0.000005  -0.000006  -0.000000   0.000004
    16  C   -0.000003   0.000048   0.000213   0.001041   0.000003   0.000119
    17  C   -0.058847   0.180252  -0.060238  -0.002840   0.000497   0.000045
    18  C    0.001826  -0.026841  -0.000533   0.000167  -0.004327  -0.000015
    19  C    0.000618   0.002611  -0.000099   0.000038  -0.000540   0.000000
    20  C   -0.000005  -0.000382   0.000002   0.000004   0.000025  -0.000000
    21  C   -0.000041   0.002383  -0.000051  -0.000008   0.000108  -0.000000
    22  C    0.001751  -0.021258  -0.001727   0.000062   0.000525   0.000008
    23  O   -0.041080   0.447971  -0.058761   0.002097  -0.000062  -0.000001
    24  H    0.001432  -0.003661   0.288589  -0.025323   0.000435  -0.000299
    25  H    0.000006   0.000098   0.001521  -0.028569   0.353707  -0.017882
    26  H    0.000180   0.002534  -0.005201  -0.025788   0.322067  -0.007913
    27  H    0.000163   0.000183   0.001430  -0.027667   0.009521  -0.017950
    28  H    0.015621   0.001697  -0.004685  -0.024911   0.002897  -0.005845
    29  H    0.000001  -0.000189  -0.006286  -0.034182  -0.007265  -0.000534
    30  H    0.000001   0.000037   0.003217  -0.034754  -0.005823   0.005287
    31  H   -0.000003   0.000350   0.009157  -0.011293   0.000228  -0.000044
    32  H   -0.000000  -0.000004   0.000243   0.004912  -0.000124   0.000040
    33  H    0.000000   0.000000   0.000000   0.000103   0.000000  -0.000017
    34  H   -0.000000   0.000000  -0.000000   0.000000  -0.000000   0.000001
    35  H    0.000000  -0.000000   0.000000  -0.000000   0.000000  -0.000000
    36  H    0.000000  -0.000000  -0.000000   0.000001  -0.000000   0.000000
    37  H   -0.000004   0.000272   0.000858  -0.000103   0.000004   0.000002
    38  H    0.011460  -0.005639   0.000178   0.000031  -0.000260   0.000194
    39  H    0.000002  -0.000054   0.000001   0.000000  -0.000007   0.000000
    40  H   -0.000000   0.000007  -0.000000  -0.000000   0.000000  -0.000000
    41  H    0.000000  -0.000046   0.000002   0.000000  -0.000000   0.000000
    42  H    0.000061  -0.000336   0.000153   0.000038  -0.000012   0.000000
               7          8          9         10         11         12
     1  O   -0.000000  -0.010095   0.000059  -0.000011   0.000001   0.000000
     2  S    0.000000  -0.004793   0.000755  -0.000118   0.000032   0.000003
     3  N   -0.000054  -0.045132  -0.053110  -0.007980  -0.000709   0.000006
     4  C   -0.000646   0.322442   0.375708  -0.037941  -0.002161  -0.000897
     5  C   -0.038367  -0.128947  -0.056295   0.004937  -0.000045  -0.000019
     6  S    0.290005   0.089699   0.004924  -0.000345  -0.000109   0.000169
     7  O    8.461426  -0.038376  -0.007833   0.000222  -0.000184   0.000182
     8  C   -0.038376   5.669979  -0.049238  -0.004951  -0.001342  -0.001731
     9  C   -0.007833  -0.049238   5.181178   0.335119  -0.035999  -0.003557
    10  C    0.000222  -0.004951   0.335119   5.158444   0.359607  -0.066300
    11  C   -0.000184  -0.001342  -0.035999   0.359607   4.665917   0.532750
    12  C    0.000182  -0.001731  -0.003557  -0.066300   0.532750   5.004259
    13  C   -0.000028  -0.000175   0.000152   0.006062  -0.019007   0.520857
    14  C    0.000001   0.000059   0.000006   0.000308  -0.035067  -0.037573
    15  C   -0.000000  -0.000024  -0.000170   0.007067  -0.023578  -0.046916
    16  C   -0.000000  -0.002048  -0.000650  -0.049757   0.545770  -0.045634
    17  C   -0.000000  -0.000804  -0.000221  -0.000000   0.000000  -0.000000
    18  C   -0.000000   0.000003  -0.000004   0.000000   0.000000  -0.000000
    19  C    0.000000  -0.000002  -0.000000  -0.000000   0.000000   0.000000
    20  C    0.000000   0.000000   0.000000  -0.000000   0.000000   0.000000
    21  C    0.000000   0.000000  -0.000000  -0.000000  -0.000000  -0.000000
    22  C   -0.000000  -0.000001  -0.000022  -0.000000  -0.000000  -0.000000
    23  O   -0.000000  -0.000092  -0.000078  -0.000009   0.000001   0.000000
    24  H    0.000002   0.004259  -0.004391  -0.000229   0.000207   0.000002
    25  H   -0.000002   0.009956  -0.005499   0.000143   0.000012  -0.000000
    26  H    0.001261   0.003218   0.004194  -0.000110   0.000001   0.000000
    27  H    0.000077   0.349893  -0.007059  -0.000886   0.006348   0.003530
    28  H    0.001184   0.322317   0.004173  -0.000024  -0.000005   0.000059
    29  H    0.000245   0.006261   0.354689  -0.030554   0.004201   0.000095
    30  H    0.025292  -0.008005   0.352460  -0.029415  -0.006490   0.003519
    31  H   -0.000002  -0.000375  -0.036130   0.363418  -0.034187   0.004924
    32  H   -0.000001  -0.000091  -0.034020   0.361792  -0.030637  -0.005519
    33  H    0.000235  -0.000045   0.000702  -0.008347  -0.045845   0.359836
    34  H   -0.000001  -0.000002   0.000002  -0.000172   0.003564  -0.039332
    35  H    0.000000  -0.000000   0.000000   0.000007   0.000620   0.004624
    36  H   -0.000000  -0.000005   0.000001  -0.000169   0.003722   0.000715
    37  H    0.000000   0.000059   0.000125  -0.011237  -0.041691   0.006433
    38  H   -0.000000  -0.000041   0.000002   0.000000   0.000000   0.000000
    39  H   -0.000000   0.000000   0.000000  -0.000000  -0.000000  -0.000000
    40  H   -0.000000  -0.000000   0.000000   0.000000   0.000000   0.000000
    41  H   -0.000000   0.000000   0.000000   0.000000  -0.000000   0.000000
[...]
    34  H   -0.824859   0.342585  -0.255765   0.118917   0.000116   0.000011
    35  H    0.361087  -0.716434   0.392265  -0.036751   0.000012  -0.000029
    36  H   -0.208885   0.351969  -0.761373   0.516218   0.000667   0.000265
    37  H    0.096215  -0.158637   0.405688  -1.454881  -0.014001  -0.001359
    38  H   -0.000158  -0.000151   0.000263   0.001023   0.299632  -1.196994
    39  H   -0.000001   0.000007   0.000038  -0.000073  -0.052298   0.530775
    40  H    0.000001  -0.000001  -0.000006   0.000007   0.089452  -0.100732
    41  H   -0.000010   0.000008  -0.000011   0.000059  -0.174732   0.179461
    42  H    0.000034  -0.000038   0.000778  -0.000345   0.977839  -0.201031
              19         20         21         22         23         24
     1  O   -0.030806  -0.032559   0.056253  -0.108985   0.039760   0.038712
     2  S   -0.441939   0.286832  -0.497066   0.646186  -0.376249  -0.322907
     3  N   -0.034457   0.124284  -0.338414   0.196987  -0.085710  -0.150589
     4  C    0.072200  -0.318061   0.773107  -0.546111   0.132559   0.823731
     5  C    0.073484   0.077715  -0.231387   0.092776  -0.017679  -0.114188
     6  S    0.007465  -0.012041   0.001025   0.011243  -0.000209  -0.004043
     7  O    0.000148   0.000422   0.000154  -0.003316   0.000241  -0.000612
     8  C    0.051856   0.014236  -0.070770   0.011606  -0.055186  -0.169427
     9  C   -0.001243  -0.000196  -0.005574  -0.172539   0.083426  -0.088458
    10  C    0.007454  -0.005446  -0.001171  -0.056467   0.011064   0.008359
    11  C    0.000974  -0.001561   0.001270  -0.004245   0.000315  -0.025067
    12  C   -0.000197   0.000259  -0.000751  -0.004848   0.001866   0.002632
    13  C   -0.000062   0.000034  -0.000169  -0.000009   0.000208   0.003447
    14  C    0.000110  -0.000029   0.000102  -0.000299  -0.000260  -0.004515
    15  C    0.000289  -0.000104  -0.000222  -0.001651  -0.003734  -0.004937
    16  C   -0.000162   0.000018   0.000673   0.002915  -0.002166  -0.036378
    17  C    3.244531  -4.291593   2.990887  -8.041019   0.279002   0.061619
    18  C   -5.395476   3.650008  -4.263962   1.753091  -0.033316  -0.033130
    19  C   12.628719  -4.073960   4.209715  -4.851294   0.038266  -0.015192
    20  C   -4.073960  10.266594  -3.911755   3.919057  -0.031407   0.015066
    21  C    4.209715  -3.911755  11.857974  -4.797711   0.029577   0.028599
    22  C   -4.851294   3.919057  -4.797711  19.228250  -0.196241   0.014677
    23  O    0.038266  -0.031407   0.029577  -0.196241   9.240728   0.034274
    24  H   -0.015192   0.015066   0.028599   0.014677   0.034274   1.108231
    25  H    0.001201   0.005696  -0.017370  -0.026005  -0.002168   0.003384
    26  H   -0.055612   0.086673  -0.096603   0.058981   0.010623  -0.011951
    27  H   -0.000556   0.001721  -0.005808   0.006441  -0.010489  -0.006359
    28  H    0.025378  -0.003788   0.001439  -0.015359   0.006861  -0.002990
    29  H    0.000128  -0.003664   0.010880  -0.015864   0.003338  -0.017618
    30  H   -0.005924   0.003672  -0.000362   0.019105   0.002596   0.007378
    31  H    0.001182  -0.002098   0.003727  -0.004532  -0.008616   0.001944
    32  H    0.000142   0.000261  -0.001494  -0.000419   0.001520  -0.002315
    33  H    0.000185  -0.000100   0.000044  -0.001032  -0.000120  -0.002927
    34  H   -0.000006  -0.000000  -0.000003   0.000001   0.000021  -0.000061
    35  H    0.000003  -0.000001   0.000003  -0.000009  -0.000022   0.000022
    36  H    0.000031   0.000000  -0.000035  -0.000134   0.000253   0.000010
    37  H   -0.001339   0.000553  -0.000330   0.004655  -0.005014  -0.005465
    38  H    0.670526  -0.162008   0.110095  -0.150458  -0.006809  -0.007885
    39  H   -0.761483   0.312001  -0.238167   0.101916   0.002565   0.000056
    40  H    0.369271  -0.694676   0.395360  -0.111415  -0.001004   0.000000
    41  H   -0.290659   0.424700  -0.790388   0.536648   0.000873   0.006205
    42  H    0.193668  -0.278852   0.477379  -1.526303   0.036412   0.027144
              25         26         27         28         29         30
     1  O   -0.004616   0.000917  -0.037802   0.004169  -0.003430   0.003808
     2  S    0.047039  -0.094531   0.083768  -0.028630  -0.049657  -0.006808
     3  N    0.073419   0.243831   0.273321   0.058951  -0.054897  -0.077776
     4  C   -0.341318  -0.877350  -0.921327  -0.616079  -0.715542   0.608916
     5  C   -0.082971   0.710789   0.277925   0.032194  -0.019088  -0.116597
     6  S    0.073586  -0.154707   0.066490  -0.246060   0.014358  -0.124120
     7  O    0.016305  -0.009563   0.037289   0.020447   0.008928   0.006188
     8  C    0.246838   0.026280   0.390805   0.335271   0.257569  -0.077628
     9  C    0.047354   0.054590  -0.095662   0.218903   0.233036  -0.128824
    10  C    0.107957  -0.081077  -0.032950   0.019233   0.029264  -0.415208
    11  C    0.011962  -0.009414  -0.091134   0.048924   0.055996   0.014561
    12  C    0.013035  -0.026144   0.027231  -0.013222   0.015774  -0.124912
    13  C    0.002564  -0.002795  -0.030255  -0.006240  -0.012787   0.036006
    14  C   -0.001288  -0.000334   0.021756   0.010276   0.009250  -0.010926
    15  C    0.000933   0.000613  -0.027194   0.007348  -0.001441   0.004281
    16  C   -0.006371  -0.004360  -0.051322  -0.030017   0.025134  -0.038528
    17  C    0.013929  -0.154092  -0.028994   0.030393   0.024184  -0.018891
    18  C   -0.000654  -0.029849   0.007202  -0.015201  -0.006366   0.006645
    19  C    0.001201  -0.055612  -0.000556   0.025378   0.000128  -0.005924
    20  C    0.005696   0.086673   0.001721  -0.003788  -0.003664   0.003672
    21  C   -0.017370  -0.096603  -0.005808   0.001439   0.010880  -0.000362
    22  C   -0.026005   0.058981   0.006441  -0.015359  -0.015864   0.019105
    23  O   -0.002168   0.010623  -0.010489   0.006861   0.003338   0.002596
    24  H    0.003384  -0.011951  -0.006359  -0.002990  -0.017618   0.007378
    25  H    1.713755  -0.475038   0.013344   0.023192   0.011169  -0.102923
    26  H   -0.475038   1.883770   0.029998   0.019040   0.035575   0.034266
    27  H    0.013344   0.029998   1.706535  -0.430538   0.061191  -0.121795
    28  H    0.023192   0.019040  -0.430538   1.819674  -0.002582   0.044308
    29  H    0.011169   0.035575   0.061191  -0.002582   1.832542  -0.465254
    30  H   -0.102923   0.034266  -0.121795   0.044308  -0.465254   2.062273
    31  H    0.007586  -0.009756  -0.036870   0.021616  -0.005256   0.104522
    32  H    0.004367   0.001626   0.020600  -0.006124  -0.118367  -0.001832
    33  H    0.007242  -0.001452   0.047393  -0.001663   0.012791  -0.066560
    34  H   -0.000533   0.000040   0.004977  -0.000337   0.000756   0.005701
    35  H    0.000040  -0.000151  -0.005997  -0.000891   0.000020   0.000043
    36  H   -0.000038   0.000051  -0.000513   0.001700  -0.000133  -0.000105
    37  H    0.000505   0.000263   0.053114  -0.013742   0.002491  -0.000209
    38  H    0.001130   0.035169   0.012044  -0.013719   0.001030  -0.001844
    39  H   -0.000539   0.012992  -0.000655   0.002131   0.000024  -0.000209
    40  H   -0.000526  -0.008290   0.000071  -0.000143  -0.000072   0.000182
    41  H   -0.001544   0.006722  -0.000299  -0.000270   0.000101   0.000035
    42  H   -0.001683   0.011019  -0.001108   0.005141  -0.000637   0.001324
              31         32         33         34         35         36
     1  O   -0.006142   0.001178  -0.000938   0.000071  -0.000061  -0.000050
     2  S    0.012860   0.007322   0.003949  -0.000487   0.000217  -0.001868
     3  N   -0.082119   0.128291   0.022908  -0.002536   0.000981  -0.002213
     4  C   -0.046048   0.056126  -0.111313   0.009933  -0.001392   0.005173
     5  C   -0.021182   0.045760   0.029656  -0.001070  -0.000867   0.000621
     6  S   -0.003750   0.001355   0.006599  -0.000959  -0.000042  -0.000241
     7  O    0.002247   0.000950   0.009762  -0.000299   0.000290   0.000177
     8  C    0.048301  -0.005987   0.028379  -0.001902   0.001432   0.001252
     9  C   -0.033420  -0.157393   0.012666   0.018354  -0.001235  -0.001928
    10  C   -0.302108   0.140151  -0.145394   0.015908  -0.001856   0.014501
    11  C    0.266845  -0.207209   0.785969  -0.086218   0.035712  -0.102757
    12  C   -0.218766   0.088143  -1.349291   0.598657  -0.087614   0.112111
    13  C   -0.013765   0.030273   0.492148  -0.824859   0.361087  -0.208885
    14  C   -0.014303   0.007106  -0.198516   0.342585  -0.716434   0.351969
    15  C    0.130808  -0.036291   0.155650  -0.255765   0.392265  -0.761373
    16  C   -0.024847   0.058183  -0.160906   0.118917  -0.036751   0.516218
    17  C   -0.001047  -0.002210  -0.001103   0.000116   0.000012   0.000667
    18  C   -0.000647   0.001781  -0.000371   0.000011  -0.000029   0.000265
    19  C    0.001182   0.000142   0.000185  -0.000006   0.000003   0.000031
    20  C   -0.002098   0.000261  -0.000100  -0.000000  -0.000001   0.000000
    21  C    0.003727  -0.001494   0.000044  -0.000003   0.000003  -0.000035
    22  C   -0.004532  -0.000419  -0.001032   0.000001  -0.000009  -0.000134
    23  O   -0.008616   0.001520  -0.000120   0.000021  -0.000022   0.000253
    24  H    0.001944  -0.002315  -0.002927  -0.000061   0.000022   0.000010
    25  H    0.007586   0.004367   0.007242  -0.000533   0.000040  -0.000038
    26  H   -0.009756   0.001626  -0.001452   0.000040  -0.000151   0.000051
    27  H   -0.036870   0.020600   0.047393   0.004977  -0.005997  -0.000513
    28  H    0.021616  -0.006124  -0.001663  -0.000337  -0.000891   0.001700
    29  H   -0.005256  -0.118367   0.012791   0.000756   0.000020  -0.000133
    30  H    0.104522  -0.001832  -0.066560   0.005701   0.000043  -0.000105
    31  H    1.804663  -0.281004   0.011498  -0.000378  -0.000375   0.004446
    32  H   -0.281004   1.328897  -0.008381  -0.002932   0.000581  -0.000262
    33  H    0.011498  -0.008381   2.236601  -0.098197  -0.016331   0.010851
    34  H   -0.000378  -0.002932  -0.098197   1.716529  -0.055737  -0.019197
    35  H   -0.000375   0.000581  -0.016331  -0.055737   1.655186  -0.055620
    36  H    0.004446  -0.000262   0.010851  -0.019197  -0.055620   1.721374
    37  H   -0.044622   0.013163  -0.026225   0.008617  -0.013323  -0.103170
    38  H    0.000229   0.000021   0.000029   0.000001  -0.000006   0.000047
    39  H    0.000022  -0.000007   0.000002   0.000000   0.000000   0.000001
    40  H   -0.000038   0.000013  -0.000005  -0.000000  -0.000000   0.000000
    41  H   -0.000025  -0.000089   0.000009   0.000000   0.000000  -0.000000
    42  H    0.001327   0.000345  -0.000158   0.000001  -0.000000   0.000010
              37         38         39         40         41         42
     1  O   -0.006010  -0.111769   0.001478  -0.000510   0.001312   0.010893
     2  S    0.031845   0.018466  -0.016792   0.003985   0.014588  -0.114561
     3  N   -0.046541   0.044827  -0.003994   0.003119  -0.009684  -0.187695
     4  C    0.086313  -0.123701   0.010717  -0.000224   0.014557   0.164512
     5  C    0.002001   0.037043  -0.000297  -0.000756  -0.008960  -0.012339
     6  S   -0.000170   0.009595  -0.000082  -0.000325  -0.000056   0.001528
     7  O   -0.000954   0.000049  -0.000087   0.000008   0.000053  -0.000331
     8  C    0.015929   0.025206  -0.000584  -0.000074  -0.003924   0.001224
     9  C   -0.055361  -0.010317   0.000145   0.000255   0.002923  -0.025077
    10  C    0.110323   0.001056   0.000197  -0.000188   0.000637  -0.003202
    11  C    0.609723  -0.002452   0.000119  -0.000091   0.000268  -0.001248
    12  C   -0.070748   0.000940  -0.000074   0.000015   0.000002  -0.001633
    13  C    0.096215  -0.000158  -0.000001   0.000001  -0.000010   0.000034
    14  C   -0.158637  -0.000151   0.000007  -0.000001   0.000008  -0.000038
    15  C    0.405688   0.000263   0.000038  -0.000006  -0.000011   0.000778
    16  C   -1.454881   0.001023  -0.000073   0.000007   0.000059  -0.000345
    17  C   -0.014001   0.299632  -0.052298   0.089452  -0.174732   0.977839
    18  C   -0.001359  -1.196994   0.530775  -0.100732   0.179461  -0.201031
    19  C   -0.001339   0.670526  -0.761483   0.369271  -0.290659   0.193668
    20  C    0.000553  -0.162008   0.312001  -0.694676   0.424700  -0.278852
    21  C   -0.000330   0.110095  -0.238167   0.395360  -0.790388   0.477379
    22  C    0.004655  -0.150458   0.101916  -0.111415   0.536648  -1.526303
    23  O   -0.005014  -0.006809   0.002565  -0.001004   0.000873   0.036412
    24  H   -0.005465  -0.007885   0.000056   0.000000   0.006205   0.027144
    25  H    0.000505   0.001130  -0.000539  -0.000526  -0.001544  -0.001683
    26  H    0.000263   0.035169   0.012992  -0.008290   0.006722   0.011019
    27  H    0.053114   0.012044  -0.000655   0.000071  -0.000299  -0.001108
    28  H   -0.013742  -0.013719   0.002131  -0.000143  -0.000270   0.005141
    29  H    0.002491   0.001030   0.000024  -0.000072   0.000101  -0.000637
    30  H   -0.000209  -0.001844  -0.000209   0.000182   0.000035   0.001324
    31  H   -0.044622   0.000229   0.000022  -0.000038  -0.000025   0.001327
    32  H    0.013163   0.000021  -0.000007   0.000013  -0.000089   0.000345
    33  H   -0.026225   0.000029   0.000002  -0.000005   0.000009  -0.000158
    34  H    0.008617   0.000001   0.000000  -0.000000   0.000000   0.000001
    35  H   -0.013323  -0.000006   0.000000  -0.000000   0.000000  -0.000000
    36  H   -0.103170   0.000047   0.000001   0.000000  -0.000000   0.000010
    37  H    2.299887   0.000297  -0.000067   0.000014  -0.000044   0.000524
    38  H    0.000297   2.259316  -0.099878  -0.012469   0.010932  -0.025489
    39  H   -0.000067  -0.099878   1.742520  -0.063601  -0.022136   0.012904
    40  H    0.000014  -0.012469  -0.063601   1.654734  -0.062523  -0.016547
    41  H   -0.000044   0.010932  -0.022136  -0.062523   1.766447  -0.127204
    42  H    0.000524  -0.025489   0.012904  -0.016547  -0.127204   2.268920
 Mulliken charges:
               1
     1  O   -1.254109
     2  S    2.882408
     3  N   -0.904911
     4  C   -0.415487
     5  C    0.934041
     6  S    1.525146
     7  O   -1.265076
     8  C    0.445422
     9  C    0.378977
    10  C    0.501190
    11  C    0.780434
    12  C    0.579520
    13  C    0.100432
    14  C    0.717059
    15  C    0.072959
    16  C    0.695455
    17  C    0.791628
    18  C    0.494986
    19  C    0.363441
    20  C    0.634098
    21  C    0.321251
    22  C    0.031727
    23  O   -1.119949
    24  H   -0.158476
    25  H   -0.381946
    26  H   -0.160761
    27  H   -0.205588
    28  H   -0.308996
    29  H   -0.152873
    30  H   -0.058575
    31  H   -0.262108
    32  H   -0.105839
    33  H   -0.683348
    34  H   -0.489719
    35  H   -0.453151
    36  H   -0.483210
    37  H   -0.719908
    38  H   -0.612857
    39  H   -0.469588
    40  H   -0.442273
    41  H   -0.473980
    42  H   -0.667447
 Sum of Mulliken charges =  -0.00000
 Mulliken charges with hydrogens summed into heavy atoms:
               1
     1  O   -1.254109
     2  S    2.882408
     3  N   -1.063387
     4  C   -0.415487
     5  C    0.391333
     6  S    1.525146
     7  O   -1.265076
     8  C   -0.069161
     9  C    0.167529
    10  C    0.133243
    11  C    0.780434
    12  C   -0.103828
    13  C   -0.389287
    14  C    0.263908
    15  C   -0.410251
    16  C   -0.024453
    17  C    0.791628
    18  C   -0.117871
    19  C   -0.106147
    20  C    0.191825
    21  C   -0.152730
    22  C   -0.635720
    23  O   -1.119949
 Electronic spatial extent (au):  <R**2>=           9077.1180
 Charge=             -0.0000 electrons
 Dipole moment (field-independent basis, Debye):
    X=             -4.7218    Y=              1.0066    Z=              2.7384  Tot=              5.5505
 Quadrupole moment (field-independent basis, Debye-Ang):
   XX=           -129.0024   YY=           -181.9975   ZZ=           -143.4465
   XY=            -18.4343   XZ=             -7.0731   YZ=             -3.3531
 Traceless Quadrupole moment (field-independent basis, Debye-Ang):
   XX=             22.4797   YY=            -30.5154   ZZ=              8.0357
   XY=            -18.4343   XZ=             -7.0731   YZ=             -3.3531
 Octapole moment (field-independent basis, Debye-Ang**2):
  XXX=           -128.7339  YYY=            -34.9629  ZZZ=             13.2624  XYY=            -10.9481
  XXY=             52.1809  XXZ=            -19.2999  XZZ=            -16.9055  YZZ=              4.6627
  YYZ=             -3.7640  XYZ=             24.3640
 Hexadecapole moment (field-independent basis, Debye-Ang**3):
 XXXX=          -8500.4417 YYYY=          -2594.6289 ZZZZ=          -1039.7282 XXXY=            -72.2802
 XXXZ=           -283.7217 YYYX=           -178.8808 YYYZ=             20.6311 ZZZX=            -14.3151
 ZZZY=            -22.8787 XXYY=          -2008.5204 XXZZ=          -1607.2593 YYZZ=           -537.4135
 XXYZ=             20.6035 YYXZ=            -18.5448 ZZXY=              3.1181
 N-N= 2.312949633055D+03 E-N=-8.698679109287D+03  KE= 1.727283547132D+03
 Leave Link  601 at Mon Sep 21 09:43:15 2020, MaxMem=   262144000 cpu:               1.0 elap:               0.3
 (Enter /prod/apps/gaussian/g16b1/l9999.exe)
 1\1\GINC-PIRINEUS14\SP\RMP2-FC\Aug-CC-pVDZ\C17H19N1O3S2\UBAFAR01\21-Se
 p-2020\0\\#p mp2/aug-cc-pVDZ scf=(MaxCycle=2000,NoVarAcc,NoIncFock) ma
 xdisk=120GB geom=allcheck\\SM36_m0.n.12.pdb.xyz\\0,1\O,0,-1.1291552018
 ,-1.2313211853,-1.8024487578\S,0,-1.5828448871,-1.5035090649,-0.430367
 2758\N,0,-0.4080989997,-0.9349281667,0.6173783495\C,0,0.2214818505,0.4
 003284383,0.5999216529\C,0,-0.7021895423,1.6473562656,0.6789602099\S,0
 ,0.3785144447,2.5971003391,-0.5153246991\O,0,1.4692815026,3.339278838,
 0.256056903\C,0,0.8746037382,0.8116593035,-0.7429945457\C,0,1.21973080
 41,0.4413617059,1.7789836719\C,0,2.2610891831,-0.6933569257,1.86425814
 44\C,0,3.3582911773,-0.6842648321,0.8197594222\C,0,4.3166612357,0.3398
 322304,0.7841199111\C,0,5.3355238038,0.3345934028,-0.1688240184\C,0,5.
 4190494649,-0.7018364382,-1.1029611846\C,0,4.4775362001,-1.73162245,-1
 .0730323005\C,0,3.4576682202,-1.7201442332,-0.1180667671\C,0,-3.112962
 0019,-0.6031492936,-0.1863704315\C,0,-3.5956345328,0.2017193505,-1.219
 4465539\C,0,-4.7966913857,0.8876988675,-1.0321542192\C,0,-5.4942203424
 ,0.7622887241,0.1691208897\C,0,-5.002432231,-0.0539048104,1.1912011325
 \C,0,-3.8065705129,-0.7472531832,1.0182345134\O,0,-1.8126800245,-2.890
 1412967,0.0018165331\H,0,-0.6118285393,-1.2734479857,1.559450261\H,0,-
 0.8043087585,2.1351678944,1.6495730155\H,0,-1.6797590332,1.513095728,0
 .2143320259\H,0,1.9495188592,0.6737643998,-0.8392187877\H,0,0.34926431
 66,0.42383249,-1.6147227109\H,0,0.630407133,0.4330586259,2.7039496038\
 H,0,1.713084422,1.4170766107,1.7341177263\H,0,1.7500910844,-1.65864986
 4,1.8290622633\H,0,2.7192705661,-0.621588065,2.8581619253\H,0,4.265729
 7512,1.1469350198,1.5089367437\H,0,6.0675672453,1.1360212239,-0.179166
 4148\H,0,6.212773588,-0.7072942619,-1.8430339471\H,0,4.5354516472,-2.5
 440034088,-1.7907737971\H,0,2.7252759228,-2.5221744061,-0.0964787611\H
 ,0,-3.0374216928,0.2797610098,-2.1441741933\H,0,-5.1853040459,1.515825
 5773,-1.8257510947\H,0,-6.426024123,1.2985997878,0.3097418219\H,0,-5.5
 513111374,-0.1537388373,2.1208244783\H,0,-3.4254291687,-1.3900271245,1
 .8033492618\\Version=ES64L-G16RevB.01\State=1-A\HF=-1728.8627893\MP2=-
 1732.3112998\RMSD=8.154e-09\PG=C01 [X(C17H19N1O3S2)]\\@


 ALL MY ATTEMPTS TO ADAPT THE THEORETICAL FOUNDATIONS OF PHYSICS
 TO THESE NEW NOTIONS FAILED COMPLETELY. IT WAS AS IF THE GROUND HAD
 BEEN PULLED OUT FROM UNDER ONE WITH NO FIRM FOUNDATION TO BE SEEN ANYWHERE,
 UPON WHICH ONE COULD HAVE BUILT.  -- A.EINSTEIN
 Job cpu time:       0 days  7 hours  5 minutes 46.7 seconds.
 Elapsed time:       0 days  2 hours  2 minutes 31.5 seconds.
 File lengths (MBytes):  RWF= 110328 Int=      0 D2E=      0 Chk=     40 Scr=      1
 Normal termination of Gaussian 16 at Mon Sep 21 09:43:19 2020.
