 Entering Gaussian System, Link 0=g16
 Initial command:
 /prod/apps/gaussian/g16b1/l1.exe "/tmp/ubafar01/1460086/Gau-82294.inp" -scrdir="/tmp/ubafar01/1460086/"
 Entering Link 1 = /prod/apps/gaussian/g16b1/l1.exe PID=     82299.
  
 Copyright (c) 1988-2017, Gaussian, Inc.  All Rights Reserved.
  
 This is part of the Gaussian(R) 16 program.  It is based on
 the Gaussian(R) 09 system (copyright 2009, Gaussian, Inc.),
 the Gaussian(R) 03 system (copyright 2003, Gaussian, Inc.),
 the Gaussian(R) 98 system (copyright 1998, Gaussian, Inc.),
 the Gaussian(R) 94 system (copyright 1995, Gaussian, Inc.),
 the Gaussian 92(TM) system (copyright 1992, Gaussian, Inc.),
 the Gaussian 90(TM) system (copyright 1990, Gaussian, Inc.),
 the Gaussian 88(TM) system (copyright 1988, Gaussian, Inc.),
 the Gaussian 86(TM) system (copyright 1986, Carnegie Mellon
 University), and the Gaussian 82(TM) system (copyright 1983,
 Carnegie Mellon University). Gaussian is a federally registered
 trademark of Gaussian, Inc.
  
 This software contains proprietary and confidential information,
 including trade secrets, belonging to Gaussian, Inc.
  
 This software is provided under written license and may be
 used, copied, transmitted, or stored only in accord with that
 written license.
  
 The following legend is applicable only to US Government
 contracts under FAR:
  
                    RESTRICTED RIGHTS LEGEND
  
 Use, reproduction and disclosure by the US Government is
 subject to restrictions as set forth in subparagraphs (a)
 and (c) of the Commercial Computer Software - Restricted
 Rights clause in FAR 52.227-19.
  
 Gaussian, Inc.
 340 Quinnipiac St., Bldg. 40, Wallingford CT 06492
  
  
 ---------------------------------------------------------------
 Warning -- This program may not be used in any manner that
 competes with the business of Gaussian, Inc. or will provide
 assistance to any competitor of Gaussian, Inc.  The licensee
 of this program is prohibited from giving any competitor of
 Gaussian, Inc. access to this program.  By using this program,
 the user acknowledges that Gaussian, Inc. is engaged in the
 business of creating and licensing software in the field of
 computational chemistry and represents and warrants to the
 licensee that it is not a competitor of Gaussian, Inc. and that
 it will not use this program in any manner prohibited above.
 ---------------------------------------------------------------
  

 Cite this work as:
 Gaussian 16, Revision B.01,
 M. J. Frisch, G. W. Trucks, H. B. Schlegel, G. E. Scuseria, 
 M. A. Robb, J. R. Cheeseman, G. Scalmani, V. Barone, 
 G. A. Petersson, H. Nakatsuji, X. Li, M. Caricato, A. V. Marenich, 
 J. Bloino, B. G. Janesko, R. Gomperts, B. Mennucci, H. P. Hratchian, 
 J. V. Ortiz, A. F. Izmaylov, J. L. Sonnenberg, D. Williams-Young, 
 F. Ding, F. Lipparini, F. Egidi, J. Goings, B. Peng, A. Petrone, 
 T. Henderson, D. Ranasinghe, V. G. Zakrzewski, J. Gao, N. Rega, 
 G. Zheng, W. Liang, M. Hada, M. Ehara, K. Toyota, R. Fukuda, 
 J. Hasegawa, M. Ishida, T. Nakajima, Y. Honda, O. Kitao, H. Nakai, 
 T. Vreven, K. Throssell, J. A. Montgomery, Jr., J. E. Peralta, 
 F. Ogliaro, M. J. Bearpark, J. J. Heyd, E. N. Brothers, K. N. Kudin, 
 V. N. Staroverov, T. A. Keith, R. Kobayashi, J. Normand, 
 K. Raghavachari, A. P. Rendell, J. C. Burant, S. S. Iyengar, 
 J. Tomasi, M. Cossi, J. M. Millam, M. Klene, C. Adamo, R. Cammi, 
 J. W. Ochterski, R. L. Martin, K. Morokuma, O. Farkas, 
 J. B. Foresman, and D. J. Fox, Gaussian, Inc., Wallingford CT, 2016.
 
 ******************************************
 Gaussian 16:  ES64L-G16RevB.01 20-Dec-2017
                21-Sep-2020 
 ******************************************
 %nproc=4
 Will use up to    4 processors via shared memory.
 %Chk=SM37_m0.n.9.pdb.xyz.mst.n.w.chk
 %mem=16GB
 ----------------------------------------------------------------------
 #p b3lyp/6-31G(d) opt freq NoSymm scf=(MaxCycle=2000,NoVarAcc,NoIncFoc
 k) scrf=(iefpcm,read,solvent=water)
 ----------------------------------------------------------------------
 1/18=20,19=15,26=3,38=1,40=2/1,3;
 2/9=110,12=2,15=1,17=6,18=5,40=1/2;
 3/5=1,6=6,7=1,11=2,25=1,30=1,70=2203,71=1,72=1,74=-5/1,2,3;
 4//1;
 5/5=100002,7=2000,38=1,53=1/2;
 6/7=2,8=2,9=2,10=2,28=1/1;
 7/30=1/1,2,3,16;
 1/18=20,19=15,26=3/3(2);
 2/9=110,15=1/2;
 99//99;
 2/9=110,15=1/2;
 3/5=1,6=6,7=1,11=2,25=1,30=1,70=2205,71=1,72=1,74=-5/1,2,3;
 4/5=5,16=3,69=1/1;
 5/5=100002,7=2000,38=1,53=1/2;
 7/30=1/1,2,3,16;
 1/18=20,19=15,26=3/3(-5);
 2/9=110,15=1/2;
 6/7=2,8=2,9=2,10=2,19=2,28=1/1;
 99/9=1/99;
 Leave Link    1 at Mon Sep 21 06:23:40 2020, MaxMem=  2147483648 cpu:               0.1 elap:               0.0
 (Enter /prod/apps/gaussian/g16b1/l101.exe)
 -------------------
 SM37_m0.n.9.pdb.xyz
 -------------------
 Symbolic Z-matrix:
 Charge =  0 Multiplicity = 1
 O                    -2.548     0.606    -1.558 
 S                    -2.729    -0.626    -0.776 
 N                    -1.341    -1.073     0.033 
 C                    -0.256    -0.122     0.349 
 C                    -0.752     1.164     1.051 
 S                     0.031     2.296    -0.208 
 O                     1.295     2.922     0.383 
 C                     0.392     0.586    -0.875 
 C                     0.733    -0.918     1.219 
 C                     2.032    -0.168     1.592 
 C                     3.21     -0.415     0.667 
 C                     3.843     0.651     0.015 
 C                     4.953     0.43     -0.807 
 C                     5.445    -0.864    -0.989 
 C                     4.819    -1.935    -0.345 
 C                     3.713    -1.709     0.476 
 N                    -3.726    -0.201     0.516 
 C                    -4.908     0.58      0.111 
 C                    -4.051    -1.32      1.418 
 O                    -3.187    -1.84     -1.472 
 H                    -1.001    -1.941    -0.377 
 H                    -0.319     1.345     2.035 
 H                    -1.832     1.293     1.089 
 H                     1.464     0.433    -0.996 
 H                    -0.139     0.442    -1.813 
 H                     0.987    -1.849     0.702 
 H                     0.19     -1.198     2.127 
 H                     2.314    -0.483     2.602 
 H                     1.845     0.909     1.643 
 H                     3.445     1.652     0.145 
 H                     5.429     1.268    -1.306 
 H                     6.305    -1.037    -1.626 
 H                     5.195    -2.944    -0.478 
 H                     3.239    -2.548     0.977 
 H                    -4.598     1.409    -0.522 
 H                    -5.361     0.977     1.021 
 H                    -5.653    -0.029    -0.417 
 H                    -3.131    -1.838     1.687 
 H                    -4.757    -2.026     0.965 
 H                    -4.498    -0.894     2.317 
 
 ITRead=  0  0  0  0  0  0  0  0  0  0  0  0  0  0  0  0  0  0  0  0
 ITRead=  0  0  0  0  0  0  0  0  0  0  0  0  0  0  0  0  0  0  0  0
 MicOpt= -1 -1 -1 -1 -1 -1 -1 -1 -1 -1 -1 -1 -1 -1 -1 -1 -1 -1 -1 -1
 MicOpt= -1 -1 -1 -1 -1 -1 -1 -1 -1 -1 -1 -1 -1 -1 -1 -1 -1 -1 -1 -1
 NAtoms=     40 NQM=       40 NQMF=       0 NMMI=      0 NMMIF=      0
                NMic=       0 NMicF=      0.
                    Isotopes and Nuclear Properties:
 (Nuclear quadrupole moments (NQMom) in fm**2, nuclear magnetic moments (NMagM)
  in nuclear magnetons)

  Atom         1           2           3           4           5           6           7           8           9          10
 IAtWgt=          16          32          14          12          12          32          16          12          12          12
 AtmWgt=  15.9949146  31.9720718  14.0030740  12.0000000  12.0000000  31.9720718  15.9949146  12.0000000  12.0000000  12.0000000
 NucSpn=           0           0           2           0           0           0           0           0           0           0
 AtZEff=  -0.0000000  -0.0000000  -0.0000000  -0.0000000  -0.0000000  -0.0000000  -0.0000000  -0.0000000  -0.0000000  -0.0000000
 NQMom=    0.0000000   0.0000000   2.0440000   0.0000000   0.0000000   0.0000000   0.0000000   0.0000000   0.0000000   0.0000000
 NMagM=    0.0000000   0.0000000   0.4037610   0.0000000   0.0000000   0.0000000   0.0000000   0.0000000   0.0000000   0.0000000
 AtZNuc=   8.0000000  16.0000000   7.0000000   6.0000000   6.0000000  16.0000000   8.0000000   6.0000000   6.0000000   6.0000000

  Atom        11          12          13          14          15          16          17          18          19          20
 IAtWgt=          12          12          12          12          12          12          14          12          12          16
 AtmWgt=  12.0000000  12.0000000  12.0000000  12.0000000  12.0000000  12.0000000  14.0030740  12.0000000  12.0000000  15.9949146
 NucSpn=           0           0           0           0           0           0           2           0           0           0
 AtZEff=  -0.0000000  -0.0000000  -0.0000000  -0.0000000  -0.0000000  -0.0000000  -0.0000000  -0.0000000  -0.0000000  -0.0000000
 NQMom=    0.0000000   0.0000000   0.0000000   0.0000000   0.0000000   0.0000000   2.0440000   0.0000000   0.0000000   0.0000000
 NMagM=    0.0000000   0.0000000   0.0000000   0.0000000   0.0000000   0.0000000   0.4037610   0.0000000   0.0000000   0.0000000
 AtZNuc=   6.0000000   6.0000000   6.0000000   6.0000000   6.0000000   6.0000000   7.0000000   6.0000000   6.0000000   8.0000000

  Atom        21          22          23          24          25          26          27          28          29          30
 IAtWgt=           1           1           1           1           1           1           1           1           1           1
 AtmWgt=   1.0078250   1.0078250   1.0078250   1.0078250   1.0078250   1.0078250   1.0078250   1.0078250   1.0078250   1.0078250
 NucSpn=           1           1           1           1           1           1           1           1           1           1
 AtZEff=  -0.0000000  -0.0000000  -0.0000000  -0.0000000  -0.0000000  -0.0000000  -0.0000000  -0.0000000  -0.0000000  -0.0000000
 NQMom=    0.0000000   0.0000000   0.0000000   0.0000000   0.0000000   0.0000000   0.0000000   0.0000000   0.0000000   0.0000000
 NMagM=    2.7928460   2.7928460   2.7928460   2.7928460   2.7928460   2.7928460   2.7928460   2.7928460   2.7928460   2.7928460
 AtZNuc=   1.0000000   1.0000000   1.0000000   1.0000000   1.0000000   1.0000000   1.0000000   1.0000000   1.0000000   1.0000000

  Atom        31          32          33          34          35          36          37          38          39          40
 IAtWgt=           1           1           1           1           1           1           1           1           1           1
 AtmWgt=   1.0078250   1.0078250   1.0078250   1.0078250   1.0078250   1.0078250   1.0078250   1.0078250   1.0078250   1.0078250
 NucSpn=           1           1           1           1           1           1           1           1           1           1
 AtZEff=  -0.0000000  -0.0000000  -0.0000000  -0.0000000  -0.0000000  -0.0000000  -0.0000000  -0.0000000  -0.0000000  -0.0000000
 NQMom=    0.0000000   0.0000000   0.0000000   0.0000000   0.0000000   0.0000000   0.0000000   0.0000000   0.0000000   0.0000000
 NMagM=    2.7928460   2.7928460   2.7928460   2.7928460   2.7928460   2.7928460   2.7928460   2.7928460   2.7928460   2.7928460
 AtZNuc=   1.0000000   1.0000000   1.0000000   1.0000000   1.0000000   1.0000000   1.0000000   1.0000000   1.0000000   1.0000000
 Leave Link  101 at Mon Sep 21 06:23:41 2020, MaxMem=  2147483648 cpu:               2.1 elap:               0.5
 (Enter /prod/apps/gaussian/g16b1/l103.exe)

 GradGradGradGradGradGradGradGradGradGradGradGradGradGradGradGradGradGrad
 Berny optimization.
 Initialization pass.
                           ----------------------------
                           !    Initial Parameters    !
                           ! (Angstroms and Degrees)  !
 --------------------------                            --------------------------
 ! Name  Definition              Value          Derivative Info.                !
 --------------------------------------------------------------------------------
 ! R1    R(1,2)                  1.4704         estimate D2E/DX2                !
 ! R2    R(2,3)                  1.6676         estimate D2E/DX2                !
 ! R3    R(2,17)                 1.6864         estimate D2E/DX2                !
 ! R4    R(2,20)                 1.4724         estimate D2E/DX2                !
 ! R5    R(3,4)                  1.477          estimate D2E/DX2                !
 ! R6    R(3,21)                 1.0184         estimate D2E/DX2                !
 ! R7    R(4,5)                  1.5468         estimate D2E/DX2                !
 ! R8    R(4,8)                  1.5554         estimate D2E/DX2                !
 ! R9    R(4,9)                  1.539          estimate D2E/DX2                !
 ! R10   R(5,6)                  1.8654         estimate D2E/DX2                !
 ! R11   R(5,22)                 1.0902         estimate D2E/DX2                !
 ! R12   R(5,23)                 1.0883         estimate D2E/DX2                !
 ! R13   R(6,7)                  1.5293         estimate D2E/DX2                !
 ! R14   R(6,8)                  1.8706         estimate D2E/DX2                !
 ! R15   R(8,24)                 1.0896         estimate D2E/DX2                !
 ! R16   R(8,25)                 1.0874         estimate D2E/DX2                !
 ! R17   R(9,10)                 1.5456         estimate D2E/DX2                !
 ! R18   R(9,26)                 1.0948         estimate D2E/DX2                !
 ! R19   R(9,27)                 1.0944         estimate D2E/DX2                !
 ! R20   R(10,11)                1.518          estimate D2E/DX2                !
 ! R21   R(10,28)                1.0949         estimate D2E/DX2                !
 ! R22   R(10,29)                1.0943         estimate D2E/DX2                !
 ! R23   R(11,12)                1.4008         estimate D2E/DX2                !
 ! R24   R(11,16)                1.4014         estimate D2E/DX2                !
 ! R25   R(12,13)                1.3988         estimate D2E/DX2                !
 ! R26   R(12,30)                1.085          estimate D2E/DX2                !
 ! R27   R(13,14)                1.3963         estimate D2E/DX2                !
 ! R28   R(13,31)                1.0853         estimate D2E/DX2                !
 ! R29   R(14,15)                1.3977         estimate D2E/DX2                !
 ! R30   R(14,32)                1.0841         estimate D2E/DX2                !
 ! R31   R(15,16)                1.3958         estimate D2E/DX2                !
 ! R32   R(15,33)                1.085          estimate D2E/DX2                !
 ! R33   R(16,34)                1.0861         estimate D2E/DX2                !
 ! R34   R(17,18)                1.4735         estimate D2E/DX2                !
 ! R35   R(17,19)                1.4736         estimate D2E/DX2                !
 ! R36   R(18,35)                1.0881         estimate D2E/DX2                !
 ! R37   R(18,36)                1.0913         estimate D2E/DX2                !
 ! R38   R(18,37)                1.0976         estimate D2E/DX2                !
 ! R39   R(19,38)                1.0895         estimate D2E/DX2                !
 ! R40   R(19,39)                1.0964         estimate D2E/DX2                !
 ! R41   R(19,40)                1.0906         estimate D2E/DX2                !
 ! A1    A(1,2,3)              112.3423         estimate D2E/DX2                !
 ! A2    A(1,2,17)             105.6088         estimate D2E/DX2                !
 ! A3    A(1,2,20)             118.5363         estimate D2E/DX2                !
 ! A4    A(3,2,17)             100.8338         estimate D2E/DX2                !
 ! A5    A(3,2,20)             105.4986         estimate D2E/DX2                !
 ! A6    A(17,2,20)            112.7084         estimate D2E/DX2                !
 ! A7    A(2,3,4)              122.8638         estimate D2E/DX2                !
 ! A8    A(2,3,21)             108.1219         estimate D2E/DX2                !
 ! A9    A(4,3,21)             112.9342         estimate D2E/DX2                !
 ! A10   A(3,4,5)              113.3817         estimate D2E/DX2                !
 ! A11   A(3,4,8)              115.5159         estimate D2E/DX2                !
 ! A12   A(3,4,9)              105.0694         estimate D2E/DX2                !
 ! A13   A(5,4,8)               96.4475         estimate D2E/DX2                !
 ! A14   A(5,4,9)              112.3033         estimate D2E/DX2                !
 ! A15   A(8,4,9)              114.3649         estimate D2E/DX2                !
 ! A16   A(4,5,6)               93.6476         estimate D2E/DX2                !
 ! A17   A(4,5,22)             114.8539         estimate D2E/DX2                !
 ! A18   A(4,5,23)             115.6322         estimate D2E/DX2                !
 ! A19   A(6,5,22)             109.9818         estimate D2E/DX2                !
 ! A20   A(6,5,23)             111.6032         estimate D2E/DX2                !
 ! A21   A(22,5,23)            110.0562         estimate D2E/DX2                !
 ! A22   A(5,6,7)              109.5427         estimate D2E/DX2                !
 ! A23   A(5,6,8)               76.5218         estimate D2E/DX2                !
 ! A24   A(7,6,8)              110.6384         estimate D2E/DX2                !
 ! A25   A(4,8,6)               93.159          estimate D2E/DX2                !
 ! A26   A(4,8,24)             115.6802         estimate D2E/DX2                !
 ! A27   A(4,8,25)             114.5239         estimate D2E/DX2                !
 ! A28   A(6,8,24)             110.9663         estimate D2E/DX2                !
 ! A29   A(6,8,25)             109.5346         estimate D2E/DX2                !
 ! A30   A(24,8,25)            111.4709         estimate D2E/DX2                !
 ! A31   A(4,9,10)             115.1833         estimate D2E/DX2                !
 ! A32   A(4,9,26)             108.782          estimate D2E/DX2                !
 ! A33   A(4,9,27)             106.4092         estimate D2E/DX2                !
 ! A34   A(10,9,26)            109.3668         estimate D2E/DX2                !
 ! A35   A(10,9,27)            109.9325         estimate D2E/DX2                !
 ! A36   A(26,9,27)            106.8189         estimate D2E/DX2                !
 ! A37   A(9,10,11)            115.2255         estimate D2E/DX2                !
 ! A38   A(9,10,28)            107.4253         estimate D2E/DX2                !
 ! A39   A(9,10,29)            110.1935         estimate D2E/DX2                !
 ! A40   A(11,10,28)           108.3859         estimate D2E/DX2                !
 ! A41   A(11,10,29)           108.7326         estimate D2E/DX2                !
 ! A42   A(28,10,29)           106.5089         estimate D2E/DX2                !
 ! A43   A(10,11,12)           120.696          estimate D2E/DX2                !
 ! A44   A(10,11,16)           120.7858         estimate D2E/DX2                !
 ! A45   A(12,11,16)           118.4931         estimate D2E/DX2                !
 ! A46   A(11,12,13)           120.7897         estimate D2E/DX2                !
 ! A47   A(11,12,30)           118.721          estimate D2E/DX2                !
 ! A48   A(13,12,30)           120.4802         estimate D2E/DX2                !
 ! A49   A(12,13,14)           120.1742         estimate D2E/DX2                !
 ! A50   A(12,13,31)           119.752          estimate D2E/DX2                !
 ! A51   A(14,13,31)           120.0735         estimate D2E/DX2                !
 ! A52   A(13,14,15)           119.4879         estimate D2E/DX2                !
 ! A53   A(13,14,32)           120.2647         estimate D2E/DX2                !
 ! A54   A(15,14,32)           120.2473         estimate D2E/DX2                !
 ! A55   A(14,15,16)           120.1199         estimate D2E/DX2                !
 ! A56   A(14,15,33)           120.0597         estimate D2E/DX2                !
 ! A57   A(16,15,33)           119.8197         estimate D2E/DX2                !
 ! A58   A(11,16,15)           120.9349         estimate D2E/DX2                !
 ! A59   A(11,16,34)           119.5891         estimate D2E/DX2                !
 ! A60   A(15,16,34)           119.4754         estimate D2E/DX2                !
 ! A61   A(2,17,18)            113.4068         estimate D2E/DX2                !
 ! A62   A(2,17,19)            114.0781         estimate D2E/DX2                !
 ! A63   A(18,17,19)           113.1929         estimate D2E/DX2                !
 ! A64   A(17,18,35)           109.5831         estimate D2E/DX2                !
 ! A65   A(17,18,36)           107.2544         estimate D2E/DX2                !
 ! A66   A(17,18,37)           112.4963         estimate D2E/DX2                !
 ! A67   A(35,18,36)           109.038          estimate D2E/DX2                !
 ! A68   A(35,18,37)           109.6485         estimate D2E/DX2                !
 ! A69   A(36,18,37)           108.7375         estimate D2E/DX2                !
 ! A70   A(17,19,38)           109.0219         estimate D2E/DX2                !
 ! A71   A(17,19,39)           112.2159         estimate D2E/DX2                !
 ! A72   A(17,19,40)           107.3583         estimate D2E/DX2                !
 ! A73   A(38,19,39)           109.8523         estimate D2E/DX2                !
 ! A74   A(38,19,40)           109.1637         estimate D2E/DX2                !
 ! A75   A(39,19,40)           109.1581         estimate D2E/DX2                !
 ! D1    D(1,2,3,4)             21.5891         estimate D2E/DX2                !
 ! D2    D(1,2,3,21)          -112.8027         estimate D2E/DX2                !
 ! D3    D(17,2,3,4)           -90.4252         estimate D2E/DX2                !
 ! D4    D(17,2,3,21)          135.183          estimate D2E/DX2                !
 ! D5    D(20,2,3,4)           152.1266         estimate D2E/DX2                !
 ! D6    D(20,2,3,21)           17.7349         estimate D2E/DX2                !
 ! D7    D(1,2,17,18)           47.3862         estimate D2E/DX2                !
 ! D8    D(1,2,17,19)          178.952          estimate D2E/DX2                !
 ! D9    D(3,2,17,18)          164.4718         estimate D2E/DX2                !
 ! D10   D(3,2,17,19)          -63.9624         estimate D2E/DX2                !
 ! D11   D(20,2,17,18)         -83.5031         estimate D2E/DX2                !
 ! D12   D(20,2,17,19)          48.0627         estimate D2E/DX2                !
 ! D13   D(2,3,4,5)             51.0252         estimate D2E/DX2                !
 ! D14   D(2,3,4,8)            -58.9694         estimate D2E/DX2                !
 ! D15   D(2,3,4,9)            174.0225         estimate D2E/DX2                !
 ! D16   D(21,3,4,5)          -176.4868         estimate D2E/DX2                !
 ! D17   D(21,3,4,8)            73.5186         estimate D2E/DX2                !
 ! D18   D(21,3,4,9)           -53.4895         estimate D2E/DX2                !
 ! D19   D(3,4,5,6)           -125.3088         estimate D2E/DX2                !
 ! D20   D(3,4,5,22)           120.6813         estimate D2E/DX2                !
 ! D21   D(3,4,5,23)            -9.219          estimate D2E/DX2                !
 ! D22   D(8,4,5,6)             -3.8996         estimate D2E/DX2                !
 ! D23   D(8,4,5,22)          -117.9096         estimate D2E/DX2                !
 ! D24   D(8,4,5,23)           112.1902         estimate D2E/DX2                !
 ! D25   D(9,4,5,6)            115.7766         estimate D2E/DX2                !
 ! D26   D(9,4,5,22)             1.7667         estimate D2E/DX2                !
 ! D27   D(9,4,5,23)          -128.1335         estimate D2E/DX2                !
 ! D28   D(3,4,8,6)            123.6542         estimate D2E/DX2                !
 ! D29   D(3,4,8,24)          -121.2471         estimate D2E/DX2                !
 ! D30   D(3,4,8,25)            10.4961         estimate D2E/DX2                !
 ! D31   D(5,4,8,6)              3.8866         estimate D2E/DX2                !
 ! D32   D(5,4,8,24)           118.9853         estimate D2E/DX2                !
 ! D33   D(5,4,8,25)          -109.2715         estimate D2E/DX2                !
 ! D34   D(9,4,8,6)           -114.1766         estimate D2E/DX2                !
 ! D35   D(9,4,8,24)             0.9221         estimate D2E/DX2                !
 ! D36   D(9,4,8,25)           132.6653         estimate D2E/DX2                !
 ! D37   D(3,4,9,10)           175.2364         estimate D2E/DX2                !
 ! D38   D(3,4,9,26)            52.0775         estimate D2E/DX2                !
 ! D39   D(3,4,9,27)           -62.678          estimate D2E/DX2                !
 ! D40   D(5,4,9,10)           -61.0759         estimate D2E/DX2                !
 ! D41   D(5,4,9,26)           175.7652         estimate D2E/DX2                !
 ! D42   D(5,4,9,27)            61.0097         estimate D2E/DX2                !
 ! D43   D(8,4,9,10)            47.5271         estimate D2E/DX2                !
 ! D44   D(8,4,9,26)           -75.6317         estimate D2E/DX2                !
 ! D45   D(8,4,9,27)           169.6127         estimate D2E/DX2                !
 ! D46   D(4,5,6,7)           -104.117          estimate D2E/DX2                !
 ! D47   D(4,5,6,8)              3.3125         estimate D2E/DX2                !
 ! D48   D(22,5,6,7)            14.0028         estimate D2E/DX2                !
 ! D49   D(22,5,6,8)           121.4323         estimate D2E/DX2                !
 ! D50   D(23,5,6,7)           136.4462         estimate D2E/DX2                !
 ! D51   D(23,5,6,8)          -116.1243         estimate D2E/DX2                !
 ! D52   D(5,6,8,4)             -3.2925         estimate D2E/DX2                !
 ! D53   D(5,6,8,24)          -122.3659         estimate D2E/DX2                !
 ! D54   D(5,6,8,25)           114.1383         estimate D2E/DX2                !
 ! D55   D(7,6,8,4)            102.8067         estimate D2E/DX2                !
 ! D56   D(7,6,8,24)           -16.2667         estimate D2E/DX2                !
 ! D57   D(7,6,8,25)          -139.7626         estimate D2E/DX2                !
 ! D58   D(4,9,10,11)          -93.9945         estimate D2E/DX2                !
 ! D59   D(4,9,10,28)          145.1215         estimate D2E/DX2                !
 ! D60   D(4,9,10,29)           29.4775         estimate D2E/DX2                !
 ! D61   D(26,9,10,11)          28.853          estimate D2E/DX2                !
 ! D62   D(26,9,10,28)         -92.0309         estimate D2E/DX2                !
 ! D63   D(26,9,10,29)         152.325          estimate D2E/DX2                !
 ! D64   D(27,9,10,11)         145.8352         estimate D2E/DX2                !
 ! D65   D(27,9,10,28)          24.9512         estimate D2E/DX2                !
 ! D66   D(27,9,10,29)         -90.6928         estimate D2E/DX2                !
 ! D67   D(9,10,11,12)         122.6056         estimate D2E/DX2                !
 ! D68   D(9,10,11,16)         -59.2448         estimate D2E/DX2                !
 ! D69   D(28,10,11,12)       -117.0348         estimate D2E/DX2                !
 ! D70   D(28,10,11,16)         61.1148         estimate D2E/DX2                !
 ! D71   D(29,10,11,12)         -1.636          estimate D2E/DX2                !
 ! D72   D(29,10,11,16)        176.5136         estimate D2E/DX2                !
 ! D73   D(10,11,12,13)        178.1171         estimate D2E/DX2                !
 ! D74   D(10,11,12,30)         -2.9737         estimate D2E/DX2                !
 ! D75   D(16,11,12,13)         -0.0741         estimate D2E/DX2                !
 ! D76   D(16,11,12,30)        178.8351         estimate D2E/DX2                !
 ! D77   D(10,11,16,15)       -178.2225         estimate D2E/DX2                !
 ! D78   D(10,11,16,34)          1.4986         estimate D2E/DX2                !
 ! D79   D(12,11,16,15)         -0.033          estimate D2E/DX2                !
 ! D80   D(12,11,16,34)        179.6881         estimate D2E/DX2                !
 ! D81   D(11,12,13,14)          0.0563         estimate D2E/DX2                !
 ! D82   D(11,12,13,31)        179.851          estimate D2E/DX2                !
 ! D83   D(30,12,13,14)       -178.8337         estimate D2E/DX2                !
 ! D84   D(30,12,13,31)          0.9609         estimate D2E/DX2                !
 ! D85   D(12,13,14,15)          0.069          estimate D2E/DX2                !
 ! D86   D(12,13,14,32)        179.9805         estimate D2E/DX2                !
 ! D87   D(31,13,14,15)       -179.725          estimate D2E/DX2                !
 ! D88   D(31,13,14,32)          0.1865         estimate D2E/DX2                !
 ! D89   D(13,14,15,16)         -0.175          estimate D2E/DX2                !
 ! D90   D(13,14,15,33)       -179.854          estimate D2E/DX2                !
 ! D91   D(32,14,15,16)        179.9135         estimate D2E/DX2                !
 ! D92   D(32,14,15,33)          0.2345         estimate D2E/DX2                !
 ! D93   D(14,15,16,11)          0.1582         estimate D2E/DX2                !
 ! D94   D(14,15,16,34)       -179.5631         estimate D2E/DX2                !
 ! D95   D(33,15,16,11)        179.8381         estimate D2E/DX2                !
 ! D96   D(33,15,16,34)          0.1167         estimate D2E/DX2                !
 ! D97   D(2,17,18,35)         -50.0438         estimate D2E/DX2                !
 ! D98   D(2,17,18,36)        -168.2751         estimate D2E/DX2                !
 ! D99   D(2,17,18,37)          72.2065         estimate D2E/DX2                !
 ! D100  D(19,17,18,35)        177.9569         estimate D2E/DX2                !
 ! D101  D(19,17,18,36)         59.7256         estimate D2E/DX2                !
 ! D102  D(19,17,18,37)        -59.7929         estimate D2E/DX2                !
 ! D103  D(2,17,19,38)          49.3            estimate D2E/DX2                !
 ! D104  D(2,17,19,39)         -72.6258         estimate D2E/DX2                !
 ! D105  D(2,17,19,40)         167.4358         estimate D2E/DX2                !
 ! D106  D(18,17,19,38)       -179.0305         estimate D2E/DX2                !
 ! D107  D(18,17,19,39)         59.0437         estimate D2E/DX2                !
 ! D108  D(18,17,19,40)        -60.8947         estimate D2E/DX2                !
 --------------------------------------------------------------------------------
 Trust Radius=3.00D-01 FncErr=1.00D-07 GrdErr=1.00D-06 EigMax=2.50D+02 EigMin=1.00D-04
 Number of steps in this run=    234 maximum allowed number of steps=    240.
 GradGradGradGradGradGradGradGradGradGradGradGradGradGradGradGradGradGrad

 Leave Link  103 at Mon Sep 21 06:23:41 2020, MaxMem=  2147483648 cpu:               0.0 elap:               0.0
 (Enter /prod/apps/gaussian/g16b1/l202.exe)
                          Input orientation:                          
 ---------------------------------------------------------------------
 Center     Atomic      Atomic             Coordinates (Angstroms)
 Number     Number       Type             X           Y           Z
 ---------------------------------------------------------------------
      1          8           0       -2.548000    0.606000   -1.558000
      2         16           0       -2.729000   -0.626000   -0.776000
      3          7           0       -1.341000   -1.073000    0.033000
      4          6           0       -0.256000   -0.122000    0.349000
      5          6           0       -0.752000    1.164000    1.051000
      6         16           0        0.031000    2.296000   -0.208000
      7          8           0        1.295000    2.922000    0.383000
      8          6           0        0.392000    0.586000   -0.875000
      9          6           0        0.733000   -0.918000    1.219000
     10          6           0        2.032000   -0.168000    1.592000
     11          6           0        3.210000   -0.415000    0.667000
     12          6           0        3.843000    0.651000    0.015000
     13          6           0        4.953000    0.430000   -0.807000
     14          6           0        5.445000   -0.864000   -0.989000
     15          6           0        4.819000   -1.935000   -0.345000
     16          6           0        3.713000   -1.709000    0.476000
     17          7           0       -3.726000   -0.201000    0.516000
     18          6           0       -4.908000    0.580000    0.111000
     19          6           0       -4.051000   -1.320000    1.418000
     20          8           0       -3.187000   -1.840000   -1.472000
     21          1           0       -1.001000   -1.941000   -0.377000
     22          1           0       -0.319000    1.345000    2.035000
     23          1           0       -1.832000    1.293000    1.089000
     24          1           0        1.464000    0.433000   -0.996000
     25          1           0       -0.139000    0.442000   -1.813000
     26          1           0        0.987000   -1.849000    0.702000
     27          1           0        0.190000   -1.198000    2.127000
     28          1           0        2.314000   -0.483000    2.602000
     29          1           0        1.845000    0.909000    1.643000
     30          1           0        3.445000    1.652000    0.145000
     31          1           0        5.429000    1.268000   -1.306000
     32          1           0        6.305000   -1.037000   -1.626000
     33          1           0        5.195000   -2.944000   -0.478000
     34          1           0        3.239000   -2.548000    0.977000
     35          1           0       -4.598000    1.409000   -0.522000
     36          1           0       -5.361000    0.977000    1.021000
     37          1           0       -5.653000   -0.029000   -0.417000
     38          1           0       -3.131000   -1.838000    1.687000
     39          1           0       -4.757000   -2.026000    0.965000
     40          1           0       -4.498000   -0.894000    2.317000
 ---------------------------------------------------------------------
                    Distance matrix (angstroms):
                    1          2          3          4          5
     1  O    0.000000
     2  S    1.470411   0.000000
     3  N    2.609056   1.667583   0.000000
     4  C    3.069185   2.763217   1.476984   0.000000
     5  C    3.216187   3.232732   2.527333   1.546808   0.000000
     6  S    3.365983   4.059348   3.645631   2.497867   1.865367
     7  O    4.888761   5.488548   4.799065   3.416532   2.779748
     8  C    3.018359   3.349535   2.565158   1.555424   2.313503
     9  C    4.560621   4.006337   2.394180   1.539038   2.562845
    10  C    5.612306   5.337069   3.824478   2.604248   3.133299
    11  C    6.256807   6.115431   4.641823   3.492868   4.282306
    12  C    6.581887   6.741483   5.463182   4.184601   4.738195
    13  C    7.540556   7.754303   6.525262   5.364207   6.044663
    14  C    8.146945   8.180238   6.865709   5.902729   6.832071
    15  C    7.886745   7.672780   6.231495   5.433620   6.525999
    16  C    6.978288   6.651297   5.113087   4.276407   5.340504
    17  N    2.518017   1.686386   2.584937   3.474914   3.315739
    18  C    2.890646   2.643718   3.932173   4.710685   4.300813
    19  C    3.850333   2.653857   3.053413   4.120678   4.145883
    20  O    2.529552   1.472405   2.502205   3.854650   4.617225
    21  H    3.205492   2.207807   1.018393   2.095438   3.426691
    22  H    4.292343   4.194599   3.301395   2.235767   1.090186
    23  H    2.826877   2.822303   2.637077   2.243569   1.088340
    24  H    4.054863   4.330257   3.345878   2.252876   3.104066
    25  H    2.428004   2.987322   2.673527   2.237416   3.016546
    26  H    4.861157   4.181970   2.543486   2.156893   3.496297
    27  H    4.932574   4.156339   2.597003   2.125553   2.761192
    28  H    6.490806   6.071506   4.506316   3.436747   3.810324
    29  H    5.443956   5.397153   4.083016   2.674247   2.675799
    30  H    6.317466   6.644983   5.508536   4.109269   4.321318
    31  H    8.008388   8.391728   7.287393   6.081969   6.615968
    32  H    9.004426   9.083203   7.823995   6.912638   7.862059
    33  H    8.586207   8.261459   6.817702   6.193627   7.387849
    34  H    7.061396   6.510309   4.903383   4.300568   5.450917
    35  H    2.433229   2.774690   4.132360   4.685677   4.162460
    36  H    3.834299   3.567386   4.619420   5.265018   4.612890
    37  H    3.368402   3.005839   4.459347   5.451882   5.253387
    38  H    4.104029   2.774332   2.554416   3.605624   3.882801
    39  H    4.262937   3.017261   3.666864   4.925817   5.120891
    40  H    4.590003   3.573211   3.900685   4.739575   4.457649
                    6          7          8          9         10
     6  S    0.000000
     7  O    1.529331   0.000000
     8  C    1.870644   2.802654   0.000000
     9  C    3.585935   3.969929   2.600602   0.000000
    10  C    3.649013   3.398963   3.056829   1.545649   0.000000
    11  C    4.268628   3.857907   3.364653   2.587130   1.517998
    12  C    4.157776   3.432953   3.564509   3.685577   2.537205
    13  C    5.297815   4.583353   4.564174   4.871363   3.826885
    14  C    6.317195   5.782619   5.258166   5.203953   4.335268
    15  C    6.391015   6.044751   5.121979   4.491746   3.826438
    16  C    5.483156   5.225087   4.256908   3.171456   2.538877
    17  N    4.568833   5.914496   4.417259   4.570665   5.857767
    18  C    5.238334   6.635974   5.390940   5.940753   7.135577
    19  C    5.690523   6.902572   5.350788   4.804983   6.193567
    20  O    5.390706   6.797499   4.364760   4.843342   6.278666
    21  H    4.364144   5.431205   2.928170   2.569144   4.027354
    22  H    2.461290   2.796610   3.090259   2.625591   2.830657
    23  H    2.481731   3.595860   3.050135   3.388900   4.161493
    24  H    2.478952   2.850495   1.089603   2.695512   2.716904
    25  H    2.458097   3.609594   1.087447   3.435551   4.084038
    26  H    4.350064   4.791562   2.961449   1.094790   2.170227
    27  H    4.205418   4.608358   3.497923   1.094401   2.177175
    28  H    4.564102   4.190029   4.114167   2.145105   1.094920
    29  H    2.939484   2.437677   2.925041   2.180424   1.094303
    30  H    3.492097   2.508395   3.390806   3.887585   2.720805
    31  H    5.603641   4.762184   5.101201   5.762520   4.690427
    32  H    7.244494   6.694017   6.177516   6.257425   5.419337
    33  H    7.361888   7.096568   5.973886   5.185936   4.689951
    34  H    5.929572   5.835484   4.621393   2.999250   2.738517
    35  H    4.723664   6.151068   5.069718   6.071702   7.135322
    36  H    5.685408   6.963649   6.069984   6.384909   7.502900
    37  H    6.144686   7.590988   6.093440   6.651903   7.944471
    38  H    5.538883   6.629290   4.985093   3.999490   5.427199
    39  H    6.555956   7.838886   6.059731   5.606450   7.066528
    40  H    6.087985   7.201462   6.024231   5.345048   6.610114
                   11         12         13         14         15
    11  C    0.000000
    12  C    1.400767   0.000000
    13  C    2.434081   1.398794   0.000000
    14  C    2.817652   2.422735   1.396289   0.000000
    15  C    2.433809   2.787395   2.413426   1.397731   0.000000
    16  C    1.401401   2.408116   2.785500   2.420759   1.395834
    17  N    6.940943   7.633261   8.801905   9.317287   8.761570
    18  C    8.197627   8.751815   9.904774  10.510935  10.057221
    19  C    7.355620   8.256421   9.438493   9.806916   9.064397
    20  O    6.894023   7.605074   8.476717   8.700419   8.085493
    21  H    4.599036   5.507855   6.423135   6.563946   5.820091
    22  H    4.174071   4.678064   6.058727   6.873715   6.543840
    23  H    5.340142   5.811305   7.097592   7.869273   7.530746
    24  H    2.556010   2.594087   3.494117   4.186958   4.157794
    25  H    4.254486   4.386524   5.190438   5.793589   5.690950
    26  H    2.645621   3.857292   4.816646   4.868621   3.973390
    27  H    3.444574   4.606925   5.826226   6.118500   5.299207
    28  H    2.133463   3.211910   4.406719   4.779498   4.131360
    29  H    2.137470   2.590164   3.986428   4.799058   4.570028
    30  H    2.144807   1.085037   2.161863   3.408256   3.872279
    31  H    3.413089   2.154327   1.085275   2.155497   3.399240
    32  H    3.901763   3.406416   2.156561   1.084112   2.157675
    33  H    3.412783   3.872335   3.398629   2.156391   1.084964
    34  H    2.155604   3.394681   3.871555   3.401095   2.149384
    35  H    8.105897   8.491962   9.605273  10.307593   9.994676
    36  H    8.690513   9.264552  10.489013  11.144461  10.676053
    37  H    8.937383   9.530112  10.623089  11.144057  10.644285
    38  H    6.578268   7.591270   8.758705   9.036450   8.206152
    39  H    8.133709   9.056977  10.171333  10.452232   9.665617
    40  H    7.897164   8.789682  10.041601  10.478253   9.745584
                   16         17         18         19         20
    16  C    0.000000
    17  N    7.590414   0.000000
    18  C    8.927171   1.473469   0.000000
    19  C    7.830605   1.473564   2.460223   0.000000
    20  O    7.170904   2.632297   3.365134   3.060882   0.000000
    21  H    4.796168   3.354202   4.675279   3.593072   2.447003
    22  H    5.292865   4.037961   5.034473   4.627174   5.537933
    23  H    6.335203   2.479436   3.305545   3.443831   4.267369
    24  H    3.436997   5.442812   6.469114   6.270218   5.198548
    25  H    4.970335   4.324842   5.144335   5.371010   3.822840
    26  H    2.738933   4.996286   6.403151   5.116047   4.706233
    27  H    3.924086   4.350217   5.763258   4.301586   4.976856
    28  H    2.824916   6.396290   7.713127   6.528066   6.978533
    29  H    3.421292   5.791224   6.932408   6.307288   6.525431
    30  H    3.387876   7.415827   8.421576   8.163537   7.667606
    31  H    3.870750   9.449427  10.456328  10.197466   9.160932
    32  H    3.404182  10.291162  11.461380  10.797813   9.527150
    33  H    2.152130   9.385964  10.716161   9.577093   8.512625
    34  H    1.086093   7.364248   8.769718   7.405847   6.913200
    35  H    8.932561   2.104739   1.088131   3.392676   3.667345
    36  H    9.478876   2.077483   1.091292   2.673933   4.344746
    37  H    9.557291   2.147883   1.097584   2.756866   3.236341
    38  H    6.951510   2.098818   3.389429   1.089534   3.159497
    39  H    8.490024   2.143639   2.746517   1.096395   2.904904
    40  H    8.454231   2.078421   2.684625   1.090636   4.119485
                   21         22         23         24         25
    21  H    0.000000
    22  H    4.132876   0.000000
    23  H    3.646707   1.785158   0.000000
    24  H    3.477824   3.632877   3.993800   0.000000
    25  H    2.912701   3.956629   3.465841   1.799216   0.000000
    26  H    2.263813   3.699211   4.238950   2.884139   3.583543
    27  H    2.870635   2.595071   3.372093   3.746514   4.280355
    28  H    4.689289   3.255113   4.757380   3.808827   5.134692
    29  H    4.505842   2.242021   3.738275   2.708516   4.012266
    30  H    5.740126   4.223037   5.372778   2.590792   4.259451
    31  H    7.246076   6.648888   7.645834   4.063810   5.651721
    32  H    7.466917   7.934370   8.888807   5.098341   6.614193
    33  H    6.277470   7.423940   8.353825   5.058934   6.457459
    34  H    4.492145   5.379050   6.362458   3.991205   5.304252
    35  H    4.917513   4.985197   3.203051   6.158335   4.741777
    36  H    5.429432   5.156102   3.543772   7.137566   5.965490
    37  H    5.029756   6.029240   4.314599   7.155444   5.707438
    38  H    2.967761   4.261448   3.442117   5.785322   5.138138
    39  H    3.989452   5.674891   4.425693   6.970871   5.927414
    40  H    4.536833   4.749388   3.660397   6.948550   6.151640
                   26         27         28         29         30
    26  H    0.000000
    27  H    1.757736   0.000000
    28  H    2.690146   2.290901   0.000000
    29  H    3.037797   2.722633   1.754225   0.000000
    30  H    4.313817   4.758765   3.445901   2.314315   0.000000
    31  H    5.786114   6.731550   5.295440   4.655163   2.487793
    32  H    5.861745   7.176640   5.840461   5.862156   4.306595
    33  H    4.505407   5.906316   4.882938   5.528720   4.957201
    34  H    2.373969   3.527237   2.785763   3.786508   4.286567
    35  H    6.580651   6.061237   7.817595   6.815385   8.074267
    36  H    6.955943   6.063618   7.970997   7.233114   8.875170
    37  H    6.975253   6.479132   8.531915   7.832206   9.269046
    38  H    4.234179   3.410607   5.685180   5.684058   7.602739
    39  H    5.752741   5.148654   7.420220   7.256743   9.026233
    40  H    5.797023   4.701687   6.830336   6.628630   8.619220
                   31         32         33         34         35
    31  H    0.000000
    32  H    2.486524   0.000000
    33  H    4.298986   2.487298   0.000000
    34  H    4.956818   4.296404   2.469773   0.000000
    35  H   10.058592  11.228408  10.716968   8.906370   0.000000
    36  H   11.041907  12.130885  11.360034   9.294491   1.774723
    37  H   11.193000  12.061157  11.232989   9.346457   1.786587
    38  H    9.585347  10.032730   8.673681   6.448651   4.192228
    39  H   10.943604  11.404352  10.097885   8.013030   3.746422
    40  H   10.786366  11.500979  10.294114   8.024493   3.657011
                   36         37         38         39         40
    36  H    0.000000
    37  H    1.779085   0.000000
    38  H    3.652490   3.749637   0.000000
    39  H    3.063652   2.588580   1.788995   0.000000
    40  H    2.434138   3.091441   1.776717   1.782248   0.000000
 Symmetry turned off by external request.
 Stoichiometry    C13H20N2O3S2
 Framework group  C1[X(C13H20N2O3S2)]
 Deg. of freedom   114
 Full point group                 C1      NOp   1
 Rotational constants (GHZ):           0.5877276           0.1562237           0.1418150
 Leave Link  202 at Mon Sep 21 06:23:41 2020, MaxMem=  2147483648 cpu:               0.0 elap:               0.0
 (Enter /prod/apps/gaussian/g16b1/l301.exe)
 Standard basis: 6-31G(d) (6D, 7F)
 Ernie: Thresh=  0.10000D-02 Tol=  0.10000D-05 Strict=F.
   348 basis functions,   688 primitive gaussians,   348 cartesian basis functions
    84 alpha electrons       84 beta electrons
       nuclear repulsion energy      2009.4810491046 Hartrees.
 IExCor=  402 DFT=T Ex+Corr=B3LYP ExCW=0 ScaHFX=  0.200000
 ScaDFX=  0.800000  0.720000  1.000000  0.810000 ScalE2=  1.000000  1.000000
 IRadAn=      5 IRanWt=     -1 IRanGd=            0 ICorTp=0 IEmpDi=  4
 NAtoms=   40 NActive=   40 NUniq=   40 SFac= 1.00D+00 NAtFMM=   60 NAOKFM=F Big=F
 Integral buffers will be    131072 words long.
 Raffenetti 2 integral format.
 Two-electron integral symmetry is turned off.
 Using the following non-standard input for PCM:
 MSTModel=DFT cav
 --- end of non-standard input.
 MST model for solvation energy: B3LYP parametrization.
 MST cavity parameters:
 ISph   IAn     Re0     Alpha   Atom Type   QCorr
 ------------------------------------------------
   1      8     1.40     1.25      O          F
   2     16     1.75     1.25      S          F
   3      7     1.50     1.25      NH         F
   4      6     1.50     1.25      C          F
   5      6     1.50     1.25      CH2        F
   6     16     1.75     1.25      S          F
   7      8     1.40     1.25      O          F
   8      6     1.50     1.25      CH2        F
   9      6     1.50     1.25      CH2        F
  10      6     1.50     1.25      CH2        F
  11      6     1.50     1.25      C          F
  12      6     1.50     1.25      CH         F
  13      6     1.50     1.25      CH         F
  14      6     1.50     1.25      CH         F
  15      6     1.50     1.25      CH         F
  16      6     1.50     1.25      CH         F
  17      7     1.40     1.25      N          F
  18      6     1.50     1.25      CH3        F
  19      6     1.50     1.25      CH3        F
  20      8     1.40     1.25      O          F
  21      1     0.90     1.25      NH         F
  22      1     1.20     1.25      CH2        F
  23      1     1.20     1.25      CH2        F
  24      1     1.20     1.25      CH2        F
  25      1     1.20     1.25      CH2        F
  26      1     1.20     1.25      CH2        F
  27      1     1.20     1.25      CH2        F
  28      1     1.20     1.25      CH2        F
  29      1     1.20     1.25      CH2        F
  30      1     1.20     1.25      CH         F
  31      1     1.20     1.25      CH         F
  32      1     1.20     1.25      CH         F
  33      1     1.20     1.25      CH         F
  34      1     1.20     1.25      CH         F
  35      1     1.20     1.25      CH3        F
  36      1     1.20     1.25      CH3        F
  37      1     1.20     1.25      CH3        F
  38      1     1.20     1.25      CH3        F
  39      1     1.20     1.25      CH3        F
  40      1     1.20     1.25      CH3        F
 ------------------------------------------------------------------------------
 Polarizable Continuum Model (PCM)
 =================================
 Model                : PCM.
 Atomic radii         : MST.
 Polarization charges : Total charges.
 Charge compensation  : None.
 Solution method      : On-the-fly selection.
 Cavity type          : Scaled VdW (van der Waals Surface) (Alpha=1.250).
 Cavity algorithm     : GePol (No added spheres)
                        Default sphere list used, NSphG=   40.
                        Lebedev-Laikov grids with approx.  5.0 points / Ang**2.
                        Smoothing algorithm: York/Karplus (Gamma=1.0000).
                        Polarization charges: spherical gaussians, with
                                              point-specific exponents (IZeta= 3).
                        Self-potential: point-specific (ISelfS= 7).
                        Self-field    : sphere-specific E.n sum rule (ISelfD= 2).
 1st derivatives      : Analytical E(r).r(x)/FMM algorithm (CHGder, D1EAlg=3).
                        Cavity 1st derivative terms included.
 Solvent              : Water, Eps=  78.355300 Eps(inf)=   1.777849
 ------------------------------------------------------------------------------
 GePol: Number of generator spheres                  =      40
 GePol: Total number of spheres                      =      40
 GePol: Number of exposed spheres                    =      40 (100.00%)
 GePol: Number of points                             =    2654
 GePol: Average weight of points                     =       0.13
 GePol: Minimum weight of points                     =   0.18D-09
 GePol: Maximum weight of points                     =    0.22001
 GePol: Number of points with low weight             =     179
 GePol: Fraction of low-weight points (<1% of avg)   =       6.74%
 GePol: Cavity surface area                          =    354.462 Ang**2
 GePol: Cavity volume                                =    363.394 Ang**3
 PCM non-electrostatic energy =         0.0030306219 Hartrees.
 Nuclear repulsion after PCM non-electrostatic terms =     2009.4840797265 Hartrees.
 Leave Link  301 at Mon Sep 21 06:23:41 2020, MaxMem=  2147483648 cpu:               0.3 elap:               0.1
 (Enter /prod/apps/gaussian/g16b1/l302.exe)
 NPDir=0 NMtPBC=     1 NCelOv=     1 NCel=       1 NClECP=     1 NCelD=      1
         NCelK=      1 NCelE2=     1 NClLst=     1 CellRange=     0.0.
 One-electron integrals computed using PRISM.
 NBasis=   348 RedAO= T EigKep=  4.62D-04  NBF=   348
 NBsUse=   348 1.00D-06 EigRej= -1.00D+00 NBFU=   348
 Precomputing XC quadrature grid using
 IXCGrd= 4 IRadAn=           5 IRanWt=          -1 IRanGd=           0 AccXCQ= 0.00D+00.
 Generated NRdTot=       0 NPtTot=           0 NUsed=           0 NTot=          32
 NSgBfM=   346   346   346   346   346 MxSgAt=    40 MxSgA2=    40.
 Leave Link  302 at Mon Sep 21 06:23:42 2020, MaxMem=  2147483648 cpu:               2.3 elap:               0.6
 (Enter /prod/apps/gaussian/g16b1/l303.exe)
 DipDrv:  MaxL=1.
 Leave Link  303 at Mon Sep 21 06:23:42 2020, MaxMem=  2147483648 cpu:               0.2 elap:               0.1
 (Enter /prod/apps/gaussian/g16b1/l401.exe)
 ExpMin= 1.17D-01 ExpMax= 2.19D+04 ExpMxC= 3.30D+03 IAcc=3 IRadAn=         5 AccDes= 0.00D+00
 Harris functional with IExCor=  402 and IRadAn=       5 diagonalized for initial guess.
 HarFok:  IExCor=  402 AccDes= 0.00D+00 IRadAn=         5 IDoV= 1 UseB2=F ITyADJ=14
 ICtDFT=  3500011 ScaDFX=  1.000000  1.000000  1.000000  1.000000
 FoFCou: FMM=F IPFlag=           0 FMFlag=      100000 FMFlg1=           0
         NFxFlg=           0 DoJE=T BraDBF=F KetDBF=T FulRan=T
         wScrn=  0.000000 ICntrl=       500 IOpCl=  0 I1Cent=   200000004 NGrid=           0
         NMat0=    1 NMatS0=      1 NMatT0=    0 NMatD0=    1 NMtDS0=    0 NMtDT0=    0
 Symmetry not used in FoFCou.
 Harris En= -1638.89592020743    
 JPrj=0 DoOrth=F DoCkMO=F.
 Leave Link  401 at Mon Sep 21 06:23:45 2020, MaxMem=  2147483648 cpu:              13.7 elap:               3.4
 (Enter /prod/apps/gaussian/g16b1/l502.exe)
 Two-electron integral symmetry not used.
 Closed shell SCF:
 Using DIIS extrapolation, IDIIS=  1040.
 NGot=  2147483648 LenX=  2147236206 LenY=  2147114661
 Requested convergence on RMS density matrix=1.00D-08 within2000 cycles.
 Requested convergence on MAX density matrix=1.00D-06.
 Requested convergence on             energy=1.00D-06.
 No special actions if energy rises.

 Cycle   1  Pass 1  IDiag  1:
 FoFJK:  IHMeth= 1 ICntrl=       0 DoSepK=F KAlg= 0 I1Cent=           0 FoldK=F
 IRaf= 790000000 NMat=       1 IRICut=       1 DoRegI=T DoRafI=F ISym2E= 0 IDoP0=0 IntGTp=1.
 FoFCou: FMM=F IPFlag=           0 FMFlag=      100000 FMFlg1=           0
         NFxFlg=           0 DoJE=F BraDBF=F KetDBF=F FulRan=T
         wScrn=  0.000000 ICntrl=         0 IOpCl=  0 I1Cent=           0 NGrid=           0
         NMat0=    1 NMatS0=      1 NMatT0=    0 NMatD0=    1 NMtDS0=    0 NMtDT0=    0
 Symmetry not used in FoFCou.
 Inv3:  Mode=1 IEnd=    21131148.
 Iteration    1 A*A^-1 deviation from unit magnitude is 3.11D-15 for    765.
 Iteration    1 A*A^-1 deviation from orthogonality  is 2.51D-15 for   1614    599.
 Iteration    1 A^-1*A deviation from unit magnitude is 3.11D-15 for    791.
 Iteration    1 A^-1*A deviation from orthogonality  is 2.42D-14 for   2253   2228.
 E= -1638.10268737053    
 DIIS: error= 3.63D-02 at cycle   1 NSaved=   1.
 NSaved= 1 IEnMin= 1 EnMin= -1638.10268737053     IErMin= 1 ErrMin= 3.63D-02
 ErrMax= 3.63D-02  0.00D+00 EMaxC= 1.00D-01 BMatC= 8.59D-01 BMatP= 8.59D-01
 IDIUse=3 WtCom= 6.37D-01 WtEn= 3.63D-01
 Coeff-Com:  0.100D+01
 Coeff-En:   0.100D+01
 Coeff:      0.100D+01
 Gap=     0.318 Goal=   None    Shift=    0.000
 GapD=    0.318 DampG=1.000 DampE=0.500 DampFc=0.5000 IDamp=-1.
 Damping current iteration by 5.00D-01
 RMSDP=6.58D-03 MaxDP=5.83D-01              OVMax= 2.32D-01

 Cycle   2  Pass 1  IDiag  1:
 E= -1638.31122683555     Delta-E=       -0.208539465016 Rises=F Damp=T
 DIIS: error= 1.27D-02 at cycle   2 NSaved=   2.
 NSaved= 2 IEnMin= 2 EnMin= -1638.31122683555     IErMin= 2 ErrMin= 1.27D-02
 ErrMax= 1.27D-02  0.00D+00 EMaxC= 1.00D-01 BMatC= 1.16D-01 BMatP= 8.59D-01
 IDIUse=3 WtCom= 8.73D-01 WtEn= 1.27D-01
 Coeff-Com:  0.215D+00 0.785D+00
 Coeff-En:   0.344D+00 0.656D+00
 Coeff:      0.231D+00 0.769D+00
 Gap=     0.301 Goal=   None    Shift=    0.000
 RMSDP=1.97D-03 MaxDP=1.27D-01 DE=-2.09D-01 OVMax= 1.67D-01

 Cycle   3  Pass 1  IDiag  1:
 E= -1638.78449789041     Delta-E=       -0.473271054865 Rises=F Damp=F
 DIIS: error= 1.14D-02 at cycle   3 NSaved=   3.
 NSaved= 3 IEnMin= 3 EnMin= -1638.78449789041     IErMin= 3 ErrMin= 1.14D-02
 ErrMax= 1.14D-02  0.00D+00 EMaxC= 1.00D-01 BMatC= 7.89D-02 BMatP= 1.16D-01
 IDIUse=3 WtCom= 8.86D-01 WtEn= 1.14D-01
 Coeff-Com:  0.794D-01 0.458D+00 0.463D+00
 Coeff-En:   0.000D+00 0.000D+00 0.100D+01
 Coeff:      0.703D-01 0.406D+00 0.524D+00
 Gap=     0.240 Goal=   None    Shift=    0.000
 RMSDP=1.22D-03 MaxDP=5.04D-02 DE=-4.73D-01 OVMax= 9.35D-02

 Cycle   4  Pass 1  IDiag  1:
 E= -1638.84171920255     Delta-E=       -0.057221312136 Rises=F Damp=F
 DIIS: error= 5.31D-03 at cycle   4 NSaved=   4.
 NSaved= 4 IEnMin= 4 EnMin= -1638.84171920255     IErMin= 4 ErrMin= 5.31D-03
 ErrMax= 5.31D-03  0.00D+00 EMaxC= 1.00D-01 BMatC= 1.49D-02 BMatP= 7.89D-02
 IDIUse=3 WtCom= 9.47D-01 WtEn= 5.31D-02
 Coeff-Com:  0.782D-02 0.963D-01 0.312D+00 0.584D+00
 Coeff-En:   0.000D+00 0.000D+00 0.178D+00 0.822D+00
 Coeff:      0.740D-02 0.912D-01 0.305D+00 0.597D+00
 Gap=     0.230 Goal=   None    Shift=    0.000
 RMSDP=4.74D-04 MaxDP=2.18D-02 DE=-5.72D-02 OVMax= 4.29D-02

 Cycle   5  Pass 1  IDiag  1:
 E= -1638.85368936099     Delta-E=       -0.011970158443 Rises=F Damp=F
 DIIS: error= 1.51D-03 at cycle   5 NSaved=   5.
 NSaved= 5 IEnMin= 5 EnMin= -1638.85368936099     IErMin= 5 ErrMin= 1.51D-03
 ErrMax= 1.51D-03  0.00D+00 EMaxC= 1.00D-01 BMatC= 1.36D-03 BMatP= 1.49D-02
 IDIUse=3 WtCom= 9.85D-01 WtEn= 1.51D-02
 Coeff-Com: -0.202D-02 0.197D-01 0.134D+00 0.348D+00 0.501D+00
 Coeff-En:   0.000D+00 0.000D+00 0.000D+00 0.243D-01 0.976D+00
 Coeff:     -0.199D-02 0.194D-01 0.132D+00 0.343D+00 0.508D+00
 Gap=     0.228 Goal=   None    Shift=    0.000
 RMSDP=1.38D-04 MaxDP=8.03D-03 DE=-1.20D-02 OVMax= 1.07D-02

 Cycle   6  Pass 1  IDiag  1:
 E= -1638.85476846176     Delta-E=       -0.001079100763 Rises=F Damp=F
 DIIS: error= 4.89D-04 at cycle   6 NSaved=   6.
 NSaved= 6 IEnMin= 6 EnMin= -1638.85476846176     IErMin= 6 ErrMin= 4.89D-04
 ErrMax= 4.89D-04  0.00D+00 EMaxC= 1.00D-01 BMatC= 1.39D-04 BMatP= 1.36D-03
 IDIUse=3 WtCom= 9.95D-01 WtEn= 4.89D-03
 Coeff-Com: -0.175D-02 0.366D-02 0.494D-01 0.148D+00 0.305D+00 0.496D+00
 Coeff-En:   0.000D+00 0.000D+00 0.000D+00 0.000D+00 0.154D-01 0.985D+00
 Coeff:     -0.174D-02 0.364D-02 0.492D-01 0.147D+00 0.303D+00 0.499D+00
 Gap=     0.229 Goal=   None    Shift=    0.000
 RMSDP=4.00D-05 MaxDP=2.09D-03 DE=-1.08D-03 OVMax= 2.30D-03

 Cycle   7  Pass 1  IDiag  1:
 E= -1638.85486881805     Delta-E=       -0.000100356299 Rises=F Damp=F
 DIIS: error= 1.19D-04 at cycle   7 NSaved=   7.
 NSaved= 7 IEnMin= 7 EnMin= -1638.85486881805     IErMin= 7 ErrMin= 1.19D-04
 ErrMax= 1.19D-04  0.00D+00 EMaxC= 1.00D-01 BMatC= 1.13D-05 BMatP= 1.39D-04
 IDIUse=3 WtCom= 9.99D-01 WtEn= 1.19D-03
 Coeff-Com: -0.753D-03-0.383D-03 0.110D-01 0.390D-01 0.108D+00 0.279D+00
 Coeff-Com:  0.564D+00
 Coeff-En:   0.000D+00 0.000D+00 0.000D+00 0.000D+00 0.000D+00 0.219D-01
 Coeff-En:   0.978D+00
 Coeff:     -0.752D-03-0.382D-03 0.110D-01 0.389D-01 0.108D+00 0.279D+00
 Coeff:      0.565D+00
 Gap=     0.228 Goal=   None    Shift=    0.000
 RMSDP=1.03D-05 MaxDP=4.36D-04 DE=-1.00D-04 OVMax= 5.40D-04

 Cycle   8  Pass 1  IDiag  1:
 E= -1638.85487808872     Delta-E=       -0.000009270665 Rises=F Damp=F
 DIIS: error= 2.92D-05 at cycle   8 NSaved=   8.
 NSaved= 8 IEnMin= 8 EnMin= -1638.85487808872     IErMin= 8 ErrMin= 2.92D-05
 ErrMax= 2.92D-05  0.00D+00 EMaxC= 1.00D-01 BMatC= 3.02D-07 BMatP= 1.13D-05
 IDIUse=1 WtCom= 1.00D+00 WtEn= 0.00D+00
 Coeff-Com: -0.152D-03-0.339D-03 0.487D-03 0.372D-02 0.180D-01 0.694D-01
 Coeff-Com:  0.208D+00 0.701D+00
 Coeff:     -0.152D-03-0.339D-03 0.487D-03 0.372D-02 0.180D-01 0.694D-01
 Coeff:      0.208D+00 0.701D+00
 Gap=     0.228 Goal=   None    Shift=    0.000
 RMSDP=2.28D-06 MaxDP=1.05D-04 DE=-9.27D-06 OVMax= 1.14D-04

 Cycle   9  Pass 1  IDiag  1:
 E= -1638.85487832435     Delta-E=       -0.000000235632 Rises=F Damp=F
 DIIS: error= 9.89D-06 at cycle   9 NSaved=   9.
 NSaved= 9 IEnMin= 9 EnMin= -1638.85487832435     IErMin= 9 ErrMin= 9.89D-06
 ErrMax= 9.89D-06  0.00D+00 EMaxC= 1.00D-01 BMatC= 5.22D-08 BMatP= 3.02D-07
 IDIUse=1 WtCom= 1.00D+00 WtEn= 0.00D+00
 Coeff-Com: -0.200D-04-0.132D-03-0.639D-03-0.122D-02 0.355D-03 0.126D-01
 Coeff-Com:  0.575D-01 0.356D+00 0.575D+00
 Coeff:     -0.200D-04-0.132D-03-0.639D-03-0.122D-02 0.355D-03 0.126D-01
 Coeff:      0.575D-01 0.356D+00 0.575D+00
 Gap=     0.228 Goal=   None    Shift=    0.000
 RMSDP=7.21D-07 MaxDP=2.90D-05 DE=-2.36D-07 OVMax= 2.97D-05

 Cycle  10  Pass 1  IDiag  1:
 E= -1638.85487837057     Delta-E=       -0.000000046219 Rises=F Damp=F
 DIIS: error= 1.61D-06 at cycle  10 NSaved=  10.
 NSaved=10 IEnMin=10 EnMin= -1638.85487837057     IErMin=10 ErrMin= 1.61D-06
 ErrMax= 1.61D-06  0.00D+00 EMaxC= 1.00D-01 BMatC= 2.05D-09 BMatP= 5.22D-08
 IDIUse=1 WtCom= 1.00D+00 WtEn= 0.00D+00
 Coeff-Com: -0.356D-05-0.311D-04-0.312D-03-0.703D-03-0.764D-03 0.211D-02
 Coeff-Com:  0.149D-01 0.123D+00 0.240D+00 0.622D+00
 Coeff:     -0.356D-05-0.311D-04-0.312D-03-0.703D-03-0.764D-03 0.211D-02
 Coeff:      0.149D-01 0.123D+00 0.240D+00 0.622D+00
 Gap=     0.228 Goal=   None    Shift=    0.000
 RMSDP=1.93D-07 MaxDP=8.59D-06 DE=-4.62D-08 OVMax= 1.17D-05

 Cycle  11  Pass 1  IDiag  1:
 E= -1638.85487837176     Delta-E=       -0.000000001194 Rises=F Damp=F
 DIIS: error= 1.07D-06 at cycle  11 NSaved=  11.
 NSaved=11 IEnMin=11 EnMin= -1638.85487837176     IErMin=11 ErrMin= 1.07D-06
 ErrMax= 1.07D-06  0.00D+00 EMaxC= 1.00D-01 BMatC= 7.50D-10 BMatP= 2.05D-09
 IDIUse=1 WtCom= 1.00D+00 WtEn= 0.00D+00
 Coeff-Com: -0.342D-06-0.279D-06-0.124D-03-0.295D-03-0.608D-03-0.504D-03
 Coeff-Com:  0.124D-02 0.290D-01 0.703D-01 0.396D+00 0.505D+00
 Coeff:     -0.342D-06-0.279D-06-0.124D-03-0.295D-03-0.608D-03-0.504D-03
 Coeff:      0.124D-02 0.290D-01 0.703D-01 0.396D+00 0.505D+00
 Gap=     0.228 Goal=   None    Shift=    0.000
 RMSDP=8.31D-08 MaxDP=4.20D-06 DE=-1.19D-09 OVMax= 6.07D-06

 Cycle  12  Pass 1  IDiag  1:
 E= -1638.85487837234     Delta-E=       -0.000000000579 Rises=F Damp=F
 DIIS: error= 2.67D-07 at cycle  12 NSaved=  12.
 NSaved=12 IEnMin=12 EnMin= -1638.85487837234     IErMin=12 ErrMin= 2.67D-07
 ErrMax= 2.67D-07  0.00D+00 EMaxC= 1.00D-01 BMatC= 4.81D-11 BMatP= 7.50D-10
 IDIUse=1 WtCom= 1.00D+00 WtEn= 0.00D+00
 Coeff-Com: -0.227D-06 0.355D-05-0.347D-04-0.770D-04-0.253D-03-0.515D-03
 Coeff-Com: -0.112D-02 0.934D-03 0.745D-02 0.134D+00 0.255D+00 0.604D+00
 Coeff:     -0.227D-06 0.355D-05-0.347D-04-0.770D-04-0.253D-03-0.515D-03
 Coeff:     -0.112D-02 0.934D-03 0.745D-02 0.134D+00 0.255D+00 0.604D+00
 Gap=     0.228 Goal=   None    Shift=    0.000
 RMSDP=2.44D-08 MaxDP=1.23D-06 DE=-5.79D-10 OVMax= 1.44D-06

 Cycle  13  Pass 1  IDiag  1:
 E= -1638.85487837239     Delta-E=       -0.000000000045 Rises=F Damp=F
 DIIS: error= 9.76D-08 at cycle  13 NSaved=  13.
 NSaved=13 IEnMin=13 EnMin= -1638.85487837239     IErMin=13 ErrMin= 9.76D-08
 ErrMax= 9.76D-08  0.00D+00 EMaxC= 1.00D-01 BMatC= 5.83D-12 BMatP= 4.81D-11
 IDIUse=1 WtCom= 1.00D+00 WtEn= 0.00D+00
 Coeff-Com: -0.189D-06 0.218D-05-0.547D-05-0.765D-05-0.708D-04-0.212D-03
 Coeff-Com: -0.719D-03-0.260D-02-0.394D-02 0.276D-01 0.801D-01 0.329D+00
 Coeff-Com:  0.571D+00
 Coeff:     -0.189D-06 0.218D-05-0.547D-05-0.765D-05-0.708D-04-0.212D-03
 Coeff:     -0.719D-03-0.260D-02-0.394D-02 0.276D-01 0.801D-01 0.329D+00
 Coeff:      0.571D+00
 Gap=     0.228 Goal=   None    Shift=    0.000
 RMSDP=8.43D-09 MaxDP=4.31D-07 DE=-4.50D-11 OVMax= 5.03D-07

 Error on total polarization charges =  0.02022
 SCF Done:  E(RB3LYP) =  -1638.85487837     A.U. after   13 cycles
            NFock= 13  Conv=0.84D-08     -V/T= 2.0066
 KE= 1.628125076275D+03 PE=-7.869484447207D+03 EE= 2.593020412833D+03
 Leave Link  502 at Mon Sep 21 06:25:40 2020, MaxMem=  2147483648 cpu:             459.8 elap:             115.0
 (Enter /prod/apps/gaussian/g16b1/l601.exe)
 Copying SCF densities to generalized density rwf, IOpCl= 0 IROHF=0.

 **********************************************************************

            Population analysis using the SCF Density.

 **********************************************************************

 Alpha  occ. eigenvalues --  -89.13976 -88.98408 -19.15901 -19.15726 -19.11984
 Alpha  occ. eigenvalues --  -14.37865 -14.37363 -10.26123 -10.21852 -10.21776
 Alpha  occ. eigenvalues --  -10.21297 -10.20888 -10.19549 -10.19466 -10.18927
 Alpha  occ. eigenvalues --  -10.18855 -10.18735 -10.18733 -10.18644 -10.18344
 Alpha  occ. eigenvalues --   -8.16220  -8.03232  -6.12700  -6.12655  -6.12599
 Alpha  occ. eigenvalues --   -5.99660  -5.99447  -5.98999  -1.13225  -1.01481
 Alpha  occ. eigenvalues --   -1.00570  -0.94960  -0.93562  -0.85584  -0.84034
 Alpha  occ. eigenvalues --   -0.78667  -0.74263  -0.74071  -0.72391  -0.71256
 Alpha  occ. eigenvalues --   -0.69795  -0.67175  -0.62442  -0.60303  -0.60138
 Alpha  occ. eigenvalues --   -0.57535  -0.55922  -0.53767  -0.52729  -0.51324
 Alpha  occ. eigenvalues --   -0.50778  -0.48327  -0.47938  -0.46662  -0.46097
 Alpha  occ. eigenvalues --   -0.45056  -0.44971  -0.44297  -0.43829  -0.41875
 Alpha  occ. eigenvalues --   -0.41736  -0.41577  -0.41041  -0.40713  -0.40148
 Alpha  occ. eigenvalues --   -0.39310  -0.38664  -0.38353  -0.37088  -0.36187
 Alpha  occ. eigenvalues --   -0.35594  -0.35249  -0.34929  -0.33590  -0.33127
 Alpha  occ. eigenvalues --   -0.32716  -0.32631  -0.31624  -0.28659  -0.26671
 Alpha  occ. eigenvalues --   -0.25923  -0.25038  -0.24279  -0.23278
 Alpha virt. eigenvalues --   -0.00463  -0.00106   0.00965   0.02463   0.05618
 Alpha virt. eigenvalues --    0.06329   0.06712   0.07538   0.09062   0.09967
 Alpha virt. eigenvalues --    0.10401   0.11693   0.11929   0.12837   0.13531
 Alpha virt. eigenvalues --    0.14294   0.14910   0.15539   0.16151   0.16439
 Alpha virt. eigenvalues --    0.16677   0.16982   0.17668   0.18108   0.18548
 Alpha virt. eigenvalues --    0.18900   0.19257   0.20094   0.20582   0.21490
 Alpha virt. eigenvalues --    0.22031   0.22238   0.23088   0.23188   0.25140
 Alpha virt. eigenvalues --    0.27310   0.27973   0.30154   0.30919   0.32846
 Alpha virt. eigenvalues --    0.33602   0.34831   0.35526   0.36026   0.36663
 Alpha virt. eigenvalues --    0.40303   0.41756   0.43406   0.43773   0.46689
 Alpha virt. eigenvalues --    0.47873   0.48585   0.49940   0.50242   0.51763
 Alpha virt. eigenvalues --    0.52905   0.53366   0.54018   0.55232   0.55617
 Alpha virt. eigenvalues --    0.56490   0.57328   0.58170   0.58955   0.59553
 Alpha virt. eigenvalues --    0.60005   0.60341   0.61194   0.61443   0.62198
 Alpha virt. eigenvalues --    0.62493   0.63245   0.64578   0.65054   0.67570
 Alpha virt. eigenvalues --    0.68464   0.69046   0.69521   0.71020   0.72087
 Alpha virt. eigenvalues --    0.74068   0.74765   0.75200   0.76161   0.77059
 Alpha virt. eigenvalues --    0.77571   0.78263   0.80231   0.80736   0.81276
 Alpha virt. eigenvalues --    0.82934   0.83539   0.84019   0.84448   0.85140
 Alpha virt. eigenvalues --    0.85835   0.86887   0.87581   0.87821   0.88676
 Alpha virt. eigenvalues --    0.88965   0.89507   0.90383   0.90800   0.91640
 Alpha virt. eigenvalues --    0.92424   0.92929   0.93588   0.94047   0.94640
 Alpha virt. eigenvalues --    0.95012   0.95961   0.96513   0.97726   0.98297
 Alpha virt. eigenvalues --    0.99349   1.00379   1.00646   1.02951   1.03767
 Alpha virt. eigenvalues --    1.04508   1.05653   1.07358   1.08484   1.09641
 Alpha virt. eigenvalues --    1.10447   1.11115   1.11565   1.13985   1.14562
 Alpha virt. eigenvalues --    1.15713   1.17903   1.18077   1.20330   1.21785
 Alpha virt. eigenvalues --    1.22018   1.23655   1.25282   1.26273   1.29348
 Alpha virt. eigenvalues --    1.30241   1.31626   1.33806   1.35182   1.39502
 Alpha virt. eigenvalues --    1.42596   1.43388   1.44288   1.44771   1.46332
 Alpha virt. eigenvalues --    1.48324   1.48948   1.49948   1.51478   1.52072
 Alpha virt. eigenvalues --    1.52775   1.56115   1.59043   1.61347   1.68016
 Alpha virt. eigenvalues --    1.70405   1.70807   1.73018   1.74388   1.76938
 Alpha virt. eigenvalues --    1.77854   1.79695   1.80047   1.81029   1.81883
 Alpha virt. eigenvalues --    1.82334   1.83493   1.83884   1.84632   1.86620
 Alpha virt. eigenvalues --    1.87310   1.88532   1.88875   1.89998   1.90765
 Alpha virt. eigenvalues --    1.92144   1.92696   1.93453   1.95342   1.96726
 Alpha virt. eigenvalues --    1.97997   1.98589   1.99390   2.01627   2.02714
 Alpha virt. eigenvalues --    2.04645   2.04705   2.06714   2.07485   2.08303
 Alpha virt. eigenvalues --    2.09779   2.11114   2.13036   2.13381   2.14196
 Alpha virt. eigenvalues --    2.14627   2.15308   2.15384   2.18035   2.20089
 Alpha virt. eigenvalues --    2.20589   2.21521   2.22301   2.24303   2.25991
 Alpha virt. eigenvalues --    2.28079   2.29534   2.31051   2.31537   2.32859
 Alpha virt. eigenvalues --    2.35285   2.37122   2.38445   2.41333   2.42475
 Alpha virt. eigenvalues --    2.43966   2.48322   2.48819   2.53323   2.55884
 Alpha virt. eigenvalues --    2.58658   2.59161   2.60778   2.65139   2.67989
 Alpha virt. eigenvalues --    2.70876   2.72389   2.72932   2.73548   2.74027
 Alpha virt. eigenvalues --    2.75206   2.75688   2.77586   2.80540   2.82600
 Alpha virt. eigenvalues --    2.88509   2.90473   3.06256   3.40976   3.79018
 Alpha virt. eigenvalues --    3.86812   3.92131   3.94428   4.00772   4.06145
 Alpha virt. eigenvalues --    4.09282   4.09976   4.12919   4.18225   4.20663
 Alpha virt. eigenvalues --    4.25173   4.27759   4.34392   4.36295   4.36730
 Alpha virt. eigenvalues --    4.46164   4.52809   4.69706   4.77403
          Condensed to atoms (all electrons):
               1          2          3          4          5          6
     1  O    8.323753   0.400370  -0.052976   0.004010  -0.002540   0.007459
     2  S    0.400370  13.577178   0.150815   0.001413  -0.004768   0.001074
     3  N   -0.052976   0.150815   7.385913   0.211873  -0.039955   0.002333
     4  C    0.004010   0.001413   0.211873   4.789133   0.332506  -0.077295
     5  C   -0.002540  -0.004768  -0.039955   0.332506   5.651250   0.108666
     6  S    0.007459   0.001074   0.002333  -0.077295   0.108666  14.873968
     7  O    0.000003   0.000015  -0.000040   0.000421  -0.037449   0.279200
     8  C   -0.006199  -0.006179  -0.056692   0.350231  -0.145048   0.105246
     9  C    0.000112   0.001085  -0.045244   0.378787  -0.042688   0.007411
    10  C    0.000001  -0.000010   0.003549  -0.028805  -0.005540   0.000751
    11  C   -0.000000  -0.000001  -0.000034  -0.001952   0.000022  -0.000586
    12  C   -0.000000   0.000000  -0.000009   0.000502  -0.000070   0.001547
    13  C    0.000000  -0.000000  -0.000000  -0.000002  -0.000001   0.000019
    14  C    0.000000   0.000000   0.000000   0.000001   0.000000  -0.000003
    15  C    0.000000   0.000000  -0.000000  -0.000015   0.000000   0.000001
    16  C    0.000000   0.000000  -0.000001  -0.000180  -0.000011  -0.000025
    17  N   -0.054162   0.141373  -0.045499  -0.003446  -0.007085  -0.000222
    18  C   -0.004277  -0.024336   0.002351   0.000027   0.000022  -0.000000
    19  C    0.001609  -0.012271  -0.011169   0.000508   0.000165   0.000009
    20  O   -0.044391   0.447231  -0.057546   0.001655  -0.000091   0.000022
    21  H   -0.000085  -0.015291   0.298417  -0.020315   0.004518  -0.000242
    22  H    0.000100   0.000199   0.002089  -0.026084   0.349911  -0.020470
    23  H   -0.000670   0.005746  -0.006974  -0.025111   0.331883  -0.011428
    24  H    0.000238   0.000263   0.002282  -0.025468   0.007720  -0.019515
    25  H    0.009371   0.002218  -0.006183  -0.023739   0.006832  -0.011409
    26  H    0.000001  -0.000048  -0.004614  -0.033266   0.005411  -0.000542
    27  H    0.000003  -0.000124  -0.000185  -0.035914  -0.007989  -0.000327
    28  H    0.000000  -0.000000  -0.000115   0.003797   0.000135   0.000046
    29  H    0.000000   0.000012  -0.000022  -0.006842  -0.002470  -0.001943
    30  H   -0.000000  -0.000000  -0.000001   0.000020   0.000103  -0.001062
    31  H    0.000000  -0.000000   0.000000   0.000000  -0.000000   0.000002
    32  H   -0.000000  -0.000000   0.000000  -0.000000   0.000000  -0.000000
    33  H   -0.000000   0.000000   0.000000   0.000000  -0.000000   0.000000
    34  H   -0.000000   0.000000  -0.000001   0.000117   0.000001  -0.000002
    35  H    0.011347  -0.004058   0.000104   0.000014   0.000058   0.000069
    36  H    0.000183   0.002376  -0.000089   0.000001   0.000063  -0.000002
    37  H   -0.000488  -0.004274  -0.000070  -0.000006  -0.000014  -0.000001
    38  H    0.000037  -0.002857   0.014427  -0.000138  -0.000008   0.000003
    39  H   -0.000040  -0.008231  -0.000151  -0.000014  -0.000018  -0.000000
    40  H   -0.000050   0.003199   0.000027  -0.000001   0.000080  -0.000000
               7          8          9         10         11         12
     1  O    0.000003  -0.006199   0.000112   0.000001  -0.000000  -0.000000
     2  S    0.000015  -0.006179   0.001085  -0.000010  -0.000001   0.000000
     3  N   -0.000040  -0.056692  -0.045244   0.003549  -0.000034  -0.000009
     4  C    0.000421   0.350231   0.378787  -0.028805  -0.001952   0.000502
     5  C   -0.037449  -0.145048  -0.042688  -0.005540   0.000022  -0.000070
     6  S    0.279200   0.105246   0.007411   0.000751  -0.000586   0.001547
     7  O    8.445968  -0.033728   0.000072  -0.008915  -0.000999  -0.006717
     8  C   -0.033728   5.666716  -0.053044  -0.001279  -0.004036  -0.006049
     9  C    0.000072  -0.053044   5.116442   0.320870  -0.030445   0.001098
    10  C   -0.008915  -0.001279   0.320870   5.249536   0.349678  -0.050255
    11  C   -0.000999  -0.004036  -0.030445   0.349678   4.667091   0.544352
    12  C   -0.006717  -0.006049   0.001098  -0.050255   0.544352   5.033336
    13  C    0.000124  -0.000263  -0.000186   0.007335  -0.023076   0.501033
    14  C    0.000000   0.000031   0.000009   0.000293  -0.034990  -0.036417
    15  C   -0.000000   0.000049   0.000132   0.006080  -0.018430  -0.047005
    16  C   -0.000007  -0.000013  -0.006862  -0.067475   0.539021  -0.042866
    17  N   -0.000000  -0.000296  -0.000299   0.000001   0.000000   0.000000
    18  C    0.000000   0.000019   0.000002  -0.000000  -0.000000   0.000000
    19  C    0.000000  -0.000018  -0.000009  -0.000000  -0.000000   0.000000
    20  O    0.000000  -0.000027  -0.000087   0.000000   0.000000   0.000000
    21  H    0.000001  -0.000493  -0.006040  -0.000021  -0.000020   0.000001
    22  H   -0.000379   0.008078  -0.008817  -0.000128   0.000272  -0.000025
    23  H    0.001109   0.006405   0.002409   0.000127  -0.000009   0.000001
    24  H   -0.001173   0.336357  -0.007455  -0.003635   0.008771   0.010885
    25  H    0.001229   0.332104   0.002582   0.000151  -0.000031   0.000085
    26  H    0.000005  -0.003768   0.369185  -0.042519  -0.005822   0.000419
    27  H    0.000011   0.006218   0.360754  -0.026589   0.003050  -0.000108
    28  H    0.000140  -0.000053  -0.030831   0.359082  -0.028802   0.001762
    29  H    0.025732  -0.001563  -0.040172   0.341429  -0.034390  -0.004950
    30  H    0.021280  -0.001494   0.000301  -0.013238  -0.040913   0.342382
    31  H   -0.000005  -0.000006   0.000001  -0.000171   0.003706  -0.038882
    32  H    0.000000   0.000000   0.000000   0.000007   0.000579   0.004581
    33  H   -0.000000  -0.000000   0.000000  -0.000176   0.003667   0.000694
    34  H    0.000000  -0.000011   0.000940  -0.008739  -0.045162   0.006131
    35  H    0.000000  -0.000002   0.000000  -0.000000   0.000000   0.000000
    36  H    0.000000  -0.000000  -0.000000   0.000000   0.000000   0.000000
    37  H   -0.000000  -0.000000  -0.000000  -0.000000   0.000000   0.000000
    38  H    0.000000   0.000039   0.000058   0.000002  -0.000000  -0.000000
    39  H   -0.000000  -0.000000  -0.000001  -0.000000   0.000000   0.000000
    40  H    0.000000   0.000000  -0.000001   0.000000   0.000000  -0.000000
              13         14         15         16         17         18
     1  O    0.000000   0.000000   0.000000   0.000000  -0.054162  -0.004277
     2  S   -0.000000   0.000000   0.000000   0.000000   0.141373  -0.024336
     3  N   -0.000000   0.000000  -0.000000  -0.000001  -0.045499   0.002351
     4  C   -0.000002   0.000001  -0.000015  -0.000180  -0.003446   0.000027
     5  C   -0.000001   0.000000   0.000000  -0.000011  -0.007085   0.000022
     6  S    0.000019  -0.000003   0.000001  -0.000025  -0.000222  -0.000000
     7  O    0.000124   0.000000  -0.000000  -0.000007  -0.000000   0.000000
     8  C   -0.000263   0.000031   0.000049  -0.000013  -0.000296   0.000019
     9  C   -0.000186   0.000009   0.000132  -0.006862  -0.000299   0.000002
    10  C    0.007335   0.000293   0.006080  -0.067475   0.000001  -0.000000
    11  C   -0.023076  -0.034990  -0.018430   0.539021   0.000000  -0.000000
    12  C    0.501033  -0.036417  -0.047005  -0.042866   0.000000   0.000000
    13  C    4.919715   0.543526  -0.028241  -0.048507  -0.000000   0.000000
    14  C    0.543526   4.888042   0.541518  -0.037368   0.000000  -0.000000
    15  C   -0.028241   0.541518   4.895367   0.522140  -0.000000   0.000000
    16  C   -0.048507  -0.037368   0.522140   5.001356  -0.000000   0.000000
    17  N   -0.000000   0.000000  -0.000000  -0.000000   7.212512   0.280778
    18  C    0.000000  -0.000000   0.000000   0.000000   0.280778   4.997285
    19  C   -0.000000   0.000000   0.000000  -0.000000   0.269184  -0.049534
    20  O   -0.000000   0.000000  -0.000000  -0.000000  -0.056775  -0.002352
    21  H    0.000000   0.000000  -0.000000  -0.000018   0.002054  -0.000042
    22  H   -0.000000   0.000000  -0.000000   0.000004   0.000087  -0.000002
    23  H    0.000000  -0.000000   0.000000   0.000000   0.015609  -0.000431
    24  H    0.000246  -0.000064  -0.000276   0.000399  -0.000000  -0.000000
    25  H    0.000004  -0.000001  -0.000000  -0.000008   0.000037   0.000006
    26  H   -0.000020  -0.000005  -0.000187   0.004841   0.000001  -0.000000
    27  H    0.000003  -0.000000   0.000004   0.000336   0.000000   0.000001
    28  H   -0.000233   0.000034  -0.000068  -0.005409  -0.000000   0.000000
    29  H    0.000339  -0.000007  -0.000173   0.004391  -0.000001   0.000000
    30  H   -0.044533   0.004599   0.000137   0.006443   0.000000   0.000000
    31  H    0.360680  -0.042634   0.004554   0.000738  -0.000000  -0.000000
    32  H   -0.042681   0.363539  -0.042387   0.004718   0.000000  -0.000000
    33  H    0.004604  -0.042492   0.361216  -0.039586  -0.000000   0.000000
    34  H    0.000269   0.004712  -0.044116   0.358565  -0.000000  -0.000000
    35  H    0.000000  -0.000000  -0.000000   0.000000  -0.032651   0.376611
    36  H    0.000000   0.000000  -0.000000  -0.000000  -0.036196   0.381207
    37  H   -0.000000  -0.000000   0.000000  -0.000000  -0.046013   0.372352
    38  H    0.000000  -0.000000   0.000000   0.000000  -0.033649   0.004717
    39  H   -0.000000   0.000000  -0.000000  -0.000000  -0.045028  -0.002323
    40  H    0.000000   0.000000  -0.000000  -0.000000  -0.033667  -0.003484
              19         20         21         22         23         24
     1  O    0.001609  -0.044391  -0.000085   0.000100  -0.000670   0.000238
     2  S   -0.012271   0.447231  -0.015291   0.000199   0.005746   0.000263
     3  N   -0.011169  -0.057546   0.298417   0.002089  -0.006974   0.002282
     4  C    0.000508   0.001655  -0.020315  -0.026084  -0.025111  -0.025468
     5  C    0.000165  -0.000091   0.004518   0.349911   0.331883   0.007720
     6  S    0.000009   0.000022  -0.000242  -0.020470  -0.011428  -0.019515
     7  O    0.000000   0.000000   0.000001  -0.000379   0.001109  -0.001173
     8  C   -0.000018  -0.000027  -0.000493   0.008078   0.006405   0.336357
     9  C   -0.000009  -0.000087  -0.006040  -0.008817   0.002409  -0.007455
    10  C   -0.000000   0.000000  -0.000021  -0.000128   0.000127  -0.003635
    11  C   -0.000000   0.000000  -0.000020   0.000272  -0.000009   0.008771
    12  C    0.000000   0.000000   0.000001  -0.000025   0.000001   0.010885
[...]
 Center     Atomic      Atomic             Coordinates (Angstroms)
 Number     Number       Type             X           Y           Z
 ---------------------------------------------------------------------
      1          8           0       -2.574133    0.562825   -1.610369
      2         16           0       -2.754100   -0.648937   -0.794556
      3          7           0       -1.348371   -1.123171   -0.029037
      4          6           0       -0.262066   -0.173780    0.312429
      5          6           0       -0.776382    1.092306    1.046149
      6         16           0        0.002254    2.264234   -0.179833
      7          8           0        1.263045    2.877506    0.432947
      8          6           0        0.374206    0.577611   -0.894284
      9          6           0        0.734027   -0.990947    1.161071
     10          6           0        2.026108   -0.250082    1.587723
     11          6           0        3.220148   -0.427092    0.668080
     12          6           0        3.781956    0.672880    0.004870
     13          6           0        4.902959    0.519510   -0.815473
     14          6           0        5.481286   -0.739205   -0.985470
     15          6           0        4.930736   -1.843502   -0.329298
     16          6           0        3.812301   -1.687027    0.490544
     17          7           0       -3.683047   -0.175397    0.519098
     18          6           0       -4.812143    0.710613    0.187280
     19          6           0       -4.030251   -1.260471    1.447723
     20          8           0       -3.263025   -1.862984   -1.451489
     21          1           0       -1.006366   -1.965199   -0.493910
     22          1           0       -0.352076    1.255141    2.037818
     23          1           0       -1.860673    1.197522    1.077343
     24          1           0        1.446291    0.438841   -1.028509
     25          1           0       -0.158534    0.454479   -1.834953
     26          1           0        1.002770   -1.901596    0.613911
     27          1           0        0.188358   -1.311643    2.053593
     28          1           0        2.298036   -0.624001    2.580428
     29          1           0        1.828261    0.820032    1.703201
     30          1           0        3.317501    1.646865    0.130284
     31          1           0        5.322422    1.383320   -1.320657
     32          1           0        6.352300   -0.860490   -1.621477
     33          1           0        5.375964   -2.825653   -0.451634
     34          1           0        3.400618   -2.550638    1.004372
     35          1           0       -4.463259    1.513381   -0.459063
     36          1           0       -5.170467    1.134480    1.126588
     37          1           0       -5.636453    0.173988   -0.297971
     38          1           0       -3.133743   -1.832134    1.684294
     39          1           0       -4.797790   -1.927366    1.038288
     40          1           0       -4.408095   -0.797746    2.361084
 ---------------------------------------------------------------------
 Rotational constants (GHZ):           0.5939558           0.1556235           0.1419060
 Leave Link  202 at Mon Sep 21 07:14:33 2020, MaxMem=   262144000 cpu:               0.1 elap:               0.0
 (Enter /prod/apps/gaussian/g16b1/l301.exe)
 Standard basis: Aug-CC-pVDZ (5D, 7F)
 Ernie: Thresh=  0.10000D-02 Tol=  0.10000D-05 Strict=F.
 Ernie:  56 primitive shells out of 696 were deleted.
 There are   688 symmetry adapted cartesian basis functions of A   symmetry.
 There are   648 symmetry adapted basis functions of A   symmetry.
   648 basis functions,  1156 primitive gaussians,   688 cartesian basis functions
    84 alpha electrons       84 beta electrons
       nuclear repulsion energy      2009.9042641167 Hartrees.
 IExCor=    0 DFT=F Ex=HF Corr=None ExCW=0 ScaHFX=  1.000000
 ScaDFX=  1.000000  1.000000  1.000000  1.000000 ScalE2=  1.000000  1.000000
 IRadAn=      5 IRanWt=     -1 IRanGd=            0 ICorTp=0 IEmpDi=  4
 NAtoms=   40 NActive=   40 NUniq=   40 SFac= 1.00D+00 NAtFMM=   60 NAOKFM=F Big=F
 Integral buffers will be    131072 words long.
 Raffenetti 1 integral format.
 Two-electron integral symmetry is turned on.
 Leave Link  301 at Mon Sep 21 07:14:33 2020, MaxMem=   262144000 cpu:               0.2 elap:               0.1
 (Enter /prod/apps/gaussian/g16b1/l302.exe)
 NPDir=0 NMtPBC=     1 NCelOv=     1 NCel=       1 NClECP=     1 NCelD=      1
         NCelK=      1 NCelE2=     1 NClLst=     1 CellRange=     0.0.
 One-electron integrals computed using PRISM.
 One-electron integral symmetry used in STVInt
 NBasis=   648 RedAO= T EigKep=  1.71D-06  NBF=   648
 NBsUse=   648 1.00D-06 EigRej= -1.00D+00 NBFU=   648
 Leave Link  302 at Mon Sep 21 07:14:34 2020, MaxMem=   262144000 cpu:               2.5 elap:               0.6
 (Enter /prod/apps/gaussian/g16b1/l303.exe)
 DipDrv:  MaxL=1.
 Leave Link  303 at Mon Sep 21 07:14:34 2020, MaxMem=   262144000 cpu:               0.5 elap:               0.2
 (Enter /prod/apps/gaussian/g16b1/l401.exe)
 ExpMin= 2.97D-02 ExpMax= 1.11D+05 ExpMxC= 1.07D+03 IAcc=3 IRadAn=         5 AccDes= 0.00D+00
 Harris functional with IExCor=  205 and IRadAn=       5 diagonalized for initial guess.
 HarFok:  IExCor=  205 AccDes= 0.00D+00 IRadAn=         5 IDoV= 1 UseB2=F ITyADJ=14
 ICtDFT=  3500011 ScaDFX=  1.000000  1.000000  1.000000  1.000000
 FoFCou: FMM=F IPFlag=           0 FMFlag=      100000 FMFlg1=           0
         NFxFlg=           0 DoJE=T BraDBF=F KetDBF=T FulRan=T
         wScrn=  0.000000 ICntrl=       500 IOpCl=  0 I1Cent=   200000004 NGrid=           0
         NMat0=    1 NMatS0=      1 NMatT0=    0 NMatD0=    1 NMtDS0=    0 NMtDT0=    0
 Petite list used in FoFCou.
 Harris En= -1632.90860409877    
 JPrj=0 DoOrth=F DoCkMO=F.
 Leave Link  401 at Mon Sep 21 07:14:39 2020, MaxMem=   262144000 cpu:              21.8 elap:               5.5
 (Enter /prod/apps/gaussian/g16b1/l502.exe)
 Integral symmetry usage will be decided dynamically.
 Closed shell SCF:
 Using DIIS extrapolation, IDIIS=  1040.
 NGot=   262144000 LenX=   261186718 LenY=   260712686
 Requested convergence on RMS density matrix=1.00D-08 within2000 cycles.
 Requested convergence on MAX density matrix=1.00D-06.
 Requested convergence on             energy=1.00D-06.
 No special actions if energy rises.

 Cycle   1  Pass 1  IDiag  1:
 FoFJK:  IHMeth= 1 ICntrl=       0 DoSepK=F KAlg= 0 I1Cent=           0 FoldK=F
 IRaf= 920000000 NMat=       1 IRICut=       1 DoRegI=T DoRafI=F ISym2E= 0 IDoP0=0 IntGTp=1.
 FoFCou: FMM=F IPFlag=           0 FMFlag=      100000 FMFlg1=           0
         NFxFlg=           0 DoJE=F BraDBF=F KetDBF=F FulRan=T
         wScrn=  0.000000 ICntrl=         0 IOpCl=  0 I1Cent=           0 NGrid=           0
         NMat0=    1 NMatS0=      1 NMatT0=    0 NMatD0=    1 NMtDS0=    0 NMtDT0=    0
 Symmetry not used in FoFCou.
 E= -1631.44777286360    
 DIIS: error= 1.75D-02 at cycle   1 NSaved=   1.
 NSaved= 1 IEnMin= 1 EnMin= -1631.44777286360     IErMin= 1 ErrMin= 1.75D-02
 ErrMax= 1.75D-02  0.00D+00 EMaxC= 1.00D-01 BMatC= 1.32D+00 BMatP= 1.32D+00
 IDIUse=3 WtCom= 8.25D-01 WtEn= 1.75D-01
 Coeff-Com:  0.100D+01
 Coeff-En:   0.100D+01
 Coeff:      0.100D+01
 Gap=     0.606 Goal=   None    Shift=    0.000
 GapD=    0.606 DampG=2.000 DampE=0.500 DampFc=1.0000 IDamp=-1.
 RMSDP=4.20D-02 MaxDP=3.61D+00              OVMax= 1.51D-01

 Cycle   2  Pass 1  IDiag  1:
 E= -1632.14031073085     Delta-E=       -0.692537867251 Rises=F Damp=F
 DIIS: error= 1.17D-02 at cycle   2 NSaved=   2.
 NSaved= 2 IEnMin= 2 EnMin= -1632.14031073085     IErMin= 2 ErrMin= 1.17D-02
 ErrMax= 1.17D-02  0.00D+00 EMaxC= 1.00D-01 BMatC= 3.12D-01 BMatP= 1.32D+00
 IDIUse=3 WtCom= 8.83D-01 WtEn= 1.17D-01
 Coeff-Com:  0.292D+00 0.708D+00
 Coeff-En:   0.000D+00 0.100D+01
 Coeff:      0.258D+00 0.742D+00
 Gap=     0.364 Goal=   None    Shift=    0.000
 RMSDP=6.44D-03 MaxDP=1.43D+00 DE=-6.93D-01 OVMax= 6.51D-02

 Cycle   3  Pass 1  IDiag  1:
 E= -1632.37585004203     Delta-E=       -0.235539311183 Rises=F Damp=F
 DIIS: error= 2.13D-03 at cycle   3 NSaved=   3.
 NSaved= 3 IEnMin= 3 EnMin= -1632.37585004203     IErMin= 3 ErrMin= 2.13D-03
 ErrMax= 2.13D-03  0.00D+00 EMaxC= 1.00D-01 BMatC= 2.93D-02 BMatP= 3.12D-01
 IDIUse=3 WtCom= 9.79D-01 WtEn= 2.13D-02
 Coeff-Com: -0.432D-02 0.211D+00 0.793D+00
 Coeff-En:   0.000D+00 0.000D+00 0.100D+01
 Coeff:     -0.423D-02 0.207D+00 0.797D+00
 Gap=     0.355 Goal=   None    Shift=    0.000
 RMSDP=1.63D-03 MaxDP=3.61D-01 DE=-2.36D-01 OVMax= 2.48D-02

 Cycle   4  Pass 1  IDiag  1:
 E= -1632.39756687323     Delta-E=       -0.021716831200 Rises=F Damp=F
 DIIS: error= 6.86D-04 at cycle   4 NSaved=   4.
 NSaved= 4 IEnMin= 4 EnMin= -1632.39756687323     IErMin= 4 ErrMin= 6.86D-04
 ErrMax= 6.86D-04  0.00D+00 EMaxC= 1.00D-01 BMatC= 1.63D-03 BMatP= 2.93D-02
 IDIUse=3 WtCom= 9.93D-01 WtEn= 6.86D-03
 Coeff-Com: -0.160D-01 0.256D-01 0.239D+00 0.751D+00
 Coeff-En:   0.000D+00 0.000D+00 0.000D+00 0.100D+01
 Coeff:     -0.159D-01 0.254D-01 0.238D+00 0.753D+00
 Gap=     0.349 Goal=   None    Shift=    0.000
 RMSDP=4.77D-04 MaxDP=5.13D-02 DE=-2.17D-02 OVMax= 1.07D-02

 Cycle   5  Pass 1  IDiag  1:
 E= -1632.39926926337     Delta-E=       -0.001702390136 Rises=F Damp=F
 DIIS: error= 2.56D-04 at cycle   5 NSaved=   5.
 NSaved= 5 IEnMin= 5 EnMin= -1632.39926926337     IErMin= 5 ErrMin= 2.56D-04
 ErrMax= 2.56D-04  0.00D+00 EMaxC= 1.00D-01 BMatC= 1.13D-04 BMatP= 1.63D-03
 IDIUse=3 WtCom= 9.97D-01 WtEn= 2.56D-03
 Coeff-Com: -0.950D-03-0.128D-01-0.448D-01 0.976D-01 0.961D+00
 Coeff-En:   0.000D+00 0.000D+00 0.000D+00 0.000D+00 0.100D+01
 Coeff:     -0.947D-03-0.128D-01-0.447D-01 0.974D-01 0.961D+00
 Gap=     0.350 Goal=   None    Shift=    0.000
 RMSDP=1.45D-04 MaxDP=1.36D-02 DE=-1.70D-03 OVMax= 3.40D-03

 Cycle   6  Pass 1  IDiag  1:
 E= -1632.39944628211     Delta-E=       -0.000177018740 Rises=F Damp=F
 DIIS: error= 6.26D-05 at cycle   6 NSaved=   6.
 NSaved= 6 IEnMin= 6 EnMin= -1632.39944628211     IErMin= 6 ErrMin= 6.26D-05
 ErrMax= 6.26D-05  0.00D+00 EMaxC= 1.00D-01 BMatC= 1.42D-05 BMatP= 1.13D-04
 IDIUse=1 WtCom= 1.00D+00 WtEn= 0.00D+00
 Coeff-Com:  0.165D-02-0.649D-02-0.412D-01-0.624D-01 0.199D+00 0.910D+00
 Coeff:      0.165D-02-0.649D-02-0.412D-01-0.624D-01 0.199D+00 0.910D+00
 Gap=     0.350 Goal=   None    Shift=    0.000
 RMSDP=4.88D-05 MaxDP=4.11D-03 DE=-1.77D-04 OVMax= 2.04D-03

 Cycle   7  Pass 1  IDiag  1:
 E= -1632.39947388624     Delta-E=       -0.000027604130 Rises=F Damp=F
 DIIS: error= 2.61D-05 at cycle   7 NSaved=   7.
 NSaved= 7 IEnMin= 7 EnMin= -1632.39947388624     IErMin= 7 ErrMin= 2.61D-05
 ErrMax= 2.61D-05  0.00D+00 EMaxC= 1.00D-01 BMatC= 1.52D-06 BMatP= 1.42D-05
 IDIUse=1 WtCom= 1.00D+00 WtEn= 0.00D+00
 Coeff-Com:  0.355D-03 0.218D-03-0.164D-02-0.173D-01-0.723D-01 0.113D+00
 Coeff-Com:  0.977D+00
 Coeff:      0.355D-03 0.218D-03-0.164D-02-0.173D-01-0.723D-01 0.113D+00
 Coeff:      0.977D+00
 Gap=     0.350 Goal=   None    Shift=    0.000
 RMSDP=1.82D-05 MaxDP=1.38D-03 DE=-2.76D-05 OVMax= 7.46D-04

 Cycle   8  Pass 1  IDiag  1:
 E= -1632.39947767145     Delta-E=       -0.000003785219 Rises=F Damp=F
 DIIS: error= 9.99D-06 at cycle   8 NSaved=   8.
 NSaved= 8 IEnMin= 8 EnMin= -1632.39947767145     IErMin= 8 ErrMin= 9.99D-06
 ErrMax= 9.99D-06  0.00D+00 EMaxC= 1.00D-01 BMatC= 2.76D-07 BMatP= 1.52D-06
 IDIUse=1 WtCom= 1.00D+00 WtEn= 0.00D+00
 Coeff-Com: -0.176D-03 0.100D-02 0.600D-02 0.742D-02-0.402D-01-0.121D+00
 Coeff-Com:  0.128D+00 0.102D+01
 Coeff:     -0.176D-03 0.100D-02 0.600D-02 0.742D-02-0.402D-01-0.121D+00
 Coeff:      0.128D+00 0.102D+01
 Gap=     0.350 Goal=   None    Shift=    0.000
 RMSDP=8.36D-06 MaxDP=6.93D-04 DE=-3.79D-06 OVMax= 3.65D-04

 Cycle   9  Pass 1  IDiag  1:
 E= -1632.39947838055     Delta-E=       -0.000000709096 Rises=F Damp=F
 DIIS: error= 4.33D-06 at cycle   9 NSaved=   9.
 NSaved= 9 IEnMin= 9 EnMin= -1632.39947838055     IErMin= 9 ErrMin= 4.33D-06
 ErrMax= 4.33D-06  0.00D+00 EMaxC= 1.00D-01 BMatC= 4.61D-08 BMatP= 2.76D-07
 IDIUse=1 WtCom= 1.00D+00 WtEn= 0.00D+00
 Coeff-Com: -0.103D-03 0.198D-03 0.171D-02 0.486D-02 0.288D-02-0.465D-01
 Coeff-Com: -0.146D+00 0.240D+00 0.943D+00
 Coeff:     -0.103D-03 0.198D-03 0.171D-02 0.486D-02 0.288D-02-0.465D-01
 Coeff:     -0.146D+00 0.240D+00 0.943D+00
 Gap=     0.350 Goal=   None    Shift=    0.000
 RMSDP=3.38D-06 MaxDP=3.76D-04 DE=-7.09D-07 OVMax= 1.16D-04

 Cycle  10  Pass 1  IDiag  1:
 E= -1632.39947848902     Delta-E=       -0.000000108475 Rises=F Damp=F
 DIIS: error= 1.59D-06 at cycle  10 NSaved=  10.
 NSaved=10 IEnMin=10 EnMin= -1632.39947848902     IErMin=10 ErrMin= 1.59D-06
 ErrMax= 1.59D-06  0.00D+00 EMaxC= 1.00D-01 BMatC= 3.84D-09 BMatP= 4.61D-08
 IDIUse=1 WtCom= 1.00D+00 WtEn= 0.00D+00
 Coeff-Com:  0.140D-04-0.905D-04-0.557D-03-0.624D-03 0.378D-02 0.121D-01
 Coeff-Com: -0.140D-01-0.944D-01 0.397D-03 0.109D+01
 Coeff:      0.140D-04-0.905D-04-0.557D-03-0.624D-03 0.378D-02 0.121D-01
 Coeff:     -0.140D-01-0.944D-01 0.397D-03 0.109D+01
 Gap=     0.350 Goal=   None    Shift=    0.000
 RMSDP=1.31D-06 MaxDP=1.45D-04 DE=-1.08D-07 OVMax= 4.06D-05

 Cycle  11  Pass 1  IDiag  1:
 E= -1632.39947850212     Delta-E=       -0.000000013099 Rises=F Damp=F
 DIIS: error= 7.64D-07 at cycle  11 NSaved=  11.
 NSaved=11 IEnMin=11 EnMin= -1632.39947850212     IErMin=11 ErrMin= 7.64D-07
 ErrMax= 7.64D-07  0.00D+00 EMaxC= 1.00D-01 BMatC= 7.01D-10 BMatP= 3.84D-09
 IDIUse=1 WtCom= 1.00D+00 WtEn= 0.00D+00
 Coeff-Com:  0.148D-04-0.307D-04-0.261D-03-0.725D-03-0.275D-03 0.681D-02
 Coeff-Com:  0.210D-01-0.347D-01-0.144D+00 0.183D-01 0.113D+01
 Coeff:      0.148D-04-0.307D-04-0.261D-03-0.725D-03-0.275D-03 0.681D-02
 Coeff:      0.210D-01-0.347D-01-0.144D+00 0.183D-01 0.113D+01
 Gap=     0.350 Goal=   None    Shift=    0.000
 RMSDP=6.67D-07 MaxDP=5.57D-05 DE=-1.31D-08 OVMax= 2.67D-05

 Cycle  12  Pass 1  IDiag  1:
 E= -1632.39947850514     Delta-E=       -0.000000003018 Rises=F Damp=F
 DIIS: error= 3.79D-07 at cycle  12 NSaved=  12.
 NSaved=12 IEnMin=12 EnMin= -1632.39947850514     IErMin=12 ErrMin= 3.79D-07
 ErrMax= 3.79D-07  0.00D+00 EMaxC= 1.00D-01 BMatC= 1.25D-10 BMatP= 7.01D-10
 IDIUse=1 WtCom= 1.00D+00 WtEn= 0.00D+00
 Coeff-Com: -0.364D-05 0.167D-04 0.113D-03 0.198D-03-0.471D-03-0.306D-02
 Coeff-Com: -0.100D-02 0.218D-01 0.177D-01-0.193D+00-0.103D+00 0.126D+01
 Coeff:     -0.364D-05 0.167D-04 0.113D-03 0.198D-03-0.471D-03-0.306D-02
 Coeff:     -0.100D-02 0.218D-01 0.177D-01-0.193D+00-0.103D+00 0.126D+01
 Gap=     0.350 Goal=   None    Shift=    0.000
 RMSDP=3.39D-07 MaxDP=2.52D-05 DE=-3.02D-09 OVMax= 1.60D-05

 Cycle  13  Pass 1  IDiag  1:
 E= -1632.39947850576     Delta-E=       -0.000000000618 Rises=F Damp=F
 DIIS: error= 1.82D-07 at cycle  13 NSaved=  13.
 NSaved=13 IEnMin=13 EnMin= -1632.39947850576     IErMin=13 ErrMin= 1.82D-07
 ErrMax= 1.82D-07  0.00D+00 EMaxC= 1.00D-01 BMatC= 2.33D-11 BMatP= 1.25D-10
 IDIUse=1 WtCom= 1.00D+00 WtEn= 0.00D+00
 Coeff-Com: -0.286D-05 0.689D-05 0.564D-04 0.153D-03 0.122D-04-0.155D-02
 Coeff-Com: -0.376D-02 0.889D-02 0.261D-01-0.312D-01-0.188D+00 0.140D+00
 Coeff-Com:  0.105D+01
 Coeff:     -0.286D-05 0.689D-05 0.564D-04 0.153D-03 0.122D-04-0.155D-02
 Coeff:     -0.376D-02 0.889D-02 0.261D-01-0.312D-01-0.188D+00 0.140D+00
 Coeff:      0.105D+01
 Gap=     0.350 Goal=   None    Shift=    0.000
 RMSDP=1.33D-07 MaxDP=7.26D-06 DE=-6.18D-10 OVMax= 6.84D-06

 Cycle  14  Pass 1  IDiag  1:
 E= -1632.39947850580     Delta-E=       -0.000000000036 Rises=F Damp=F
 DIIS: error= 6.52D-08 at cycle  14 NSaved=  14.
 NSaved=14 IEnMin=14 EnMin= -1632.39947850580     IErMin=14 ErrMin= 6.52D-08
 ErrMax= 6.52D-08  0.00D+00 EMaxC= 1.00D-01 BMatC= 4.57D-12 BMatP= 2.33D-11
 IDIUse=1 WtCom= 1.00D+00 WtEn= 0.00D+00
 Coeff-Com:  0.541D-06-0.308D-05-0.196D-04-0.295D-04 0.105D-03 0.507D-03
 Coeff-Com: -0.113D-03-0.389D-02-0.141D-02 0.377D-01 0.106D-01-0.262D+00
 Coeff-Com:  0.839D-01 0.113D+01
 Coeff:      0.541D-06-0.308D-05-0.196D-04-0.295D-04 0.105D-03 0.507D-03
 Coeff:     -0.113D-03-0.389D-02-0.141D-02 0.377D-01 0.106D-01-0.262D+00
 Coeff:      0.839D-01 0.113D+01
 Gap=     0.350 Goal=   None    Shift=    0.000
 RMSDP=6.74D-08 MaxDP=3.58D-06 DE=-3.59D-11 OVMax= 3.53D-06

 Cycle  15  Pass 1  IDiag  1:
 E= -1632.39947850585     Delta-E=       -0.000000000057 Rises=F Damp=F
 DIIS: error= 2.88D-08 at cycle  15 NSaved=  15.
 NSaved=15 IEnMin=15 EnMin= -1632.39947850585     IErMin=15 ErrMin= 2.88D-08
 ErrMax= 2.88D-08  0.00D+00 EMaxC= 1.00D-01 BMatC= 7.61D-13 BMatP= 4.57D-12
 IDIUse=1 WtCom= 1.00D+00 WtEn= 0.00D+00
 Coeff-Com:  0.524D-06-0.145D-05-0.113D-04-0.297D-04 0.774D-05 0.303D-03
 Coeff-Com:  0.682D-03-0.194D-02-0.467D-02 0.791D-02 0.363D-01-0.502D-01
 Coeff-Com: -0.181D+00 0.113D+00 0.108D+01
 Coeff:      0.524D-06-0.145D-05-0.113D-04-0.297D-04 0.774D-05 0.303D-03
 Coeff:      0.682D-03-0.194D-02-0.467D-02 0.791D-02 0.363D-01-0.502D-01
 Coeff:     -0.181D+00 0.113D+00 0.108D+01
 Gap=     0.350 Goal=   None    Shift=    0.000
 RMSDP=2.35D-08 MaxDP=1.29D-06 DE=-5.73D-11 OVMax= 1.24D-06

 Cycle  16  Pass 1  IDiag  1:
 E= -1632.39947850582     Delta-E=        0.000000000029 Rises=F Damp=F
 DIIS: error= 7.38D-09 at cycle  16 NSaved=  16.
 NSaved=16 IEnMin=15 EnMin= -1632.39947850585     IErMin=16 ErrMin= 7.38D-09
 ErrMax= 7.38D-09  0.00D+00 EMaxC= 1.00D-01 BMatC= 1.14D-13 BMatP= 7.61D-13
 IDIUse=1 WtCom= 1.00D+00 WtEn= 0.00D+00
 Coeff-Com: -0.882D-09 0.280D-06 0.128D-05-0.394D-06-0.157D-04-0.299D-04
 Coeff-Com:  0.160D-03 0.272D-03-0.620D-03-0.477D-02 0.552D-02 0.319D-01
 Coeff-Com: -0.453D-01-0.161D+00 0.176D+00 0.999D+00
 Coeff:     -0.882D-09 0.280D-06 0.128D-05-0.394D-06-0.157D-04-0.299D-04
 Coeff:      0.160D-03 0.272D-03-0.620D-03-0.477D-02 0.552D-02 0.319D-01
 Coeff:     -0.453D-01-0.161D+00 0.176D+00 0.999D+00
 Gap=     0.350 Goal=   None    Shift=    0.000
 RMSDP=9.34D-09 MaxDP=5.44D-07 DE= 2.86D-11 OVMax= 4.14D-07

 SCF Done:  E(RHF) =  -1632.39947851     A.U. after   16 cycles
            NFock= 16  Conv=0.93D-08     -V/T= 2.0010
 KE= 1.630836188651D+03 PE=-7.868958057724D+03 EE= 2.595818126451D+03
 Leave Link  502 at Mon Sep 21 07:41:39 2020, MaxMem=   262144000 cpu:            6477.5 elap:            1619.6
 (Enter /prod/apps/gaussian/g16b1/l801.exe)
 ExpMin= 2.97D-02 ExpMax= 1.11D+05 ExpMxC= 1.07D+03 IAcc=3 IRadAn=         5 AccDes= 0.00D+00
 HarFok:  IExCor=  205 AccDes= 0.00D+00 IRadAn=         5 IDoV=-2 UseB2=F ITyADJ=14
 ICtDFT= 12500011 ScaDFX=  1.000000  1.000000  1.000000  1.000000
 GSVD:  LWork=       -1008 too small for GESVD, short by        4340 words or        4340 for optimal perf.
 Largest valence mixing into a core orbital is  3.59D-04
 Largest core mixing into a valence orbital is  9.54D-05
 Range of M.O.s used for correlation:    29   648
 NBasis=   648 NAE=    84 NBE=    84 NFC=    28 NFV=     0
 NROrb=    620 NOA=    56 NOB=    56 NVA=   564 NVB=   564

 **** Warning!!: The largest alpha MO coefficient is  0.10714075D+03

 Leave Link  801 at Mon Sep 21 07:41:39 2020, MaxMem=   262144000 cpu:               1.2 elap:               0.3
 (Enter /prod/apps/gaussian/g16b1/l906.exe)
 FulOut=F Deriv=F AODrv=F NAtomX=    40
   MMem=           2  MDisk=          56 MDiskD=          44
  W3Min=    21729792 MinDsk=    21887144 NBas6D=         688
 NBas2D=      237922    NTT=      237016    LW2=     2000000
    MDV=   259199196 MDiskM=        5192 NBas2p=      210784
 Disk-based method using OVN memory for 28 occupieds at a time.
 Estimated scratch disk usage= 10244817408 words.
 IMap=   1   2   3   4   5   6   7   8   9  10  11  12  13  14  15  16  17  18  19  20
 IMap=  21  22  23  24  25  26  27  28  29  30  31  32  33  34  35  36  37  38  39  40
 IMap=  41  42  43  44  45  46  47  48  49  50  51  52  53  54  55  56
 Actual    scratch disk usage= 10012216832 words.
 JobTyp=1 Pass  1:  I=   1 to  28 NPSUse=  4 ParTrn=T ParDer=T DoDerP=F.
 JobTyp=1 Pass  2:  I=  29 to  56 NPSUse=  4 ParTrn=T ParDer=T DoDerP=F.
