 Entering Gaussian System, Link 0=g16
 Initial command:
 /prod/apps/gaussian/g16b1/l1.exe "/tmp/ubafar01/1460083/Gau-76675.inp" -scrdir="/tmp/ubafar01/1460083/"
 Entering Link 1 = /prod/apps/gaussian/g16b1/l1.exe PID=     76678.
  
 Copyright (c) 1988-2017, Gaussian, Inc.  All Rights Reserved.
  
 This is part of the Gaussian(R) 16 program.  It is based on
 the Gaussian(R) 09 system (copyright 2009, Gaussian, Inc.),
 the Gaussian(R) 03 system (copyright 2003, Gaussian, Inc.),
 the Gaussian(R) 98 system (copyright 1998, Gaussian, Inc.),
 the Gaussian(R) 94 system (copyright 1995, Gaussian, Inc.),
 the Gaussian 92(TM) system (copyright 1992, Gaussian, Inc.),
 the Gaussian 90(TM) system (copyright 1990, Gaussian, Inc.),
 the Gaussian 88(TM) system (copyright 1988, Gaussian, Inc.),
 the Gaussian 86(TM) system (copyright 1986, Carnegie Mellon
 University), and the Gaussian 82(TM) system (copyright 1983,
 Carnegie Mellon University). Gaussian is a federally registered
 trademark of Gaussian, Inc.
  
 This software contains proprietary and confidential information,
 including trade secrets, belonging to Gaussian, Inc.
  
 This software is provided under written license and may be
 used, copied, transmitted, or stored only in accord with that
 written license.
  
 The following legend is applicable only to US Government
 contracts under FAR:
  
                    RESTRICTED RIGHTS LEGEND
  
 Use, reproduction and disclosure by the US Government is
 subject to restrictions as set forth in subparagraphs (a)
 and (c) of the Commercial Computer Software - Restricted
 Rights clause in FAR 52.227-19.
  
 Gaussian, Inc.
 340 Quinnipiac St., Bldg. 40, Wallingford CT 06492
  
  
 ---------------------------------------------------------------
 Warning -- This program may not be used in any manner that
 competes with the business of Gaussian, Inc. or will provide
 assistance to any competitor of Gaussian, Inc.  The licensee
 of this program is prohibited from giving any competitor of
 Gaussian, Inc. access to this program.  By using this program,
 the user acknowledges that Gaussian, Inc. is engaged in the
 business of creating and licensing software in the field of
 computational chemistry and represents and warrants to the
 licensee that it is not a competitor of Gaussian, Inc. and that
 it will not use this program in any manner prohibited above.
 ---------------------------------------------------------------
  

 Cite this work as:
 Gaussian 16, Revision B.01,
 M. J. Frisch, G. W. Trucks, H. B. Schlegel, G. E. Scuseria, 
 M. A. Robb, J. R. Cheeseman, G. Scalmani, V. Barone, 
 G. A. Petersson, H. Nakatsuji, X. Li, M. Caricato, A. V. Marenich, 
 J. Bloino, B. G. Janesko, R. Gomperts, B. Mennucci, H. P. Hratchian, 
 J. V. Ortiz, A. F. Izmaylov, J. L. Sonnenberg, D. Williams-Young, 
 F. Ding, F. Lipparini, F. Egidi, J. Goings, B. Peng, A. Petrone, 
 T. Henderson, D. Ranasinghe, V. G. Zakrzewski, J. Gao, N. Rega, 
 G. Zheng, W. Liang, M. Hada, M. Ehara, K. Toyota, R. Fukuda, 
 J. Hasegawa, M. Ishida, T. Nakajima, Y. Honda, O. Kitao, H. Nakai, 
 T. Vreven, K. Throssell, J. A. Montgomery, Jr., J. E. Peralta, 
 F. Ogliaro, M. J. Bearpark, J. J. Heyd, E. N. Brothers, K. N. Kudin, 
 V. N. Staroverov, T. A. Keith, R. Kobayashi, J. Normand, 
 K. Raghavachari, A. P. Rendell, J. C. Burant, S. S. Iyengar, 
 J. Tomasi, M. Cossi, J. M. Millam, M. Klene, C. Adamo, R. Cammi, 
 J. W. Ochterski, R. L. Martin, K. Morokuma, O. Farkas, 
 J. B. Foresman, and D. J. Fox, Gaussian, Inc., Wallingford CT, 2016.
 
 ******************************************
 Gaussian 16:  ES64L-G16RevB.01 20-Dec-2017
                21-Sep-2020 
 ******************************************
 %nproc=4
 Will use up to    4 processors via shared memory.
 %Chk=SM37_m0.n.4.pdb.xyz.mst.n.w.chk
 %mem=16GB
 ----------------------------------------------------------------------
 #p b3lyp/6-31G(d) opt freq NoSymm scf=(MaxCycle=2000,NoVarAcc,NoIncFoc
 k) scrf=(iefpcm,read,solvent=water)
 ----------------------------------------------------------------------
 1/18=20,19=15,26=3,38=1,40=2/1,3;
 2/9=110,12=2,15=1,17=6,18=5,40=1/2;
 3/5=1,6=6,7=1,11=2,25=1,30=1,70=2203,71=1,72=1,74=-5/1,2,3;
 4//1;
 5/5=100002,7=2000,38=1,53=1/2;
 6/7=2,8=2,9=2,10=2,28=1/1;
 7/30=1/1,2,3,16;
 1/18=20,19=15,26=3/3(2);
 2/9=110,15=1/2;
 99//99;
 2/9=110,15=1/2;
 3/5=1,6=6,7=1,11=2,25=1,30=1,70=2205,71=1,72=1,74=-5/1,2,3;
 4/5=5,16=3,69=1/1;
 5/5=100002,7=2000,38=1,53=1/2;
 7/30=1/1,2,3,16;
 1/18=20,19=15,26=3/3(-5);
 2/9=110,15=1/2;
 6/7=2,8=2,9=2,10=2,19=2,28=1/1;
 99/9=1/99;
 Leave Link    1 at Mon Sep 21 06:23:40 2020, MaxMem=  2147483648 cpu:               0.1 elap:               0.0
 (Enter /prod/apps/gaussian/g16b1/l101.exe)
 -------------------
 SM37_m0.n.4.pdb.xyz
 -------------------
 Symbolic Z-matrix:
 Charge =  0 Multiplicity = 1
 O                    -3.426     0.817    -0.169 
 S                    -2.838    -0.481    -0.519 
 N                    -1.289    -0.482     0.134 
 C                    -0.448     0.728     0.166 
 C                    -0.886     1.767     1.221 
 S                    -0.39      3.192     0.117 
 O                     1.08      3.538     0.353 
 C                    -0.511     1.719    -1.027 
 C                     0.998     0.283     0.449 
 C                     1.682    -0.534    -0.661 
 C                     3.135    -0.809    -0.335 
 C                     3.54     -2.068     0.125 
 C                     4.876    -2.318     0.45 
 C                     5.828    -1.307     0.32 
 C                     5.437    -0.046    -0.139 
 C                     4.102     0.198    -0.463 
 N                    -3.676    -1.658     0.317 
 C                    -3.364    -3.054    -0.031 
 C                    -3.818    -1.416     1.762 
 O                    -2.822    -0.899    -1.927 
 H                    -0.794    -1.315    -0.191 
 H                    -0.37      1.758     2.182 
 H                    -1.967     1.81      1.347 
 H                     0.287     1.681    -1.768 
 H                    -1.487     1.765    -1.511 
 H                     1.002    -0.282     1.387 
 H                     1.57      1.2       0.621 
 H                     1.614     0.015    -1.607 
 H                     1.173    -1.491    -0.814 
 H                     2.802    -2.859     0.224 
 H                     5.169    -3.302     0.802 
 H                     6.867    -1.499     0.57 
 H                     6.172     0.745    -0.249 
 H                     3.807     1.18     -0.822 
 H                    -3.3      -3.155    -1.111 
 H                    -4.184    -3.674     0.335 
 H                    -2.43     -3.401     0.43 
 H                    -4.097    -0.376     1.926 
 H                    -2.895    -1.643     2.31 
 H                    -4.62     -2.06      2.126 
 
 ITRead=  0  0  0  0  0  0  0  0  0  0  0  0  0  0  0  0  0  0  0  0
 ITRead=  0  0  0  0  0  0  0  0  0  0  0  0  0  0  0  0  0  0  0  0
 MicOpt= -1 -1 -1 -1 -1 -1 -1 -1 -1 -1 -1 -1 -1 -1 -1 -1 -1 -1 -1 -1
 MicOpt= -1 -1 -1 -1 -1 -1 -1 -1 -1 -1 -1 -1 -1 -1 -1 -1 -1 -1 -1 -1
 NAtoms=     40 NQM=       40 NQMF=       0 NMMI=      0 NMMIF=      0
                NMic=       0 NMicF=      0.
                    Isotopes and Nuclear Properties:
 (Nuclear quadrupole moments (NQMom) in fm**2, nuclear magnetic moments (NMagM)
  in nuclear magnetons)

  Atom         1           2           3           4           5           6           7           8           9          10
 IAtWgt=          16          32          14          12          12          32          16          12          12          12
 AtmWgt=  15.9949146  31.9720718  14.0030740  12.0000000  12.0000000  31.9720718  15.9949146  12.0000000  12.0000000  12.0000000
 NucSpn=           0           0           2           0           0           0           0           0           0           0
 AtZEff=  -0.0000000  -0.0000000  -0.0000000  -0.0000000  -0.0000000  -0.0000000  -0.0000000  -0.0000000  -0.0000000  -0.0000000
 NQMom=    0.0000000   0.0000000   2.0440000   0.0000000   0.0000000   0.0000000   0.0000000   0.0000000   0.0000000   0.0000000
 NMagM=    0.0000000   0.0000000   0.4037610   0.0000000   0.0000000   0.0000000   0.0000000   0.0000000   0.0000000   0.0000000
 AtZNuc=   8.0000000  16.0000000   7.0000000   6.0000000   6.0000000  16.0000000   8.0000000   6.0000000   6.0000000   6.0000000

  Atom        11          12          13          14          15          16          17          18          19          20
 IAtWgt=          12          12          12          12          12          12          14          12          12          16
 AtmWgt=  12.0000000  12.0000000  12.0000000  12.0000000  12.0000000  12.0000000  14.0030740  12.0000000  12.0000000  15.9949146
 NucSpn=           0           0           0           0           0           0           2           0           0           0
 AtZEff=  -0.0000000  -0.0000000  -0.0000000  -0.0000000  -0.0000000  -0.0000000  -0.0000000  -0.0000000  -0.0000000  -0.0000000
 NQMom=    0.0000000   0.0000000   0.0000000   0.0000000   0.0000000   0.0000000   2.0440000   0.0000000   0.0000000   0.0000000
 NMagM=    0.0000000   0.0000000   0.0000000   0.0000000   0.0000000   0.0000000   0.4037610   0.0000000   0.0000000   0.0000000
 AtZNuc=   6.0000000   6.0000000   6.0000000   6.0000000   6.0000000   6.0000000   7.0000000   6.0000000   6.0000000   8.0000000

  Atom        21          22          23          24          25          26          27          28          29          30
 IAtWgt=           1           1           1           1           1           1           1           1           1           1
 AtmWgt=   1.0078250   1.0078250   1.0078250   1.0078250   1.0078250   1.0078250   1.0078250   1.0078250   1.0078250   1.0078250
 NucSpn=           1           1           1           1           1           1           1           1           1           1
 AtZEff=  -0.0000000  -0.0000000  -0.0000000  -0.0000000  -0.0000000  -0.0000000  -0.0000000  -0.0000000  -0.0000000  -0.0000000
 NQMom=    0.0000000   0.0000000   0.0000000   0.0000000   0.0000000   0.0000000   0.0000000   0.0000000   0.0000000   0.0000000
 NMagM=    2.7928460   2.7928460   2.7928460   2.7928460   2.7928460   2.7928460   2.7928460   2.7928460   2.7928460   2.7928460
 AtZNuc=   1.0000000   1.0000000   1.0000000   1.0000000   1.0000000   1.0000000   1.0000000   1.0000000   1.0000000   1.0000000

  Atom        31          32          33          34          35          36          37          38          39          40
 IAtWgt=           1           1           1           1           1           1           1           1           1           1
 AtmWgt=   1.0078250   1.0078250   1.0078250   1.0078250   1.0078250   1.0078250   1.0078250   1.0078250   1.0078250   1.0078250
 NucSpn=           1           1           1           1           1           1           1           1           1           1
 AtZEff=  -0.0000000  -0.0000000  -0.0000000  -0.0000000  -0.0000000  -0.0000000  -0.0000000  -0.0000000  -0.0000000  -0.0000000
 NQMom=    0.0000000   0.0000000   0.0000000   0.0000000   0.0000000   0.0000000   0.0000000   0.0000000   0.0000000   0.0000000
 NMagM=    2.7928460   2.7928460   2.7928460   2.7928460   2.7928460   2.7928460   2.7928460   2.7928460   2.7928460   2.7928460
 AtZNuc=   1.0000000   1.0000000   1.0000000   1.0000000   1.0000000   1.0000000   1.0000000   1.0000000   1.0000000   1.0000000
 Leave Link  101 at Mon Sep 21 06:23:41 2020, MaxMem=  2147483648 cpu:               1.3 elap:               0.3
 (Enter /prod/apps/gaussian/g16b1/l103.exe)

 GradGradGradGradGradGradGradGradGradGradGradGradGradGradGradGradGradGrad
 Berny optimization.
 Initialization pass.
                           ----------------------------
                           !    Initial Parameters    !
                           ! (Angstroms and Degrees)  !
 --------------------------                            --------------------------
 ! Name  Definition              Value          Derivative Info.                !
 --------------------------------------------------------------------------------
 ! R1    R(1,2)                  1.4673         estimate D2E/DX2                !
 ! R2    R(2,3)                  1.681          estimate D2E/DX2                !
 ! R3    R(2,17)                 1.6693         estimate D2E/DX2                !
 ! R4    R(2,20)                 1.4688         estimate D2E/DX2                !
 ! R5    R(3,4)                  1.4739         estimate D2E/DX2                !
 ! R6    R(3,21)                 1.022          estimate D2E/DX2                !
 ! R7    R(4,5)                  1.5441         estimate D2E/DX2                !
 ! R8    R(4,8)                  1.5522         estimate D2E/DX2                !
 ! R9    R(4,9)                  1.5392         estimate D2E/DX2                !
 ! R10   R(5,6)                  1.8696         estimate D2E/DX2                !
 ! R11   R(5,22)                 1.0908         estimate D2E/DX2                !
 ! R12   R(5,23)                 1.0892         estimate D2E/DX2                !
 ! R13   R(6,7)                  1.5285         estimate D2E/DX2                !
 ! R14   R(6,8)                  1.869          estimate D2E/DX2                !
 ! R15   R(8,24)                 1.0896         estimate D2E/DX2                !
 ! R16   R(8,25)                 1.0904         estimate D2E/DX2                !
 ! R17   R(9,10)                 1.5387         estimate D2E/DX2                !
 ! R18   R(9,26)                 1.095          estimate D2E/DX2                !
 ! R19   R(9,27)                 1.0944         estimate D2E/DX2                !
 ! R20   R(10,11)                1.5143         estimate D2E/DX2                !
 ! R21   R(10,28)                1.0959         estimate D2E/DX2                !
 ! R22   R(10,29)                1.0947         estimate D2E/DX2                !
 ! R23   R(11,12)                1.4003         estimate D2E/DX2                !
 ! R24   R(11,16)                1.402          estimate D2E/DX2                !
 ! R25   R(12,13)                1.3975         estimate D2E/DX2                !
 ! R26   R(12,30)                1.0863         estimate D2E/DX2                !
 ! R27   R(13,14)                1.3947         estimate D2E/DX2                !
 ! R28   R(13,31)                1.0854         estimate D2E/DX2                !
 ! R29   R(14,15)                1.3977         estimate D2E/DX2                !
 ! R30   R(14,32)                1.0858         estimate D2E/DX2                !
 ! R31   R(15,16)                1.3953         estimate D2E/DX2                !
 ! R32   R(15,33)                1.0854         estimate D2E/DX2                !
 ! R33   R(16,34)                1.0864         estimate D2E/DX2                !
 ! R34   R(17,18)                1.4722         estimate D2E/DX2                !
 ! R35   R(17,19)                1.472          estimate D2E/DX2                !
 ! R36   R(18,35)                1.0866         estimate D2E/DX2                !
 ! R37   R(18,36)                1.0912         estimate D2E/DX2                !
 ! R38   R(18,37)                1.0979         estimate D2E/DX2                !
 ! R39   R(19,38)                1.0892         estimate D2E/DX2                !
 ! R40   R(19,39)                1.0972         estimate D2E/DX2                !
 ! R41   R(19,40)                1.0911         estimate D2E/DX2                !
 ! A1    A(1,2,3)              106.0888         estimate D2E/DX2                !
 ! A2    A(1,2,17)             107.6439         estimate D2E/DX2                !
 ! A3    A(1,2,20)             118.9966         estimate D2E/DX2                !
 ! A4    A(3,2,17)             105.523          estimate D2E/DX2                !
 ! A5    A(3,2,20)             111.2331         estimate D2E/DX2                !
 ! A6    A(17,2,20)            106.5522         estimate D2E/DX2                !
 ! A7    A(2,3,4)              122.2576         estimate D2E/DX2                !
 ! A8    A(2,3,21)             108.8598         estimate D2E/DX2                !
 ! A9    A(4,3,21)             113.5568         estimate D2E/DX2                !
 ! A10   A(3,4,5)              113.9143         estimate D2E/DX2                !
 ! A11   A(3,4,8)              118.9659         estimate D2E/DX2                !
 ! A12   A(3,4,9)              107.6196         estimate D2E/DX2                !
 ! A13   A(5,4,8)               94.8195         estimate D2E/DX2                !
 ! A14   A(5,4,9)              109.5967         estimate D2E/DX2                !
 ! A15   A(8,4,9)              111.3483         estimate D2E/DX2                !
 ! A16   A(4,5,6)               91.9574         estimate D2E/DX2                !
 ! A17   A(4,5,22)             117.5285         estimate D2E/DX2                !
 ! A18   A(4,5,23)             112.7759         estimate D2E/DX2                !
 ! A19   A(6,5,22)             113.6419         estimate D2E/DX2                !
 ! A20   A(6,5,23)             107.5493         estimate D2E/DX2                !
 ! A21   A(22,5,23)            111.5865         estimate D2E/DX2                !
 ! A22   A(5,6,7)              109.664          estimate D2E/DX2                !
 ! A23   A(5,6,8)               75.1412         estimate D2E/DX2                !
 ! A24   A(7,6,8)              109.5832         estimate D2E/DX2                !
 ! A25   A(4,8,6)               91.725          estimate D2E/DX2                !
 ! A26   A(4,8,24)             118.0785         estimate D2E/DX2                !
 ! A27   A(4,8,25)             113.8551         estimate D2E/DX2                !
 ! A28   A(6,8,24)             113.3484         estimate D2E/DX2                !
 ! A29   A(6,8,25)             107.2413         estimate D2E/DX2                !
 ! A30   A(24,8,25)            110.8018         estimate D2E/DX2                !
 ! A31   A(4,9,10)             116.0089         estimate D2E/DX2                !
 ! A32   A(4,9,26)             108.0657         estimate D2E/DX2                !
 ! A33   A(4,9,27)             106.1215         estimate D2E/DX2                !
 ! A34   A(10,9,26)            110.021          estimate D2E/DX2                !
 ! A35   A(10,9,27)            109.0234         estimate D2E/DX2                !
 ! A36   A(26,9,27)            107.2057         estimate D2E/DX2                !
 ! A37   A(9,10,11)            111.5721         estimate D2E/DX2                !
 ! A38   A(9,10,28)            109.2177         estimate D2E/DX2                !
 ! A39   A(9,10,29)            110.9974         estimate D2E/DX2                !
 ! A40   A(11,10,28)           109.6549         estimate D2E/DX2                !
 ! A41   A(11,10,29)           108.5105         estimate D2E/DX2                !
 ! A42   A(28,10,29)           106.7655         estimate D2E/DX2                !
 ! A43   A(10,11,12)           120.7658         estimate D2E/DX2                !
 ! A44   A(10,11,16)           120.7789         estimate D2E/DX2                !
 ! A45   A(12,11,16)           118.4449         estimate D2E/DX2                !
 ! A46   A(11,12,13)           120.9137         estimate D2E/DX2                !
 ! A47   A(11,12,30)           119.2179         estimate D2E/DX2                !
 ! A48   A(13,12,30)           119.8677         estimate D2E/DX2                !
 ! A49   A(12,13,14)           120.0777         estimate D2E/DX2                !
 ! A50   A(12,13,31)           119.7147         estimate D2E/DX2                !
 ! A51   A(14,13,31)           120.2076         estimate D2E/DX2                !
 ! A52   A(13,14,15)           119.5787         estimate D2E/DX2                !
 ! A53   A(13,14,32)           120.2332         estimate D2E/DX2                !
 ! A54   A(15,14,32)           120.1877         estimate D2E/DX2                !
 ! A55   A(14,15,16)           120.1114         estimate D2E/DX2                !
 ! A56   A(14,15,33)           120.0885         estimate D2E/DX2                !
 ! A57   A(16,15,33)           119.7994         estimate D2E/DX2                !
 ! A58   A(11,16,15)           120.8735         estimate D2E/DX2                !
 ! A59   A(11,16,34)           119.481          estimate D2E/DX2                !
 ! A60   A(15,16,34)           119.6452         estimate D2E/DX2                !
 ! A61   A(2,17,18)            116.3491         estimate D2E/DX2                !
 ! A62   A(2,17,19)            115.0964         estimate D2E/DX2                !
 ! A63   A(18,17,19)           114.1041         estimate D2E/DX2                !
 ! A64   A(17,18,35)           109.6076         estimate D2E/DX2                !
 ! A65   A(17,18,36)           107.4717         estimate D2E/DX2                !
 ! A66   A(17,18,37)           112.3807         estimate D2E/DX2                !
 ! A67   A(35,18,36)           108.9545         estimate D2E/DX2                !
 ! A68   A(35,18,37)           109.7473         estimate D2E/DX2                !
 ! A69   A(36,18,37)           108.595          estimate D2E/DX2                !
 ! A70   A(17,19,38)           109.2384         estimate D2E/DX2                !
 ! A71   A(17,19,39)           112.0332         estimate D2E/DX2                !
 ! A72   A(17,19,40)           107.54           estimate D2E/DX2                !
 ! A73   A(38,19,39)           109.7453         estimate D2E/DX2                !
 ! A74   A(38,19,40)           108.9697         estimate D2E/DX2                !
 ! A75   A(39,19,40)           109.2459         estimate D2E/DX2                !
 ! D1    D(1,2,3,4)            -36.7971         estimate D2E/DX2                !
 ! D2    D(1,2,3,21)          -172.4408         estimate D2E/DX2                !
 ! D3    D(17,2,3,4)          -150.8456         estimate D2E/DX2                !
 ! D4    D(17,2,3,21)           73.5108         estimate D2E/DX2                !
 ! D5    D(20,2,3,4)            93.9957         estimate D2E/DX2                !
 ! D6    D(20,2,3,21)          -41.648          estimate D2E/DX2                !
 ! D7    D(1,2,17,18)          171.9903         estimate D2E/DX2                !
 ! D8    D(1,2,17,19)          -50.6831         estimate D2E/DX2                !
 ! D9    D(3,2,17,18)          -75.0453         estimate D2E/DX2                !
 ! D10   D(3,2,17,19)           62.2814         estimate D2E/DX2                !
 ! D11   D(20,2,17,18)          43.2929         estimate D2E/DX2                !
 ! D12   D(20,2,17,19)        -179.3805         estimate D2E/DX2                !
 ! D13   D(2,3,4,5)             74.0273         estimate D2E/DX2                !
 ! D14   D(2,3,4,8)            -36.4908         estimate D2E/DX2                !
 ! D15   D(2,3,4,9)           -164.2515         estimate D2E/DX2                !
 ! D16   D(21,3,4,5)          -152.1702         estimate D2E/DX2                !
 ! D17   D(21,3,4,8)            97.3117         estimate D2E/DX2                !
 ! D18   D(21,3,4,9)           -30.449          estimate D2E/DX2                !
 ! D19   D(3,4,5,6)           -145.2229         estimate D2E/DX2                !
 ! D20   D(3,4,5,22)            96.7237         estimate D2E/DX2                !
 ! D21   D(3,4,5,23)           -35.2506         estimate D2E/DX2                !
 ! D22   D(8,4,5,6)            -20.5398         estimate D2E/DX2                !
 ! D23   D(8,4,5,22)          -138.5933         estimate D2E/DX2                !
 ! D24   D(8,4,5,23)            89.4325         estimate D2E/DX2                !
 ! D25   D(9,4,5,6)             94.1564         estimate D2E/DX2                !
 ! D26   D(9,4,5,22)           -23.897          estimate D2E/DX2                !
 ! D27   D(9,4,5,23)          -155.8713         estimate D2E/DX2                !
 ! D28   D(3,4,8,6)            141.3176         estimate D2E/DX2                !
 ! D29   D(3,4,8,24)          -100.9426         estimate D2E/DX2                !
 ! D30   D(3,4,8,25)            31.59           estimate D2E/DX2                !
 ! D31   D(5,4,8,6)             20.5443         estimate D2E/DX2                !
 ! D32   D(5,4,8,24)           138.2841         estimate D2E/DX2                !
 ! D33   D(5,4,8,25)           -89.1833         estimate D2E/DX2                !
 ! D34   D(9,4,8,6)            -92.6805         estimate D2E/DX2                !
 ! D35   D(9,4,8,24)            25.0594         estimate D2E/DX2                !
 ! D36   D(9,4,8,25)           157.592          estimate D2E/DX2                !
 ! D37   D(3,4,9,10)            67.2927         estimate D2E/DX2                !
 ! D38   D(3,4,9,26)           -56.7531         estimate D2E/DX2                !
 ! D39   D(3,4,9,27)          -171.4715         estimate D2E/DX2                !
 ! D40   D(5,4,9,10)          -168.3368         estimate D2E/DX2                !
 ! D41   D(5,4,9,26)            67.6175         estimate D2E/DX2                !
 ! D42   D(5,4,9,27)           -47.1009         estimate D2E/DX2                !
 ! D43   D(8,4,9,10)           -64.7508         estimate D2E/DX2                !
 ! D44   D(8,4,9,26)           171.2035         estimate D2E/DX2                !
 ! D45   D(8,4,9,27)            56.485          estimate D2E/DX2                !
 ! D46   D(4,5,6,7)            -88.3873         estimate D2E/DX2                !
 ! D47   D(4,5,6,8)             17.4818         estimate D2E/DX2                !
 ! D48   D(22,5,6,7)            32.9309         estimate D2E/DX2                !
 ! D49   D(22,5,6,8)           138.8            estimate D2E/DX2                !
 ! D50   D(23,5,6,7)           156.9629         estimate D2E/DX2                !
 ! D51   D(23,5,6,8)           -97.1679         estimate D2E/DX2                !
 ! D52   D(5,6,8,4)            -17.386          estimate D2E/DX2                !
 ! D53   D(5,6,8,24)          -139.1144         estimate D2E/DX2                !
 ! D54   D(5,6,8,25)            98.2716         estimate D2E/DX2                !
 ! D55   D(7,6,8,4)             88.5841         estimate D2E/DX2                !
 ! D56   D(7,6,8,24)           -33.1444         estimate D2E/DX2                !
 ! D57   D(7,6,8,25)          -155.7584         estimate D2E/DX2                !
 ! D58   D(4,9,10,11)          174.7716         estimate D2E/DX2                !
 ! D59   D(4,9,10,28)           53.3823         estimate D2E/DX2                !
 ! D60   D(4,9,10,29)          -64.0692         estimate D2E/DX2                !
 ! D61   D(26,9,10,11)         -62.2011         estimate D2E/DX2                !
 ! D62   D(26,9,10,28)         176.4096         estimate D2E/DX2                !
 ! D63   D(26,9,10,29)          58.9582         estimate D2E/DX2                !
 ! D64   D(27,9,10,11)          55.099          estimate D2E/DX2                !
 ! D65   D(27,9,10,28)         -66.2903         estimate D2E/DX2                !
 ! D66   D(27,9,10,29)         176.2582         estimate D2E/DX2                !
 ! D67   D(9,10,11,12)         103.0867         estimate D2E/DX2                !
 ! D68   D(9,10,11,16)         -75.7216         estimate D2E/DX2                !
 ! D69   D(28,10,11,12)       -135.7782         estimate D2E/DX2                !
 ! D70   D(28,10,11,16)         45.4135         estimate D2E/DX2                !
 ! D71   D(29,10,11,12)        -19.5088         estimate D2E/DX2                !
 ! D72   D(29,10,11,16)        161.6829         estimate D2E/DX2                !
 ! D73   D(10,11,12,13)       -178.822          estimate D2E/DX2                !
 ! D74   D(10,11,12,30)          1.4805         estimate D2E/DX2                !
 ! D75   D(16,11,12,13)          0.0136         estimate D2E/DX2                !
 ! D76   D(16,11,12,30)       -179.6839         estimate D2E/DX2                !
 ! D77   D(10,11,16,15)        178.7759         estimate D2E/DX2                !
 ! D78   D(10,11,16,34)         -1.3979         estimate D2E/DX2                !
 ! D79   D(12,11,16,15)         -0.0595         estimate D2E/DX2                !
 ! D80   D(12,11,16,34)        179.7667         estimate D2E/DX2                !
 ! D81   D(11,12,13,14)          0.0761         estimate D2E/DX2                !
 ! D82   D(11,12,13,31)       -179.8201         estimate D2E/DX2                !
 ! D83   D(30,12,13,14)        179.7717         estimate D2E/DX2                !
 ! D84   D(30,12,13,31)         -0.1246         estimate D2E/DX2                !
 ! D85   D(12,13,14,15)         -0.1197         estimate D2E/DX2                !
 ! D86   D(12,13,14,32)       -179.8842         estimate D2E/DX2                !
 ! D87   D(31,13,14,15)        179.776          estimate D2E/DX2                !
 ! D88   D(31,13,14,32)          0.0116         estimate D2E/DX2                !
 ! D89   D(13,14,15,16)          0.0742         estimate D2E/DX2                !
 ! D90   D(13,14,15,33)       -179.6303         estimate D2E/DX2                !
 ! D91   D(32,14,15,16)        179.8388         estimate D2E/DX2                !
 ! D92   D(32,14,15,33)          0.1343         estimate D2E/DX2                !
 ! D93   D(14,15,16,11)          0.016          estimate D2E/DX2                !
 ! D94   D(14,15,16,34)       -179.8099         estimate D2E/DX2                !
 ! D95   D(33,15,16,11)        179.7213         estimate D2E/DX2                !
 ! D96   D(33,15,16,34)         -0.1046         estimate D2E/DX2                !
 ! D97   D(2,17,18,35)         -43.655          estimate D2E/DX2                !
 ! D98   D(2,17,18,36)        -161.9242         estimate D2E/DX2                !
 ! D99   D(2,17,18,37)          78.6602         estimate D2E/DX2                !
 ! D100  D(19,17,18,35)        178.6026         estimate D2E/DX2                !
 ! D101  D(19,17,18,36)         60.3334         estimate D2E/DX2                !
 ! D102  D(19,17,18,37)        -59.0822         estimate D2E/DX2                !
 ! D103  D(2,17,19,38)          44.5802         estimate D2E/DX2                !
 ! D104  D(2,17,19,39)         -77.2396         estimate D2E/DX2                !
 ! D105  D(2,17,19,40)         162.7045         estimate D2E/DX2                !
 ! D106  D(18,17,19,38)       -177.1343         estimate D2E/DX2                !
 ! D107  D(18,17,19,39)         61.0459         estimate D2E/DX2                !
 ! D108  D(18,17,19,40)        -59.01           estimate D2E/DX2                !
 --------------------------------------------------------------------------------
 Trust Radius=3.00D-01 FncErr=1.00D-07 GrdErr=1.00D-06 EigMax=2.50D+02 EigMin=1.00D-04
 Number of steps in this run=    234 maximum allowed number of steps=    240.
 GradGradGradGradGradGradGradGradGradGradGradGradGradGradGradGradGradGrad

 Leave Link  103 at Mon Sep 21 06:23:41 2020, MaxMem=  2147483648 cpu:               0.1 elap:               0.0
 (Enter /prod/apps/gaussian/g16b1/l202.exe)
                          Input orientation:                          
 ---------------------------------------------------------------------
 Center     Atomic      Atomic             Coordinates (Angstroms)
 Number     Number       Type             X           Y           Z
 ---------------------------------------------------------------------
      1          8           0       -3.426000    0.817000   -0.169000
      2         16           0       -2.838000   -0.481000   -0.519000
      3          7           0       -1.289000   -0.482000    0.134000
      4          6           0       -0.448000    0.728000    0.166000
      5          6           0       -0.886000    1.767000    1.221000
      6         16           0       -0.390000    3.192000    0.117000
      7          8           0        1.080000    3.538000    0.353000
      8          6           0       -0.511000    1.719000   -1.027000
      9          6           0        0.998000    0.283000    0.449000
     10          6           0        1.682000   -0.534000   -0.661000
     11          6           0        3.135000   -0.809000   -0.335000
     12          6           0        3.540000   -2.068000    0.125000
     13          6           0        4.876000   -2.318000    0.450000
     14          6           0        5.828000   -1.307000    0.320000
     15          6           0        5.437000   -0.046000   -0.139000
     16          6           0        4.102000    0.198000   -0.463000
     17          7           0       -3.676000   -1.658000    0.317000
     18          6           0       -3.364000   -3.054000   -0.031000
     19          6           0       -3.818000   -1.416000    1.762000
     20          8           0       -2.822000   -0.899000   -1.927000
     21          1           0       -0.794000   -1.315000   -0.191000
     22          1           0       -0.370000    1.758000    2.182000
     23          1           0       -1.967000    1.810000    1.347000
     24          1           0        0.287000    1.681000   -1.768000
     25          1           0       -1.487000    1.765000   -1.511000
     26          1           0        1.002000   -0.282000    1.387000
     27          1           0        1.570000    1.200000    0.621000
     28          1           0        1.614000    0.015000   -1.607000
     29          1           0        1.173000   -1.491000   -0.814000
     30          1           0        2.802000   -2.859000    0.224000
     31          1           0        5.169000   -3.302000    0.802000
     32          1           0        6.867000   -1.499000    0.570000
     33          1           0        6.172000    0.745000   -0.249000
     34          1           0        3.807000    1.180000   -0.822000
     35          1           0       -3.300000   -3.155000   -1.111000
     36          1           0       -4.184000   -3.674000    0.335000
     37          1           0       -2.430000   -3.401000    0.430000
     38          1           0       -4.097000   -0.376000    1.926000
     39          1           0       -2.895000   -1.643000    2.310000
     40          1           0       -4.620000   -2.060000    2.126000
 ---------------------------------------------------------------------
                    Distance matrix (angstroms):
                    1          2          3          4          5
     1  O    0.000000
     2  S    1.467327   0.000000
     3  N    2.519123   1.681015   0.000000
     4  C    2.998104   2.764599   1.473908   0.000000
     5  C    3.047327   3.448392   2.530213   1.544147   0.000000
     6  S    3.865193   4.459611   3.782429   2.465170   1.869614
     7  O    5.289647   5.680094   4.671244   3.204037   2.784784
     8  C    3.169699   3.242375   2.607222   1.552192   2.279569
     9  C    4.498762   4.029344   2.432040   1.539165   2.519463
    10  C    5.306499   4.522541   3.075967   2.610263   3.928250
    11  C    6.761520   5.984828   4.460792   3.930809   5.022485
    12  C    7.545516   6.603953   5.082786   4.870672   5.958013
    13  C    8.895762   7.988700   6.440340   6.140338   7.105090
    14  C    9.507208   8.745613   7.167071   6.599479   7.439024
    15  C    8.904967   8.295134   6.745643   5.943511   6.716911
    16  C    7.559126   6.973362   5.466415   4.623748   5.493429
    17  N    2.534624   1.669272   2.667252   4.016937   4.509095
    18  C    3.873955   2.671170   3.308781   4.779685   5.563275
    19  C    2.978039   2.652845   3.149378   4.301262   4.361284
    20  O    2.529829   1.468824   2.602249   3.558603   4.556924
    21  H    3.387231   2.231832   1.022027   2.102621   3.391302
    22  H    3.968856   4.289469   3.171193   2.265224   1.090806
    23  H    2.326582   3.080467   2.680358   2.207452   1.089168
    24  H    4.133965   3.999984   3.283283   2.277892   3.212078
    25  H    2.541533   2.802460   2.791816   2.228726   2.797325
    26  H    4.820386   4.291624   2.618910   2.147892   2.791147
    27  H    5.072554   4.853434   3.352637   2.121823   2.591028
    28  H    5.302136   4.609779   3.421330   2.811359   4.161381
    29  H    5.185913   4.146715   2.824576   2.917534   4.358356
    30  H    7.242611   6.165755   4.732284   4.840706   5.999602
    31  H    9.580346   8.591573   7.078445   6.942340   7.907803
    32  H   10.576191   9.818822   8.230718   7.657152   8.437984
    33  H    9.598603   9.097037   7.570914   6.633017   7.281535
    34  H    7.271483   6.856147   5.444759   4.391523   5.151958
    35  H    4.084119   2.777442   3.569184   4.984207   5.957491
    36  H    4.582320   3.568793   4.313965   5.776146   6.423884
    37  H    4.375196   3.097332   3.148024   4.587664   5.451407
    38  H    2.502502   2.752114   3.332771   4.199002   3.924283
    39  H    3.532563   3.058878   2.943150   4.025691   4.104888
    40  H    3.869081   3.558762   4.189715   5.387033   5.422888
                    6          7          8          9         10
     6  S    0.000000
     7  O    1.528500   0.000000
     8  C    1.868985   2.782884   0.000000
     9  C    3.240224   3.257448   2.552989   0.000000
    10  C    4.333768   4.239314   3.165314   1.538650   0.000000
    11  C    5.351442   4.857240   4.490319   2.524656   1.514302
    12  C    6.566016   6.126240   5.663839   3.477634   2.534387
    13  C    7.629007   6.979381   6.891928   4.669485   3.823429
    14  C    7.677613   6.783702   7.152203   5.086614   4.330035
    15  C    6.671140   5.663088   6.267573   4.489845   3.822388
    16  C    5.429411   4.577547   4.889919   3.236323   2.536026
    17  N    5.861766   7.044093   4.819511   5.062725   5.561297
    18  C    6.919472   7.959338   5.649173   5.512986   5.675334
    19  C    5.974184   7.107588   5.342564   5.272990   6.074443
    20  O    5.179656   6.333322   3.606195   4.651333   4.692760
    21  H    4.535541   5.230623   3.159769   2.484848   2.638454
    22  H    2.514156   2.935326   3.212333   2.655247   4.188868
    23  H    2.430998   3.641185   2.786412   3.453890   4.779289
    24  H    2.508919   2.928470   1.089646   2.715698   2.842129
    25  H    2.426957   3.634214   1.090389   3.494732   4.006303
    26  H    3.952118   3.958237   3.481460   1.095027   2.172604
    27  H    2.839662   2.403782   2.704778   1.094375   2.159357
    28  H    4.132980   4.066729   2.784895   2.162965   1.095875
    29  H    5.023964   5.163466   3.631160   2.184690   1.094687
    30  H    6.842143   6.625974   5.787837   3.630042   2.728232
    31  H    8.575765   7.981674   7.798595   5.511268   4.686295
    32  H    8.653019   7.675143   8.206145   6.134764   5.415793
    33  H    7.012960   5.838811   6.798268   5.241271   4.686756
    34  H    4.748123   3.791743   4.356337   3.211002   2.734839
    35  H    7.089464   8.131663   5.616178   5.720686   5.647341
    36  H    7.847542   8.928772   6.665615   6.521040   6.727672
    37  H    6.908489   7.776616   5.658605   5.032236   5.130157
    38  H    5.453893   6.677953   5.095943   5.345543   6.333591
    39  H    5.870392   6.817128   5.303025   4.725277   5.568272
    40  H    7.036511   8.183589   6.411406   6.313787   7.057708
                   11         12         13         14         15
    11  C    0.000000
    12  C    1.400252   0.000000
    13  C    2.434006   1.397505   0.000000
    14  C    2.815897   2.419109   1.394749   0.000000
    15  C    2.433062   2.785101   2.413219   1.397742   0.000000
    16  C    1.401971   2.407560   2.786198   2.420163   1.395255
    17  N    6.894608   7.230188   8.578461   9.510480   9.265703
    18  C    6.882546   6.975797   8.286776   9.363123   9.301469
    19  C    7.287665   7.566045   8.838585   9.753797   9.547027
    20  O    6.166718   6.786185   8.180641   8.946394   8.493270
    21  H    3.964065   4.410263   5.793599   6.641692   6.359121
    22  H    5.020936   5.844452   6.865429   7.160759   6.508664
    23  H    5.976511   6.845379   8.041868   8.457685   7.776384
    24  H    4.045330   5.312293   6.478460   6.632539   5.670861
    25  H    5.419533   6.529863   7.810517   8.142418   7.287241
    26  H    2.791541   3.350207   4.475616   5.047711   4.696126
    27  H    2.720155   3.847953   4.830652   4.950375   4.133256
    28  H    2.147184   3.323882   4.507192   4.818590   4.095616
    29  H    2.131668   2.611003   3.999229   4.794668   4.552510
    30  H    2.150784   1.086336   2.155280   3.402146   3.871429
    31  H    3.412473   2.152841   1.085361   2.155604   3.399830
    32  H    3.901660   3.404514   2.156210   1.085765   2.158423
    33  H    3.412577   3.870435   3.398556   2.157035   1.085360
    34  H    2.155197   3.393759   3.872564   3.402025   2.150922
    35  H    6.893121   7.035259   8.365660   9.422486   9.324475
    36  H    7.888275   7.891990   9.161635  10.288006  10.293236
    37  H    6.186511   6.124607   7.385860   8.520065   8.571434
    38  H    7.589561   8.026845   9.298638  10.097110   9.760650
    39  H    6.637204   6.809117   8.018957   8.953420   8.830076
    40  H    8.231740   8.401766   9.646220  10.629645  10.503793
                   16         17         18         19         20
    16  C    0.000000
    17  N    8.034328   0.000000
    18  C    8.154955   1.472163   0.000000
    19  C    8.383437   1.471989   2.470629   0.000000
    20  O    7.161598   2.518121   2.921062   3.855908   0.000000
    21  H    5.131663   2.946462   3.107189   3.601248   2.701765
    22  H    5.424796   5.106556   6.084139   4.705250   5.473192
    23  H    6.535090   4.001075   5.244901   3.742393   4.334603
    24  H    4.296107   5.585832   6.226331   6.237254   4.043212
    25  H    5.898365   4.455360   5.379246   5.124924   3.008684
    26  H    3.641826   4.992190   5.362524   4.965781   5.097672
    27  H    2.930885   5.981730   6.547211   6.097203   5.494340
    28  H    2.744516   5.872376   6.056651   6.550156   4.540473
    29  H    3.399259   4.981953   4.862142   5.617071   4.189183
    30  H    3.392229   6.589047   6.174351   6.947812   6.332281
    31  H    3.871526   9.009550   8.577149   9.232809   8.779404
    32  H    3.404721  10.547234  10.365934  10.751604  10.023559
    33  H    2.151721  10.152727  10.267191  10.417012   9.295722
    34  H    1.086384   8.083740   8.365147   8.459131   7.034693
    35  H    8.151817   2.102753   1.086599   3.398025   2.446196
    36  H    9.180794   2.079097   1.091218   2.696080   3.830446
    37  H    7.511143   2.145538   1.097855   2.764235   3.459641
    38  H    8.559229   2.099916   3.396884   1.089191   4.092037
    39  H    7.748343   2.140616   2.773295   1.097161   4.302445
    40  H    9.374154   2.079717   2.686675   1.091071   4.583398
                   21         22         23         24         25
    21  H    0.000000
    22  H    3.905667   0.000000
    23  H    3.675187   1.802869   0.000000
    24  H    3.554083   4.005007   3.847126   0.000000
    25  H    3.421849   3.858236   2.898377   1.794486   0.000000
    26  H    2.604379   2.583797   3.632220   3.783995   4.334021
    27  H    3.545852   2.551800   3.661905   2.754046   3.769602
    28  H    3.093933   4.618531   4.977118   2.135979   3.562010
    29  H    2.070795   4.681118   5.042432   3.428804   4.261801
    30  H    3.935400   5.933973   6.767869   5.559217   6.541187
    31  H    6.363300   7.628140   8.795002   7.434320   8.679101
    32  H    7.700902   8.098195   9.465346   7.673007   9.207257
    33  H    7.264442   7.052212   8.362103   6.149527   7.829005
    34  H    5.271849   5.177396   6.200043   3.679173   5.370604
    35  H    3.242227   6.600479   5.698235   6.056824   5.258647
    36  H    4.163371   6.889458   6.001124   7.286184   6.345411
    37  H    2.722780   5.824808   5.311288   6.167659   5.598597
    38  H    4.034008   4.302327   3.106564   6.090677   4.817567
    39  H    3.282802   4.237784   3.702940   6.148511   5.310082
    40  H    4.534511   5.713384   4.756275   7.296367   6.137922
                   26         27         28         29         30
    26  H    0.000000
    27  H    1.762301   0.000000
    28  H    3.070308   2.523915   0.000000
    29  H    2.517007   3.075437   1.758228   0.000000
    30  H    3.351641   4.260389   3.608848   2.366962   0.000000
    31  H    5.179432   5.766591   5.426214   4.675382   2.476494
    32  H    6.045395   5.945201   5.884347   5.859791   4.300412
    33  H    5.519069   4.705564   4.811697   5.505354   4.956758
    34  H    3.858128   2.662108   2.604362   3.751301   4.291580
    35  H    5.744679   6.758901   5.868757   4.781719   6.253339
    36  H    6.285457   7.546270   7.141211   5.897723   7.034255
    37  H    4.735254   6.099646   5.672068   4.263478   5.264031
    38  H    5.128270   6.025088   6.726849   6.043486   7.527170
    39  H    4.229759   5.556221   6.198624   5.131384   6.187557
    40  H    5.942583   7.156027   7.556697   6.521212   7.703382
                   31         32         33         34         35
    31  H    0.000000
    32  H    2.487536   0.000000
    33  H    4.299863   2.487835   0.000000
    34  H    4.957897   4.298640   2.471999   0.000000
    35  H    8.683613  10.437240  10.279680   8.329778   0.000000
    36  H    9.372037  11.265454  11.274544   9.421043   1.772493
    37  H    7.608744   9.490596   9.573127   7.839211   1.786644
    38  H    9.781800  11.104466  10.556497   8.511513   4.193020
    39  H    8.369853   9.916904   9.719131   7.918053   3.762102
    40  H    9.955906  11.605474  11.400698   9.497507   3.663276
                   36         37         38         39         40
    36  H    0.000000
    37  H    1.777659   0.000000
    38  H    3.662739   3.763978   0.000000
    39  H    3.112412   2.615567   1.788169   0.000000
    40  H    2.450056   3.077466   1.774651   1.784200   0.000000
 Symmetry turned off by external request.
 Stoichiometry    C13H20N2O3S2
 Framework group  C1[X(C13H20N2O3S2)]
 Deg. of freedom   114
 Full point group                 C1      NOp   1
 Rotational constants (GHZ):           0.4086368           0.1619659           0.1271141
 Leave Link  202 at Mon Sep 21 06:23:41 2020, MaxMem=  2147483648 cpu:               0.0 elap:               0.0
 (Enter /prod/apps/gaussian/g16b1/l301.exe)
 Standard basis: 6-31G(d) (6D, 7F)
 Ernie: Thresh=  0.10000D-02 Tol=  0.10000D-05 Strict=F.
   348 basis functions,   688 primitive gaussians,   348 cartesian basis functions
    84 alpha electrons       84 beta electrons
       nuclear repulsion energy      1961.8749126188 Hartrees.
 IExCor=  402 DFT=T Ex+Corr=B3LYP ExCW=0 ScaHFX=  0.200000
 ScaDFX=  0.800000  0.720000  1.000000  0.810000 ScalE2=  1.000000  1.000000
 IRadAn=      5 IRanWt=     -1 IRanGd=            0 ICorTp=0 IEmpDi=  4
 NAtoms=   40 NActive=   40 NUniq=   40 SFac= 1.00D+00 NAtFMM=   60 NAOKFM=F Big=F
 Integral buffers will be    131072 words long.
 Raffenetti 2 integral format.
 Two-electron integral symmetry is turned off.
 Using the following non-standard input for PCM:
 MSTModel=DFT cav
 --- end of non-standard input.
 MST model for solvation energy: B3LYP parametrization.
 MST cavity parameters:
 ISph   IAn     Re0     Alpha   Atom Type   QCorr
 ------------------------------------------------
   1      8     1.40     1.25      O          F
   2     16     1.75     1.25      S          F
   3      7     1.50     1.25      NH         F
   4      6     1.50     1.25      C          F
   5      6     1.50     1.25      CH2        F
   6     16     1.75     1.25      S          F
   7      8     1.40     1.25      O          F
   8      6     1.50     1.25      CH2        F
   9      6     1.50     1.25      CH2        F
  10      6     1.50     1.25      CH2        F
  11      6     1.50     1.25      C          F
  12      6     1.50     1.25      CH         F
  13      6     1.50     1.25      CH         F
  14      6     1.50     1.25      CH         F
  15      6     1.50     1.25      CH         F
  16      6     1.50     1.25      CH         F
  17      7     1.40     1.25      N          F
  18      6     1.50     1.25      CH3        F
  19      6     1.50     1.25      CH3        F
  20      8     1.40     1.25      O          F
  21      1     0.90     1.25      NH         F
  22      1     1.20     1.25      CH2        F
  23      1     1.20     1.25      CH2        F
  24      1     1.20     1.25      CH2        F
  25      1     1.20     1.25      CH2        F
  26      1     1.20     1.25      CH2        F
  27      1     1.20     1.25      CH2        F
  28      1     1.20     1.25      CH2        F
  29      1     1.20     1.25      CH2        F
  30      1     1.20     1.25      CH         F
  31      1     1.20     1.25      CH         F
  32      1     1.20     1.25      CH         F
  33      1     1.20     1.25      CH         F
  34      1     1.20     1.25      CH         F
  35      1     1.20     1.25      CH3        F
  36      1     1.20     1.25      CH3        F
  37      1     1.20     1.25      CH3        F
  38      1     1.20     1.25      CH3        F
  39      1     1.20     1.25      CH3        F
  40      1     1.20     1.25      CH3        F
 ------------------------------------------------------------------------------
 Polarizable Continuum Model (PCM)
 =================================
 Model                : PCM.
 Atomic radii         : MST.
 Polarization charges : Total charges.
 Charge compensation  : None.
 Solution method      : On-the-fly selection.
 Cavity type          : Scaled VdW (van der Waals Surface) (Alpha=1.250).
 Cavity algorithm     : GePol (No added spheres)
                        Default sphere list used, NSphG=   40.
                        Lebedev-Laikov grids with approx.  5.0 points / Ang**2.
                        Smoothing algorithm: York/Karplus (Gamma=1.0000).
                        Polarization charges: spherical gaussians, with
                                              point-specific exponents (IZeta= 3).
                        Self-potential: point-specific (ISelfS= 7).
                        Self-field    : sphere-specific E.n sum rule (ISelfD= 2).
 1st derivatives      : Analytical E(r).r(x)/FMM algorithm (CHGder, D1EAlg=3).
                        Cavity 1st derivative terms included.
 Solvent              : Water, Eps=  78.355300 Eps(inf)=   1.777849
 ------------------------------------------------------------------------------
 GePol: Number of generator spheres                  =      40
 GePol: Total number of spheres                      =      40
 GePol: Number of exposed spheres                    =      40 (100.00%)
 GePol: Number of points                             =    2771
 GePol: Average weight of points                     =       0.13
 GePol: Minimum weight of points                     =   0.77D-11
 GePol: Maximum weight of points                     =    0.22001
 GePol: Number of points with low weight             =     178
 GePol: Fraction of low-weight points (<1% of avg)   =       6.42%
 GePol: Cavity surface area                          =    371.480 Ang**2
 GePol: Cavity volume                                =    367.406 Ang**3
 PCM non-electrostatic energy =         0.0030063696 Hartrees.
 Nuclear repulsion after PCM non-electrostatic terms =     1961.8779189883 Hartrees.
 Leave Link  301 at Mon Sep 21 06:23:41 2020, MaxMem=  2147483648 cpu:               0.3 elap:               0.1
 (Enter /prod/apps/gaussian/g16b1/l302.exe)
 NPDir=0 NMtPBC=     1 NCelOv=     1 NCel=       1 NClECP=     1 NCelD=      1
         NCelK=      1 NCelE2=     1 NClLst=     1 CellRange=     0.0.
 One-electron integrals computed using PRISM.
 NBasis=   348 RedAO= T EigKep=  4.67D-04  NBF=   348
 NBsUse=   348 1.00D-06 EigRej= -1.00D+00 NBFU=   348
 Precomputing XC quadrature grid using
 IXCGrd= 4 IRadAn=           5 IRanWt=          -1 IRanGd=           0 AccXCQ= 0.00D+00.
 Generated NRdTot=       0 NPtTot=           0 NUsed=           0 NTot=          32
 NSgBfM=   347   346   346   346   347 MxSgAt=    40 MxSgA2=    40.
 Leave Link  302 at Mon Sep 21 06:23:42 2020, MaxMem=  2147483648 cpu:               2.2 elap:               0.6
 (Enter /prod/apps/gaussian/g16b1/l303.exe)
 DipDrv:  MaxL=1.
 Leave Link  303 at Mon Sep 21 06:23:42 2020, MaxMem=  2147483648 cpu:               0.2 elap:               0.1
 (Enter /prod/apps/gaussian/g16b1/l401.exe)
 ExpMin= 1.17D-01 ExpMax= 2.19D+04 ExpMxC= 3.30D+03 IAcc=3 IRadAn=         5 AccDes= 0.00D+00
 Harris functional with IExCor=  402 and IRadAn=       5 diagonalized for initial guess.
 HarFok:  IExCor=  402 AccDes= 0.00D+00 IRadAn=         5 IDoV= 1 UseB2=F ITyADJ=14
 ICtDFT=  3500011 ScaDFX=  1.000000  1.000000  1.000000  1.000000
 FoFCou: FMM=F IPFlag=           0 FMFlag=      100000 FMFlg1=           0
         NFxFlg=           0 DoJE=T BraDBF=F KetDBF=T FulRan=T
         wScrn=  0.000000 ICntrl=       500 IOpCl=  0 I1Cent=   200000004 NGrid=           0
         NMat0=    1 NMatS0=      1 NMatT0=    0 NMatD0=    1 NMtDS0=    0 NMtDT0=    0
 Symmetry not used in FoFCou.
 Harris En= -1638.89948728688    
 JPrj=0 DoOrth=F DoCkMO=F.
 Leave Link  401 at Mon Sep 21 06:23:45 2020, MaxMem=  2147483648 cpu:              12.1 elap:               3.1
 (Enter /prod/apps/gaussian/g16b1/l502.exe)
 Two-electron integral symmetry not used.
 Closed shell SCF:
 Using DIIS extrapolation, IDIIS=  1040.
 NGot=  2147483648 LenX=  2147236206 LenY=  2147114661
 Requested convergence on RMS density matrix=1.00D-08 within2000 cycles.
 Requested convergence on MAX density matrix=1.00D-06.
 Requested convergence on             energy=1.00D-06.
 No special actions if energy rises.

 Cycle   1  Pass 1  IDiag  1:
 FoFJK:  IHMeth= 1 ICntrl=       0 DoSepK=F KAlg= 0 I1Cent=           0 FoldK=F
 IRaf= 770000000 NMat=       1 IRICut=       1 DoRegI=T DoRafI=F ISym2E= 0 IDoP0=0 IntGTp=1.
 FoFCou: FMM=F IPFlag=           0 FMFlag=      100000 FMFlg1=           0
         NFxFlg=           0 DoJE=F BraDBF=F KetDBF=F FulRan=T
         wScrn=  0.000000 ICntrl=         0 IOpCl=  0 I1Cent=           0 NGrid=           0
         NMat0=    1 NMatS0=      1 NMatT0=    0 NMatD0=    1 NMtDS0=    0 NMtDT0=    0
 Symmetry not used in FoFCou.
 Inv3:  Mode=1 IEnd=    23035323.
 Iteration    1 A*A^-1 deviation from unit magnitude is 3.66D-15 for    255.
 Iteration    1 A*A^-1 deviation from orthogonality  is 2.76D-15 for   2368   1146.
 Iteration    1 A^-1*A deviation from unit magnitude is 3.44D-15 for    255.
 Iteration    1 A^-1*A deviation from orthogonality  is 5.50D-15 for   2407   2400.
 E= -1638.10453895632    
 DIIS: error= 3.72D-02 at cycle   1 NSaved=   1.
 NSaved= 1 IEnMin= 1 EnMin= -1638.10453895632     IErMin= 1 ErrMin= 3.72D-02
 ErrMax= 3.72D-02  0.00D+00 EMaxC= 1.00D-01 BMatC= 8.60D-01 BMatP= 8.60D-01
 IDIUse=3 WtCom= 6.28D-01 WtEn= 3.72D-01
 Coeff-Com:  0.100D+01
 Coeff-En:   0.100D+01
 Coeff:      0.100D+01
 Gap=     0.319 Goal=   None    Shift=    0.000
 GapD=    0.319 DampG=1.000 DampE=0.500 DampFc=0.5000 IDamp=-1.
 Damping current iteration by 5.00D-01
 RMSDP=6.57D-03 MaxDP=5.81D-01              OVMax= 2.36D-01

 Cycle   2  Pass 1  IDiag  1:
 E= -1638.31736536623     Delta-E=       -0.212826409910 Rises=F Damp=T
 DIIS: error= 1.54D-02 at cycle   2 NSaved=   2.
 NSaved= 2 IEnMin= 2 EnMin= -1638.31736536623     IErMin= 2 ErrMin= 1.54D-02
 ErrMax= 1.54D-02  0.00D+00 EMaxC= 1.00D-01 BMatC= 1.12D-01 BMatP= 8.60D-01
 IDIUse=3 WtCom= 8.46D-01 WtEn= 1.54D-01
 Coeff-Com:  0.212D+00 0.788D+00
 Coeff-En:   0.340D+00 0.660D+00
 Coeff:      0.232D+00 0.768D+00
 Gap=     0.327 Goal=   None    Shift=    0.000
 RMSDP=1.93D-03 MaxDP=1.28D-01 DE=-2.13D-01 OVMax= 1.71D-01

 Cycle   3  Pass 1  IDiag  1:
 E= -1638.79359321295     Delta-E=       -0.476227846718 Rises=F Damp=F
 DIIS: error= 1.17D-02 at cycle   3 NSaved=   3.
 NSaved= 3 IEnMin= 3 EnMin= -1638.79359321295     IErMin= 3 ErrMin= 1.17D-02
 ErrMax= 1.17D-02  0.00D+00 EMaxC= 1.00D-01 BMatC= 7.19D-02 BMatP= 1.12D-01
 IDIUse=3 WtCom= 8.83D-01 WtEn= 1.17D-01
 Coeff-Com:  0.795D-01 0.451D+00 0.470D+00
 Coeff-En:   0.000D+00 0.000D+00 0.100D+01
 Coeff:      0.703D-01 0.398D+00 0.532D+00
 Gap=     0.251 Goal=   None    Shift=    0.000
 RMSDP=1.17D-03 MaxDP=5.24D-02 DE=-4.76D-01 OVMax= 9.50D-02

 Cycle   4  Pass 1  IDiag  1:
 E= -1638.84561158005     Delta-E=       -0.052018367104 Rises=F Damp=F
 DIIS: error= 5.05D-03 at cycle   4 NSaved=   4.
 NSaved= 4 IEnMin= 4 EnMin= -1638.84561158005     IErMin= 4 ErrMin= 5.05D-03
 ErrMax= 5.05D-03  0.00D+00 EMaxC= 1.00D-01 BMatC= 1.40D-02 BMatP= 7.19D-02
 IDIUse=3 WtCom= 9.49D-01 WtEn= 5.05D-02
 Coeff-Com:  0.807D-02 0.926D-01 0.314D+00 0.585D+00
 Coeff-En:   0.000D+00 0.000D+00 0.180D+00 0.820D+00
 Coeff:      0.766D-02 0.879D-01 0.307D+00 0.597D+00
 Gap=     0.233 Goal=   None    Shift=    0.000
 RMSDP=4.60D-04 MaxDP=2.33D-02 DE=-5.20D-02 OVMax= 3.96D-02

 Cycle   5  Pass 1  IDiag  1:
 E= -1638.85682127709     Delta-E=       -0.011209697036 Rises=F Damp=F
 DIIS: error= 1.73D-03 at cycle   5 NSaved=   5.
 NSaved= 5 IEnMin= 5 EnMin= -1638.85682127709     IErMin= 5 ErrMin= 1.73D-03
 ErrMax= 1.73D-03  0.00D+00 EMaxC= 1.00D-01 BMatC= 1.32D-03 BMatP= 1.40D-02
 IDIUse=3 WtCom= 9.83D-01 WtEn= 1.73D-02
 Coeff-Com: -0.176D-02 0.189D-01 0.136D+00 0.350D+00 0.497D+00
 Coeff-En:   0.000D+00 0.000D+00 0.000D+00 0.272D-01 0.973D+00
 Coeff:     -0.173D-02 0.185D-01 0.134D+00 0.345D+00 0.505D+00
 Gap=     0.231 Goal=   None    Shift=    0.000
 RMSDP=1.37D-04 MaxDP=7.84D-03 DE=-1.12D-02 OVMax= 9.59D-03

 Cycle   6  Pass 1  IDiag  1:
 E= -1638.85788706414     Delta-E=       -0.001065787053 Rises=F Damp=F
 DIIS: error= 5.02D-04 at cycle   6 NSaved=   6.
 NSaved= 6 IEnMin= 6 EnMin= -1638.85788706414     IErMin= 6 ErrMin= 5.02D-04
 ErrMax= 5.02D-04  0.00D+00 EMaxC= 1.00D-01 BMatC= 1.25D-04 BMatP= 1.32D-03
 IDIUse=3 WtCom= 9.95D-01 WtEn= 5.02D-03
 Coeff-Com: -0.159D-02 0.342D-02 0.497D-01 0.146D+00 0.298D+00 0.504D+00
 Coeff-En:   0.000D+00 0.000D+00 0.000D+00 0.000D+00 0.427D-02 0.996D+00
 Coeff:     -0.158D-02 0.340D-02 0.494D-01 0.145D+00 0.297D+00 0.507D+00
 Gap=     0.232 Goal=   None    Shift=    0.000
 RMSDP=3.75D-05 MaxDP=2.10D-03 DE=-1.07D-03 OVMax= 2.03D-03

 Cycle   7  Pass 1  IDiag  1:
 E= -1638.85797757034     Delta-E=       -0.000090506205 Rises=F Damp=F
 DIIS: error= 1.12D-04 at cycle   7 NSaved=   7.
 NSaved= 7 IEnMin= 7 EnMin= -1638.85797757034     IErMin= 7 ErrMin= 1.12D-04
 ErrMax= 1.12D-04  0.00D+00 EMaxC= 1.00D-01 BMatC= 9.96D-06 BMatP= 1.25D-04
 IDIUse=3 WtCom= 9.99D-01 WtEn= 1.12D-03
 Coeff-Com: -0.694D-03-0.407D-03 0.109D-01 0.378D-01 0.104D+00 0.279D+00
 Coeff-Com:  0.569D+00
 Coeff-En:   0.000D+00 0.000D+00 0.000D+00 0.000D+00 0.000D+00 0.120D-01
 Coeff-En:   0.988D+00
 Coeff:     -0.693D-03-0.407D-03 0.109D-01 0.378D-01 0.104D+00 0.279D+00
 Coeff:      0.570D+00
 Gap=     0.231 Goal=   None    Shift=    0.000
 RMSDP=9.66D-06 MaxDP=4.18D-04 DE=-9.05D-05 OVMax= 4.72D-04

 Cycle   8  Pass 1  IDiag  1:
 E= -1638.85798570191     Delta-E=       -0.000008131569 Rises=F Damp=F
 DIIS: error= 2.37D-05 at cycle   8 NSaved=   8.
 NSaved= 8 IEnMin= 8 EnMin= -1638.85798570191     IErMin= 8 ErrMin= 2.37D-05
 ErrMax= 2.37D-05  0.00D+00 EMaxC= 1.00D-01 BMatC= 2.82D-07 BMatP= 9.96D-06
 IDIUse=1 WtCom= 1.00D+00 WtEn= 0.00D+00
 Coeff-Com: -0.151D-03-0.334D-03 0.643D-03 0.412D-02 0.188D-01 0.718D-01
 Coeff-Com:  0.214D+00 0.692D+00
 Coeff:     -0.151D-03-0.334D-03 0.643D-03 0.412D-02 0.188D-01 0.718D-01
 Coeff:      0.214D+00 0.692D+00
 Gap=     0.231 Goal=   None    Shift=    0.000
 RMSDP=2.36D-06 MaxDP=1.15D-04 DE=-8.13D-06 OVMax= 1.12D-04

 Cycle   9  Pass 1  IDiag  1:
 E= -1638.85798590806     Delta-E=       -0.000000206146 Rises=F Damp=F
 DIIS: error= 6.97D-06 at cycle   9 NSaved=   9.
 NSaved= 9 IEnMin= 9 EnMin= -1638.85798590806     IErMin= 9 ErrMin= 6.97D-06
 ErrMax= 6.97D-06  0.00D+00 EMaxC= 1.00D-01 BMatC= 6.56D-08 BMatP= 2.82D-07
 IDIUse=1 WtCom= 1.00D+00 WtEn= 0.00D+00
 Coeff-Com: -0.241D-04-0.134D-03-0.623D-03-0.110D-02 0.841D-03 0.144D-01
 Coeff-Com:  0.642D-01 0.381D+00 0.542D+00
 Coeff:     -0.241D-04-0.134D-03-0.623D-03-0.110D-02 0.841D-03 0.144D-01
 Coeff:      0.642D-01 0.381D+00 0.542D+00
 Gap=     0.231 Goal=   None    Shift=    0.000
 RMSDP=8.64D-07 MaxDP=3.66D-05 DE=-2.06D-07 OVMax= 4.31D-05

 Cycle  10  Pass 1  IDiag  1:
 E= -1638.85798596324     Delta-E=       -0.000000055177 Rises=F Damp=F
 DIIS: error= 3.04D-06 at cycle  10 NSaved=  10.
 NSaved=10 IEnMin=10 EnMin= -1638.85798596324     IErMin=10 ErrMin= 3.04D-06
 ErrMax= 3.04D-06  0.00D+00 EMaxC= 1.00D-01 BMatC= 5.44D-09 BMatP= 6.56D-08
 IDIUse=1 WtCom= 1.00D+00 WtEn= 0.00D+00
 Coeff-Com: -0.651D-05-0.491D-04-0.398D-03-0.852D-03-0.690D-03 0.379D-02
 Coeff-Com:  0.233D-01 0.176D+00 0.303D+00 0.496D+00
 Coeff:     -0.651D-05-0.491D-04-0.398D-03-0.852D-03-0.690D-03 0.379D-02
 Coeff:      0.233D-01 0.176D+00 0.303D+00 0.496D+00
 Gap=     0.231 Goal=   None    Shift=    0.000
 RMSDP=2.38D-07 MaxDP=1.48D-05 DE=-5.52D-08 OVMax= 1.71D-05

 Cycle  11  Pass 1  IDiag  1:
 E= -1638.85798596708     Delta-E=       -0.000000003847 Rises=F Damp=F
 DIIS: error= 9.76D-07 at cycle  11 NSaved=  11.
 NSaved=11 IEnMin=11 EnMin= -1638.85798596708     IErMin=11 ErrMin= 9.76D-07
 ErrMax= 9.76D-07  0.00D+00 EMaxC= 1.00D-01 BMatC= 6.21D-10 BMatP= 5.44D-09
 IDIUse=1 WtCom= 1.00D+00 WtEn= 0.00D+00
 Coeff-Com: -0.586D-06 0.690D-06-0.124D-03-0.285D-03-0.614D-03-0.596D-03
 Coeff-Com:  0.114D-02 0.286D-01 0.657D-01 0.267D+00 0.639D+00
 Coeff:     -0.586D-06 0.690D-06-0.124D-03-0.285D-03-0.614D-03-0.596D-03
 Coeff:      0.114D-02 0.286D-01 0.657D-01 0.267D+00 0.639D+00
 Gap=     0.231 Goal=   None    Shift=    0.000
 RMSDP=7.74D-08 MaxDP=3.83D-06 DE=-3.85D-09 OVMax= 5.04D-06

 Cycle  12  Pass 1  IDiag  1:
 E= -1638.85798596753     Delta-E=       -0.000000000450 Rises=F Damp=F
 DIIS: error= 2.85D-07 at cycle  12 NSaved=  12.
 NSaved=12 IEnMin=12 EnMin= -1638.85798596753     IErMin=12 ErrMin= 2.85D-07
 ErrMax= 2.85D-07  0.00D+00 EMaxC= 1.00D-01 BMatC= 4.97D-11 BMatP= 6.21D-10
 IDIUse=1 WtCom= 1.00D+00 WtEn= 0.00D+00
 Coeff-Com: -0.300D-06 0.359D-05-0.441D-04-0.973D-04-0.296D-03-0.565D-03
 Coeff-Com: -0.957D-03 0.336D-02 0.132D-01 0.103D+00 0.322D+00 0.561D+00
 Coeff:     -0.300D-06 0.359D-05-0.441D-04-0.973D-04-0.296D-03-0.565D-03
 Coeff:     -0.957D-03 0.336D-02 0.132D-01 0.103D+00 0.322D+00 0.561D+00
 Gap=     0.231 Goal=   None    Shift=    0.000
 RMSDP=2.37D-08 MaxDP=1.07D-06 DE=-4.50D-10 OVMax= 1.25D-06

 Cycle  13  Pass 1  IDiag  1:
 E= -1638.85798596760     Delta-E=       -0.000000000067 Rises=F Damp=F
 DIIS: error= 1.06D-07 at cycle  13 NSaved=  13.
 NSaved=13 IEnMin=13 EnMin= -1638.85798596760     IErMin=13 ErrMin= 1.06D-07
 ErrMax= 1.06D-07  0.00D+00 EMaxC= 1.00D-01 BMatC= 7.03D-12 BMatP= 4.97D-11
 IDIUse=1 WtCom= 1.00D+00 WtEn= 0.00D+00
 Coeff-Com: -0.212D-06 0.211D-05-0.637D-05-0.915D-05-0.760D-04-0.230D-03
 Coeff-Com: -0.750D-03-0.267D-02-0.326D-02 0.156D-01 0.807D-01 0.312D+00
 Coeff-Com:  0.599D+00
 Coeff:     -0.212D-06 0.211D-05-0.637D-05-0.915D-05-0.760D-04-0.230D-03
 Coeff:     -0.750D-03-0.267D-02-0.326D-02 0.156D-01 0.807D-01 0.312D+00
 Coeff:      0.599D+00
 Gap=     0.231 Goal=   None    Shift=    0.000
 RMSDP=8.42D-09 MaxDP=4.46D-07 DE=-6.68D-11 OVMax= 4.56D-07

 Error on total polarization charges =  0.02109
 SCF Done:  E(RB3LYP) =  -1638.85798597     A.U. after   13 cycles
            NFock= 13  Conv=0.84D-08     -V/T= 2.0066
 KE= 1.628099761160D+03 PE=-7.773839997765D+03 EE= 2.545004331649D+03
 Leave Link  502 at Mon Sep 21 06:25:24 2020, MaxMem=  2147483648 cpu:             397.3 elap:              99.4
 (Enter /prod/apps/gaussian/g16b1/l601.exe)
 Copying SCF densities to generalized density rwf, IOpCl= 0 IROHF=0.

 **********************************************************************

            Population analysis using the SCF Density.

 **********************************************************************

 Alpha  occ. eigenvalues --  -89.13975 -88.98552 -19.15722 -19.15670 -19.11874
 Alpha  occ. eigenvalues --  -14.38011 -14.37122 -10.26151 -10.22016 -10.21910
 Alpha  occ. eigenvalues --  -10.21461 -10.21139 -10.19756 -10.19356 -10.19225
 Alpha  occ. eigenvalues --  -10.18972 -10.18948 -10.18811 -10.18769 -10.18756
 Alpha  occ. eigenvalues --   -8.16195  -8.03380  -6.12651  -6.12632  -6.12609
 Alpha  occ. eigenvalues --   -5.99800  -5.99588  -5.99158  -1.13299  -1.01578
 Alpha  occ. eigenvalues --   -1.00650  -0.94835  -0.93428  -0.85679  -0.84364
 Alpha  occ. eigenvalues --   -0.79072  -0.74299  -0.73970  -0.72579  -0.71100
 Alpha  occ. eigenvalues --   -0.69878  -0.67134  -0.62271  -0.61082  -0.60316
 Alpha  occ. eigenvalues --   -0.57869  -0.55796  -0.54550  -0.51739  -0.51499
 Alpha  occ. eigenvalues --   -0.50905  -0.48944  -0.47568  -0.47038  -0.46101
 Alpha  occ. eigenvalues --   -0.45824  -0.44875  -0.44269  -0.43322  -0.42375
 Alpha  occ. eigenvalues --   -0.41720  -0.41467  -0.41048  -0.40702  -0.40000
 Alpha  occ. eigenvalues --   -0.39234  -0.38800  -0.38555  -0.37059  -0.36153
 Alpha  occ. eigenvalues --   -0.35734  -0.35454  -0.34907  -0.33954  -0.33429
 Alpha  occ. eigenvalues --   -0.33288  -0.32395  -0.31411  -0.28330  -0.26835
 Alpha  occ. eigenvalues --   -0.25813  -0.25156  -0.24456  -0.23461
 Alpha virt. eigenvalues --   -0.00338  -0.00105   0.00889   0.03172   0.05126
 Alpha virt. eigenvalues --    0.05984   0.07259   0.08067   0.09539   0.09683
 Alpha virt. eigenvalues --    0.10182   0.11113   0.11397   0.12864   0.13246
 Alpha virt. eigenvalues --    0.13894   0.14871   0.15290   0.15994   0.16097
 Alpha virt. eigenvalues --    0.16391   0.16889   0.17481   0.18162   0.18801
 Alpha virt. eigenvalues --    0.19401   0.19787   0.20120   0.20631   0.21124
 Alpha virt. eigenvalues --    0.21242   0.21781   0.23260   0.23957   0.26043
 Alpha virt. eigenvalues --    0.26722   0.27786   0.28568   0.30864   0.32303
 Alpha virt. eigenvalues --    0.32539   0.33716   0.34902   0.35383   0.36179
 Alpha virt. eigenvalues --    0.39042   0.42802   0.43543   0.44060   0.46376
 Alpha virt. eigenvalues --    0.46748   0.49406   0.49811   0.50454   0.52106
 Alpha virt. eigenvalues --    0.52456   0.52704   0.54828   0.54985   0.55437
 Alpha virt. eigenvalues --    0.55798   0.57543   0.57689   0.58677   0.59643
 Alpha virt. eigenvalues --    0.59723   0.60326   0.61096   0.61326   0.61704
 Alpha virt. eigenvalues --    0.62229   0.63114   0.64080   0.65532   0.66211
 Alpha virt. eigenvalues --    0.66511   0.66562   0.68437   0.68984   0.71507
 Alpha virt. eigenvalues --    0.72100   0.73246   0.73810   0.76418   0.77043
 Alpha virt. eigenvalues --    0.77384   0.79504   0.81001   0.81472   0.82060
 Alpha virt. eigenvalues --    0.82793   0.83362   0.84084   0.84167   0.84530
 Alpha virt. eigenvalues --    0.85050   0.85829   0.86289   0.87295   0.87937
 Alpha virt. eigenvalues --    0.88984   0.89298   0.89977   0.90394   0.91354
 Alpha virt. eigenvalues --    0.91978   0.92094   0.93186   0.93935   0.94598
 Alpha virt. eigenvalues --    0.95485   0.95950   0.96894   0.97565   0.99083
 Alpha virt. eigenvalues --    0.99512   1.00722   1.01617   1.03061   1.03485
 Alpha virt. eigenvalues --    1.04046   1.05288   1.05740   1.07130   1.07894
 Alpha virt. eigenvalues --    1.10826   1.11410   1.12089   1.12598   1.13734
 Alpha virt. eigenvalues --    1.14931   1.15229   1.16766   1.17053   1.17754
 Alpha virt. eigenvalues --    1.20379   1.22618   1.24203   1.25492   1.27049
 Alpha virt. eigenvalues --    1.29599   1.32367   1.36024   1.37737   1.39709
 Alpha virt. eigenvalues --    1.41687   1.42524   1.43060   1.44177   1.46803
 Alpha virt. eigenvalues --    1.47310   1.48094   1.48902   1.50367   1.51451
 Alpha virt. eigenvalues --    1.52539   1.53271   1.59673   1.61039   1.66488
 Alpha virt. eigenvalues --    1.68497   1.71712   1.72409   1.74665   1.75776
 Alpha virt. eigenvalues --    1.77720   1.78452   1.80154   1.80621   1.80803
 Alpha virt. eigenvalues --    1.81094   1.82642   1.83103   1.85227   1.85601
 Alpha virt. eigenvalues --    1.87243   1.88617   1.89133   1.91186   1.92125
 Alpha virt. eigenvalues --    1.92522   1.93125   1.93762   1.94676   1.96064
 Alpha virt. eigenvalues --    1.97134   1.98013   1.98865   1.99864   2.01758
 Alpha virt. eigenvalues --    2.02607   2.04574   2.05677   2.06706   2.07288
 Alpha virt. eigenvalues --    2.08691   2.09819   2.10552   2.11520   2.12350
 Alpha virt. eigenvalues --    2.13954   2.14329   2.14951   2.17878   2.19678
 Alpha virt. eigenvalues --    2.20804   2.22012   2.23393   2.24504   2.25788
 Alpha virt. eigenvalues --    2.26972   2.27979   2.29575   2.30902   2.32978
 Alpha virt. eigenvalues --    2.33489   2.37044   2.38033   2.41611   2.42678
 Alpha virt. eigenvalues --    2.43498   2.46595   2.47899   2.50947   2.56564
 Alpha virt. eigenvalues --    2.57796   2.58806   2.60524   2.66047   2.68858
 Alpha virt. eigenvalues --    2.71365   2.71669   2.72315   2.72977   2.74415
 Alpha virt. eigenvalues --    2.74868   2.76108   2.76710   2.81273   2.84784
 Alpha virt. eigenvalues --    2.85813   2.94890   3.05373   3.41019   3.76900
 Alpha virt. eigenvalues --    3.84195   3.93206   3.95353   4.00642   4.03752
 Alpha virt. eigenvalues --    4.08156   4.09335   4.11524   4.14830   4.21683
 Alpha virt. eigenvalues --    4.25638   4.27760   4.30451   4.32826   4.35820
 Alpha virt. eigenvalues --    4.40874   4.52402   4.70124   4.72863
          Condensed to atoms (all electrons):
               1          2          3          4          5          6
     1  O    8.330806   0.404141  -0.054460   0.004810  -0.008427   0.000267
     2  S    0.404141  13.522788   0.146218  -0.006892  -0.005651   0.001077
     3  N   -0.054460   0.146218   7.391401   0.237852  -0.047701   0.004672
     4  C    0.004810  -0.006892   0.237852   4.846234   0.324822  -0.065621
     5  C   -0.008427  -0.005651  -0.047701   0.324822   5.644586   0.089087
     6  S    0.000267   0.001077   0.004672  -0.065621   0.089087  14.888881
     7  O   -0.000000   0.000011  -0.000057  -0.000158  -0.038606   0.290206
     8  C   -0.007023  -0.002696  -0.050468   0.323140  -0.129346   0.086890
     9  C    0.000208  -0.000219  -0.051099   0.347277  -0.045369   0.005732
    10  C   -0.000002  -0.000107  -0.004115  -0.029946   0.004723  -0.000574
    11  C    0.000000   0.000016   0.000259   0.003384  -0.000086   0.000030
    12  C   -0.000000  -0.000000   0.000002   0.000007  -0.000001   0.000001
    13  C   -0.000000  -0.000000  -0.000000   0.000002  -0.000000   0.000000
    14  C    0.000000   0.000000   0.000000  -0.000000   0.000000  -0.000000
    15  C    0.000000  -0.000000   0.000000   0.000003  -0.000000   0.000000
    16  C   -0.000000  -0.000000  -0.000002   0.000263  -0.000012   0.000003
    17  N   -0.051370   0.184247  -0.059801   0.002214   0.000002  -0.000002
    18  C    0.001334  -0.013555  -0.000266   0.000007  -0.000001  -0.000000
    19  C   -0.006748  -0.013753   0.000444  -0.000188  -0.000016   0.000002
    20  O   -0.042484   0.451364  -0.057738  -0.002073  -0.000068   0.000008
    21  H    0.001430  -0.007725   0.291104  -0.030296   0.003922  -0.000369
    22  H    0.000204   0.000278   0.001574  -0.030100   0.353192  -0.018120
    23  H    0.012937   0.001243  -0.004424  -0.025137   0.327090  -0.006845
    24  H    0.000175   0.000103   0.001783  -0.027771   0.010105  -0.017939
    25  H    0.008652   0.008324  -0.008550  -0.025159   0.002259  -0.007272
    26  H   -0.000002  -0.000013  -0.003252  -0.030898  -0.005977  -0.000378
    27  H    0.000001   0.000045   0.003126  -0.030759  -0.009110   0.005264
    28  H    0.000000   0.000051  -0.000308  -0.005142   0.000047  -0.000147
    29  H    0.000001   0.000067   0.001882  -0.004620   0.000006  -0.000013
    30  H    0.000000  -0.000000  -0.000006  -0.000024   0.000000  -0.000000
    31  H   -0.000000  -0.000000  -0.000000  -0.000000   0.000000  -0.000000
    32  H    0.000000   0.000000   0.000000  -0.000000  -0.000000  -0.000000
    33  H   -0.000000  -0.000000  -0.000000  -0.000000   0.000000   0.000000
    34  H    0.000000   0.000000  -0.000000  -0.000150   0.000006  -0.000011
    35  H    0.000051  -0.000734  -0.000277   0.000001  -0.000000  -0.000000
    36  H   -0.000041   0.002234  -0.000105   0.000003   0.000000  -0.000000
    37  H   -0.000063  -0.008455   0.003309  -0.000083  -0.000003   0.000000
    38  H    0.010310   0.000706  -0.001465  -0.000055   0.000069  -0.000001
    39  H   -0.000279  -0.008372   0.008179  -0.000340   0.000037   0.000006
    40  H    0.000062   0.002158   0.000064   0.000006  -0.000001  -0.000000
               7          8          9         10         11         12
     1  O   -0.000000  -0.007023   0.000208  -0.000002   0.000000  -0.000000
     2  S    0.000011  -0.002696  -0.000219  -0.000107   0.000016  -0.000000
     3  N   -0.000057  -0.050468  -0.051099  -0.004115   0.000259   0.000002
     4  C   -0.000158   0.323140   0.347277  -0.029946   0.003384   0.000007
     5  C   -0.038606  -0.129346  -0.045369   0.004723  -0.000086  -0.000001
     6  S    0.290206   0.086890   0.005732  -0.000574   0.000030   0.000001
     7  O    8.459268  -0.038475  -0.008515  -0.000003   0.000042   0.000000
     8  C   -0.038475   5.674486  -0.058054  -0.009636   0.000050  -0.000004
     9  C   -0.008515  -0.058054   5.200983   0.346387  -0.041108  -0.002403
    10  C   -0.000003  -0.009636   0.346387   5.183887   0.347066  -0.053367
    11  C    0.000042   0.000050  -0.041108   0.347066   4.660664   0.550863
    12  C    0.000000  -0.000004  -0.002403  -0.053367   0.550863   4.983534
    13  C   -0.000000  -0.000000  -0.000099   0.007055  -0.022409   0.513895
    14  C    0.000000   0.000000   0.000002   0.000328  -0.034910  -0.037968
    15  C   -0.000001  -0.000000   0.000148   0.006352  -0.019309  -0.047239
    16  C   -0.000241   0.000006  -0.004100  -0.062689   0.537441  -0.039093
    17  N   -0.000000  -0.000142  -0.000119   0.000002  -0.000000   0.000000
    18  C    0.000000   0.000005  -0.000004  -0.000002  -0.000000  -0.000000
    19  C   -0.000000   0.000005   0.000004   0.000000   0.000000  -0.000000
    20  O   -0.000000   0.001100  -0.000130  -0.000021  -0.000000   0.000000
    21  H    0.000001   0.001553  -0.007127   0.006154  -0.000097  -0.000024
    22  H   -0.000124   0.010098  -0.005648   0.000124  -0.000010  -0.000000
    23  H    0.001198   0.002546   0.004092  -0.000110   0.000001   0.000000
    24  H    0.000204   0.348312  -0.006540   0.002071  -0.000063   0.000001
    25  H    0.001197   0.325581   0.004538  -0.000023   0.000002   0.000000
    26  H    0.000252   0.006280   0.355762  -0.037439  -0.000769   0.002258
    27  H    0.026430  -0.006008   0.349599  -0.035535  -0.002775   0.000061
    28  H    0.000072   0.003286  -0.041520   0.361085  -0.026737   0.002768
    29  H   -0.000003  -0.000106  -0.035681   0.358124  -0.029901  -0.003927
    30  H    0.000000   0.000000   0.000192  -0.010223  -0.043270   0.358678
    31  H   -0.000000  -0.000000   0.000000  -0.000174   0.003733  -0.038693
    32  H    0.000000   0.000000   0.000000   0.000006   0.000612   0.004619
    33  H   -0.000000  -0.000000  -0.000000  -0.000175   0.003636   0.000761
    34  H    0.000657  -0.000008  -0.000313  -0.008654  -0.046063   0.006008
    35  H    0.000000  -0.000000   0.000000   0.000000   0.000000  -0.000000
    36  H    0.000000  -0.000000  -0.000000   0.000000   0.000000  -0.000000
    37  H    0.000000   0.000004   0.000017  -0.000003  -0.000000  -0.000000
    38  H    0.000000  -0.000003  -0.000002   0.000000   0.000000   0.000000
    39  H    0.000000   0.000015   0.000031  -0.000001  -0.000000   0.000000
    40  H    0.000000   0.000000  -0.000000  -0.000000  -0.000000   0.000000
              13         14         15         16         17         18
     1  O   -0.000000   0.000000   0.000000  -0.000000  -0.051370   0.001334
     2  S   -0.000000   0.000000  -0.000000  -0.000000   0.184247  -0.013555
     3  N   -0.000000   0.000000   0.000000  -0.000002  -0.059801  -0.000266
     4  C    0.000002  -0.000000   0.000003   0.000263   0.002214   0.000007
     5  C   -0.000000   0.000000  -0.000000  -0.000012   0.000002  -0.000001
     6  S    0.000000  -0.000000   0.000000   0.000003  -0.000002  -0.000000
     7  O   -0.000000   0.000000  -0.000001  -0.000241  -0.000000   0.000000
     8  C   -0.000000   0.000000  -0.000000   0.000006  -0.000142   0.000005
     9  C   -0.000099   0.000002   0.000148  -0.004100  -0.000119  -0.000004
    10  C    0.007055   0.000328   0.006352  -0.062689   0.000002  -0.000002
    11  C   -0.022409  -0.034910  -0.019309   0.537441  -0.000000  -0.000000
    12  C    0.513895  -0.037968  -0.047239  -0.039093   0.000000  -0.000000
    13  C    4.902583   0.546242  -0.028185  -0.047946  -0.000000   0.000000
    14  C    0.546242   4.885544   0.541304  -0.037133   0.000000  -0.000000
    15  C   -0.028185   0.541304   4.898763   0.519712   0.000000   0.000000
    16  C   -0.047946  -0.037133   0.519712   4.993024  -0.000000   0.000000
    17  N   -0.000000   0.000000   0.000000  -0.000000   7.185057   0.271906
    18  C    0.000000  -0.000000   0.000000   0.000000   0.271906   4.999749
    19  C   -0.000000   0.000000  -0.000000  -0.000000   0.269744  -0.050104
    20  O    0.000000  -0.000000   0.000000   0.000000  -0.056801  -0.007403
    21  H   -0.000000   0.000000  -0.000000   0.000004  -0.000701   0.000686
    22  H   -0.000000   0.000000  -0.000000  -0.000000   0.000003  -0.000000
    23  H    0.000000  -0.000000   0.000000   0.000000  -0.000202  -0.000001
    24  H   -0.000000   0.000000  -0.000001  -0.000011   0.000002  -0.000000
    25  H   -0.000000   0.000000   0.000000  -0.000001   0.000029  -0.000001
    26  H   -0.000079  -0.000005  -0.000026  -0.000125  -0.000011   0.000000
    27  H   -0.000014   0.000004  -0.000215   0.004166   0.000001  -0.000000
    28  H   -0.000219   0.000018   0.000034  -0.004475   0.000000   0.000000
    29  H    0.000163   0.000006  -0.000189   0.004378   0.000008  -0.000008
    30  H   -0.045409   0.004763   0.000253   0.006239  -0.000000  -0.000000
    31  H    0.360721  -0.042504   0.004525   0.000730   0.000000   0.000000
    32  H   -0.042379   0.363177  -0.042280   0.004653   0.000000   0.000000
    33  H    0.004513  -0.042364   0.360999  -0.038889   0.000000  -0.000000
    34  H    0.000238   0.004845  -0.044456   0.357997   0.000000  -0.000000
    35  H   -0.000000   0.000000  -0.000000   0.000000  -0.032653   0.375173
    36  H   -0.000000   0.000000  -0.000000  -0.000000  -0.035203   0.378544
    37  H    0.000000  -0.000000  -0.000000   0.000000  -0.045736   0.374323
    38  H   -0.000000  -0.000000   0.000000   0.000000  -0.033575   0.004519
    39  H    0.000000  -0.000000  -0.000000  -0.000000  -0.046619  -0.001515
    40  H   -0.000000   0.000000  -0.000000  -0.000000  -0.033495  -0.003776
              19         20         21         22         23         24
     1  O   -0.006748  -0.042484   0.001430   0.000204   0.012937   0.000175
     2  S   -0.013753   0.451364  -0.007725   0.000278   0.001243   0.000103
     3  N    0.000444  -0.057738   0.291104   0.001574  -0.004424   0.001783
     4  C   -0.000188  -0.002073  -0.030296  -0.030100  -0.025137  -0.027771
     5  C   -0.000016  -0.000068   0.003922   0.353192   0.327090   0.010105
     6  S    0.000002   0.000008  -0.000369  -0.018120  -0.006845  -0.017939
     7  O   -0.000000  -0.000000   0.000001  -0.000124   0.001198   0.000204
     8  C    0.000005   0.001100   0.001553   0.010098   0.002546   0.348312
     9  C    0.000004  -0.000130  -0.007127  -0.005648   0.004092  -0.006540
    10  C    0.000000  -0.000021   0.006154   0.000124  -0.000110   0.002071
    11  C    0.000000  -0.000000  -0.000097  -0.000010   0.000001  -0.000063
    12  C   -0.000000   0.000000  -0.000024  -0.000000   0.000000   0.000001
[...]
     8  C    0.010801  -0.005970  -0.016134  -0.087796  -0.135334   0.034484
     9  C    0.326847  -0.150638   0.080026  -0.655290   0.083622  -0.048291
    10  C   -0.991010   0.455408  -0.792242   0.848381  -0.031889  -0.011950
    11  C    3.631672  -4.001079   3.263551  -7.136921   0.000315   0.005155
    12  C   -4.625761   3.674007  -4.284214   1.437321   0.002518  -0.001619
    13  C   11.319574  -3.571278   3.923154  -4.087710   0.000953  -0.000189
    14  C   -3.571278   9.238757  -3.447057   3.484779   0.000079  -0.000340
    15  C    3.923154  -3.447057  11.809204  -4.836993  -0.000163   0.000545
    16  C   -4.087710   3.484779  -4.836993  17.474844  -0.001352  -0.000607
    17  N    0.000953   0.000079  -0.000163  -0.001352   8.761291   0.148743
    18  C   -0.000189  -0.000340   0.000545  -0.000607   0.148743   4.372525
    19  C   -0.000425  -0.000008   0.000138   0.000889   0.271941  -0.158349
    20  O    0.000200   0.000054  -0.000039   0.000015   0.057661   0.018680
    21  H   -0.033173   0.013558  -0.018540   0.091980   0.086721  -0.049649
    22  H    0.001229  -0.001997   0.002304   0.000044  -0.001478  -0.000439
    23  H    0.000757  -0.000684   0.002338  -0.008191   0.016429   0.008529
    24  H    0.006548  -0.004819   0.028346  -0.024209  -0.005892   0.006859
    25  H    0.000357   0.000307  -0.006613  -0.008317  -0.013570  -0.006890
    26  H   -0.004908   0.016271  -0.037571   0.087279  -0.003643   0.002256
    27  H   -0.032990   0.021120  -0.006413  -0.019336   0.001591   0.001708
    28  H   -0.072233   0.016655   0.082594   0.275613   0.000808  -0.002359
    29  H    0.169805  -0.020191  -0.042577  -0.405982  -0.011460   0.011966
    30  H    0.227671  -0.137975   0.094431  -0.005263  -0.001397   0.000273
    31  H   -0.796441   0.340251  -0.244613   0.141615   0.000022   0.000025
    32  H    0.379389  -0.603296   0.375690  -0.126335  -0.000000  -0.000005
    33  H   -0.243326   0.309135  -0.744478   0.623925   0.000002   0.000021
    34  H    0.137728  -0.172504   0.441389  -1.266906   0.000101  -0.000373
    35  H   -0.000289  -0.000068   0.000111  -0.000283  -0.097882   0.388740
    36  H   -0.000097  -0.000010   0.000009   0.000197  -0.207208   0.452551
    37  H    0.002005  -0.000369   0.000429  -0.001800   0.196606   0.177367
    38  H    0.000101   0.000059  -0.000146   0.000341  -0.099817  -0.071658
    39  H   -0.000043  -0.000159   0.000268  -0.000507   0.275117   0.017662
    40  H   -0.000057  -0.000013   0.000023  -0.000042  -0.259314   0.073793
              19         20         21         22         23         24
     1  O    0.013739   0.029195  -0.021863   0.003924   0.009498   0.016434
     2  S   -0.331152  -0.321369  -0.193482  -0.004054  -0.017790  -0.012148
     3  N    0.071477   0.122892   0.086531   0.137348   0.030349   0.154328
     4  C    0.097493  -0.095425   0.189158  -0.566186  -0.466576  -0.366711
     5  C    0.030828   0.022043  -0.165209   0.191688   0.442719   0.277666
     6  S    0.002716  -0.006357   0.015385   0.143616  -0.189997   0.105779
     7  O   -0.000283   0.000319   0.006889   0.008323   0.004036   0.008122
     8  C   -0.063001  -0.019192  -0.242816   0.107862   0.135755   0.288930
     9  C   -0.062066   0.015093   0.096238   0.160347   0.181464  -0.235112
    10  C   -0.009654   0.070025   0.247215   0.023177  -0.023633  -0.139088
    11  C    0.009306  -0.006471  -0.119381   0.001864  -0.004845   0.059762
    12  C   -0.001202   0.004554  -0.027192  -0.004012  -0.002220  -0.033381
    13  C   -0.000425   0.000200  -0.033173   0.001229   0.000757   0.006548
    14  C   -0.000008   0.000054   0.013558  -0.001997  -0.000684  -0.004819
    15  C    0.000138  -0.000039  -0.018540   0.002304   0.002338   0.028346
    16  C    0.000889   0.000015   0.091980   0.000044  -0.008191  -0.024209
    17  N    0.271941   0.057661   0.086721  -0.001478   0.016429  -0.005892
    18  C   -0.158349   0.018680  -0.049649  -0.000439   0.008529   0.006859
    19  C    4.352716   0.033888  -0.003135   0.001532  -0.012096  -0.001261
    20  O    0.033888   9.197222   0.029379  -0.001374   0.004159   0.013746
    21  H   -0.003135   0.029379   1.208430   0.020380  -0.022679  -0.016802
    22  H    0.001532  -0.001374   0.020380   1.458399  -0.359636  -0.002804
    23  H   -0.012096   0.004159  -0.022679  -0.359636   1.388768   0.034863
    24  H   -0.001261   0.013746  -0.016802  -0.002804   0.034863   1.467558
    25  H   -0.007945   0.010006  -0.009688   0.023878  -0.015023  -0.322293
    26  H   -0.001569   0.000238   0.000479   0.001101   0.023195   0.025227
    27  H   -0.003062  -0.001940  -0.007090  -0.053219   0.016968  -0.033740
    28  H    0.001100   0.006328   0.009908   0.002485  -0.007947  -0.060307
    29  H   -0.002577   0.002277  -0.134105  -0.003189   0.010333   0.027468
    30  H    0.001052   0.001130   0.017166   0.000703  -0.001125  -0.000927
    31  H   -0.000016  -0.000019   0.001554   0.000056   0.000067   0.000180
    32  H    0.000004   0.000003   0.000222  -0.000007  -0.000034  -0.000158
    33  H    0.000001   0.000007  -0.000763  -0.000074   0.000099   0.001885
    34  H    0.000151   0.000040  -0.002513   0.001127  -0.000852   0.001067
    35  H   -0.073803  -0.022197   0.007080   0.000190   0.000803   0.001180
    36  H    0.052861   0.007886  -0.028433  -0.000217   0.000162   0.000098
    37  H    0.027094  -0.002453   0.024119  -0.000461   0.001070   0.000048
    38  H    0.338037  -0.001052   0.008446  -0.000899  -0.007295  -0.002312
    39  H    0.164582   0.008075  -0.004438  -0.003404   0.007625  -0.000661
    40  H    0.436593  -0.002936  -0.012378   0.001058  -0.003003   0.000649
              25         26         27         28         29         30
     1  O    0.005764   0.003031  -0.001536  -0.002238   0.004334  -0.000088
     2  S   -0.027249  -0.036923  -0.006988  -0.021805   0.032659   0.001246
     3  N    0.036506  -0.096604   0.070029  -0.047698  -0.060865   0.001882
     4  C   -0.173204  -0.533545   0.046542  -0.172253   0.540928   0.068815
     5  C   -0.063076  -0.053503  -0.123503  -0.083478   0.063928  -0.013382
     6  S   -0.152316   0.001342  -0.073074  -0.004980  -0.005364  -0.001297
     7  O    0.017018   0.008092   0.015265   0.000221   0.000440  -0.000266
     8  C    0.205059   0.162249   0.102746  -0.002981   0.020868   0.003966
     9  C    0.266603   0.362431  -0.150990   0.223402  -0.246881   0.038740
    10  C    0.060146  -0.077206  -0.133836   0.192989  -0.971024  -0.147412
    11  C   -0.014637  -0.191324  -0.069338  -0.243278   0.420672   0.810136
    12  C    0.015432   0.046183   0.026840  -0.161108   0.285199  -1.229834
    13  C    0.000357  -0.004908  -0.032990  -0.072233   0.169805   0.227671
    14  C    0.000307   0.016271   0.021120   0.016655  -0.020191  -0.137975
    15  C   -0.006613  -0.037571  -0.006413   0.082594  -0.042577   0.094431
    16  C   -0.008317   0.087279  -0.019336   0.275613  -0.405982  -0.005263
    17  N   -0.013570  -0.003643   0.001591   0.000808  -0.011460  -0.001397
    18  C   -0.006890   0.002256   0.001708  -0.002359   0.011966   0.000273
    19  C   -0.007945  -0.001569  -0.003062   0.001100  -0.002577   0.001052
    20  O    0.010006   0.000238  -0.001940   0.006328   0.002277   0.001130
    21  H   -0.009688   0.000479  -0.007090   0.009908  -0.134105   0.017166
    22  H    0.023878   0.001101  -0.053219   0.002485  -0.003189   0.000703
    23  H   -0.015023   0.023195   0.016968  -0.007947   0.010333  -0.001125
    24  H   -0.322293   0.025227  -0.033740  -0.060307   0.027468  -0.000927
    25  H    1.373179   0.001560   0.015578   0.014375  -0.007693   0.000869
    26  H    0.001560   1.784955  -0.308783   0.079336  -0.086532  -0.012023
    27  H    0.015578  -0.308783   1.890505  -0.109714   0.062324   0.006710
    28  H    0.014375   0.079336  -0.109714   1.669631  -0.302956   0.014093
    29  H   -0.007693  -0.086532   0.062324  -0.302956   2.077039  -0.066542
    30  H    0.000869  -0.012023   0.006710   0.014093  -0.066542   2.093376
    31  H   -0.000085  -0.003203   0.001465   0.001289  -0.002474  -0.083269
    32  H    0.000019  -0.000278  -0.000444   0.000633   0.000755  -0.016210
    33  H   -0.000261   0.000884  -0.002027  -0.003019  -0.000406   0.011144
    34  H    0.003079   0.004126  -0.008831  -0.031940   0.016869  -0.021593
    35  H    0.000670   0.000036  -0.000217  -0.000575   0.002446   0.000490
    36  H   -0.000597   0.000178   0.000406   0.000023   0.001008   0.000126
    37  H   -0.000982   0.000048  -0.001114   0.000093  -0.000786  -0.002726
    38  H    0.004205   0.000108  -0.000668   0.000852  -0.001246   0.000395
    39  H   -0.000680  -0.001728  -0.000191  -0.000600   0.003182  -0.000107
    40  H   -0.000814  -0.000602   0.000166  -0.000001   0.000260  -0.000137
              31         32         33         34         35         36
     1  O    0.000003  -0.000000   0.000006  -0.000157  -0.000949  -0.001034
     2  S    0.000082  -0.000009   0.000016   0.000543   0.189049  -0.099114
     3  N    0.000330  -0.000022  -0.000026   0.008211  -0.013550   0.041979
     4  C    0.006205  -0.000450   0.009128  -0.016275  -0.008204   0.005663
     5  C    0.000976  -0.000603   0.001574  -0.002034   0.006930  -0.001011
     6  S    0.000057  -0.000042   0.000246  -0.002984   0.000371  -0.000079
     7  O   -0.000004  -0.000001  -0.000551   0.007664  -0.000083  -0.000001
     8  C    0.000023  -0.000194   0.000083   0.011237   0.009207  -0.000002
     9  C   -0.005691  -0.004567   0.002072   0.077111  -0.009689   0.001764
    10  C    0.024234   0.001980  -0.001493  -0.255643  -0.004937   0.001743
    11  C   -0.142690   0.086727  -0.133530   0.778911   0.000796  -0.000176
    12  C    0.616516  -0.143292   0.133765  -0.106192  -0.000730   0.000094
    13  C   -0.796441   0.379389  -0.243326   0.137728  -0.000289  -0.000097
    14  C    0.340251  -0.603296   0.309135  -0.172504  -0.000068  -0.000010
    15  C   -0.244613   0.375690  -0.744478   0.441389   0.000111   0.000009
    16  C    0.141615  -0.126335   0.623925  -1.266906  -0.000283   0.000197
    17  N    0.000022  -0.000000   0.000002   0.000101  -0.097882  -0.207208
    18  C    0.000025  -0.000005   0.000021  -0.000373   0.388740   0.452551
    19  C   -0.000016   0.000004   0.000001   0.000151  -0.073803   0.052861
    20  O   -0.000019   0.000003   0.000007   0.000040  -0.022197   0.007886
    21  H    0.001554   0.000222  -0.000763  -0.002513   0.007080  -0.028433
    22  H    0.000056  -0.000007  -0.000074   0.001127   0.000190  -0.000217
    23  H    0.000067  -0.000034   0.000099  -0.000852   0.000803   0.000162
    24  H    0.000180  -0.000158   0.001885   0.001067   0.001180   0.000098
    25  H   -0.000085   0.000019  -0.000261   0.003079   0.000670  -0.000597
    26  H   -0.003203  -0.000278   0.000884   0.004126   0.000036   0.000178
    27  H    0.001465  -0.000444  -0.002027  -0.008831  -0.000217   0.000406
    28  H    0.001289   0.000633  -0.003019  -0.031940  -0.000575   0.000023
    29  H   -0.002474   0.000755  -0.000406   0.016869   0.002446   0.001008
    30  H   -0.083269  -0.016210   0.011144  -0.021593   0.000490   0.000126
    31  H    1.677347  -0.049695  -0.020834   0.011373  -0.000013  -0.000003
    32  H   -0.049695   1.605877  -0.053216  -0.015514  -0.000002   0.000001
    33  H   -0.020834  -0.053216   1.674247  -0.096303   0.000005  -0.000000
    34  H    0.011373  -0.015514  -0.096303   2.195247  -0.000077  -0.000002
    35  H   -0.000013  -0.000002   0.000005  -0.000077   1.225975  -0.282765
    36  H   -0.000003   0.000001  -0.000000  -0.000002  -0.282765   1.376667
    37  H    0.000163  -0.000013   0.000016  -0.000006  -0.186588  -0.176230
    38  H   -0.000016   0.000002  -0.000005   0.000106  -0.006741   0.001958
    39  H    0.000017  -0.000001   0.000003  -0.000035  -0.008107  -0.007410
    40  H    0.000006  -0.000000   0.000001  -0.000019   0.007891   0.019232
              37         38         39         40
     1  O    0.001989   0.007619  -0.000381   0.001691
     2  S   -0.032527   0.167491  -0.079611  -0.079007
     3  N   -0.039886  -0.056819  -0.115796   0.112022
     4  C   -0.009052   0.092991   0.068993  -0.039822
     5  C    0.006408  -0.056068  -0.009597   0.013768
     6  S   -0.000169  -0.003996  -0.001567   0.000856
     7  O   -0.000056   0.000639  -0.000186  -0.000037
     8  C    0.000408  -0.013418  -0.004015   0.002983
     9  C   -0.018675   0.019985  -0.014092  -0.002198
    10  C   -0.002290   0.010032  -0.000531  -0.002255
    11  C    0.008030  -0.001597   0.002086   0.000700
    12  C   -0.002391   0.000913   0.001074  -0.000427
    13  C    0.002005   0.000101  -0.000043  -0.000057
    14  C   -0.000369   0.000059  -0.000159  -0.000013
    15  C    0.000429  -0.000146   0.000268   0.000023
    16  C   -0.001800   0.000341  -0.000507  -0.000042
    17  N    0.196606  -0.099817   0.275117  -0.259314
    18  C    0.177367  -0.071658   0.017662   0.073793
    19  C    0.027094   0.338037   0.164582   0.436593
    20  O   -0.002453  -0.001052   0.008075  -0.002936
    21  H    0.024119   0.008446  -0.004438  -0.012378
    22  H   -0.000461  -0.000899  -0.003404   0.001058
    23  H    0.001070  -0.007295   0.007625  -0.003003
    24  H    0.000048  -0.002312  -0.000661   0.000649
    25  H   -0.000982   0.004205  -0.000680  -0.000814
    26  H    0.000048   0.000108  -0.001728  -0.000602
    27  H   -0.001114  -0.000668  -0.000191   0.000166
    28  H    0.000093   0.000852  -0.000600  -0.000001
    29  H   -0.000786  -0.001246   0.003182   0.000260
    30  H   -0.002726   0.000395  -0.000107  -0.000137
    31  H    0.000163  -0.000016   0.000017   0.000006
    32  H   -0.000013   0.000002  -0.000001  -0.000000
    33  H    0.000016  -0.000005   0.000003   0.000001
    34  H   -0.000006   0.000106  -0.000035  -0.000019
    35  H   -0.186588  -0.006741  -0.008107   0.007891
    36  H   -0.176230   0.001958  -0.007410   0.019232
    37  H    1.075058  -0.003548   0.010185  -0.010080
    38  H   -0.003548   1.277741  -0.156866  -0.318142
    39  H    0.010185  -0.156866   1.097610  -0.238626
    40  H   -0.010080  -0.318142  -0.238626   1.527812
 Mulliken charges:
               1
     1  O   -1.188513
     2  S    3.186371
     3  N   -1.050935
     4  C    0.559441
     5  C    0.287627
     6  S    1.492346
     7  O   -1.257994
     8  C    0.470580
     9  C   -0.049083
    10  C    0.853323
    11  C    0.958370
    12  C    0.489426
    13  C    0.212144
    14  C    0.647633
    15  C    0.010255
    16  C    0.542768
    17  N   -1.247161
    18  C    0.786161
    19  C    0.823463
    20  O   -1.174292
    21  H   -0.047507
    22  H   -0.289184
    23  H   -0.176362
    24  H   -0.264118
    25  H   -0.222674
    26  H   -0.160661
    27  H   -0.130919
    28  H   -0.260958
    29  H   -0.381909
    30  H   -0.652840
    31  H   -0.474794
    32  H   -0.436912
    33  H   -0.467950
    34  H   -0.695327
    35  H   -0.124221
    36  H   -0.160216
    37  H   -0.038931
    38  H   -0.129712
    39  H   -0.007140
    40  H   -0.229593
 Sum of Mulliken charges =  -0.00000
 Mulliken charges with hydrogens summed into heavy atoms:
               1
     1  O   -1.188513
     2  S    3.186371
     3  N   -1.098442
     4  C    0.559441
     5  C   -0.177919
     6  S    1.492346
     7  O   -1.257994
     8  C   -0.016212
     9  C   -0.340663
    10  C    0.210456
    11  C    0.958370
    12  C   -0.163414
    13  C   -0.262650
    14  C    0.210721
    15  C   -0.457696
    16  C   -0.152559
    17  N   -1.247161
    18  C    0.462792
    19  C    0.457017
    20  O   -1.174292
 Electronic spatial extent (au):  <R**2>=           8378.1066
 Charge=              0.0000 electrons
 Dipole moment (field-independent basis, Debye):
    X=             -0.7286    Y=             -6.4951    Z=              2.5623  Tot=              7.0201
 Quadrupole moment (field-independent basis, Debye-Ang):
   XX=           -139.1122   YY=           -140.8885   ZZ=           -138.3944
   XY=              3.2057   XZ=            -11.4176   YZ=             -7.3125
 Traceless Quadrupole moment (field-independent basis, Debye-Ang):
   XX=              0.3529   YY=             -1.4235   ZZ=              1.0706
   XY=              3.2057   XZ=            -11.4176   YZ=             -7.3125
 Octapole moment (field-independent basis, Debye-Ang**2):
  XXX=             24.8638  YYY=           -101.5975  ZZZ=             13.5714  XYY=            -71.3657
  XXY=            -50.4734  XXZ=             47.2202  XZZ=            -27.8462  YZZ=             19.1278
  YYZ=             -1.6498  XYZ=             -8.5534
 Hexadecapole moment (field-independent basis, Debye-Ang**3):
 XXXX=          -7399.0239 YYYY=          -3084.0099 ZZZZ=           -681.5528 XXXY=            219.9568
 XXXZ=            -51.2772 YYYX=            -18.7085 YYYZ=            -41.7790 ZZZX=            -42.0644
 ZZZY=             -2.7337 XXYY=          -1671.8835 XXZZ=          -1502.4629 YYZZ=           -572.8774
 XXYZ=           -116.4116 YYXZ=              9.5205 ZZXY=             27.9815
 N-N= 1.960019269487D+03 E-N=-7.768817681670D+03  KE= 1.630812656743D+03
 Leave Link  601 at Mon Sep 21 08:56:45 2020, MaxMem=   262144000 cpu:               2.1 elap:               0.7
 (Enter /prod/apps/gaussian/g16b1/l9999.exe)
 1\1\GINC-PIRINEUS30\SP\RMP2-FC\Aug-CC-pVDZ\C13H20N2O3S2\UBAFAR01\21-Se
 p-2020\0\\#p mp2/aug-cc-pVDZ scf=(MaxCycle=2000,NoVarAcc,NoIncFock) ma
 xdisk=120GB geom=allcheck\\SM37_m0.n.4.pdb.xyz\\0,1\O,0,-3.4687613102,
 0.811918178,-0.0351928875\S,0,-2.8386385709,-0.4488217553,-0.444027673
 5\N,0,-1.2915627719,-0.43578341,0.2231689432\C,0,-0.4424401532,0.77465
 33766,0.1925786101\C,0,-0.8556038786,1.8561697748,1.2215607436\S,0,-0.
 3957276373,3.2407120427,0.0504614621\O,0,1.0758846661,3.6059386636,0.2
 383213965\C,0,-0.5316062148,1.725628973,-1.0350984565\C,0,1.011138834,
 0.3376030433,0.4592334988\C,0,1.6671775823,-0.5253149897,-0.633185058\
 C,0,3.11831328,-0.8150743269,-0.3167144083\C,0,3.4999396922,-2.0483409
 93,0.2255659847\C,0,4.8343493713,-2.3112428061,0.543025158\C,0,5.81074
 12662,-1.3385236332,0.321049034\C,0,5.4433501259,-0.1042453255,-0.2208
 475211\C,0,4.1084507608,0.1538462882,-0.5366259728\N,0,-3.6252075443,-
 1.6910759321,0.3209078247\C,0,-3.3506959167,-3.055788506,-0.1458400789
 \C,0,-3.7872249495,-1.5536839878,1.7712406011\O,0,-2.8040339163,-0.787
 5922832,-1.8728463722\H,0,-0.8017846344,-1.2790610094,-0.0771570025\H,
 0,-0.3072012975,1.8866888737,2.1643337205\H,0,-1.9320234266,1.90305534
 73,1.383052909\H,0,0.2547257893,1.6638468063,-1.7878072994\H,0,-1.5135
 211373,1.7470891141,-1.5083422843\H,0,1.0385755974,-0.1922590514,1.417
 9869381\H,0,1.5918635016,1.2562018763,0.5832702835\H,0,1.5966130117,-0
 .0061589156,-1.5951220678\H,0,1.1374773531,-1.4762639316,-0.7489260175
 \H,0,2.7433622662,-2.8092949055,0.3955589231\H,0,5.1098207723,-3.27480
 60278,0.9595562292\H,0,6.8489337094,-1.5405409918,0.5644862669\H,0,6.1
 967398065,0.656109759,-0.401526728\H,0,3.8309053725,1.1148478535,-0.96
 08766495\H,0,-3.2683817694,-3.0543478762,-1.2307009412\H,0,-4.19800330
 47,-3.6785568087,0.1474529429\H,0,-2.4369958826,-3.4701518864,0.297478
 91\H,0,-4.0635831454,-0.528053812,2.0095337447\H,0,-2.8762229039,-1.82
 70149615,2.3154531114\H,0,-4.6001423936,-2.2153118435,2.0755601833\\Ve
 rsion=ES64L-G16RevB.01\State=1-A\HF=-1632.404963\MP2=-1635.5192102\RMS
 D=6.160e-09\PG=C01 [X(C13H20N2O3S2)]\\@


 Time has a wonderful way of weeding out the trivial.
                                -- Richard Ben Sapir
 Job cpu time:       0 days  4 hours 52 minutes 42.3 seconds.
 Elapsed time:       0 days  1 hours 22 minutes 59.8 seconds.
 File lengths (MBytes):  RWF=  76012 Int=      0 D2E=      0 Chk=     34 Scr=      1
 Normal termination of Gaussian 16 at Mon Sep 21 08:56:49 2020.
