 Entering Gaussian System, Link 0=g16
 Initial command:
 /prod/apps/gaussian/g16b1/l1.exe "/tmp/ubafar01/1459143/Gau-133641.inp" -scrdir="/tmp/ubafar01/1459143/"
 Entering Link 1 = /prod/apps/gaussian/g16b1/l1.exe PID=    133643.
  
 Copyright (c) 1988-2017, Gaussian, Inc.  All Rights Reserved.
  
 This is part of the Gaussian(R) 16 program.  It is based on
 the Gaussian(R) 09 system (copyright 2009, Gaussian, Inc.),
 the Gaussian(R) 03 system (copyright 2003, Gaussian, Inc.),
 the Gaussian(R) 98 system (copyright 1998, Gaussian, Inc.),
 the Gaussian(R) 94 system (copyright 1995, Gaussian, Inc.),
 the Gaussian 92(TM) system (copyright 1992, Gaussian, Inc.),
 the Gaussian 90(TM) system (copyright 1990, Gaussian, Inc.),
 the Gaussian 88(TM) system (copyright 1988, Gaussian, Inc.),
 the Gaussian 86(TM) system (copyright 1986, Carnegie Mellon
 University), and the Gaussian 82(TM) system (copyright 1983,
 Carnegie Mellon University). Gaussian is a federally registered
 trademark of Gaussian, Inc.
  
 This software contains proprietary and confidential information,
 including trade secrets, belonging to Gaussian, Inc.
  
 This software is provided under written license and may be
 used, copied, transmitted, or stored only in accord with that
 written license.
  
 The following legend is applicable only to US Government
 contracts under FAR:
  
                    RESTRICTED RIGHTS LEGEND
  
 Use, reproduction and disclosure by the US Government is
 subject to restrictions as set forth in subparagraphs (a)
 and (c) of the Commercial Computer Software - Restricted
 Rights clause in FAR 52.227-19.
  
 Gaussian, Inc.
 340 Quinnipiac St., Bldg. 40, Wallingford CT 06492
  
  
 ---------------------------------------------------------------
 Warning -- This program may not be used in any manner that
 competes with the business of Gaussian, Inc. or will provide
 assistance to any competitor of Gaussian, Inc.  The licensee
 of this program is prohibited from giving any competitor of
 Gaussian, Inc. access to this program.  By using this program,
 the user acknowledges that Gaussian, Inc. is engaged in the
 business of creating and licensing software in the field of
 computational chemistry and represents and warrants to the
 licensee that it is not a competitor of Gaussian, Inc. and that
 it will not use this program in any manner prohibited above.
 ---------------------------------------------------------------
  

 Cite this work as:
 Gaussian 16, Revision B.01,
 M. J. Frisch, G. W. Trucks, H. B. Schlegel, G. E. Scuseria, 
 M. A. Robb, J. R. Cheeseman, G. Scalmani, V. Barone, 
 G. A. Petersson, H. Nakatsuji, X. Li, M. Caricato, A. V. Marenich, 
 J. Bloino, B. G. Janesko, R. Gomperts, B. Mennucci, H. P. Hratchian, 
 J. V. Ortiz, A. F. Izmaylov, J. L. Sonnenberg, D. Williams-Young, 
 F. Ding, F. Lipparini, F. Egidi, J. Goings, B. Peng, A. Petrone, 
 T. Henderson, D. Ranasinghe, V. G. Zakrzewski, J. Gao, N. Rega, 
 G. Zheng, W. Liang, M. Hada, M. Ehara, K. Toyota, R. Fukuda, 
 J. Hasegawa, M. Ishida, T. Nakajima, Y. Honda, O. Kitao, H. Nakai, 
 T. Vreven, K. Throssell, J. A. Montgomery, Jr., J. E. Peralta, 
 F. Ogliaro, M. J. Bearpark, J. J. Heyd, E. N. Brothers, K. N. Kudin, 
 V. N. Staroverov, T. A. Keith, R. Kobayashi, J. Normand, 
 K. Raghavachari, A. P. Rendell, J. C. Burant, S. S. Iyengar, 
 J. Tomasi, M. Cossi, J. M. Millam, M. Klene, C. Adamo, R. Cammi, 
 J. W. Ochterski, R. L. Martin, K. Morokuma, O. Farkas, 
 J. B. Foresman, and D. J. Fox, Gaussian, Inc., Wallingford CT, 2016.
 
 ******************************************
 Gaussian 16:  ES64L-G16RevB.01 20-Dec-2017
                15-Sep-2020 
 ******************************************
 %nproc=4
 Will use up to    4 processors via shared memory.
 %Chk=SM37_m0.n.8.pdb.xyz.mst.n.w.chk
 %mem=16GB
 ----------------------------------------------------------------------
 #p b3lyp/6-31G(d) opt freq NoSymm scf=(MaxCycle=2000,NoVarAcc,NoIncFoc
 k) scrf=(iefpcm,read,solvent=water) MaxDisk=20GB
 ----------------------------------------------------------------------
 1/18=20,19=15,26=3,38=1,40=2/1,3;
 2/9=110,12=2,15=1,17=6,18=5,40=1/2;
 3/5=1,6=6,7=1,11=2,25=1,30=1,70=2203,71=1,72=1,74=-5/1,2,3;
 4//1;
 5/5=100002,7=2000,38=1,53=1/2;
 6/7=2,8=2,9=2,10=2,28=1/1;
 7/30=1/1,2,3,16;
 1/18=20,19=15,26=3/3(2);
 2/9=110,15=1/2;
 99//99;
 2/9=110,15=1/2;
 3/5=1,6=6,7=1,11=2,25=1,30=1,70=2205,71=1,72=1,74=-5/1,2,3;
 4/5=5,16=3,69=1/1;
 5/5=100002,7=2000,38=1,53=1/2;
 7/30=1/1,2,3,16;
 1/18=20,19=15,26=3/3(-5);
 2/9=110,15=1/2;
 6/7=2,8=2,9=2,10=2,19=2,28=1/1;
 99/9=1/99;
 Leave Link    1 at Tue Sep 15 07:39:15 2020, MaxMem=  2147483648 cpu:               0.2 elap:               0.0
 (Enter /prod/apps/gaussian/g16b1/l101.exe)
 -------------------
 SM37_m0.n.8.pdb.xyz
 -------------------
 Symbolic Z-matrix:
 Charge =  0 Multiplicity = 1
 O                     3.089    -1.908    -1.537 
 S                     2.77     -0.814    -0.604 
 N                     1.131    -0.57     -0.757 
 C                     0.47      0.71     -0.452 
 C                     0.882     1.949    -1.289 
 S                     0.772     3.069     0.199 
 O                    -0.645     3.624     0.322 
 C                     0.838     1.341     0.911 
 C                    -1.046     0.484    -0.579 
 C                    -1.615    -0.605     0.342 
 C                    -3.117    -0.729     0.215 
 C                    -3.691    -1.582    -0.738 
 C                    -5.077    -1.675    -0.876 
 C                    -5.915    -0.914    -0.058 
 C                    -5.357    -0.062     0.897 
 C                    -3.971     0.028     1.031 
 N                     2.871    -1.286     1.01 
 C                     2.199    -2.566     1.288 
 C                     4.239    -1.219     1.561 
 O                     3.542     0.434    -0.705 
 H                     0.816    -0.992    -1.633 
 H                     0.218     2.248    -2.1 
 H                     1.921     1.923    -1.616 
 H                     0.149     1.187     1.74 
 H                     1.864     1.149     1.225 
 H                    -1.275     0.242    -1.625 
 H                    -1.525     1.445    -0.367 
 H                    -1.354    -0.372     1.381 
 H                    -1.139    -1.561     0.1 
 H                    -3.044    -2.181    -1.374 
 H                    -5.5      -2.344    -1.618 
 H                    -6.993    -0.989    -0.161 
 H                    -6.        0.529     1.542 
 H                    -3.542     0.69      1.778 
 H                     1.192    -2.54      0.874 
 H                     2.133    -2.673     2.372 
 H                     2.746    -3.423     0.877 
 H                     4.668    -0.241     1.351 
 H                     4.892    -2.003     1.158 
 H                     4.155    -1.35      2.642 
 
 ITRead=  0  0  0  0  0  0  0  0  0  0  0  0  0  0  0  0  0  0  0  0
 ITRead=  0  0  0  0  0  0  0  0  0  0  0  0  0  0  0  0  0  0  0  0
 MicOpt= -1 -1 -1 -1 -1 -1 -1 -1 -1 -1 -1 -1 -1 -1 -1 -1 -1 -1 -1 -1
 MicOpt= -1 -1 -1 -1 -1 -1 -1 -1 -1 -1 -1 -1 -1 -1 -1 -1 -1 -1 -1 -1
 NAtoms=     40 NQM=       40 NQMF=       0 NMMI=      0 NMMIF=      0
                NMic=       0 NMicF=      0.
                    Isotopes and Nuclear Properties:
 (Nuclear quadrupole moments (NQMom) in fm**2, nuclear magnetic moments (NMagM)
  in nuclear magnetons)

  Atom         1           2           3           4           5           6           7           8           9          10
 IAtWgt=          16          32          14          12          12          32          16          12          12          12
 AtmWgt=  15.9949146  31.9720718  14.0030740  12.0000000  12.0000000  31.9720718  15.9949146  12.0000000  12.0000000  12.0000000
 NucSpn=           0           0           2           0           0           0           0           0           0           0
 AtZEff=  -0.0000000  -0.0000000  -0.0000000  -0.0000000  -0.0000000  -0.0000000  -0.0000000  -0.0000000  -0.0000000  -0.0000000
 NQMom=    0.0000000   0.0000000   2.0440000   0.0000000   0.0000000   0.0000000   0.0000000   0.0000000   0.0000000   0.0000000
 NMagM=    0.0000000   0.0000000   0.4037610   0.0000000   0.0000000   0.0000000   0.0000000   0.0000000   0.0000000   0.0000000
 AtZNuc=   8.0000000  16.0000000   7.0000000   6.0000000   6.0000000  16.0000000   8.0000000   6.0000000   6.0000000   6.0000000

  Atom        11          12          13          14          15          16          17          18          19          20
 IAtWgt=          12          12          12          12          12          12          14          12          12          16
 AtmWgt=  12.0000000  12.0000000  12.0000000  12.0000000  12.0000000  12.0000000  14.0030740  12.0000000  12.0000000  15.9949146
 NucSpn=           0           0           0           0           0           0           2           0           0           0
 AtZEff=  -0.0000000  -0.0000000  -0.0000000  -0.0000000  -0.0000000  -0.0000000  -0.0000000  -0.0000000  -0.0000000  -0.0000000
 NQMom=    0.0000000   0.0000000   0.0000000   0.0000000   0.0000000   0.0000000   2.0440000   0.0000000   0.0000000   0.0000000
 NMagM=    0.0000000   0.0000000   0.0000000   0.0000000   0.0000000   0.0000000   0.4037610   0.0000000   0.0000000   0.0000000
 AtZNuc=   6.0000000   6.0000000   6.0000000   6.0000000   6.0000000   6.0000000   7.0000000   6.0000000   6.0000000   8.0000000

  Atom        21          22          23          24          25          26          27          28          29          30
 IAtWgt=           1           1           1           1           1           1           1           1           1           1
 AtmWgt=   1.0078250   1.0078250   1.0078250   1.0078250   1.0078250   1.0078250   1.0078250   1.0078250   1.0078250   1.0078250
 NucSpn=           1           1           1           1           1           1           1           1           1           1
 AtZEff=  -0.0000000  -0.0000000  -0.0000000  -0.0000000  -0.0000000  -0.0000000  -0.0000000  -0.0000000  -0.0000000  -0.0000000
 NQMom=    0.0000000   0.0000000   0.0000000   0.0000000   0.0000000   0.0000000   0.0000000   0.0000000   0.0000000   0.0000000
 NMagM=    2.7928460   2.7928460   2.7928460   2.7928460   2.7928460   2.7928460   2.7928460   2.7928460   2.7928460   2.7928460
 AtZNuc=   1.0000000   1.0000000   1.0000000   1.0000000   1.0000000   1.0000000   1.0000000   1.0000000   1.0000000   1.0000000

  Atom        31          32          33          34          35          36          37          38          39          40
 IAtWgt=           1           1           1           1           1           1           1           1           1           1
 AtmWgt=   1.0078250   1.0078250   1.0078250   1.0078250   1.0078250   1.0078250   1.0078250   1.0078250   1.0078250   1.0078250
 NucSpn=           1           1           1           1           1           1           1           1           1           1
 AtZEff=  -0.0000000  -0.0000000  -0.0000000  -0.0000000  -0.0000000  -0.0000000  -0.0000000  -0.0000000  -0.0000000  -0.0000000
 NQMom=    0.0000000   0.0000000   0.0000000   0.0000000   0.0000000   0.0000000   0.0000000   0.0000000   0.0000000   0.0000000
 NMagM=    2.7928460   2.7928460   2.7928460   2.7928460   2.7928460   2.7928460   2.7928460   2.7928460   2.7928460   2.7928460
 AtZNuc=   1.0000000   1.0000000   1.0000000   1.0000000   1.0000000   1.0000000   1.0000000   1.0000000   1.0000000   1.0000000
 Leave Link  101 at Tue Sep 15 07:39:16 2020, MaxMem=  2147483648 cpu:               1.3 elap:               0.3
 (Enter /prod/apps/gaussian/g16b1/l103.exe)

 GradGradGradGradGradGradGradGradGradGradGradGradGradGradGradGradGradGrad
 Berny optimization.
 Initialization pass.
                           ----------------------------
                           !    Initial Parameters    !
                           ! (Angstroms and Degrees)  !
 --------------------------                            --------------------------
 ! Name  Definition              Value          Derivative Info.                !
 --------------------------------------------------------------------------------
 ! R1    R(1,2)                  1.4728         estimate D2E/DX2                !
 ! R2    R(2,3)                  1.6641         estimate D2E/DX2                !
 ! R3    R(2,17)                 1.6846         estimate D2E/DX2                !
 ! R4    R(2,20)                 1.4709         estimate D2E/DX2                !
 ! R5    R(3,4)                  1.4725         estimate D2E/DX2                !
 ! R6    R(3,21)                 1.0221         estimate D2E/DX2                !
 ! R7    R(4,5)                  1.5509         estimate D2E/DX2                !
 ! R8    R(4,8)                  1.5464         estimate D2E/DX2                !
 ! R9    R(4,9)                  1.538          estimate D2E/DX2                !
 ! R10   R(5,6)                  1.8656         estimate D2E/DX2                !
 ! R11   R(5,22)                 1.09           estimate D2E/DX2                !
 ! R12   R(5,23)                 1.0896         estimate D2E/DX2                !
 ! R13   R(6,7)                  1.5268         estimate D2E/DX2                !
 ! R14   R(6,8)                  1.8701         estimate D2E/DX2                !
 ! R15   R(8,24)                 1.0889         estimate D2E/DX2                !
 ! R16   R(8,25)                 1.09           estimate D2E/DX2                !
 ! R17   R(9,10)                 1.5356         estimate D2E/DX2                !
 ! R18   R(9,26)                 1.0978         estimate D2E/DX2                !
 ! R19   R(9,27)                 1.0945         estimate D2E/DX2                !
 ! R20   R(10,11)                1.5125         estimate D2E/DX2                !
 ! R21   R(10,28)                1.0963         estimate D2E/DX2                !
 ! R22   R(10,29)                1.095          estimate D2E/DX2                !
 ! R23   R(11,12)                1.4019         estimate D2E/DX2                !
 ! R24   R(11,16)                1.4029         estimate D2E/DX2                !
 ! R25   R(12,13)                1.396          estimate D2E/DX2                !
 ! R26   R(12,30)                1.0872         estimate D2E/DX2                !
 ! R27   R(13,14)                1.3966         estimate D2E/DX2                !
 ! R28   R(13,31)                1.0849         estimate D2E/DX2                !
 ! R29   R(14,15)                1.3962         estimate D2E/DX2                !
 ! R30   R(14,32)                1.0855         estimate D2E/DX2                !
 ! R31   R(15,16)                1.3954         estimate D2E/DX2                !
 ! R32   R(15,33)                1.0857         estimate D2E/DX2                !
 ! R33   R(16,34)                1.0864         estimate D2E/DX2                !
 ! R34   R(17,18)                1.4722         estimate D2E/DX2                !
 ! R35   R(17,19)                1.4763         estimate D2E/DX2                !
 ! R36   R(18,35)                1.0891         estimate D2E/DX2                !
 ! R37   R(18,36)                1.0913         estimate D2E/DX2                !
 ! R38   R(18,37)                1.0966         estimate D2E/DX2                !
 ! R39   R(19,38)                1.0884         estimate D2E/DX2                !
 ! R40   R(19,39)                1.097          estimate D2E/DX2                !
 ! R41   R(19,40)                1.0921         estimate D2E/DX2                !
 ! A1    A(1,2,3)              105.3075         estimate D2E/DX2                !
 ! A2    A(1,2,17)             112.6951         estimate D2E/DX2                !
 ! A3    A(1,2,20)             118.2325         estimate D2E/DX2                !
 ! A4    A(3,2,17)             100.8487         estimate D2E/DX2                !
 ! A5    A(3,2,20)             112.7181         estimate D2E/DX2                !
 ! A6    A(17,2,20)            105.7853         estimate D2E/DX2                !
 ! A7    A(2,3,4)              123.403          estimate D2E/DX2                !
 ! A8    A(2,3,21)             108.7718         estimate D2E/DX2                !
 ! A9    A(4,3,21)             113.4576         estimate D2E/DX2                !
 ! A10   A(3,4,5)              117.6062         estimate D2E/DX2                !
 ! A11   A(3,4,8)              115.495          estimate D2E/DX2                !
 ! A12   A(3,4,9)              107.3153         estimate D2E/DX2                !
 ! A13   A(5,4,8)               94.961          estimate D2E/DX2                !
 ! A14   A(5,4,9)              109.5524         estimate D2E/DX2                !
 ! A15   A(8,4,9)              111.5497         estimate D2E/DX2                !
 ! A16   A(4,5,6)               91.9192         estimate D2E/DX2                !
 ! A17   A(4,5,22)             117.3139         estimate D2E/DX2                !
 ! A18   A(4,5,23)             113.3423         estimate D2E/DX2                !
 ! A19   A(6,5,22)             113.1317         estimate D2E/DX2                !
 ! A20   A(6,5,23)             108.0545         estimate D2E/DX2                !
 ! A21   A(22,5,23)            111.3562         estimate D2E/DX2                !
 ! A22   A(5,6,7)              109.7065         estimate D2E/DX2                !
 ! A23   A(5,6,8)               75.3371         estimate D2E/DX2                !
 ! A24   A(7,6,8)              109.7534         estimate D2E/DX2                !
 ! A25   A(4,8,6)               91.8949         estimate D2E/DX2                !
 ! A26   A(4,8,24)             117.5645         estimate D2E/DX2                !
 ! A27   A(4,8,25)             113.9554         estimate D2E/DX2                !
 ! A28   A(6,8,24)             113.4663         estimate D2E/DX2                !
 ! A29   A(6,8,25)             107.7976         estimate D2E/DX2                !
 ! A30   A(24,8,25)            110.571          estimate D2E/DX2                !
 ! A31   A(4,9,10)             114.8304         estimate D2E/DX2                !
 ! A32   A(4,9,26)             108.4629         estimate D2E/DX2                !
 ! A33   A(4,9,27)             106.6407         estimate D2E/DX2                !
 ! A34   A(10,9,26)            109.7464         estimate D2E/DX2                !
 ! A35   A(10,9,27)            110.142          estimate D2E/DX2                !
 ! A36   A(26,9,27)            106.668          estimate D2E/DX2                !
 ! A37   A(9,10,11)            112.0719         estimate D2E/DX2                !
 ! A38   A(9,10,28)            109.2374         estimate D2E/DX2                !
 ! A39   A(9,10,29)            108.9973         estimate D2E/DX2                !
 ! A40   A(11,10,28)           109.4769         estimate D2E/DX2                !
 ! A41   A(11,10,29)           109.9717         estimate D2E/DX2                !
 ! A42   A(28,10,29)           106.948          estimate D2E/DX2                !
 ! A43   A(10,11,12)           120.903          estimate D2E/DX2                !
 ! A44   A(10,11,16)           120.7598         estimate D2E/DX2                !
 ! A45   A(12,11,16)           118.325          estimate D2E/DX2                !
 ! A46   A(11,12,13)           120.9485         estimate D2E/DX2                !
 ! A47   A(11,12,30)           119.2924         estimate D2E/DX2                !
 ! A48   A(13,12,30)           119.7587         estimate D2E/DX2                !
 ! A49   A(12,13,14)           120.1024         estimate D2E/DX2                !
 ! A50   A(12,13,31)           119.7226         estimate D2E/DX2                !
 ! A51   A(14,13,31)           120.1744         estimate D2E/DX2                !
 ! A52   A(13,14,15)           119.5603         estimate D2E/DX2                !
 ! A53   A(13,14,32)           120.176          estimate D2E/DX2                !
 ! A54   A(15,14,32)           120.2629         estimate D2E/DX2                !
 ! A55   A(14,15,16)           120.1343         estimate D2E/DX2                !
 ! A56   A(14,15,33)           120.1222         estimate D2E/DX2                !
 ! A57   A(16,15,33)           119.7426         estimate D2E/DX2                !
 ! A58   A(11,16,15)           120.9293         estimate D2E/DX2                !
 ! A59   A(11,16,34)           119.2319         estimate D2E/DX2                !
 ! A60   A(15,16,34)           119.8386         estimate D2E/DX2                !
 ! A61   A(2,17,18)            113.4008         estimate D2E/DX2                !
 ! A62   A(2,17,19)            113.6043         estimate D2E/DX2                !
 ! A63   A(18,17,19)           113.0765         estimate D2E/DX2                !
 ! A64   A(17,18,35)           109.2398         estimate D2E/DX2                !
 ! A65   A(17,18,36)           107.484          estimate D2E/DX2                !
 ! A66   A(17,18,37)           112.3967         estimate D2E/DX2                !
 ! A67   A(35,18,36)           108.9063         estimate D2E/DX2                !
 ! A68   A(35,18,37)           109.7182         estimate D2E/DX2                !
 ! A69   A(36,18,37)           109.0161         estimate D2E/DX2                !
 ! A70   A(17,19,38)           109.512          estimate D2E/DX2                !
 ! A71   A(17,19,39)           112.4595         estimate D2E/DX2                !
 ! A72   A(17,19,40)           107.0199         estimate D2E/DX2                !
 ! A73   A(38,19,39)           109.674          estimate D2E/DX2                !
 ! A74   A(38,19,40)           109.2124         estimate D2E/DX2                !
 ! A75   A(39,19,40)           108.8849         estimate D2E/DX2                !
 ! D1    D(1,2,3,4)           -154.8377         estimate D2E/DX2                !
 ! D2    D(1,2,3,21)           -18.1389         estimate D2E/DX2                !
 ! D3    D(17,2,3,4)            87.7912         estimate D2E/DX2                !
 ! D4    D(17,2,3,21)         -135.5101         estimate D2E/DX2                !
 ! D5    D(20,2,3,4)           -24.5745         estimate D2E/DX2                !
 ! D6    D(20,2,3,21)          112.1242         estimate D2E/DX2                !
 ! D7    D(1,2,17,18)          -46.7079         estimate D2E/DX2                !
 ! D8    D(1,2,17,19)           84.226          estimate D2E/DX2                !
 ! D9    D(3,2,17,18)           65.1008         estimate D2E/DX2                !
 ! D10   D(3,2,17,19)         -163.9652         estimate D2E/DX2                !
 ! D11   D(20,2,17,18)        -177.3305         estimate D2E/DX2                !
 ! D12   D(20,2,17,19)         -46.3965         estimate D2E/DX2                !
 ! D13   D(2,3,4,5)             61.7639         estimate D2E/DX2                !
 ! D14   D(2,3,4,8)            -49.1817         estimate D2E/DX2                !
 ! D15   D(2,3,4,9)           -174.2757         estimate D2E/DX2                !
 ! D16   D(21,3,4,5)           -73.1755         estimate D2E/DX2                !
 ! D17   D(21,3,4,8)           175.8788         estimate D2E/DX2                !
 ! D18   D(21,3,4,9)            50.7849         estimate D2E/DX2                !
 ! D19   D(3,4,5,6)           -142.008          estimate D2E/DX2                !
 ! D20   D(3,4,5,22)           100.6244         estimate D2E/DX2                !
 ! D21   D(3,4,5,23)           -31.3862         estimate D2E/DX2                !
 ! D22   D(8,4,5,6)            -19.8031         estimate D2E/DX2                !
 ! D23   D(8,4,5,22)          -137.1706         estimate D2E/DX2                !
 ! D24   D(8,4,5,23)            90.8188         estimate D2E/DX2                !
 ! D25   D(9,4,5,6)             95.1628         estimate D2E/DX2                !
 ! D26   D(9,4,5,22)           -22.2048         estimate D2E/DX2                !
 ! D27   D(9,4,5,23)          -154.2154         estimate D2E/DX2                !
 ! D28   D(3,4,8,6)            143.5821         estimate D2E/DX2                !
 ! D29   D(3,4,8,24)           -98.5967         estimate D2E/DX2                !
 ! D30   D(3,4,8,25)            33.1347         estimate D2E/DX2                !
 ! D31   D(5,4,8,6)             19.7537         estimate D2E/DX2                !
 ! D32   D(5,4,8,24)           137.5748         estimate D2E/DX2                !
 ! D33   D(5,4,8,25)           -90.6937         estimate D2E/DX2                !
 ! D34   D(9,4,8,6)            -93.5406         estimate D2E/DX2                !
 ! D35   D(9,4,8,24)            24.2806         estimate D2E/DX2                !
 ! D36   D(9,4,8,25)           156.0121         estimate D2E/DX2                !
 ! D37   D(3,4,9,10)            58.6412         estimate D2E/DX2                !
 ! D38   D(3,4,9,26)           -64.5175         estimate D2E/DX2                !
 ! D39   D(3,4,9,27)          -179.0619         estimate D2E/DX2                !
 ! D40   D(5,4,9,10)          -172.6169         estimate D2E/DX2                !
 ! D41   D(5,4,9,26)            64.2244         estimate D2E/DX2                !
 ! D42   D(5,4,9,27)           -50.3201         estimate D2E/DX2                !
 ! D43   D(8,4,9,10)           -68.7942         estimate D2E/DX2                !
 ! D44   D(8,4,9,26)           168.0471         estimate D2E/DX2                !
 ! D45   D(8,4,9,27)            53.5027         estimate D2E/DX2                !
 ! D46   D(4,5,6,7)            -89.3352         estimate D2E/DX2                !
 ! D47   D(4,5,6,8)             16.7678         estimate D2E/DX2                !
 ! D48   D(22,5,6,7)            31.5672         estimate D2E/DX2                !
 ! D49   D(22,5,6,8)           137.6701         estimate D2E/DX2                !
 ! D50   D(23,5,6,7)           155.3305         estimate D2E/DX2                !
 ! D51   D(23,5,6,8)           -98.5666         estimate D2E/DX2                !
 ! D52   D(5,6,8,4)            -16.8183         estimate D2E/DX2                !
 ! D53   D(5,6,8,24)          -138.0907         estimate D2E/DX2                !
 ! D54   D(5,6,8,25)            99.1127         estimate D2E/DX2                !
 ! D55   D(7,6,8,4)             89.2263         estimate D2E/DX2                !
 ! D56   D(7,6,8,24)           -32.0461         estimate D2E/DX2                !
 ! D57   D(7,6,8,25)          -154.8427         estimate D2E/DX2                !
 ! D58   D(4,9,10,11)          177.2347         estimate D2E/DX2                !
 ! D59   D(4,9,10,28)           55.7295         estimate D2E/DX2                !
 ! D60   D(4,9,10,29)          -60.8006         estimate D2E/DX2                !
 ! D61   D(26,9,10,11)         -60.2961         estimate D2E/DX2                !
 ! D62   D(26,9,10,28)         178.1988         estimate D2E/DX2                !
 ! D63   D(26,9,10,29)          61.6686         estimate D2E/DX2                !
 ! D64   D(27,9,10,11)          56.8498         estimate D2E/DX2                !
 ! D65   D(27,9,10,28)         -64.6553         estimate D2E/DX2                !
 ! D66   D(27,9,10,29)         178.8146         estimate D2E/DX2                !
 ! D67   D(9,10,11,12)          88.7401         estimate D2E/DX2                !
 ! D68   D(9,10,11,16)         -89.969          estimate D2E/DX2                !
 ! D69   D(28,10,11,12)       -149.8924         estimate D2E/DX2                !
 ! D70   D(28,10,11,16)         31.3985         estimate D2E/DX2                !
 ! D71   D(29,10,11,12)        -32.6661         estimate D2E/DX2                !
 ! D72   D(29,10,11,16)        148.6248         estimate D2E/DX2                !
 ! D73   D(10,11,12,13)       -178.5719         estimate D2E/DX2                !
 ! D74   D(10,11,12,30)          1.6788         estimate D2E/DX2                !
 ! D75   D(16,11,12,13)          0.1679         estimate D2E/DX2                !
 ! D76   D(16,11,12,30)       -179.5814         estimate D2E/DX2                !
 ! D77   D(10,11,16,15)        178.596          estimate D2E/DX2                !
 ! D78   D(10,11,16,34)         -1.5729         estimate D2E/DX2                !
 ! D79   D(12,11,16,15)         -0.1457         estimate D2E/DX2                !
 ! D80   D(12,11,16,34)        179.6853         estimate D2E/DX2                !
 ! D81   D(11,12,13,14)         -0.082          estimate D2E/DX2                !
 ! D82   D(11,12,13,31)       -179.8066         estimate D2E/DX2                !
 ! D83   D(30,12,13,14)        179.6662         estimate D2E/DX2                !
 ! D84   D(30,12,13,31)         -0.0584         estimate D2E/DX2                !
 ! D85   D(12,13,14,15)         -0.0301         estimate D2E/DX2                !
 ! D86   D(12,13,14,32)       -179.7017         estimate D2E/DX2                !
 ! D87   D(31,13,14,15)        179.6932         estimate D2E/DX2                !
 ! D88   D(31,13,14,32)          0.0216         estimate D2E/DX2                !
 ! D89   D(13,14,15,16)          0.0521         estimate D2E/DX2                !
 ! D90   D(13,14,15,33)       -179.6097         estimate D2E/DX2                !
 ! D91   D(32,14,15,16)        179.7234         estimate D2E/DX2                !
 ! D92   D(32,14,15,33)          0.0616         estimate D2E/DX2                !
 ! D93   D(14,15,16,11)          0.0374         estimate D2E/DX2                !
 ! D94   D(14,15,16,34)       -179.7926         estimate D2E/DX2                !
 ! D95   D(33,15,16,11)        179.7005         estimate D2E/DX2                !
 ! D96   D(33,15,16,34)         -0.1295         estimate D2E/DX2                !
 ! D97   D(2,17,18,35)         -49.9807         estimate D2E/DX2                !
 ! D98   D(2,17,18,36)        -167.9988         estimate D2E/DX2                !
 ! D99   D(2,17,18,37)          72.0477         estimate D2E/DX2                !
 ! D100  D(19,17,18,35)        178.824          estimate D2E/DX2                !
 ! D101  D(19,17,18,36)         60.8059         estimate D2E/DX2                !
 ! D102  D(19,17,18,37)        -59.1476         estimate D2E/DX2                !
 ! D103  D(2,17,19,38)          50.7287         estimate D2E/DX2                !
 ! D104  D(2,17,19,39)         -71.4784         estimate D2E/DX2                !
 ! D105  D(2,17,19,40)         168.9957         estimate D2E/DX2                !
 ! D106  D(18,17,19,38)       -178.1773         estimate D2E/DX2                !
 ! D107  D(18,17,19,39)         59.6157         estimate D2E/DX2                !
 ! D108  D(18,17,19,40)        -59.9102         estimate D2E/DX2                !
 --------------------------------------------------------------------------------
 Trust Radius=3.00D-01 FncErr=1.00D-07 GrdErr=1.00D-06 EigMax=2.50D+02 EigMin=1.00D-04
 Number of steps in this run=    234 maximum allowed number of steps=    240.
 GradGradGradGradGradGradGradGradGradGradGradGradGradGradGradGradGradGrad

 Leave Link  103 at Tue Sep 15 07:39:16 2020, MaxMem=  2147483648 cpu:               0.0 elap:               0.0
 (Enter /prod/apps/gaussian/g16b1/l202.exe)
                          Input orientation:                          
 ---------------------------------------------------------------------
 Center     Atomic      Atomic             Coordinates (Angstroms)
 Number     Number       Type             X           Y           Z
 ---------------------------------------------------------------------
      1          8           0        3.089000   -1.908000   -1.537000
      2         16           0        2.770000   -0.814000   -0.604000
      3          7           0        1.131000   -0.570000   -0.757000
      4          6           0        0.470000    0.710000   -0.452000
      5          6           0        0.882000    1.949000   -1.289000
      6         16           0        0.772000    3.069000    0.199000
      7          8           0       -0.645000    3.624000    0.322000
      8          6           0        0.838000    1.341000    0.911000
      9          6           0       -1.046000    0.484000   -0.579000
     10          6           0       -1.615000   -0.605000    0.342000
     11          6           0       -3.117000   -0.729000    0.215000
     12          6           0       -3.691000   -1.582000   -0.738000
     13          6           0       -5.077000   -1.675000   -0.876000
     14          6           0       -5.915000   -0.914000   -0.058000
     15          6           0       -5.357000   -0.062000    0.897000
     16          6           0       -3.971000    0.028000    1.031000
     17          7           0        2.871000   -1.286000    1.010000
     18          6           0        2.199000   -2.566000    1.288000
     19          6           0        4.239000   -1.219000    1.561000
     20          8           0        3.542000    0.434000   -0.705000
     21          1           0        0.816000   -0.992000   -1.633000
     22          1           0        0.218000    2.248000   -2.100000
     23          1           0        1.921000    1.923000   -1.616000
     24          1           0        0.149000    1.187000    1.740000
     25          1           0        1.864000    1.149000    1.225000
     26          1           0       -1.275000    0.242000   -1.625000
     27          1           0       -1.525000    1.445000   -0.367000
     28          1           0       -1.354000   -0.372000    1.381000
     29          1           0       -1.139000   -1.561000    0.100000
     30          1           0       -3.044000   -2.181000   -1.374000
     31          1           0       -5.500000   -2.344000   -1.618000
     32          1           0       -6.993000   -0.989000   -0.161000
     33          1           0       -6.000000    0.529000    1.542000
     34          1           0       -3.542000    0.690000    1.778000
     35          1           0        1.192000   -2.540000    0.874000
     36          1           0        2.133000   -2.673000    2.372000
     37          1           0        2.746000   -3.423000    0.877000
     38          1           0        4.668000   -0.241000    1.351000
     39          1           0        4.892000   -2.003000    1.158000
     40          1           0        4.155000   -1.350000    2.642000
 ---------------------------------------------------------------------
                    Distance matrix (angstroms):
                    1          2          3          4          5
     1  O    0.000000
     2  S    1.472782   0.000000
     3  N    2.496479   1.664111   0.000000
     4  C    3.858796   2.763273   1.472530   0.000000
     5  C    4.450708   3.415836   2.586578   1.550946   0.000000
     6  S    5.757839   4.440102   3.779568   2.465742   1.865648
     7  O    6.928323   5.675874   4.680604   3.214607   2.780769
     8  C    4.649269   3.266783   2.553428   1.546400   2.282893
     9  C    4.872130   4.030792   2.425269   1.538006   2.523392
    10  C    5.230303   4.490748   2.957962   2.589766   3.926587
    11  C    6.555454   5.944304   4.360684   3.922012   5.042390
    12  C    6.834697   6.507865   4.927087   4.759095   5.803782
    13  C    8.196021   7.898779   6.306699   6.052868   6.986675
    14  C    9.178643   8.702720   7.088939   6.600063   7.477389
    15  C    8.981480   8.298592   6.714754   6.030731   6.909981
    16  C    7.757984   6.987365   5.439205   4.731479   5.711764
    17  N    2.630897   1.684631   2.581191   3.447646   4.439228
    18  C    3.034088   2.641062   3.050683   4.092581   5.362895
    19  C    3.375622   2.647491   3.931156   4.688131   5.424774
    20  O    2.526341   1.470948   2.612210   3.094732   3.116389
    21  H    2.452509   2.215545   1.022098   2.100305   2.961785
    22  H    5.082514   4.257530   3.252436   2.268227   1.089962
    23  H    4.005874   3.039098   2.752641   2.220735   1.089553
    24  H    5.381575   4.045736   3.207239   2.266150   3.208235
    25  H    4.298199   2.831863   2.724073   2.224474   2.815052
    26  H    4.865670   4.303441   2.683580   2.154061   2.771172
    27  H    5.822414   4.858629   3.356585   2.127786   2.626357
    28  H    5.533016   4.598148   3.284124   2.803139   4.185169
    29  H    4.547105   4.041523   2.620960   2.837433   4.281806
    30  H    6.141237   6.021975   4.517370   4.642861   5.698912
    31  H    8.600441   8.471245   6.917988   6.806421   7.698572
    32  H   10.216881   9.774612   8.156602   7.659481   8.480557
    33  H    9.900966   9.128081   7.572606   6.772717   7.575809
    34  H    7.855507   6.912111   5.463584   4.590146   5.528413
    35  H    3.132244   2.766522   2.558277   3.583582   4.992573
    36  H    4.096272   3.566262   3.900930   4.710120   6.027504
    37  H    2.870587   3.000136   3.663030   4.901847   6.084771
    38  H    3.689536   2.784377   4.130651   4.666735   5.108767
    39  H    3.243896   3.003539   4.457111   5.431993   6.138910
    40  H    4.348765   3.569599   4.615861   5.234086   6.086764
                    6          7          8          9         10
     6  S    0.000000
     7  O    1.526775   0.000000
     8  C    1.870103   2.785372   0.000000
     9  C    3.254633   3.291231   2.550295   0.000000
    10  C    4.383662   4.338864   3.182434   1.535553   0.000000
    11  C    5.435934   5.007079   4.517891   2.528012   1.512451
    12  C    6.513689   6.124063   5.636929   3.360009   2.535883
    13  C    7.607362   7.011222   6.875816   4.582407   3.822809
    14  C    7.787574   6.964965   7.185193   5.092446   4.329605
    15  C    6.917731   6.010005   6.351900   4.589272   3.821706
    16  C    5.695257   4.949361   4.986467   3.369816   2.534984
    17  N    4.901994   6.078133   3.323254   4.582653   4.586304
    18  C    5.914007   6.880232   4.154407   4.828894   4.391700
    19  C    5.679972   6.988793   4.306147   5.950717   6.011013
    20  O    3.928529   5.363003   3.278067   4.590002   5.363803
    21  H    4.455321   5.221494   3.451856   2.599334   3.155971
    22  H    2.503269   2.916201   3.205179   2.650063   4.178859
    23  H    2.434695   3.637802   2.810221   3.456758   4.767373
    24  H    2.510923   2.929186   1.088888   2.701850   2.877041
    25  H    2.435475   3.638147   1.090017   3.487799   3.994953
    26  H    3.938161   3.952927   3.479061   1.097780   2.168432
    27  H    2.869484   2.448910   2.688470   1.094489   2.171009
    28  H    4.213963   4.194303   2.821371   2.160833   1.096326
    29  H    5.009852   5.213209   3.603867   2.156783   1.095023
    30  H    6.678225   6.506123   5.718010   3.424362   2.733217
    31  H    8.481748   7.934208   7.755341   5.377288   4.686037
    32  H    8.768819   7.861944   8.240306   6.140950   5.415104
    33  H    7.356306   6.304241   6.914893   5.389136   4.685529
    34  H    5.173343   4.372745   4.512193   3.439172   2.729918
    35  H    5.665060   6.455553   3.897287   4.032918   3.450579
    36  H    6.288467   7.181364   4.463602   5.364801   4.737618
    37  H    6.819269   7.840097   5.131989   5.635943   5.219738
    38  H    5.240422   6.650191   4.167160   6.074563   6.373905
    39  H    6.604488   7.938539   5.261013   6.667997   6.705319
    40  H    6.077870   7.291301   4.608723   6.386611   6.256031
                   11         12         13         14         15
    11  C    0.000000
    12  C    1.401889   0.000000
    13  C    2.434501   1.395955   0.000000
    14  C    2.817367   2.419669   1.396599   0.000000
    15  C    2.434669   2.785531   2.413234   1.396171   0.000000
    16  C    1.402933   2.408290   2.785695   2.419178   1.395368
    17  N    6.066170   6.797276   8.177959   8.858488   8.319311
    18  C    5.725885   6.305952   7.643098   8.389149   7.969695
    19  C    7.494168   8.264507   9.640268  10.286783   9.688280
    20  O    6.822115   7.508770   8.874924   9.574475   9.055640
    21  H    4.353477   4.632729   5.980551   6.913253   6.735854
    22  H    5.034280   5.639523   6.702621   7.195950   6.737858
    23  H    5.980561   6.674613   7.903493   8.478138   7.951395
    24  H    4.082087   5.343542   6.507348   6.664766   5.708475
    25  H    5.418242   6.493824   7.782458   8.149534   7.329185
    26  H    2.778742   3.154489   4.323320   5.032040   4.807871
    27  H    2.756713   3.740578   4.755017   4.993242   4.307316
    28  H    2.143636   3.378732   4.544512   4.813232   4.044053
    29  H    2.148938   2.686148   4.058746   4.822214   4.546838
    30  H    2.153730   1.087155   2.153399   3.402908   3.872670
    31  H    3.412741   2.151168   1.084921   2.156554   3.399000
    32  H    3.902865   3.404083   2.157053   1.085504   2.157589
    33  H    3.413969   3.871202   3.399451   2.156264   1.085705
    34  H    2.153405   3.393294   3.872101   3.402182   2.153112
    35  H    4.720327   5.230678   6.565903   7.349963   7.002172
    36  H    5.999524   6.691887   7.970546   8.588905   8.068026
    37  H    6.486189   6.887124   8.205354   9.065441   8.772419
    38  H    7.882567   8.719810  10.098560  10.697574  10.036871
    39  H    8.164337   8.799997  10.179671  10.929585  10.434443
    40  H    7.691421   8.546224   9.884927  10.434797   9.756132
                   16         17         18         19         20
    16  C    0.000000
    17  N    6.967065   0.000000
    18  C    6.698043   1.472164   0.000000
    19  C    8.321058   1.476318   2.459784   0.000000
    20  O    7.721638   2.519894   3.843917   2.890151   0.000000
    21  H    5.572492   3.360790   3.594775   4.687227   3.213368
    22  H    5.681486   5.403671   6.211079   6.449143   4.035542
    23  H    6.731515   4.253946   5.353655   5.033748   2.382159
    24  H    4.338244   3.749388   4.300211   4.748576   4.249410
    25  H    5.944872   2.643766   3.730606   3.370600   2.655524
    26  H    3.790587   5.144640   5.332833   6.533706   4.907826
    27  H    3.153603   5.355306   5.717982   6.636096   5.177920
    28  H    2.670429   4.338624   4.176852   5.659634   5.382550
    29  H    3.378151   4.121144   3.682881   5.583401   5.151680
    30  H    3.394560   6.439853   5.892666   7.910863   7.117667
    31  H    3.870585   8.837386   8.232176  10.306298   9.503085
    32  H    3.404062   9.937703   9.438188  11.365562  10.644580
    33  H    2.151502   9.070385   8.767391  10.387155   9.803458
    34  H    1.086413   6.754330   6.618211   8.014695   7.510917
    35  H    5.768522   2.100013   1.089092   3.391345   4.106144
    36  H    6.808267   2.079292   1.091266   2.684599   4.594198
    37  H    7.553225   2.144780   1.096622   2.748549   4.244148
    38  H    8.649109   2.106541   3.391984   1.088405   2.439393
    39  H    9.093616   2.149519   2.754291   1.097030   3.351453
    40  H    8.397981   2.077541   2.671686   1.092144   3.841983
                   21         22         23         24         25
    21  H    0.000000
    22  H    3.327656   0.000000
    23  H    3.117457   1.800025   0.000000
    24  H    4.070634   3.984480   3.865801   0.000000
    25  H    3.721606   3.869463   2.945099   1.791059   0.000000
    26  H    2.427983   2.545331   3.611130   3.774126   4.335720
    27  H    3.608602   2.585758   3.696404   2.703385   3.755982
    28  H    3.765302   4.631732   4.997465   2.195079   3.562766
    29  H    2.673775   4.603252   4.944341   3.449645   4.198540
    30  H    4.047271   5.548312   6.446131   5.588888   6.475505
    31  H    6.459101   7.349443   8.560288   7.460250   8.632045
    32  H    7.946526   8.138575   9.489793   7.704346   9.216208
    33  H    7.671501   7.408282   8.640512   6.187275   7.894769
    34  H    5.784134   5.621730   6.548580   3.724505   5.453561
    35  H    2.970308   5.719991   5.162355   3.965896   3.766100
    36  H    4.538753   6.919700   6.088703   4.385804   3.999457
    37  H    3.991837   6.885750   5.956122   5.361089   4.669284
    38  H    4.930128   6.156868   4.586065   4.755194   3.132155
    39  H    5.042378   7.108575   5.651141   5.745509   4.371313
    40  H    5.436240   7.136675   5.816687   4.826801   3.674448
                   26         27         28         29         30
    26  H    0.000000
    27  H    1.758486   0.000000
    28  H    3.069083   2.527100   0.000000
    29  H    2.498986   3.066451   1.760939   0.000000
    30  H    3.010530   4.058237   3.703864   2.487187   0.000000
    31  H    4.953592   5.632242   5.483804   4.752150   2.473467
    32  H    6.029443   5.988808   5.878501   5.887667   4.299632
    33  H    5.695426   4.950653   4.735297   5.484231   4.958336
    34  H    4.113442   3.039628   2.464305   3.695551   4.292522
    35  H    4.480024   4.980200   3.382217   2.644065   4.808958
    36  H    6.007304   6.151505   4.293699   4.135760   6.409049
    37  H    5.988378   6.594422   5.135428   4.377670   6.335114
    38  H    6.664016   6.644349   6.023499   6.085117   8.406198
    39  H    7.128605   7.442595   6.459288   6.139030   8.332035
    40  H    7.087076   7.009173   5.735476   5.876455   8.285193
                   31         32         33         34         35
    31  H    0.000000
    32  H    2.487554   0.000000
    33  H    4.299968   2.488088   0.000000
    34  H    4.956989   4.299786   2.474547   0.000000
    35  H    7.143623   8.394704   7.847920   5.801799   0.000000
    36  H    8.619224   9.619554   8.779943   6.623310   1.774028
    37  H    8.682499  10.092072   9.620449   7.567530   1.787348
    38  H   10.799342  11.782384  10.697458   8.273644   4.194700
    39  H   10.761790  12.000883  11.189019   8.875190   3.749537
    40  H   10.599748  11.500654  10.385792   8.009488   3.649835
                   36         37         38         39         40
    36  H    0.000000
    37  H    1.781374   0.000000
    38  H    3.658318   3.747517   0.000000
    39  H    3.087843   2.588567   1.786636   0.000000
    40  H    2.431401   3.065589   1.777563   1.780964   0.000000
 Symmetry turned off by external request.
 Stoichiometry    C13H20N2O3S2
 Framework group  C1[X(C13H20N2O3S2)]
 Deg. of freedom   114
 Full point group                 C1      NOp   1
 Rotational constants (GHZ):           0.4233706           0.1617881           0.1326842
 Leave Link  202 at Tue Sep 15 07:39:16 2020, MaxMem=  2147483648 cpu:               0.0 elap:               0.0
 (Enter /prod/apps/gaussian/g16b1/l301.exe)
 Standard basis: 6-31G(d) (6D, 7F)
 Ernie: Thresh=  0.10000D-02 Tol=  0.10000D-05 Strict=F.
   348 basis functions,   688 primitive gaussians,   348 cartesian basis functions
    84 alpha electrons       84 beta electrons
       nuclear repulsion energy      1972.5205408668 Hartrees.
 IExCor=  402 DFT=T Ex+Corr=B3LYP ExCW=0 ScaHFX=  0.200000
 ScaDFX=  0.800000  0.720000  1.000000  0.810000 ScalE2=  1.000000  1.000000
 IRadAn=      5 IRanWt=     -1 IRanGd=            0 ICorTp=0 IEmpDi=  4
 NAtoms=   40 NActive=   40 NUniq=   40 SFac= 1.00D+00 NAtFMM=   60 NAOKFM=F Big=F
 Integral buffers will be    131072 words long.
 Raffenetti 2 integral format.
 Two-electron integral symmetry is turned off.
 Using the following non-standard input for PCM:
 MSTModel=DFT cav
 --- end of non-standard input.
 MST model for solvation energy: B3LYP parametrization.
 MST cavity parameters:
 ISph   IAn     Re0     Alpha   Atom Type   QCorr
 ------------------------------------------------
   1      8     1.40     1.25      O          F
   2     16     1.75     1.25      S          F
   3      7     1.50     1.25      NH         F
   4      6     1.50     1.25      C          F
   5      6     1.50     1.25      CH2        F
   6     16     1.75     1.25      S          F
   7      8     1.40     1.25      O          F
   8      6     1.50     1.25      CH2        F
   9      6     1.50     1.25      CH2        F
  10      6     1.50     1.25      CH2        F
  11      6     1.50     1.25      C          F
  12      6     1.50     1.25      CH         F
  13      6     1.50     1.25      CH         F
  14      6     1.50     1.25      CH         F
  15      6     1.50     1.25      CH         F
  16      6     1.50     1.25      CH         F
  17      7     1.40     1.25      N          F
  18      6     1.50     1.25      CH3        F
  19      6     1.50     1.25      CH3        F
  20      8     1.40     1.25      O          F
  21      1     0.90     1.25      NH         F
  22      1     1.20     1.25      CH2        F
  23      1     1.20     1.25      CH2        F
  24      1     1.20     1.25      CH2        F
  25      1     1.20     1.25      CH2        F
  26      1     1.20     1.25      CH2        F
  27      1     1.20     1.25      CH2        F
  28      1     1.20     1.25      CH2        F
  29      1     1.20     1.25      CH2        F
  30      1     1.20     1.25      CH         F
  31      1     1.20     1.25      CH         F
  32      1     1.20     1.25      CH         F
  33      1     1.20     1.25      CH         F
  34      1     1.20     1.25      CH         F
  35      1     1.20     1.25      CH3        F
  36      1     1.20     1.25      CH3        F
  37      1     1.20     1.25      CH3        F
  38      1     1.20     1.25      CH3        F
  39      1     1.20     1.25      CH3        F
  40      1     1.20     1.25      CH3        F
 ------------------------------------------------------------------------------
 Polarizable Continuum Model (PCM)
 =================================
 Model                : PCM.
 Atomic radii         : MST.
 Polarization charges : Total charges.
 Charge compensation  : None.
 Solution method      : On-the-fly selection.
 Cavity type          : Scaled VdW (van der Waals Surface) (Alpha=1.250).
 Cavity algorithm     : GePol (No added spheres)
                        Default sphere list used, NSphG=   40.
                        Lebedev-Laikov grids with approx.  5.0 points / Ang**2.
                        Smoothing algorithm: York/Karplus (Gamma=1.0000).
                        Polarization charges: spherical gaussians, with
                                              point-specific exponents (IZeta= 3).
                        Self-potential: point-specific (ISelfS= 7).
                        Self-field    : sphere-specific E.n sum rule (ISelfD= 2).
 1st derivatives      : Analytical E(r).r(x)/FMM algorithm (CHGder, D1EAlg=3).
                        Cavity 1st derivative terms included.
 Solvent              : Water, Eps=  78.355300 Eps(inf)=   1.777849
 ------------------------------------------------------------------------------
 GePol: Number of generator spheres                  =      40
 GePol: Total number of spheres                      =      40
 GePol: Number of exposed spheres                    =      40 (100.00%)
 GePol: Number of points                             =    2746
 GePol: Average weight of points                     =       0.13
 GePol: Minimum weight of points                     =   0.11D-09
 GePol: Maximum weight of points                     =    0.22001
 GePol: Number of points with low weight             =     187
 GePol: Fraction of low-weight points (<1% of avg)   =       6.81%
 GePol: Cavity surface area                          =    368.741 Ang**2
 GePol: Cavity volume                                =    367.369 Ang**3
 PCM non-electrostatic energy =         0.0031114659 Hartrees.
 Nuclear repulsion after PCM non-electrostatic terms =     1972.5236523328 Hartrees.
 Leave Link  301 at Tue Sep 15 07:39:16 2020, MaxMem=  2147483648 cpu:               0.3 elap:               0.1
 (Enter /prod/apps/gaussian/g16b1/l302.exe)
 NPDir=0 NMtPBC=     1 NCelOv=     1 NCel=       1 NClECP=     1 NCelD=      1
         NCelK=      1 NCelE2=     1 NClLst=     1 CellRange=     0.0.
 One-electron integrals computed using PRISM.
 NBasis=   348 RedAO= T EigKep=  4.67D-04  NBF=   348
 NBsUse=   348 1.00D-06 EigRej= -1.00D+00 NBFU=   348
 Precomputing XC quadrature grid using
 IXCGrd= 4 IRadAn=           5 IRanWt=          -1 IRanGd=           0 AccXCQ= 0.00D+00.
 Generated NRdTot=       0 NPtTot=           0 NUsed=           0 NTot=          32
 NSgBfM=   346   345   346   346   346 MxSgAt=    40 MxSgA2=    40.
 Leave Link  302 at Tue Sep 15 07:39:16 2020, MaxMem=  2147483648 cpu:               2.3 elap:               0.6
 (Enter /prod/apps/gaussian/g16b1/l303.exe)
 DipDrv:  MaxL=1.
 Leave Link  303 at Tue Sep 15 07:39:17 2020, MaxMem=  2147483648 cpu:               0.2 elap:               0.1
 (Enter /prod/apps/gaussian/g16b1/l401.exe)
 ExpMin= 1.17D-01 ExpMax= 2.19D+04 ExpMxC= 3.30D+03 IAcc=3 IRadAn=         5 AccDes= 0.00D+00
 Harris functional with IExCor=  402 and IRadAn=       5 diagonalized for initial guess.
 HarFok:  IExCor=  402 AccDes= 0.00D+00 IRadAn=         5 IDoV= 1 UseB2=F ITyADJ=14
 ICtDFT=  3500011 ScaDFX=  1.000000  1.000000  1.000000  1.000000
 FoFCou: FMM=F IPFlag=           0 FMFlag=      100000 FMFlg1=           0
         NFxFlg=           0 DoJE=T BraDBF=F KetDBF=T FulRan=T
         wScrn=  0.000000 ICntrl=       500 IOpCl=  0 I1Cent=   200000004 NGrid=           0
         NMat0=    1 NMatS0=      1 NMatT0=    0 NMatD0=    1 NMtDS0=    0 NMtDT0=    0
 Symmetry not used in FoFCou.
 Harris En= -1638.90296916593    
 JPrj=0 DoOrth=F DoCkMO=F.
 Leave Link  401 at Tue Sep 15 07:39:20 2020, MaxMem=  2147483648 cpu:              12.3 elap:               3.1
 (Enter /prod/apps/gaussian/g16b1/l502.exe)
 Two-electron integral symmetry not used.
 Closed shell SCF:
 Using DIIS extrapolation, IDIIS=  1040.
 NGot=  2147483648 LenX=  2147236206 LenY=  2147114661
 Requested convergence on RMS density matrix=1.00D-08 within2000 cycles.
 Requested convergence on MAX density matrix=1.00D-06.
 Requested convergence on             energy=1.00D-06.
 No special actions if energy rises.

 Cycle   1  Pass 1  IDiag  1:
 FoFJK:  IHMeth= 1 ICntrl=       0 DoSepK=F KAlg= 0 I1Cent=           0 FoldK=F
 IRaf= 780000000 NMat=       1 IRICut=       1 DoRegI=T DoRafI=F ISym2E= 0 IDoP0=0 IntGTp=1.
 FoFCou: FMM=F IPFlag=           0 FMFlag=      100000 FMFlg1=           0
         NFxFlg=           0 DoJE=F BraDBF=F KetDBF=F FulRan=T
         wScrn=  0.000000 ICntrl=         0 IOpCl=  0 I1Cent=           0 NGrid=           0
         NMat0=    1 NMatS0=      1 NMatT0=    0 NMatD0=    1 NMtDS0=    0 NMtDT0=    0
 Symmetry not used in FoFCou.
 Inv3:  Mode=1 IEnd=    22621548.
 Iteration    1 A*A^-1 deviation from unit magnitude is 3.55D-15 for    383.
 Iteration    1 A*A^-1 deviation from orthogonality  is 3.21D-15 for   1932    384.
 Iteration    1 A^-1*A deviation from unit magnitude is 3.11D-15 for     31.
 Iteration    1 A^-1*A deviation from orthogonality  is 2.78D-14 for   2303   2264.
 E= -1638.10410518101    
 DIIS: error= 3.93D-02 at cycle   1 NSaved=   1.
 NSaved= 1 IEnMin= 1 EnMin= -1638.10410518101     IErMin= 1 ErrMin= 3.93D-02
 ErrMax= 3.93D-02  0.00D+00 EMaxC= 1.00D-01 BMatC= 8.62D-01 BMatP= 8.62D-01
 IDIUse=3 WtCom= 6.07D-01 WtEn= 3.93D-01
 Coeff-Com:  0.100D+01
 Coeff-En:   0.100D+01
 Coeff:      0.100D+01
 Gap=     0.320 Goal=   None    Shift=    0.000
 GapD=    0.320 DampG=1.000 DampE=0.500 DampFc=0.5000 IDamp=-1.
 Damping current iteration by 5.00D-01
 RMSDP=6.61D-03 MaxDP=5.78D-01              OVMax= 2.40D-01

 Cycle   2  Pass 1  IDiag  1:
 E= -1638.31589901671     Delta-E=       -0.211793835699 Rises=F Damp=T
 DIIS: error= 1.40D-02 at cycle   2 NSaved=   2.
 NSaved= 2 IEnMin= 2 EnMin= -1638.31589901671     IErMin= 2 ErrMin= 1.40D-02
 ErrMax= 1.40D-02  0.00D+00 EMaxC= 1.00D-01 BMatC= 1.14D-01 BMatP= 8.62D-01
 IDIUse=3 WtCom= 8.60D-01 WtEn= 1.40D-01
 Coeff-Com:  0.214D+00 0.786D+00
 Coeff-En:   0.342D+00 0.658D+00
 Coeff:      0.232D+00 0.768D+00
 Gap=     0.279 Goal=   None    Shift=    0.000
 RMSDP=1.97D-03 MaxDP=1.24D-01 DE=-2.12D-01 OVMax= 1.72D-01

 Cycle   3  Pass 1  IDiag  1:
 E= -1638.79123951654     Delta-E=       -0.475340499826 Rises=F Damp=F
 DIIS: error= 1.36D-02 at cycle   3 NSaved=   3.
 NSaved= 3 IEnMin= 3 EnMin= -1638.79123951654     IErMin= 3 ErrMin= 1.36D-02
 ErrMax= 1.36D-02  0.00D+00 EMaxC= 1.00D-01 BMatC= 7.70D-02 BMatP= 1.14D-01
 IDIUse=3 WtCom= 8.64D-01 WtEn= 1.36D-01
 Coeff-Com:  0.802D-01 0.457D+00 0.463D+00
 Coeff-En:   0.000D+00 0.000D+00 0.100D+01
 Coeff:      0.693D-01 0.395D+00 0.536D+00
 Gap=     0.248 Goal=   None    Shift=    0.000
 RMSDP=1.24D-03 MaxDP=5.45D-02 DE=-4.75D-01 OVMax= 1.04D-01

 Cycle   4  Pass 1  IDiag  1:
 E= -1638.84543408248     Delta-E=       -0.054194565942 Rises=F Damp=F
 DIIS: error= 5.92D-03 at cycle   4 NSaved=   4.
 NSaved= 4 IEnMin= 4 EnMin= -1638.84543408248     IErMin= 4 ErrMin= 5.92D-03
 ErrMax= 5.92D-03  0.00D+00 EMaxC= 1.00D-01 BMatC= 1.67D-02 BMatP= 7.70D-02
 IDIUse=3 WtCom= 9.41D-01 WtEn= 5.92D-02
 Coeff-Com:  0.908D-02 0.899D-01 0.324D+00 0.577D+00
 Coeff-En:   0.000D+00 0.000D+00 0.203D+00 0.797D+00
 Coeff:      0.854D-02 0.846D-01 0.317D+00 0.590D+00
 Gap=     0.233 Goal=   None    Shift=    0.000
 RMSDP=4.93D-04 MaxDP=2.43D-02 DE=-5.42D-02 OVMax= 4.50D-02

 Cycle   5  Pass 1  IDiag  1:
 E= -1638.85905108375     Delta-E=       -0.013617001275 Rises=F Damp=F
 DIIS: error= 1.50D-03 at cycle   5 NSaved=   5.
 NSaved= 5 IEnMin= 5 EnMin= -1638.85905108375     IErMin= 5 ErrMin= 1.50D-03
 ErrMax= 1.50D-03  0.00D+00 EMaxC= 1.00D-01 BMatC= 1.26D-03 BMatP= 1.67D-02
 IDIUse=3 WtCom= 9.85D-01 WtEn= 1.50D-02
 Coeff-Com: -0.121D-02 0.164D-01 0.139D+00 0.339D+00 0.508D+00
 Coeff-En:   0.000D+00 0.000D+00 0.000D+00 0.000D+00 0.100D+01
 Coeff:     -0.120D-02 0.161D-01 0.137D+00 0.333D+00 0.515D+00
 Gap=     0.231 Goal=   None    Shift=    0.000
 RMSDP=1.33D-04 MaxDP=8.16D-03 DE=-1.36D-02 OVMax= 1.03D-02

 Cycle   6  Pass 1  IDiag  1:
 E= -1638.86007498198     Delta-E=       -0.001023898230 Rises=F Damp=F
 DIIS: error= 4.02D-04 at cycle   6 NSaved=   6.
 NSaved= 6 IEnMin= 6 EnMin= -1638.86007498198     IErMin= 6 ErrMin= 4.02D-04
 ErrMax= 4.02D-04  0.00D+00 EMaxC= 1.00D-01 BMatC= 1.19D-04 BMatP= 1.26D-03
 IDIUse=3 WtCom= 9.96D-01 WtEn= 4.02D-03
 Coeff-Com: -0.131D-02 0.263D-02 0.514D-01 0.142D+00 0.301D+00 0.504D+00
 Coeff-En:   0.000D+00 0.000D+00 0.000D+00 0.000D+00 0.000D+00 0.100D+01
 Coeff:     -0.130D-02 0.262D-02 0.512D-01 0.141D+00 0.300D+00 0.506D+00
 Gap=     0.232 Goal=   None    Shift=    0.000
 RMSDP=3.80D-05 MaxDP=2.07D-03 DE=-1.02D-03 OVMax= 2.24D-03

 Cycle   7  Pass 1  IDiag  1:
 E= -1638.86015881959     Delta-E=       -0.000083837605 Rises=F Damp=F
 DIIS: error= 1.06D-04 at cycle   7 NSaved=   7.
 NSaved= 7 IEnMin= 7 EnMin= -1638.86015881959     IErMin= 7 ErrMin= 1.06D-04
 ErrMax= 1.06D-04  0.00D+00 EMaxC= 1.00D-01 BMatC= 1.21D-05 BMatP= 1.19D-04
 IDIUse=3 WtCom= 9.99D-01 WtEn= 1.06D-03
 Coeff-Com: -0.623D-03-0.683D-03 0.114D-01 0.368D-01 0.108D+00 0.294D+00
 Coeff-Com:  0.551D+00
 Coeff-En:   0.000D+00 0.000D+00 0.000D+00 0.000D+00 0.000D+00 0.525D-01
 Coeff-En:   0.947D+00
 Coeff:     -0.622D-03-0.683D-03 0.114D-01 0.367D-01 0.107D+00 0.294D+00
 Coeff:      0.552D+00
 Gap=     0.231 Goal=   None    Shift=    0.000
 RMSDP=1.06D-05 MaxDP=4.35D-04 DE=-8.38D-05 OVMax= 5.44D-04

 Cycle   8  Pass 1  IDiag  1:
 E= -1638.86016859492     Delta-E=       -0.000009775333 Rises=F Damp=F
 DIIS: error= 1.67D-05 at cycle   8 NSaved=   8.
 NSaved= 8 IEnMin= 8 EnMin= -1638.86016859492     IErMin= 8 ErrMin= 1.67D-05
 ErrMax= 1.67D-05  0.00D+00 EMaxC= 1.00D-01 BMatC= 3.13D-07 BMatP= 1.21D-05
 IDIUse=1 WtCom= 1.00D+00 WtEn= 0.00D+00
 Coeff-Com: -0.138D-03-0.376D-03 0.655D-03 0.379D-02 0.195D-01 0.777D-01
 Coeff-Com:  0.209D+00 0.690D+00
 Coeff:     -0.138D-03-0.376D-03 0.655D-03 0.379D-02 0.195D-01 0.777D-01
 Coeff:      0.209D+00 0.690D+00
 Gap=     0.231 Goal=   None    Shift=    0.000
 RMSDP=2.38D-06 MaxDP=1.12D-04 DE=-9.78D-06 OVMax= 1.17D-04

 Cycle   9  Pass 1  IDiag  1:
 E= -1638.86016883665     Delta-E=       -0.000000241726 Rises=F Damp=F
 DIIS: error= 6.56D-06 at cycle   9 NSaved=   9.
 NSaved= 9 IEnMin= 9 EnMin= -1638.86016883665     IErMin= 9 ErrMin= 6.56D-06
 ErrMax= 6.56D-06  0.00D+00 EMaxC= 1.00D-01 BMatC= 5.48D-08 BMatP= 3.13D-07
 IDIUse=1 WtCom= 1.00D+00 WtEn= 0.00D+00
 Coeff-Com: -0.191D-04-0.122D-03-0.666D-03-0.127D-02 0.414D-03 0.138D-01
 Coeff-Com:  0.556D-01 0.353D+00 0.579D+00
 Coeff:     -0.191D-04-0.122D-03-0.666D-03-0.127D-02 0.414D-03 0.138D-01
 Coeff:      0.556D-01 0.353D+00 0.579D+00
 Gap=     0.231 Goal=   None    Shift=    0.000
 RMSDP=7.41D-07 MaxDP=3.58D-05 DE=-2.42D-07 OVMax= 3.13D-05

 Cycle  10  Pass 1  IDiag  1:
 E= -1638.86016888635     Delta-E=       -0.000000049702 Rises=F Damp=F
 DIIS: error= 1.68D-06 at cycle  10 NSaved=  10.
 NSaved=10 IEnMin=10 EnMin= -1638.86016888635     IErMin=10 ErrMin= 1.68D-06
 ErrMax= 1.68D-06  0.00D+00 EMaxC= 1.00D-01 BMatC= 1.72D-09 BMatP= 5.48D-08
 IDIUse=1 WtCom= 1.00D+00 WtEn= 0.00D+00
 Coeff-Com: -0.464D-05-0.257D-04-0.313D-03-0.666D-03-0.672D-03 0.249D-02
 Coeff-Com:  0.143D-01 0.120D+00 0.231D+00 0.634D+00
 Coeff:     -0.464D-05-0.257D-04-0.313D-03-0.666D-03-0.672D-03 0.249D-02
 Coeff:      0.143D-01 0.120D+00 0.231D+00 0.634D+00
 Gap=     0.231 Goal=   None    Shift=    0.000
 RMSDP=1.72D-07 MaxDP=7.22D-06 DE=-4.97D-08 OVMax= 1.14D-05

 Cycle  11  Pass 1  IDiag  1:
 E= -1638.86016888737     Delta-E=       -0.000000001018 Rises=F Damp=F
 DIIS: error= 1.08D-06 at cycle  11 NSaved=  11.
 NSaved=11 IEnMin=11 EnMin= -1638.86016888737     IErMin=11 ErrMin= 1.08D-06
 ErrMax= 1.08D-06  0.00D+00 EMaxC= 1.00D-01 BMatC= 6.22D-10 BMatP= 1.72D-09
 IDIUse=1 WtCom= 1.00D+00 WtEn= 0.00D+00
 Coeff-Com: -0.104D-05 0.373D-05-0.111D-03-0.245D-03-0.554D-03-0.596D-03
 Coeff-Com:  0.399D-03 0.221D-01 0.547D-01 0.393D+00 0.532D+00
 Coeff:     -0.104D-05 0.373D-05-0.111D-03-0.245D-03-0.554D-03-0.596D-03
 Coeff:      0.399D-03 0.221D-01 0.547D-01 0.393D+00 0.532D+00
 Gap=     0.231 Goal=   None    Shift=    0.000
 RMSDP=7.52D-08 MaxDP=3.58D-06 DE=-1.02D-09 OVMax= 5.05D-06

 Cycle  12  Pass 1  IDiag  1:
 E= -1638.86016888790     Delta-E=       -0.000000000533 Rises=F Damp=F
 DIIS: error= 3.06D-07 at cycle  12 NSaved=  12.
 NSaved=12 IEnMin=12 EnMin= -1638.86016888790     IErMin=12 ErrMin= 3.06D-07
 ErrMax= 3.06D-07  0.00D+00 EMaxC= 1.00D-01 BMatC= 4.30D-11 BMatP= 6.22D-10
 IDIUse=1 WtCom= 1.00D+00 WtEn= 0.00D+00
 Coeff-Com: -0.573D-06 0.441D-05-0.368D-04-0.748D-04-0.256D-03-0.551D-03
 Coeff-Com: -0.112D-02 0.116D-02 0.773D-02 0.153D+00 0.280D+00 0.560D+00
 Coeff:     -0.573D-06 0.441D-05-0.368D-04-0.748D-04-0.256D-03-0.551D-03
 Coeff:     -0.112D-02 0.116D-02 0.773D-02 0.153D+00 0.280D+00 0.560D+00
 Gap=     0.231 Goal=   None    Shift=    0.000
 RMSDP=2.22D-08 MaxDP=1.17D-06 DE=-5.33D-10 OVMax= 1.48D-06

 Cycle  13  Pass 1  IDiag  1:
 E= -1638.86016888792     Delta-E=       -0.000000000020 Rises=F Damp=F
 DIIS: error= 9.52D-08 at cycle  13 NSaved=  13.
 NSaved=13 IEnMin=13 EnMin= -1638.86016888792     IErMin=13 ErrMin= 9.52D-08
 ErrMax= 9.52D-08  0.00D+00 EMaxC= 1.00D-01 BMatC= 5.67D-12 BMatP= 4.30D-11
 IDIUse=1 WtCom= 1.00D+00 WtEn= 0.00D+00
 Coeff-Com: -0.283D-06 0.210D-05-0.506D-05-0.536D-05-0.656D-04-0.218D-03
 Coeff-Com: -0.685D-03-0.253D-02-0.385D-02 0.269D-01 0.771D-01 0.315D+00
 Coeff-Com:  0.589D+00
 Coeff:     -0.283D-06 0.210D-05-0.506D-05-0.536D-05-0.656D-04-0.218D-03
 Coeff:     -0.685D-03-0.253D-02-0.385D-02 0.269D-01 0.771D-01 0.315D+00
 Coeff:      0.589D+00
 Gap=     0.231 Goal=   None    Shift=    0.000
 RMSDP=7.69D-09 MaxDP=3.03D-07 DE=-1.96D-11 OVMax= 4.13D-07

 Error on total polarization charges =  0.02066
 SCF Done:  E(RB3LYP) =  -1638.86016889     A.U. after   13 cycles
            NFock= 13  Conv=0.77D-08     -V/T= 2.0066
 KE= 1.628102013534D+03 PE=-7.795090616127D+03 EE= 2.555604781373D+03
 Leave Link  502 at Tue Sep 15 07:41:01 2020, MaxMem=  2147483648 cpu:             403.9 elap:             101.1
 (Enter /prod/apps/gaussian/g16b1/l601.exe)
 Copying SCF densities to generalized density rwf, IOpCl= 0 IROHF=0.

 **********************************************************************

            Population analysis using the SCF Density.

 **********************************************************************

 Alpha  occ. eigenvalues --  -89.13900 -88.98593 -19.15712 -19.15559 -19.11909
 Alpha  occ. eigenvalues --  -14.37807 -14.37336 -10.26113 -10.21871 -10.21718
 Alpha  occ. eigenvalues --  -10.21556 -10.21137 -10.19621 -10.19205 -10.18907
 Alpha  occ. eigenvalues --  -10.18895 -10.18757 -10.18747 -10.18696 -10.18681
 Alpha  occ. eigenvalues --   -8.16133  -8.03421  -6.12615  -6.12569  -6.12513
 Alpha  occ. eigenvalues --   -5.99841  -5.99633  -5.99196  -1.13083  -1.01278
 Alpha  occ. eigenvalues --   -1.00752  -0.94903  -0.93478  -0.85580  -0.84459
 Alpha  occ. eigenvalues --   -0.78911  -0.74233  -0.74057  -0.72343  -0.71050
 Alpha  occ. eigenvalues --   -0.69709  -0.67117  -0.62234  -0.60572  -0.60239
 Alpha  occ. eigenvalues --   -0.57743  -0.56234  -0.53740  -0.52333  -0.51172
 Alpha  occ. eigenvalues --   -0.50930  -0.48315  -0.48128  -0.46762  -0.45757
 Alpha  occ. eigenvalues --   -0.45468  -0.44814  -0.44174  -0.43336  -0.42264
 Alpha  occ. eigenvalues --   -0.41726  -0.41607  -0.40946  -0.40608  -0.40214
 Alpha  occ. eigenvalues --   -0.39117  -0.38600  -0.38400  -0.37302  -0.36328
 Alpha  occ. eigenvalues --   -0.35249  -0.35238  -0.34789  -0.33873  -0.33274
 Alpha  occ. eigenvalues --   -0.32925  -0.32624  -0.31440  -0.28580  -0.26628
 Alpha  occ. eigenvalues --   -0.25947  -0.25110  -0.24391  -0.23292
 Alpha virt. eigenvalues --   -0.00170  -0.00139   0.00836   0.03166   0.05403
 Alpha virt. eigenvalues --    0.06774   0.07129   0.07667   0.08881   0.09616
 Alpha virt. eigenvalues --    0.10411   0.11184   0.11720   0.12125   0.13454
 Alpha virt. eigenvalues --    0.14353   0.14617   0.15123   0.15766   0.16126
 Alpha virt. eigenvalues --    0.16308   0.16674   0.17481   0.17666   0.18813
 Alpha virt. eigenvalues --    0.19189   0.19646   0.20281   0.20399   0.20966
 Alpha virt. eigenvalues --    0.21705   0.21970   0.23033   0.24512   0.26021
 Alpha virt. eigenvalues --    0.26940   0.27523   0.29102   0.30923   0.32675
 Alpha virt. eigenvalues --    0.32837   0.34153   0.34760   0.35428   0.36384
 Alpha virt. eigenvalues --    0.39213   0.42091   0.42896   0.43850   0.45548
 Alpha virt. eigenvalues --    0.46652   0.49373   0.49668   0.50233   0.50941
 Alpha virt. eigenvalues --    0.52559   0.53034   0.54278   0.55216   0.55434
 Alpha virt. eigenvalues --    0.56150   0.57485   0.58164   0.58514   0.59605
 Alpha virt. eigenvalues --    0.59831   0.60146   0.60962   0.61054   0.61781
 Alpha virt. eigenvalues --    0.62420   0.62957   0.63720   0.64857   0.66278
 Alpha virt. eigenvalues --    0.67300   0.68323   0.68740   0.69806   0.70210
 Alpha virt. eigenvalues --    0.72469   0.73701   0.74753   0.76300   0.77782
 Alpha virt. eigenvalues --    0.78063   0.80199   0.80915   0.81440   0.82297
 Alpha virt. eigenvalues --    0.83067   0.83477   0.84077   0.84439   0.84985
 Alpha virt. eigenvalues --    0.85830   0.86302   0.86558   0.87105   0.88511
 Alpha virt. eigenvalues --    0.89457   0.89843   0.90090   0.90640   0.91262
 Alpha virt. eigenvalues --    0.92209   0.92757   0.93231   0.93686   0.94239
 Alpha virt. eigenvalues --    0.94344   0.96377   0.96560   0.97657   0.98159
 Alpha virt. eigenvalues --    0.99544   1.00501   1.00641   1.02378   1.02796
 Alpha virt. eigenvalues --    1.04423   1.06737   1.07032   1.07385   1.08234
 Alpha virt. eigenvalues --    1.10194   1.10648   1.12340   1.13116   1.13516
 Alpha virt. eigenvalues --    1.14064   1.16452   1.17307   1.17667   1.19147
 Alpha virt. eigenvalues --    1.19636   1.22300   1.24842   1.25836   1.26138
 Alpha virt. eigenvalues --    1.30515   1.32593   1.34601   1.37022   1.38150
 Alpha virt. eigenvalues --    1.42099   1.42342   1.43055   1.44266   1.46744
 Alpha virt. eigenvalues --    1.48444   1.49256   1.50083   1.51325   1.51758
 Alpha virt. eigenvalues --    1.53000   1.55764   1.57039   1.61506   1.67089
 Alpha virt. eigenvalues --    1.70084   1.70962   1.72270   1.73447   1.75503
 Alpha virt. eigenvalues --    1.77039   1.78358   1.79960   1.80513   1.81599
 Alpha virt. eigenvalues --    1.81772   1.81889   1.83234   1.84668   1.85602
 Alpha virt. eigenvalues --    1.87470   1.88742   1.89056   1.90282   1.92522
 Alpha virt. eigenvalues --    1.93563   1.93722   1.94172   1.95060   1.96522
 Alpha virt. eigenvalues --    1.97848   1.97951   1.99423   2.01429   2.02488
 Alpha virt. eigenvalues --    2.03114   2.04312   2.05831   2.07095   2.08092
 Alpha virt. eigenvalues --    2.08955   2.10070   2.11634   2.12718   2.13446
 Alpha virt. eigenvalues --    2.14119   2.14302   2.15310   2.16908   2.18863
 Alpha virt. eigenvalues --    2.20689   2.21851   2.22538   2.24398   2.25569
 Alpha virt. eigenvalues --    2.26662   2.28394   2.29828   2.30896   2.31695
 Alpha virt. eigenvalues --    2.36183   2.36627   2.38816   2.41712   2.42147
 Alpha virt. eigenvalues --    2.42544   2.45505   2.49075   2.51448   2.56008
 Alpha virt. eigenvalues --    2.57778   2.58421   2.61889   2.66290   2.69851
 Alpha virt. eigenvalues --    2.71411   2.71676   2.72437   2.72574   2.74476
 Alpha virt. eigenvalues --    2.74891   2.77046   2.77997   2.80278   2.82898
 Alpha virt. eigenvalues --    2.86583   2.95021   3.05137   3.41060   3.79168
 Alpha virt. eigenvalues --    3.83804   3.91897   3.94276   4.01205   4.07079
 Alpha virt. eigenvalues --    4.09112   4.09746   4.11627   4.14797   4.21872
 Alpha virt. eigenvalues --    4.25278   4.26346   4.33086   4.34143   4.35493
 Alpha virt. eigenvalues --    4.41287   4.53018   4.70308   4.72359
          Condensed to atoms (all electrons):
               1          2          3          4          5          6
     1  O    8.275203   0.446515  -0.057633   0.001700  -0.000006  -0.000001
     2  S    0.446515  13.569401   0.154344   0.004201  -0.006724   0.000821
     3  N   -0.057633   0.154344   7.373517   0.217005  -0.051391   0.004715
     4  C    0.001700   0.004201   0.217005   4.851894   0.332480  -0.066314
     5  C   -0.000006  -0.006724  -0.051391   0.332480   5.658847   0.082070
     6  S   -0.000001   0.000821   0.004715  -0.066314   0.082070  14.890478
     7  O   -0.000000   0.000011  -0.000055   0.000117  -0.038504   0.292443
     8  C   -0.000062  -0.006098  -0.038702   0.321920  -0.122579   0.087322
     9  C   -0.000097   0.001073  -0.055729   0.349907  -0.055832   0.006453
    10  C   -0.000000  -0.000174  -0.005165  -0.033497   0.004688  -0.000531
    11  C   -0.000000  -0.000002   0.000236   0.003238  -0.000080   0.000005
    12  C    0.000000  -0.000000  -0.000002   0.000107  -0.000004   0.000001
    13  C    0.000000   0.000000   0.000000   0.000002  -0.000000   0.000000
    14  C   -0.000000  -0.000000   0.000000  -0.000000   0.000000  -0.000000
    15  C    0.000000   0.000000  -0.000000   0.000003  -0.000000   0.000000
    16  C    0.000000   0.000000  -0.000004   0.000075  -0.000006  -0.000006
    17  N   -0.056594   0.144431  -0.045596  -0.005370  -0.000235   0.000152
    18  C    0.001333  -0.012485  -0.009128   0.000542  -0.000013   0.000000
    19  C   -0.002381  -0.024887   0.002371   0.000045   0.000013   0.000003
    20  O   -0.045185   0.399415  -0.054115   0.005886  -0.007254   0.000485
    21  H    0.004312  -0.015071   0.297739  -0.020807  -0.000383  -0.000234
    22  H    0.000001   0.000251   0.001355  -0.029948   0.352609  -0.018270
    23  H   -0.000177   0.001599  -0.004862  -0.024508   0.324559  -0.006265
    24  H    0.000001   0.000013   0.001340  -0.028383   0.009937  -0.018215
    25  H    0.000024   0.008625  -0.006816  -0.025159   0.002589  -0.006361
    26  H   -0.000003  -0.000161  -0.006032  -0.028780  -0.005828  -0.000400
    27  H    0.000000   0.000039   0.003288  -0.031018  -0.005221   0.005106
    28  H    0.000000  -0.000097  -0.000100  -0.004483   0.000088  -0.000098
    29  H   -0.000002   0.000262   0.006866  -0.007820   0.000114  -0.000039
    30  H   -0.000000  -0.000000  -0.000002  -0.000059   0.000001  -0.000000
    31  H    0.000000  -0.000000  -0.000000  -0.000000   0.000000  -0.000000
    32  H   -0.000000   0.000000   0.000000   0.000000  -0.000000  -0.000000
    33  H   -0.000000  -0.000000  -0.000000  -0.000000   0.000000   0.000000
    34  H   -0.000000  -0.000000  -0.000000  -0.000066   0.000002   0.000004
    35  H   -0.001589  -0.003229   0.010980  -0.000059   0.000025  -0.000000
    36  H    0.000035   0.003227   0.000010   0.000008   0.000000  -0.000001
    37  H    0.005811  -0.007966  -0.000217  -0.000034  -0.000000   0.000000
    38  H   -0.000205  -0.004549   0.000109   0.000017   0.000000   0.000004
    39  H    0.002949  -0.003657  -0.000078  -0.000009  -0.000000   0.000000
    40  H   -0.000104   0.002297  -0.000088   0.000002  -0.000000  -0.000002
               7          8          9         10         11         12
     1  O   -0.000000  -0.000062  -0.000097  -0.000000  -0.000000   0.000000
     2  S    0.000011  -0.006098   0.001073  -0.000174  -0.000002  -0.000000
     3  N   -0.000055  -0.038702  -0.055729  -0.005165   0.000236  -0.000002
     4  C    0.000117   0.321920   0.349907  -0.033497   0.003238   0.000107
     5  C   -0.038504  -0.122579  -0.055832   0.004688  -0.000080  -0.000004
     6  S    0.292443   0.087322   0.006453  -0.000531   0.000005   0.000001
     7  O    8.456796  -0.038806  -0.007976   0.000083   0.000006  -0.000000
     8  C   -0.038806   5.647447  -0.051932  -0.007862   0.000100  -0.000004
     9  C   -0.007976  -0.051932   5.190380   0.345120  -0.038877  -0.003441
    10  C    0.000083  -0.007862   0.345120   5.165305   0.353050  -0.057661
    11  C    0.000006   0.000100  -0.038877   0.353050   4.656581   0.545080
    12  C   -0.000000  -0.000004  -0.003441  -0.057661   0.545080   4.987491
    13  C   -0.000000  -0.000000  -0.000048   0.006557  -0.021658   0.517586
    14  C    0.000000   0.000000   0.000016   0.000344  -0.034375  -0.038195
    15  C   -0.000000  -0.000000  -0.000057   0.006518  -0.021646  -0.046619
    16  C   -0.000021   0.000005  -0.003806  -0.057100   0.543469  -0.041109
    17  N   -0.000000   0.001301  -0.000275   0.000032  -0.000001   0.000000
    18  C    0.000000  -0.000065   0.000070  -0.000298   0.000006  -0.000000
    19  C    0.000000  -0.000061   0.000002   0.000000   0.000000  -0.000000
    20  O   -0.000000  -0.005399   0.000081  -0.000000   0.000000  -0.000000
    21  H    0.000002   0.004294  -0.004648  -0.000076  -0.000070   0.000001
    22  H   -0.000021   0.009754  -0.004773   0.000117  -0.000010  -0.000001
    23  H    0.001213   0.003499   0.003912  -0.000111   0.000001   0.000000
    24  H    0.000322   0.352191  -0.007213   0.001938  -0.000075   0.000001
    25  H    0.001156   0.326248   0.004355   0.000014   0.000001   0.000000
    26  H    0.000221   0.005730   0.358040  -0.037621  -0.001789   0.003436
    27  H    0.024751  -0.008966   0.348452  -0.033364  -0.000884  -0.000106
    28  H    0.000034   0.003102  -0.040910   0.361903  -0.028978   0.003898
    29  H   -0.000003  -0.000304  -0.034408   0.362288  -0.028977  -0.004567
    30  H    0.000000   0.000000   0.000289  -0.009078  -0.044701   0.359366
    31  H   -0.000000  -0.000000  -0.000001  -0.000172   0.003658  -0.038918
    32  H    0.000000   0.000000   0.000000   0.000006   0.000627   0.004599
    33  H   -0.000000  -0.000000  -0.000000  -0.000172   0.003654   0.000751
    34  H    0.000038  -0.000005   0.000249  -0.009100  -0.044753   0.006057
    35  H    0.000000  -0.000046  -0.000210   0.000597   0.000016  -0.000004
    36  H    0.000000   0.000033  -0.000000  -0.000002  -0.000000   0.000000
    37  H   -0.000000   0.000006  -0.000001   0.000004  -0.000000   0.000000
    38  H    0.000000  -0.000054   0.000000   0.000000  -0.000000   0.000000
    39  H   -0.000000   0.000001  -0.000000   0.000000  -0.000000   0.000000
    40  H    0.000000   0.000013  -0.000000  -0.000000  -0.000000   0.000000
              13         14         15         16         17         18
     1  O    0.000000  -0.000000   0.000000   0.000000  -0.056594   0.001333
     2  S    0.000000  -0.000000   0.000000   0.000000   0.144431  -0.012485
     3  N    0.000000   0.000000  -0.000000  -0.000004  -0.045596  -0.009128
     4  C    0.000002  -0.000000   0.000003   0.000075  -0.005370   0.000542
     5  C   -0.000000   0.000000  -0.000000  -0.000006  -0.000235  -0.000013
     6  S    0.000000  -0.000000   0.000000  -0.000006   0.000152   0.000000
     7  O   -0.000000   0.000000  -0.000000  -0.000021  -0.000000   0.000000
     8  C   -0.000000   0.000000  -0.000000   0.000005   0.001301  -0.000065
     9  C   -0.000048   0.000016  -0.000057  -0.003806  -0.000275   0.000070
    10  C    0.006557   0.000344   0.006518  -0.057100   0.000032  -0.000298
    11  C   -0.021658  -0.034375  -0.021646   0.543469  -0.000001   0.000006
    12  C    0.517586  -0.038195  -0.046619  -0.041109   0.000000  -0.000000
    13  C    4.900453   0.544601  -0.029029  -0.046856   0.000000  -0.000000
    14  C    0.544601   4.885928   0.544430  -0.038130  -0.000000  -0.000000
    15  C   -0.029029   0.544430   4.900246   0.517731   0.000000  -0.000000
    16  C   -0.046856  -0.038130   0.517731   4.987897   0.000000   0.000000
    17  N    0.000000  -0.000000   0.000000   0.000000   7.216983   0.269594
    18  C   -0.000000  -0.000000  -0.000000   0.000000   0.269594   5.007608
    19  C   -0.000000   0.000000   0.000000  -0.000000   0.280613  -0.049687
    20  O   -0.000000   0.000000  -0.000000  -0.000000  -0.054401   0.001655
    21  H   -0.000000   0.000000  -0.000000   0.000001   0.002120  -0.000296
    22  H   -0.000000   0.000000  -0.000000  -0.000000   0.000000   0.000000
    23  H    0.000000  -0.000000   0.000000   0.000000   0.000000  -0.000003
    24  H   -0.000000   0.000000  -0.000001  -0.000011  -0.000151   0.000002
    25  H    0.000000  -0.000000   0.000000  -0.000000   0.003461  -0.000008
    26  H   -0.000121  -0.000004  -0.000005  -0.000007   0.000001   0.000001
    27  H   -0.000017  -0.000003  -0.000139   0.003512   0.000000  -0.000002
    28  H   -0.000207   0.000010   0.000131  -0.004900   0.000004   0.000008
    29  H    0.000120   0.000011  -0.000200   0.003812  -0.000066  -0.000286
    30  H   -0.045373   0.004775   0.000264   0.006106   0.000000  -0.000000
    31  H    0.360802  -0.042447   0.004514   0.000749   0.000000  -0.000000
    32  H   -0.042332   0.363070  -0.042272   0.004598  -0.000000   0.000000
    33  H    0.004506  -0.042492   0.360731  -0.038831   0.000000  -0.000000
    34  H    0.000272   0.004772  -0.045207   0.359457  -0.000000   0.000000
    35  H   -0.000000   0.000000  -0.000000  -0.000000  -0.033040   0.375182
    36  H   -0.000000  -0.000000  -0.000000  -0.000000  -0.033675   0.377525
    37  H    0.000000  -0.000000   0.000000   0.000000  -0.045483   0.372829
    38  H    0.000000  -0.000000  -0.000000   0.000000  -0.032462   0.004605
    39  H    0.000000  -0.000000   0.000000   0.000000  -0.046115  -0.002599
    40  H    0.000000  -0.000000   0.000000   0.000000  -0.036229  -0.002853
              19         20         21         22         23         24
     1  O   -0.002381  -0.045185   0.004312   0.000001  -0.000177   0.000001
     2  S   -0.024887   0.399415  -0.015071   0.000251   0.001599   0.000013
     3  N    0.002371  -0.054115   0.297739   0.001355  -0.004862   0.001340
     4  C    0.000045   0.005886  -0.020807  -0.029948  -0.024508  -0.028383
     5  C    0.000013  -0.007254  -0.000383   0.352609   0.324559   0.009937
     6  S    0.000003   0.000485  -0.000234  -0.018270  -0.006265  -0.018215
     7  O    0.000000  -0.000000   0.000002  -0.000021   0.001213   0.000322
     8  C   -0.000061  -0.005399   0.004294   0.009754   0.003499   0.352191
     9  C    0.000002   0.000081  -0.004648  -0.004773   0.003912  -0.007213
    10  C    0.000000  -0.000000  -0.000076   0.000117  -0.000111   0.001938
    11  C    0.000000   0.000000  -0.000070  -0.000010   0.000001  -0.000075
    12  C   -0.000000  -0.000000   0.000001  -0.000001   0.000000   0.000001
[...]
     7  O    0.001464  -0.001362  -0.000296  -0.013178  -0.002815  -0.000406
     8  C    0.019281  -0.009466  -0.009660  -0.095030  -0.208447  -0.010603
     9  C    0.273669  -0.122419   0.121956  -0.584861  -0.121304  -0.043564
    10  C   -0.617335   0.331088  -0.683393   0.081916   0.067524  -0.062612
    11  C    3.051227  -3.943400   3.159195  -6.910564   0.011778  -0.011726
    12  C   -4.605439   3.499792  -4.068755   1.422477   0.002329   0.008483
    13  C   11.519849  -3.399177   3.797543  -3.811615  -0.002020   0.003164
    14  C   -3.399177   9.185265  -3.381852   3.428769   0.000427   0.000330
    15  C    3.797543  -3.381852  11.673344  -4.663176   0.000013  -0.002983
    16  C   -3.811615   3.428769  -4.663176  17.156985   0.003280  -0.006007
    17  N   -0.002020   0.000427   0.000013   0.003280   9.236968   0.060247
    18  C    0.003164   0.000330  -0.002983  -0.006007   0.060247   4.381781
    19  C   -0.000237   0.000051  -0.000020   0.000195   0.036097  -0.235302
    20  O   -0.000048  -0.000005   0.000029   0.000033   0.048681   0.008701
    21  H   -0.003932  -0.001432   0.003463   0.011729   0.015512  -0.002023
    22  H    0.002122  -0.002656   0.003236  -0.004111  -0.007836   0.006145
    23  H   -0.000178  -0.000132   0.000909  -0.005127   0.007771  -0.004516
    24  H    0.004078  -0.004858   0.019806  -0.061506  -0.007872  -0.018821
    25  H    0.001268  -0.000423  -0.002511   0.003756  -0.147551   0.095106
    26  H    0.007090   0.023826  -0.047890   0.046406   0.011211  -0.005500
    27  H   -0.054493   0.029004  -0.007985   0.049350  -0.010030  -0.002223
    28  H   -0.105340   0.013342   0.140417   0.323359   0.011386  -0.012086
    29  H    0.153326  -0.011445  -0.100303  -0.450599   0.003363   0.005689
    30  H    0.299908  -0.132854   0.098406  -0.023584   0.000817   0.000094
    31  H   -0.780083   0.325457  -0.241401   0.129624  -0.000075   0.000028
    32  H    0.383160  -0.616179   0.383432  -0.133961   0.000012   0.000003
    33  H   -0.247240   0.314526  -0.758003   0.632346  -0.000023  -0.000121
    34  H    0.119858  -0.144412   0.345936  -1.177454   0.000368   0.002229
    35  H   -0.004847   0.000313   0.004567   0.029684  -0.058961   0.532162
    36  H    0.000077  -0.000014  -0.000343   0.000830  -0.161496   0.322599
    37  H    0.000454   0.000035  -0.000258  -0.001263  -0.014539   0.182625
    38  H   -0.000003   0.000004  -0.000014  -0.000049  -0.136457  -0.120629
    39  H   -0.000003   0.000001  -0.000004  -0.000000   0.076796   0.055044
    40  H   -0.000015   0.000005   0.000008   0.000105  -0.367299   0.082393
              19         20         21         22         23         24
     1  O   -0.010288  -0.025581   0.001351  -0.001430   0.000289  -0.006804
     2  S   -0.171265  -0.385681  -0.115712   0.012031   0.021017   0.127960
     3  N   -0.015454   0.165726   0.320063   0.085369   0.074604   0.219675
     4  C   -0.060347   0.034397   0.214286  -0.679712  -0.182451  -0.353930
     5  C   -0.041977  -0.035832  -0.020890   0.402007   0.092652   0.170923
     6  S   -0.011114   0.013364   0.000937   0.121528  -0.184031   0.054928
     7  O    0.000550  -0.003263  -0.002101  -0.001200   0.015578   0.008544
     8  C    0.045931   0.063524  -0.006844   0.176614   0.064955   0.271328
     9  C   -0.010493  -0.115915  -0.206931   0.043995   0.242701  -0.321758
    10  C    0.017062   0.003134  -0.016223   0.020331   0.005035  -0.063160
    11  C   -0.003652   0.000203   0.020714   0.014813  -0.013423   0.091498
    12  C    0.000648  -0.000753  -0.027901  -0.004696   0.001018  -0.012970
    13  C   -0.000237  -0.000048  -0.003932   0.002122  -0.000178   0.004078
    14  C    0.000051  -0.000005  -0.001432  -0.002656  -0.000132  -0.004858
    15  C   -0.000020   0.000029   0.003463   0.003236   0.000909   0.019806
    16  C    0.000195   0.000033   0.011729  -0.004111  -0.005127  -0.061506
    17  N    0.036097   0.048681   0.015512  -0.007836   0.007771  -0.007872
    18  C   -0.235302   0.008701  -0.002023   0.006145  -0.004516  -0.018821
    19  C    4.440003   0.081347   0.008580  -0.002481  -0.004823   0.010756
    20  O    0.081347   9.339799   0.004326   0.002068  -0.032551   0.009319
    21  H    0.008580   0.004326   0.872707   0.020154  -0.027076  -0.004649
    22  H   -0.002481   0.002068   0.020154   1.515292  -0.338237  -0.007105
    23  H   -0.004823  -0.032551  -0.027076  -0.338237   1.399433   0.025670
    24  H    0.010756   0.009319  -0.004649  -0.007105   0.025670   1.656918
    25  H   -0.049750   0.031606   0.014828   0.033421  -0.004857  -0.442888
    26  H    0.001262  -0.004225  -0.028290  -0.020524   0.027499   0.030983
    27  H    0.001573   0.000669   0.012100  -0.036920   0.020576  -0.066418
    28  H   -0.006035  -0.002120   0.013635   0.003780  -0.005187  -0.052307
    29  H   -0.000536   0.001556  -0.013652   0.004666   0.007261   0.019012
    30  H    0.000077  -0.000265  -0.001398   0.000291  -0.000565  -0.002833
    31  H   -0.000010   0.000004   0.000897   0.000101  -0.000015   0.000067
    32  H    0.000001  -0.000000  -0.000035  -0.000025  -0.000018  -0.000131
    33  H   -0.000005  -0.000000   0.000024   0.000034   0.000042   0.002293
    34  H   -0.000060   0.000001  -0.001134  -0.000149  -0.000826  -0.007736
    35  H   -0.091020   0.007191  -0.001502   0.000586  -0.002203  -0.008171
    36  H    0.052158  -0.000984   0.005031   0.000722  -0.001063   0.001878
    37  H    0.054548  -0.004521  -0.002154  -0.000229   0.001176  -0.001118
    38  H    0.460859  -0.019264   0.003076  -0.000562  -0.001610   0.004400
    39  H    0.240354   0.013998  -0.002145   0.000289  -0.000091   0.000996
    40  H    0.404161   0.010193   0.000194  -0.000315   0.000145   0.002987
              25         26         27         28         29         30
     1  O    0.020426   0.001144   0.003148   0.002340  -0.007023   0.000710
     2  S   -0.198621  -0.007427  -0.027594  -0.005774   0.029517  -0.002120
     3  N   -0.093430   0.091105  -0.099063  -0.135593   0.078419  -0.021002
     4  C   -0.112270  -0.524646  -0.077595   0.258559  -0.138421   0.112008
     5  C   -0.090986  -0.133483  -0.041891  -0.039019  -0.026537  -0.004606
     6  S   -0.218398  -0.002227  -0.066014   0.000993   0.000617   0.000268
     7  O    0.005800   0.014129   0.015838  -0.004984   0.008142  -0.000839
     8  C    0.185641   0.103394  -0.007024   0.003753   0.004377   0.000399
     9  C    0.269819   0.282895   0.152964  -0.115630   0.035066   0.022898
    10  C   -0.004840  -0.120113   0.030494  -0.142462  -0.238762  -0.177742
    11  C    0.013660  -0.153881  -0.228292  -0.089636   0.115427   0.789305
    12  C    0.008947   0.101224   0.045409  -0.284917   0.228267  -1.227535
    13  C    0.001268   0.007090  -0.054493  -0.105340   0.153326   0.299908
    14  C   -0.000423   0.023826   0.029004   0.013342  -0.011445  -0.132854
    15  C   -0.002511  -0.047890  -0.007985   0.140417  -0.100303   0.098406
    16  C    0.003756   0.046406   0.049350   0.323359  -0.450599  -0.023584
    17  N   -0.147551   0.011211  -0.010030   0.011386   0.003363   0.000817
    18  C    0.095106  -0.005500  -0.002223  -0.012086   0.005689   0.000094
    19  C   -0.049750   0.001262   0.001573  -0.006035  -0.000536   0.000077
    20  O    0.031606  -0.004225   0.000669  -0.002120   0.001556  -0.000265
    21  H    0.014828  -0.028290   0.012100   0.013635  -0.013652  -0.001398
    22  H    0.033421  -0.020524  -0.036920   0.003780   0.004666   0.000291
    23  H   -0.004857   0.027499   0.020576  -0.005187   0.007261  -0.000565
    24  H   -0.442888   0.030983  -0.066418  -0.052307   0.019012  -0.002833
    25  H    1.901225  -0.003261   0.023923   0.023822  -0.014516   0.001686
    26  H   -0.003261   1.870550  -0.380869   0.078289  -0.084638  -0.015193
    27  H    0.023923  -0.380869   1.850512  -0.100202   0.108321   0.001644
    28  H    0.023822   0.078289  -0.100202   1.926912  -0.381253   0.018109
    29  H   -0.014516  -0.084638   0.108321  -0.381253   2.195723  -0.050096
    30  H    0.001686  -0.015193   0.001644   0.018109  -0.050096   2.078668
    31  H   -0.000032  -0.003625   0.000826   0.000147   0.001358  -0.085990
    32  H    0.000015   0.000036  -0.000493   0.000522   0.000922  -0.017568
    33  H   -0.000258   0.000626  -0.002799  -0.001365  -0.000617   0.010265
    34  H    0.007034   0.010064  -0.016169  -0.040329   0.007641  -0.021794
    35  H    0.011763   0.000964  -0.008932   0.028740  -0.142375   0.005875
    36  H   -0.001192  -0.002047   0.000899  -0.006236   0.003394  -0.000077
    37  H    0.001409   0.000618   0.000204   0.000253   0.010306  -0.000388
    38  H    0.000861  -0.000393   0.000240   0.000401   0.002735  -0.000040
    39  H   -0.010764  -0.000079  -0.000105  -0.000226  -0.001791   0.000043
    40  H   -0.002211   0.000503   0.000388  -0.000515  -0.003464   0.000038
              31         32         33         34         35         36
     1  O   -0.000007   0.000001   0.000000  -0.000018   0.063064  -0.011360
     2  S    0.000113  -0.000015   0.000120  -0.002243  -0.081421   0.029491
     3  N    0.001468  -0.000134  -0.000043   0.007348  -0.061195   0.022689
     4  C   -0.000139   0.001103   0.003615  -0.027622   0.103455  -0.081760
     5  C    0.000287  -0.000422   0.001318  -0.011694   0.021591   0.004004
     6  S    0.000005  -0.000019   0.000155  -0.001348   0.002987   0.001233
     7  O    0.000048  -0.000061  -0.000063   0.002154  -0.001606   0.000103
     8  C    0.000111  -0.000289   0.000116   0.015434   0.012450   0.031815
     9  C    0.000307  -0.003890   0.001260   0.114501  -0.093261  -0.013645
    10  C    0.013516  -0.001763   0.007417  -0.191127  -0.058645   0.012085
    11  C   -0.162010   0.099745  -0.137193   0.720580   0.023132  -0.001274
    12  C    0.658834  -0.148736   0.133677  -0.062317  -0.010350  -0.000991
    13  C   -0.780083   0.383160  -0.247240   0.119858  -0.004847   0.000077
    14  C    0.325457  -0.616179   0.314526  -0.144412   0.000313  -0.000014
    15  C   -0.241401   0.383432  -0.758003   0.345936   0.004567  -0.000343
    16  C    0.129624  -0.133961   0.632346  -1.177454   0.029684   0.000830
    17  N   -0.000075   0.000012  -0.000023   0.000368  -0.058961  -0.161496
    18  C    0.000028   0.000003  -0.000121   0.002229   0.532162   0.322599
    19  C   -0.000010   0.000001  -0.000005  -0.000060  -0.091020   0.052158
    20  O    0.000004  -0.000000  -0.000000   0.000001   0.007191  -0.000984
    21  H    0.000897  -0.000035   0.000024  -0.001134  -0.001502   0.005031
    22  H    0.000101  -0.000025   0.000034  -0.000149   0.000586   0.000722
    23  H   -0.000015  -0.000018   0.000042  -0.000826  -0.002203  -0.001063
    24  H    0.000067  -0.000131   0.002293  -0.007736  -0.008171   0.001878
    25  H   -0.000032   0.000015  -0.000258   0.007034   0.011763  -0.001192
    26  H   -0.003625   0.000036   0.000626   0.010064   0.000964  -0.002047
    27  H    0.000826  -0.000493  -0.002799  -0.016169  -0.008932   0.000899
    28  H    0.000147   0.000522  -0.001365  -0.040329   0.028740  -0.006236
    29  H    0.001358   0.000922  -0.000617   0.007641  -0.142375   0.003394
    30  H   -0.085990  -0.017568   0.010265  -0.021794   0.005875  -0.000077
    31  H    1.668606  -0.050375  -0.020293   0.010507  -0.000219   0.000013
    32  H   -0.050375   1.609128  -0.050846  -0.016739   0.000061  -0.000003
    33  H   -0.020293  -0.050846   1.668920  -0.091386  -0.000035  -0.000016
    34  H    0.010507  -0.016739  -0.091386   2.124805   0.003016   0.000123
    35  H   -0.000219   0.000061  -0.000035   0.003016   1.662583  -0.278141
    36  H    0.000013  -0.000003  -0.000016   0.000123  -0.278141   1.378977
    37  H    0.000010  -0.000002  -0.000004  -0.000112  -0.308842  -0.181273
    38  H   -0.000000   0.000000   0.000000  -0.000062  -0.029257   0.009406
    39  H   -0.000000   0.000000  -0.000001   0.000023   0.013402   0.000093
    40  H   -0.000002   0.000000   0.000002  -0.000050   0.027845   0.011611
              37         38         39         40
     1  O   -0.022140  -0.012805   0.020507  -0.009686
     2  S    0.039262   0.149814  -0.122601   0.037204
     3  N   -0.039188   0.023974   0.016816  -0.006707
     4  C    0.118041  -0.026196   0.001888  -0.034996
     5  C    0.000939  -0.012712   0.005669  -0.000606
     6  S   -0.000476  -0.000360  -0.000198  -0.001223
     7  O    0.000038  -0.000201   0.000000   0.000005
     8  C   -0.044644   0.017592   0.001009   0.007902
     9  C    0.015291   0.001864  -0.004489   0.008164
    10  C   -0.005456   0.004114  -0.000145  -0.002014
    11  C   -0.001878  -0.000462   0.000149  -0.000878
    12  C    0.000526  -0.000011   0.000067   0.000073
    13  C    0.000454  -0.000003  -0.000003  -0.000015
    14  C    0.000035   0.000004   0.000001   0.000005
    15  C   -0.000258  -0.000014  -0.000004   0.000008
    16  C   -0.001263  -0.000049  -0.000000   0.000105
    17  N   -0.014539  -0.136457   0.076796  -0.367299
    18  C    0.182625  -0.120629   0.055044   0.082393
    19  C    0.054548   0.460859   0.240354   0.404161
    20  O   -0.004521  -0.019264   0.013998   0.010193
    21  H   -0.002154   0.003076  -0.002145   0.000194
    22  H   -0.000229  -0.000562   0.000289  -0.000315
    23  H    0.001176  -0.001610  -0.000091   0.000145
    24  H   -0.001118   0.004400   0.000996   0.002987
    25  H    0.001409   0.000861  -0.010764  -0.002211
    26  H    0.000618  -0.000393  -0.000079   0.000503
    27  H    0.000204   0.000240  -0.000105   0.000388
    28  H    0.000253   0.000401  -0.000226  -0.000515
    29  H    0.010306   0.002735  -0.001791  -0.003464
    30  H   -0.000388  -0.000040   0.000043   0.000038
    31  H    0.000010  -0.000000  -0.000000  -0.000002
    32  H   -0.000002   0.000000   0.000000   0.000000
    33  H   -0.000004   0.000000  -0.000001   0.000002
    34  H   -0.000112  -0.000062   0.000023  -0.000050
    35  H   -0.308842  -0.029257   0.013402   0.027845
    36  H   -0.181273   0.009406   0.000093   0.011611
    37  H    1.243737   0.003901  -0.008826   0.000352
    38  H    0.003901   1.375589  -0.251270  -0.287208
    39  H   -0.008826  -0.251270   1.193963  -0.153867
    40  H    0.000352  -0.287208  -0.153867   1.432501
 Mulliken charges:
               1
     1  O   -1.179141
     2  S    3.358767
     3  N   -1.259636
     4  C    0.816986
     5  C    0.385089
     6  S    1.475295
     7  O   -1.252496
     8  C    0.342819
     9  C   -0.158175
    10  C    0.814659
    11  C    1.282943
    12  C    0.483881
    13  C    0.027428
    14  C    0.653340
    15  C    0.001260
    16  C    0.518624
    17  N   -1.081825
    18  C    0.840542
    19  C    0.858655
    20  O   -1.208859
    21  H   -0.057581
    22  H   -0.361410
    23  H   -0.199351
    24  H   -0.288982
    25  H   -0.257256
    26  H   -0.165508
    27  H   -0.112970
    28  H   -0.317541
    29  H   -0.359082
    30  H   -0.655022
    31  H   -0.468057
    32  H   -0.436440
    33  H   -0.466444
    34  H   -0.676840
    35  H   -0.314451
    36  H   -0.147314
    37  H   -0.036415
    38  H   -0.159266
    39  H   -0.084500
    40  H   -0.155724
 Sum of Mulliken charges =  -0.00000
 Mulliken charges with hydrogens summed into heavy atoms:
               1
     1  O   -1.179141
     2  S    3.358767
     3  N   -1.317217
     4  C    0.816986
     5  C   -0.175673
     6  S    1.475295
     7  O   -1.252496
     8  C   -0.203419
     9  C   -0.436653
    10  C    0.138035
    11  C    1.282943
    12  C   -0.171141
    13  C   -0.440629
    14  C    0.216900
    15  C   -0.465184
    16  C   -0.158216
    17  N   -1.081825
    18  C    0.342362
    19  C    0.459165
    20  O   -1.208859
 Electronic spatial extent (au):  <R**2>=           8194.8417
 Charge=             -0.0000 electrons
 Dipole moment (field-independent basis, Debye):
    X=              0.2969    Y=             -3.5151    Z=              2.6514  Tot=              4.4130
 Quadrupole moment (field-independent basis, Debye-Ang):
   XX=           -136.5380   YY=           -156.4281   ZZ=           -130.3448
   XY=              7.1420   XZ=             16.7282   YZ=             -5.0866
 Traceless Quadrupole moment (field-independent basis, Debye-Ang):
   XX=              4.5656   YY=            -15.3245   ZZ=             10.7589
   XY=              7.1420   XZ=             16.7282   YZ=             -5.0866
 Octapole moment (field-independent basis, Debye-Ang**2):
  XXX=            -10.7054  YYY=            -68.6460  ZZZ=              1.9819  XYY=             32.7836
  XXY=             -0.1774  XXZ=             57.5197  XZZ=             22.6301  YZZ=             10.2801
  YYZ=             -3.4886  XYZ=            -42.1756
 Hexadecapole moment (field-independent basis, Debye-Ang**3):
 XXXX=          -7340.7265 YYYY=          -2724.8734 ZZZZ=           -827.3510 XXXY=            -68.2990
 XXXZ=            226.1215 YYYX=             71.6129 YYYZ=            -54.6091 ZZZX=             30.4486
 ZZZY=             -5.8252 XXYY=          -1758.5948 XXZZ=          -1497.1700 YYZZ=           -521.0027
 XXYZ=             39.4261 YYXZ=             80.0418 ZZXY=            -12.4344
 N-N= 1.972792985304D+03 E-N=-7.794301661308D+03  KE= 1.630837253319D+03
 Leave Link  601 at Tue Sep 15 10:24:39 2020, MaxMem=   262144000 cpu:               0.8 elap:               0.4
 (Enter /prod/apps/gaussian/g16b1/l9999.exe)
 1\1\GINC-PIRINEUS17\SP\RMP2-FC\Aug-CC-pVDZ\C13H20N2O3S2\UBAFAR01\15-Se
 p-2020\0\\#p mp2/aug-cc-pVDZ scf=(MaxCycle=2000,NoVarAcc,NoIncFock) ma
 xdisk=180GB geom=allcheck\\SM37_m0.n.8.pdb.xyz\\0,1\O,0,2.9554885287,-
 2.0863887597,-1.5692741983\S,0,2.7415239764,-0.909127781,-0.7113129606
 \N,0,1.0957709254,-0.6436293935,-0.7592766852\C,0,0.4591116013,0.63336
 36898,-0.3879895417\C,0,0.9172731408,1.9097261621,-1.1442500956\S,0,0.
 8359754238,2.9338358392,0.4192092266\O,0,-0.567344394,3.5180157969,0.5
 736166928\C,0,0.8359289583,1.1640697231,1.0129248344\C,0,-1.0624087704
 ,0.4528489895,-0.5396481621\C,0,-1.6724799235,-0.6677739628,0.3205109\
 C,0,-3.1760181302,-0.7403749296,0.1705096124\C,0,-3.7630393687,-1.6004
 54838,-0.7670278273\C,0,-5.148964183,-1.6469678701,-0.9292890409\C,0,-
 5.9731961199,-0.8310001718,-0.1519363332\C,0,-5.40057855,0.0293077986,
 0.7878966977\C,0,-4.0150922256,0.0717607178,0.9449202929\N,0,2.9564340
 003,-1.2287706503,0.9193702034\C,0,2.3185301223,-2.4626297233,1.395816
 3036\C,0,4.328132764,-1.0355730968,1.4174812746\O,0,3.5351996291,0.299
 0350532,-0.9845063685\H,0,0.730220111,-1.0437326107,-1.6230897272\H,0,
 0.2663837758,2.2854146145,-1.9349381465\H,0,1.9569281531,1.866233853,-
 1.4675981479\H,0,0.1271825324,0.9871426877,1.8224645012\H,0,1.84298905
 78,0.8893434454,1.3283149945\H,0,-1.2867911288,0.2725532041,-1.5982899
 062\H,0,-1.5143785392,1.4150217266,-0.277912011\H,0,-1.4172005768,-0.4
 955122078,1.3721430419\H,0,-1.2264417628,-1.6253444797,0.0375814216\H,
 0,-3.1271977089,-2.2416363468,-1.3711235106\H,0,-5.5839394212,-2.32283
 59871,-1.6591272636\H,0,-7.0509972609,-0.8676836361,-0.2741112417\H,0,
 -6.0322705561,0.6641427303,1.4011664351\H,0,-3.5772832,0.740761045,1.6
 805551129\H,0,1.2918103113,-2.502912145,1.0347639381\H,0,2.307863609,-
 2.4240815029,2.4863687905\H,0,2.8588058542,-3.3602909588,1.0737296123\
 H,0,4.709713297,-0.0806866913,1.0620972538\H,0,5.0030098354,-1.8432311
 129,1.1090020424\H,0,4.2723462128,-1.0189382209,2.5072579854\\Version=
 ES64L-G16RevB.01\State=1-A\HF=-1632.4058033\MP2=-1635.5226157\RMSD=4.4
 94e-09\PG=C01 [X(C13H20N2O3S2)]\\@


 TIMES HAVE CHANGED. IN THE BIBLE WHEN AN ASS
 SPOKE IT WAS CONSIDERED A MIRACLE.
 Job cpu time:       0 days  4 hours 49 minutes 11.3 seconds.
 Elapsed time:       0 days  1 hours 20 minutes 37.9 seconds.
 File lengths (MBytes):  RWF= 152801 Int=      0 D2E=      0 Chk=     34 Scr=      1
 Normal termination of Gaussian 16 at Tue Sep 15 10:24:42 2020.
