 Entering Gaussian System, Link 0=g16
 Initial command:
 /prod/apps/gaussian/g16b1/l1.exe "/tmp/ubafar01/1460085/Gau-76666.inp" -scrdir="/tmp/ubafar01/1460085/"
 Entering Link 1 = /prod/apps/gaussian/g16b1/l1.exe PID=     76667.
  
 Copyright (c) 1988-2017, Gaussian, Inc.  All Rights Reserved.
  
 This is part of the Gaussian(R) 16 program.  It is based on
 the Gaussian(R) 09 system (copyright 2009, Gaussian, Inc.),
 the Gaussian(R) 03 system (copyright 2003, Gaussian, Inc.),
 the Gaussian(R) 98 system (copyright 1998, Gaussian, Inc.),
 the Gaussian(R) 94 system (copyright 1995, Gaussian, Inc.),
 the Gaussian 92(TM) system (copyright 1992, Gaussian, Inc.),
 the Gaussian 90(TM) system (copyright 1990, Gaussian, Inc.),
 the Gaussian 88(TM) system (copyright 1988, Gaussian, Inc.),
 the Gaussian 86(TM) system (copyright 1986, Carnegie Mellon
 University), and the Gaussian 82(TM) system (copyright 1983,
 Carnegie Mellon University). Gaussian is a federally registered
 trademark of Gaussian, Inc.
  
 This software contains proprietary and confidential information,
 including trade secrets, belonging to Gaussian, Inc.
  
 This software is provided under written license and may be
 used, copied, transmitted, or stored only in accord with that
 written license.
  
 The following legend is applicable only to US Government
 contracts under FAR:
  
                    RESTRICTED RIGHTS LEGEND
  
 Use, reproduction and disclosure by the US Government is
 subject to restrictions as set forth in subparagraphs (a)
 and (c) of the Commercial Computer Software - Restricted
 Rights clause in FAR 52.227-19.
  
 Gaussian, Inc.
 340 Quinnipiac St., Bldg. 40, Wallingford CT 06492
  
  
 ---------------------------------------------------------------
 Warning -- This program may not be used in any manner that
 competes with the business of Gaussian, Inc. or will provide
 assistance to any competitor of Gaussian, Inc.  The licensee
 of this program is prohibited from giving any competitor of
 Gaussian, Inc. access to this program.  By using this program,
 the user acknowledges that Gaussian, Inc. is engaged in the
 business of creating and licensing software in the field of
 computational chemistry and represents and warrants to the
 licensee that it is not a competitor of Gaussian, Inc. and that
 it will not use this program in any manner prohibited above.
 ---------------------------------------------------------------
  

 Cite this work as:
 Gaussian 16, Revision B.01,
 M. J. Frisch, G. W. Trucks, H. B. Schlegel, G. E. Scuseria, 
 M. A. Robb, J. R. Cheeseman, G. Scalmani, V. Barone, 
 G. A. Petersson, H. Nakatsuji, X. Li, M. Caricato, A. V. Marenich, 
 J. Bloino, B. G. Janesko, R. Gomperts, B. Mennucci, H. P. Hratchian, 
 J. V. Ortiz, A. F. Izmaylov, J. L. Sonnenberg, D. Williams-Young, 
 F. Ding, F. Lipparini, F. Egidi, J. Goings, B. Peng, A. Petrone, 
 T. Henderson, D. Ranasinghe, V. G. Zakrzewski, J. Gao, N. Rega, 
 G. Zheng, W. Liang, M. Hada, M. Ehara, K. Toyota, R. Fukuda, 
 J. Hasegawa, M. Ishida, T. Nakajima, Y. Honda, O. Kitao, H. Nakai, 
 T. Vreven, K. Throssell, J. A. Montgomery, Jr., J. E. Peralta, 
 F. Ogliaro, M. J. Bearpark, J. J. Heyd, E. N. Brothers, K. N. Kudin, 
 V. N. Staroverov, T. A. Keith, R. Kobayashi, J. Normand, 
 K. Raghavachari, A. P. Rendell, J. C. Burant, S. S. Iyengar, 
 J. Tomasi, M. Cossi, J. M. Millam, M. Klene, C. Adamo, R. Cammi, 
 J. W. Ochterski, R. L. Martin, K. Morokuma, O. Farkas, 
 J. B. Foresman, and D. J. Fox, Gaussian, Inc., Wallingford CT, 2016.
 
 ******************************************
 Gaussian 16:  ES64L-G16RevB.01 20-Dec-2017
                21-Sep-2020 
 ******************************************
 %nproc=4
 Will use up to    4 processors via shared memory.
 %Chk=SM37_m0.n.7.pdb.xyz.mst.n.w.chk
 %mem=16GB
 ----------------------------------------------------------------------
 #p b3lyp/6-31G(d) opt freq NoSymm scf=(MaxCycle=2000,NoVarAcc,NoIncFoc
 k) scrf=(iefpcm,read,solvent=water)
 ----------------------------------------------------------------------
 1/18=20,19=15,26=3,38=1,40=2/1,3;
 2/9=110,12=2,15=1,17=6,18=5,40=1/2;
 3/5=1,6=6,7=1,11=2,25=1,30=1,70=2203,71=1,72=1,74=-5/1,2,3;
 4//1;
 5/5=100002,7=2000,38=1,53=1/2;
 6/7=2,8=2,9=2,10=2,28=1/1;
 7/30=1/1,2,3,16;
 1/18=20,19=15,26=3/3(2);
 2/9=110,15=1/2;
 99//99;
 2/9=110,15=1/2;
 3/5=1,6=6,7=1,11=2,25=1,30=1,70=2205,71=1,72=1,74=-5/1,2,3;
 4/5=5,16=3,69=1/1;
 5/5=100002,7=2000,38=1,53=1/2;
 7/30=1/1,2,3,16;
 1/18=20,19=15,26=3/3(-5);
 2/9=110,15=1/2;
 6/7=2,8=2,9=2,10=2,19=2,28=1/1;
 99/9=1/99;
 Leave Link    1 at Mon Sep 21 06:23:40 2020, MaxMem=  2147483648 cpu:               0.1 elap:               0.0
 (Enter /prod/apps/gaussian/g16b1/l101.exe)
 -------------------
 SM37_m0.n.7.pdb.xyz
 -------------------
 Symbolic Z-matrix:
 Charge =  0 Multiplicity = 1
 O                     2.683    -2.561    -0.743 
 S                     2.611    -1.099    -0.597 
 N                     1.049    -0.791    -0.156 
 C                     0.413     0.52      0.061 
 C                     0.544     1.53     -1.106 
 S                     0.663     2.974     0.071 
 O                    -0.736     3.501     0.383 
 C                     1.019     1.472     1.125 
 C                    -1.065     0.249     0.394 
 C                    -1.85     -0.508    -0.69 
 C                    -3.309    -0.665    -0.324 
 C                    -4.215     0.388    -0.512 
 C                    -5.557     0.252    -0.151 
 C                    -6.015    -0.945     0.406 
 C                    -5.124    -2.        0.597 
 C                    -3.783    -1.859     0.234 
 N                     3.582    -0.561     0.687 
 C                     3.406    -1.358     1.912 
 C                     5.002    -0.397     0.313 
 O                     2.963    -0.254    -1.743 
 H                     0.668    -1.557     0.401 
 H                    -0.295     1.607    -1.796 
 H                     1.485     1.452    -1.648 
 H                     0.533     1.506     2.101 
 H                     2.101     1.382     1.233 
 H                    -1.526     1.225     0.574 
 H                    -1.113    -0.303     1.341 
 H                    -1.403    -1.494    -0.847 
 H                    -1.763     0.034    -1.639 
 H                    -3.868     1.321    -0.948 
 H                    -6.244     1.077    -0.309 
 H                    -7.059    -1.053     0.684 
 H                    -5.47     -2.936     1.025 
 H                    -3.093    -2.686     0.38 
 H                     2.35     -1.411     2.173 
 H                     3.933    -0.841     2.717 
 H                     3.81     -2.373     1.812 
 H                     5.072     0.219    -0.581 
 H                     5.503    -1.359     0.14 
 H                     5.496     0.113     1.141 
 
 ITRead=  0  0  0  0  0  0  0  0  0  0  0  0  0  0  0  0  0  0  0  0
 ITRead=  0  0  0  0  0  0  0  0  0  0  0  0  0  0  0  0  0  0  0  0
 MicOpt= -1 -1 -1 -1 -1 -1 -1 -1 -1 -1 -1 -1 -1 -1 -1 -1 -1 -1 -1 -1
 MicOpt= -1 -1 -1 -1 -1 -1 -1 -1 -1 -1 -1 -1 -1 -1 -1 -1 -1 -1 -1 -1
 NAtoms=     40 NQM=       40 NQMF=       0 NMMI=      0 NMMIF=      0
                NMic=       0 NMicF=      0.
                    Isotopes and Nuclear Properties:
 (Nuclear quadrupole moments (NQMom) in fm**2, nuclear magnetic moments (NMagM)
  in nuclear magnetons)

  Atom         1           2           3           4           5           6           7           8           9          10
 IAtWgt=          16          32          14          12          12          32          16          12          12          12
 AtmWgt=  15.9949146  31.9720718  14.0030740  12.0000000  12.0000000  31.9720718  15.9949146  12.0000000  12.0000000  12.0000000
 NucSpn=           0           0           2           0           0           0           0           0           0           0
 AtZEff=  -0.0000000  -0.0000000  -0.0000000  -0.0000000  -0.0000000  -0.0000000  -0.0000000  -0.0000000  -0.0000000  -0.0000000
 NQMom=    0.0000000   0.0000000   2.0440000   0.0000000   0.0000000   0.0000000   0.0000000   0.0000000   0.0000000   0.0000000
 NMagM=    0.0000000   0.0000000   0.4037610   0.0000000   0.0000000   0.0000000   0.0000000   0.0000000   0.0000000   0.0000000
 AtZNuc=   8.0000000  16.0000000   7.0000000   6.0000000   6.0000000  16.0000000   8.0000000   6.0000000   6.0000000   6.0000000

  Atom        11          12          13          14          15          16          17          18          19          20
 IAtWgt=          12          12          12          12          12          12          14          12          12          16
 AtmWgt=  12.0000000  12.0000000  12.0000000  12.0000000  12.0000000  12.0000000  14.0030740  12.0000000  12.0000000  15.9949146
 NucSpn=           0           0           0           0           0           0           2           0           0           0
 AtZEff=  -0.0000000  -0.0000000  -0.0000000  -0.0000000  -0.0000000  -0.0000000  -0.0000000  -0.0000000  -0.0000000  -0.0000000
 NQMom=    0.0000000   0.0000000   0.0000000   0.0000000   0.0000000   0.0000000   2.0440000   0.0000000   0.0000000   0.0000000
 NMagM=    0.0000000   0.0000000   0.0000000   0.0000000   0.0000000   0.0000000   0.4037610   0.0000000   0.0000000   0.0000000
 AtZNuc=   6.0000000   6.0000000   6.0000000   6.0000000   6.0000000   6.0000000   7.0000000   6.0000000   6.0000000   8.0000000

  Atom        21          22          23          24          25          26          27          28          29          30
 IAtWgt=           1           1           1           1           1           1           1           1           1           1
 AtmWgt=   1.0078250   1.0078250   1.0078250   1.0078250   1.0078250   1.0078250   1.0078250   1.0078250   1.0078250   1.0078250
 NucSpn=           1           1           1           1           1           1           1           1           1           1
 AtZEff=  -0.0000000  -0.0000000  -0.0000000  -0.0000000  -0.0000000  -0.0000000  -0.0000000  -0.0000000  -0.0000000  -0.0000000
 NQMom=    0.0000000   0.0000000   0.0000000   0.0000000   0.0000000   0.0000000   0.0000000   0.0000000   0.0000000   0.0000000
 NMagM=    2.7928460   2.7928460   2.7928460   2.7928460   2.7928460   2.7928460   2.7928460   2.7928460   2.7928460   2.7928460
 AtZNuc=   1.0000000   1.0000000   1.0000000   1.0000000   1.0000000   1.0000000   1.0000000   1.0000000   1.0000000   1.0000000

  Atom        31          32          33          34          35          36          37          38          39          40
 IAtWgt=           1           1           1           1           1           1           1           1           1           1
 AtmWgt=   1.0078250   1.0078250   1.0078250   1.0078250   1.0078250   1.0078250   1.0078250   1.0078250   1.0078250   1.0078250
 NucSpn=           1           1           1           1           1           1           1           1           1           1
 AtZEff=  -0.0000000  -0.0000000  -0.0000000  -0.0000000  -0.0000000  -0.0000000  -0.0000000  -0.0000000  -0.0000000  -0.0000000
 NQMom=    0.0000000   0.0000000   0.0000000   0.0000000   0.0000000   0.0000000   0.0000000   0.0000000   0.0000000   0.0000000
 NMagM=    2.7928460   2.7928460   2.7928460   2.7928460   2.7928460   2.7928460   2.7928460   2.7928460   2.7928460   2.7928460
 AtZNuc=   1.0000000   1.0000000   1.0000000   1.0000000   1.0000000   1.0000000   1.0000000   1.0000000   1.0000000   1.0000000
 Leave Link  101 at Mon Sep 21 06:23:41 2020, MaxMem=  2147483648 cpu:               1.3 elap:               0.3
 (Enter /prod/apps/gaussian/g16b1/l103.exe)

 GradGradGradGradGradGradGradGradGradGradGradGradGradGradGradGradGradGrad
 Berny optimization.
 Initialization pass.
                           ----------------------------
                           !    Initial Parameters    !
                           ! (Angstroms and Degrees)  !
 --------------------------                            --------------------------
 ! Name  Definition              Value          Derivative Info.                !
 --------------------------------------------------------------------------------
 ! R1    R(1,2)                  1.471          estimate D2E/DX2                !
 ! R2    R(2,3)                  1.652          estimate D2E/DX2                !
 ! R3    R(2,17)                 1.6973         estimate D2E/DX2                !
 ! R4    R(2,20)                 1.4667         estimate D2E/DX2                !
 ! R5    R(3,4)                  1.4732         estimate D2E/DX2                !
 ! R6    R(3,21)                 1.0209         estimate D2E/DX2                !
 ! R7    R(4,5)                  1.5489         estimate D2E/DX2                !
 ! R8    R(4,8)                  1.551          estimate D2E/DX2                !
 ! R9    R(4,9)                  1.5391         estimate D2E/DX2                !
 ! R10   R(5,6)                  1.8667         estimate D2E/DX2                !
 ! R11   R(5,22)                 1.089          estimate D2E/DX2                !
 ! R12   R(5,23)                 1.0887         estimate D2E/DX2                !
 ! R13   R(6,7)                  1.5272         estimate D2E/DX2                !
 ! R14   R(6,8)                  1.8691         estimate D2E/DX2                !
 ! R15   R(8,24)                 1.0908         estimate D2E/DX2                !
 ! R16   R(8,25)                 1.0911         estimate D2E/DX2                !
 ! R17   R(9,10)                 1.5376         estimate D2E/DX2                !
 ! R18   R(9,26)                 1.0943         estimate D2E/DX2                !
 ! R19   R(9,27)                 1.0972         estimate D2E/DX2                !
 ! R20   R(10,11)                1.5124         estimate D2E/DX2                !
 ! R21   R(10,28)                1.0939         estimate D2E/DX2                !
 ! R22   R(10,29)                1.0963         estimate D2E/DX2                !
 ! R23   R(11,12)                1.4018         estimate D2E/DX2                !
 ! R24   R(11,16)                1.4006         estimate D2E/DX2                !
 ! R25   R(12,13)                1.3963         estimate D2E/DX2                !
 ! R26   R(12,30)                1.0867         estimate D2E/DX2                !
 ! R27   R(13,14)                1.3974         estimate D2E/DX2                !
 ! R28   R(13,31)                1.0852         estimate D2E/DX2                !
 ! R29   R(14,15)                1.3941         estimate D2E/DX2                !
 ! R30   R(14,32)                1.0858         estimate D2E/DX2                !
 ! R31   R(15,16)                1.3964         estimate D2E/DX2                !
 ! R32   R(15,33)                1.0858         estimate D2E/DX2                !
 ! R33   R(16,34)                1.0869         estimate D2E/DX2                !
 ! R34   R(17,18)                1.472          estimate D2E/DX2                !
 ! R35   R(17,19)                1.4776         estimate D2E/DX2                !
 ! R36   R(18,35)                1.0891         estimate D2E/DX2                !
 ! R37   R(18,36)                1.0923         estimate D2E/DX2                !
 ! R38   R(18,37)                1.097          estimate D2E/DX2                !
 ! R39   R(19,38)                1.0879         estimate D2E/DX2                !
 ! R40   R(19,39)                1.0984         estimate D2E/DX2                !
 ! R41   R(19,40)                1.0907         estimate D2E/DX2                !
 ! A1    A(1,2,3)              104.9553         estimate D2E/DX2                !
 ! A2    A(1,2,17)             111.2293         estimate D2E/DX2                !
 ! A3    A(1,2,20)             118.9002         estimate D2E/DX2                !
 ! A4    A(3,2,17)             106.2522         estimate D2E/DX2                !
 ! A5    A(3,2,20)             109.1522         estimate D2E/DX2                !
 ! A6    A(17,2,20)            105.7335         estimate D2E/DX2                !
 ! A7    A(2,3,4)              127.8372         estimate D2E/DX2                !
 ! A8    A(2,3,21)             111.0162         estimate D2E/DX2                !
 ! A9    A(4,3,21)             115.2293         estimate D2E/DX2                !
 ! A10   A(3,4,5)              115.6444         estimate D2E/DX2                !
 ! A11   A(3,4,8)              118.5932         estimate D2E/DX2                !
 ! A12   A(3,4,9)              106.8433         estimate D2E/DX2                !
 ! A13   A(5,4,8)               94.7941         estimate D2E/DX2                !
 ! A14   A(5,4,9)              111.0415         estimate D2E/DX2                !
 ! A15   A(8,4,9)              109.5637         estimate D2E/DX2                !
 ! A16   A(4,5,6)               91.9913         estimate D2E/DX2                !
 ! A17   A(4,5,22)             117.2787         estimate D2E/DX2                !
 ! A18   A(4,5,23)             113.6696         estimate D2E/DX2                !
 ! A19   A(6,5,22)             113.1984         estimate D2E/DX2                !
 ! A20   A(6,5,23)             108.3132         estimate D2E/DX2                !
 ! A21   A(22,5,23)            110.8257         estimate D2E/DX2                !
 ! A22   A(5,6,7)              109.7157         estimate D2E/DX2                !
 ! A23   A(5,6,8)               75.2903         estimate D2E/DX2                !
 ! A24   A(7,6,8)              109.6683         estimate D2E/DX2                !
 ! A25   A(4,8,6)               91.8326         estimate D2E/DX2                !
 ! A26   A(4,8,24)             117.3124         estimate D2E/DX2                !
 ! A27   A(4,8,25)             113.8742         estimate D2E/DX2                !
 ! A28   A(6,8,24)             113.2429         estimate D2E/DX2                !
 ! A29   A(6,8,25)             108.118          estimate D2E/DX2                !
 ! A30   A(24,8,25)            110.8439         estimate D2E/DX2                !
 ! A31   A(4,9,10)             115.1136         estimate D2E/DX2                !
 ! A32   A(4,9,26)             106.4451         estimate D2E/DX2                !
 ! A33   A(4,9,27)             108.5023         estimate D2E/DX2                !
 ! A34   A(10,9,26)            109.8758         estimate D2E/DX2                !
 ! A35   A(10,9,27)            109.783          estimate D2E/DX2                !
 ! A36   A(26,9,27)            106.757          estimate D2E/DX2                !
 ! A37   A(9,10,11)            111.9011         estimate D2E/DX2                !
 ! A38   A(9,10,28)            109.6524         estimate D2E/DX2                !
 ! A39   A(9,10,29)            109.0467         estimate D2E/DX2                !
 ! A40   A(11,10,28)           109.5947         estimate D2E/DX2                !
 ! A41   A(11,10,29)           109.716          estimate D2E/DX2                !
 ! A42   A(28,10,29)           106.7948         estimate D2E/DX2                !
 ! A43   A(10,11,12)           120.8687         estimate D2E/DX2                !
 ! A44   A(10,11,16)           120.7567         estimate D2E/DX2                !
 ! A45   A(12,11,16)           118.3646         estimate D2E/DX2                !
 ! A46   A(11,12,13)           120.8859         estimate D2E/DX2                !
 ! A47   A(11,12,30)           119.4954         estimate D2E/DX2                !
 ! A48   A(13,12,30)           119.6183         estimate D2E/DX2                !
 ! A49   A(12,13,14)           120.0968         estimate D2E/DX2                !
 ! A50   A(12,13,31)           119.7859         estimate D2E/DX2                !
 ! A51   A(14,13,31)           120.1165         estimate D2E/DX2                !
 ! A52   A(13,14,15)           119.5627         estimate D2E/DX2                !
 ! A53   A(13,14,32)           120.1585         estimate D2E/DX2                !
 ! A54   A(15,14,32)           120.2783         estimate D2E/DX2                !
 ! A55   A(14,15,16)           120.1161         estimate D2E/DX2                !
 ! A56   A(14,15,33)           120.1793         estimate D2E/DX2                !
 ! A57   A(16,15,33)           119.7042         estimate D2E/DX2                !
 ! A58   A(11,16,15)           120.9738         estimate D2E/DX2                !
 ! A59   A(11,16,34)           119.1644         estimate D2E/DX2                !
 ! A60   A(15,16,34)           119.8612         estimate D2E/DX2                !
 ! A61   A(2,17,18)            112.9248         estimate D2E/DX2                !
 ! A62   A(2,17,19)            113.1718         estimate D2E/DX2                !
 ! A63   A(18,17,19)           112.6841         estimate D2E/DX2                !
 ! A64   A(17,18,35)           109.9819         estimate D2E/DX2                !
 ! A65   A(17,18,36)           107.4194         estimate D2E/DX2                !
 ! A66   A(17,18,37)           112.3997         estimate D2E/DX2                !
 ! A67   A(35,18,36)           108.3151         estimate D2E/DX2                !
 ! A68   A(35,18,37)           109.5062         estimate D2E/DX2                !
 ! A69   A(36,18,37)           109.1134         estimate D2E/DX2                !
 ! A70   A(17,19,38)           109.4317         estimate D2E/DX2                !
 ! A71   A(17,19,39)           112.3971         estimate D2E/DX2                !
 ! A72   A(17,19,40)           107.1581         estimate D2E/DX2                !
 ! A73   A(38,19,39)           109.7028         estimate D2E/DX2                !
 ! A74   A(38,19,40)           109.2635         estimate D2E/DX2                !
 ! A75   A(39,19,40)           108.8146         estimate D2E/DX2                !
 ! D1    D(1,2,3,4)           -176.8928         estimate D2E/DX2                !
 ! D2    D(1,2,3,21)            31.8744         estimate D2E/DX2                !
 ! D3    D(17,2,3,4)            65.1855         estimate D2E/DX2                !
 ! D4    D(17,2,3,21)          -86.0473         estimate D2E/DX2                !
 ! D5    D(20,2,3,4)           -48.4079         estimate D2E/DX2                !
 ! D6    D(20,2,3,21)          160.3593         estimate D2E/DX2                !
 ! D7    D(1,2,17,18)          -46.5232         estimate D2E/DX2                !
 ! D8    D(1,2,17,19)           83.007          estimate D2E/DX2                !
 ! D9    D(3,2,17,18)           67.1562         estimate D2E/DX2                !
 ! D10   D(3,2,17,19)         -163.3136         estimate D2E/DX2                !
 ! D11   D(20,2,17,18)        -176.9209         estimate D2E/DX2                !
 ! D12   D(20,2,17,19)         -47.3907         estimate D2E/DX2                !
 ! D13   D(2,3,4,5)             53.3489         estimate D2E/DX2                !
 ! D14   D(2,3,4,8)            -58.1975         estimate D2E/DX2                !
 ! D15   D(2,3,4,9)            177.5062         estimate D2E/DX2                !
 ! D16   D(21,3,4,5)          -156.4271         estimate D2E/DX2                !
 ! D17   D(21,3,4,8)            92.0264         estimate D2E/DX2                !
 ! D18   D(21,3,4,9)           -32.2699         estimate D2E/DX2                !
 ! D19   D(3,4,5,6)           -145.0758         estimate D2E/DX2                !
 ! D20   D(3,4,5,22)            97.4465         estimate D2E/DX2                !
 ! D21   D(3,4,5,23)           -34.0664         estimate D2E/DX2                !
 ! D22   D(8,4,5,6)            -20.1156         estimate D2E/DX2                !
 ! D23   D(8,4,5,22)          -137.5933         estimate D2E/DX2                !
 ! D24   D(8,4,5,23)            90.8938         estimate D2E/DX2                !
 ! D25   D(9,4,5,6)             92.9822         estimate D2E/DX2                !
 ! D26   D(9,4,5,22)           -24.4955         estimate D2E/DX2                !
 ! D27   D(9,4,5,23)          -156.0085         estimate D2E/DX2                !
 ! D28   D(3,4,8,6)            142.7935         estimate D2E/DX2                !
 ! D29   D(3,4,8,24)           -99.7616         estimate D2E/DX2                !
 ! D30   D(3,4,8,25)            32.0363         estimate D2E/DX2                !
 ! D31   D(5,4,8,6)             20.0865         estimate D2E/DX2                !
 ! D32   D(5,4,8,24)           137.5314         estimate D2E/DX2                !
 ! D33   D(5,4,8,25)           -90.6707         estimate D2E/DX2                !
 ! D34   D(9,4,8,6)            -94.2557         estimate D2E/DX2                !
 ! D35   D(9,4,8,24)            23.1892         estimate D2E/DX2                !
 ! D36   D(9,4,8,25)           154.9871         estimate D2E/DX2                !
 ! D37   D(3,4,9,10)           -59.1399         estimate D2E/DX2                !
 ! D38   D(3,4,9,26)           178.8651         estimate D2E/DX2                !
 ! D39   D(3,4,9,27)            64.2971         estimate D2E/DX2                !
 ! D40   D(5,4,9,10)            67.7982         estimate D2E/DX2                !
 ! D41   D(5,4,9,26)           -54.1968         estimate D2E/DX2                !
 ! D42   D(5,4,9,27)          -168.7647         estimate D2E/DX2                !
 ! D43   D(8,4,9,10)           171.1979         estimate D2E/DX2                !
 ! D44   D(8,4,9,26)            49.2029         estimate D2E/DX2                !
 ! D45   D(8,4,9,27)           -65.3651         estimate D2E/DX2                !
 ! D46   D(4,5,6,7)            -88.8972         estimate D2E/DX2                !
 ! D47   D(4,5,6,8)             17.0988         estimate D2E/DX2                !
 ! D48   D(22,5,6,7)            32.0227         estimate D2E/DX2                !
 ! D49   D(22,5,6,8)           138.0186         estimate D2E/DX2                !
 ! D50   D(23,5,6,7)           155.3403         estimate D2E/DX2                !
 ! D51   D(23,5,6,8)           -98.6638         estimate D2E/DX2                !
 ! D52   D(5,6,8,4)            -17.0734         estimate D2E/DX2                !
 ! D53   D(5,6,8,24)          -137.9618         estimate D2E/DX2                !
 ! D54   D(5,6,8,25)            98.8094         estimate D2E/DX2                !
 ! D55   D(7,6,8,4)             88.9817         estimate D2E/DX2                !
 ! D56   D(7,6,8,24)           -31.9067         estimate D2E/DX2                !
 ! D57   D(7,6,8,25)          -155.1355         estimate D2E/DX2                !
 ! D58   D(4,9,10,11)         -176.7175         estimate D2E/DX2                !
 ! D59   D(4,9,10,28)           61.4542         estimate D2E/DX2                !
 ! D60   D(4,9,10,29)          -55.1534         estimate D2E/DX2                !
 ! D61   D(26,9,10,11)         -56.5912         estimate D2E/DX2                !
 ! D62   D(26,9,10,28)        -178.4195         estimate D2E/DX2                !
 ! D63   D(26,9,10,29)          64.9728         estimate D2E/DX2                !
 ! D64   D(27,9,10,11)          60.5275         estimate D2E/DX2                !
 ! D65   D(27,9,10,28)         -61.3008         estimate D2E/DX2                !
 ! D66   D(27,9,10,29)        -177.9084         estimate D2E/DX2                !
 ! D67   D(9,10,11,12)          80.1172         estimate D2E/DX2                !
 ! D68   D(9,10,11,16)         -98.718          estimate D2E/DX2                !
 ! D69   D(28,10,11,12)       -158.0214         estimate D2E/DX2                !
 ! D70   D(28,10,11,16)         23.1434         estimate D2E/DX2                !
 ! D71   D(29,10,11,12)        -41.0607         estimate D2E/DX2                !
 ! D72   D(29,10,11,16)        140.1041         estimate D2E/DX2                !
 ! D73   D(10,11,12,13)       -178.7921         estimate D2E/DX2                !
 ! D74   D(10,11,12,30)          1.4339         estimate D2E/DX2                !
 ! D75   D(16,11,12,13)          0.0704         estimate D2E/DX2                !
 ! D76   D(16,11,12,30)       -179.7037         estimate D2E/DX2                !
 ! D77   D(10,11,16,15)        178.7781         estimate D2E/DX2                !
 ! D78   D(10,11,16,34)         -1.5008         estimate D2E/DX2                !
 ! D79   D(12,11,16,15)         -0.0857         estimate D2E/DX2                !
 ! D80   D(12,11,16,34)        179.6354         estimate D2E/DX2                !
 ! D81   D(11,12,13,14)         -0.0041         estimate D2E/DX2                !
 ! D82   D(11,12,13,31)       -179.6974         estimate D2E/DX2                !
 ! D83   D(30,12,13,14)        179.7697         estimate D2E/DX2                !
 ! D84   D(30,12,13,31)          0.0763         estimate D2E/DX2                !
 ! D85   D(12,13,14,15)         -0.0485         estimate D2E/DX2                !
 ! D86   D(12,13,14,32)       -179.7953         estimate D2E/DX2                !
 ! D87   D(31,13,14,15)        179.6438         estimate D2E/DX2                !
 ! D88   D(31,13,14,32)         -0.103          estimate D2E/DX2                !
 ! D89   D(13,14,15,16)          0.0334         estimate D2E/DX2                !
 ! D90   D(13,14,15,33)       -179.7355         estimate D2E/DX2                !
 ! D91   D(32,14,15,16)        179.7799         estimate D2E/DX2                !
 ! D92   D(32,14,15,33)          0.011          estimate D2E/DX2                !
 ! D93   D(14,15,16,11)          0.0347         estimate D2E/DX2                !
 ! D94   D(14,15,16,34)       -179.6845         estimate D2E/DX2                !
 ! D95   D(33,15,16,11)        179.8047         estimate D2E/DX2                !
 ! D96   D(33,15,16,34)          0.0855         estimate D2E/DX2                !
 ! D97   D(2,17,18,35)         -52.9146         estimate D2E/DX2                !
 ! D98   D(2,17,18,36)        -170.5943         estimate D2E/DX2                !
 ! D99   D(2,17,18,37)          69.3725         estimate D2E/DX2                !
 ! D100  D(19,17,18,35)        177.3063         estimate D2E/DX2                !
 ! D101  D(19,17,18,36)         59.6266         estimate D2E/DX2                !
 ! D102  D(19,17,18,37)        -60.4066         estimate D2E/DX2                !
 ! D103  D(2,17,19,38)          51.7896         estimate D2E/DX2                !
 ! D104  D(2,17,19,39)         -70.355          estimate D2E/DX2                !
 ! D105  D(2,17,19,40)         170.1526         estimate D2E/DX2                !
 ! D106  D(18,17,19,38)       -178.5579         estimate D2E/DX2                !
 ! D107  D(18,17,19,39)         59.2976         estimate D2E/DX2                !
 ! D108  D(18,17,19,40)        -60.1949         estimate D2E/DX2                !
 --------------------------------------------------------------------------------
 Trust Radius=3.00D-01 FncErr=1.00D-07 GrdErr=1.00D-06 EigMax=2.50D+02 EigMin=1.00D-04
 Number of steps in this run=    234 maximum allowed number of steps=    240.
 GradGradGradGradGradGradGradGradGradGradGradGradGradGradGradGradGradGrad

 Leave Link  103 at Mon Sep 21 06:23:41 2020, MaxMem=  2147483648 cpu:               0.1 elap:               0.0
 (Enter /prod/apps/gaussian/g16b1/l202.exe)
                          Input orientation:                          
 ---------------------------------------------------------------------
 Center     Atomic      Atomic             Coordinates (Angstroms)
 Number     Number       Type             X           Y           Z
 ---------------------------------------------------------------------
      1          8           0        2.683000   -2.561000   -0.743000
      2         16           0        2.611000   -1.099000   -0.597000
      3          7           0        1.049000   -0.791000   -0.156000
      4          6           0        0.413000    0.520000    0.061000
      5          6           0        0.544000    1.530000   -1.106000
      6         16           0        0.663000    2.974000    0.071000
      7          8           0       -0.736000    3.501000    0.383000
      8          6           0        1.019000    1.472000    1.125000
      9          6           0       -1.065000    0.249000    0.394000
     10          6           0       -1.850000   -0.508000   -0.690000
     11          6           0       -3.309000   -0.665000   -0.324000
     12          6           0       -4.215000    0.388000   -0.512000
     13          6           0       -5.557000    0.252000   -0.151000
     14          6           0       -6.015000   -0.945000    0.406000
     15          6           0       -5.124000   -2.000000    0.597000
     16          6           0       -3.783000   -1.859000    0.234000
     17          7           0        3.582000   -0.561000    0.687000
     18          6           0        3.406000   -1.358000    1.912000
     19          6           0        5.002000   -0.397000    0.313000
     20          8           0        2.963000   -0.254000   -1.743000
     21          1           0        0.668000   -1.557000    0.401000
     22          1           0       -0.295000    1.607000   -1.796000
     23          1           0        1.485000    1.452000   -1.648000
     24          1           0        0.533000    1.506000    2.101000
     25          1           0        2.101000    1.382000    1.233000
     26          1           0       -1.526000    1.225000    0.574000
     27          1           0       -1.113000   -0.303000    1.341000
     28          1           0       -1.403000   -1.494000   -0.847000
     29          1           0       -1.763000    0.034000   -1.639000
     30          1           0       -3.868000    1.321000   -0.948000
     31          1           0       -6.244000    1.077000   -0.309000
     32          1           0       -7.059000   -1.053000    0.684000
     33          1           0       -5.470000   -2.936000    1.025000
     34          1           0       -3.093000   -2.686000    0.380000
     35          1           0        2.350000   -1.411000    2.173000
     36          1           0        3.933000   -0.841000    2.717000
     37          1           0        3.810000   -2.373000    1.812000
     38          1           0        5.072000    0.219000   -0.581000
     39          1           0        5.503000   -1.359000    0.140000
     40          1           0        5.496000    0.113000    1.141000
 ---------------------------------------------------------------------
                    Distance matrix (angstroms):
                    1          2          3          4          5
     1  O    0.000000
     2  S    1.471035   0.000000
     3  N    2.479400   1.652026   0.000000
     4  C    3.910483   2.808083   1.473196   0.000000
     5  C    4.630699   3.382782   2.558235   1.548919   0.000000
     6  S    5.948043   4.564018   3.791537   2.466722   1.866715
     7  O    7.050197   5.772591   4.679531   3.210957   2.782151
     8  C    4.745883   3.479912   2.600583   1.551011   2.281743
     9  C    4.820412   4.038832   2.419317   1.539095   2.545553
    10  C    4.976516   4.500939   2.961325   2.596527   3.171393
    11  C    6.298765   5.942162   4.363057   3.925014   4.502794
    12  C    7.505489   6.986606   5.406151   4.665205   4.930018
    13  C    8.727029   8.290979   6.687833   5.979772   6.306149
    14  C    8.921147   8.685482   7.087994   6.601851   7.171628
    15  C    7.941006   7.878303   6.335189   6.107050   6.891105
    16  C    6.576967   6.492411   4.963965   4.826592   5.657195
    17  N    2.617843   1.697333   2.679485   3.406317   4.100802
    18  C    3.003159   2.644653   3.186465   3.988876   5.063587
    19  C    3.343022   2.652882   4.000176   4.686503   5.059709
    20  O    2.529950   1.466712   2.543685   3.218073   3.072456
    21  H    2.525268   2.231819   1.020865   2.120036   3.437440
    22  H    5.229677   4.147876   3.200990   2.265233   1.089013
    23  H    4.284670   2.979946   2.728957   2.222271   1.088728
    24  H    5.408449   4.287577   3.261367   2.268964   3.207109
    25  H    4.448657   3.124798   2.785310   2.228446   2.813730
    26  H    5.812398   4.887431   3.350788   2.126009   2.683342
    27  H    4.883773   4.272896   2.674584   2.155088   3.477549
    28  H    4.224299   4.041129   2.642725   2.859810   3.605893
    29  H    5.225300   4.636953   3.284396   2.803778   2.800777
    30  H    7.617582   6.925102   5.409685   4.470642   4.419773
    31  H    9.649597   9.122990   7.529986   6.690501   6.849625
    32  H    9.960771   9.754587   8.155606   7.661151   8.226883
    33  H    8.350920   8.444407   6.963702   6.890785   7.788101
    34  H    5.885485   6.000726   4.586337   4.761537   5.762866
    35  H    3.152213   2.799708   2.738840   3.455615   4.760563
    36  H    4.061096   3.577268   4.071128   4.614873   5.632255
    37  H    2.798839   2.977240   3.741506   4.793231   5.866420
    38  H    3.669055   2.791756   4.169563   4.712647   4.743114
    39  H    3.190124   2.995736   4.499817   5.426323   5.872863
    40  H    4.314244   3.579499   4.719665   5.212383   5.619538
                    6          7          8          9         10
     6  S    0.000000
     7  O    1.527178   0.000000
     8  C    1.869132   2.783421   0.000000
     9  C    3.242829   3.268618   2.524509   0.000000
    10  C    4.361034   4.297023   3.930113   1.537638   0.000000
    11  C    5.401401   4.947296   5.039638   2.527144   1.512378
    12  C    5.551772   4.753445   5.590132   3.280649   2.535296
    13  C    6.793156   5.838082   6.808844   4.524942   3.822299
    14  C    7.750256   6.901832   7.472349   5.091982   4.328904
    15  C    7.648969   7.039982   7.076017   4.644856   3.821192
    16  C    6.568971   6.167334   5.911738   3.443369   2.532877
    17  N    4.625607   5.936108   3.300591   4.726157   5.604067
    18  C    5.447894   6.565355   3.784975   4.987646   5.926081
    19  C    5.499921   6.937143   4.474013   6.101833   6.925910
    20  O    4.358965   5.683529   3.870870   4.587435   4.933386
    21  H    4.543004   5.249277   3.134042   2.502993   2.937857
    22  H    2.504424   2.920575   3.205786   2.689454   2.848594
    23  H    2.438674   3.640907   2.811954   3.481303   3.985171
    24  H    2.508550   2.922655   1.090838   2.654713   4.186235
    25  H    2.439785   3.641597   1.091095   3.465713   4.783349
    26  H    2.846705   2.416766   2.615652   1.094302   2.169323
    27  H    3.937741   3.940851   2.782572   1.097186   2.170289
    28  H    5.007405   5.187274   4.307206   2.166189   1.093917
    29  H    4.177700   4.142862   4.176968   2.160212   1.096328
    30  H    4.929577   4.041458   5.310640   3.287394   2.735714
    31  H    7.172842   6.057450   7.413741   5.291676   4.686643
    32  H    8.730509   7.798067   8.474915   6.140630   5.414664
    33  H    8.570409   8.016102   7.845227   5.472331   4.684102
    34  H    6.799898   6.620757   5.895128   3.567521   2.726469
    35  H    5.147096   6.070852   3.343883   4.193169   5.162575
    36  H    5.678771   6.789704   4.046706   5.618223   6.720240
    37  H    6.443997   7.563864   4.800591   5.714126   6.463268
    38  H    5.239696   6.740451   4.572445   6.214040   6.960926
    39  H    6.496557   7.912254   5.393611   6.766742   7.448470
    40  H    5.717352   7.133788   4.678746   6.604788   7.596178
                   11         12         13         14         15
    11  C    0.000000
    12  C    1.401781   0.000000
    13  C    2.433993   1.396346   0.000000
    14  C    2.816689   2.420664   1.397434   0.000000
    15  C    2.434069   2.785445   2.412156   1.394054   0.000000
    16  C    1.400598   2.406688   2.784173   2.418017   1.396399
    17  N    6.965545   7.945528   9.213280   9.608789   8.824583
    18  C    7.111341   8.185593   9.337207   9.549547   8.654611
    19  C    8.339683   9.287085  10.589097  11.031013  10.256029
    20  O    6.443638   7.311033   8.682217   9.257438   8.597888
    21  H    4.139785   5.334818   6.505983   6.710966   5.812222
    22  H    4.051292   4.301281   5.677208   6.639270   6.485070
    23  H    5.405285   5.908688   7.298683   8.137231   7.786861
    24  H    5.035358   5.533642   6.613027   7.194215   6.823174
    25  H    5.990205   6.627588   7.863671   8.483414   8.002690
    26  H    2.749108   3.018391   4.209669   4.988812   4.831848
    27  H    2.779512   3.678790   4.720511   5.031500   4.418310
    28  H    2.143270   3.400220   4.559457   4.810608   4.023309
    29  H    2.146612   2.721718   4.081189   4.818710   4.520307
    30  H    2.155470   1.086735   2.151904   3.402599   3.872157
    31  H    3.413065   2.152387   1.085153   2.156884   3.397523
    32  H    3.902449   3.405177   2.157835   1.085764   2.156062
    33  H    3.412794   3.871223   3.399101   2.155056   1.085816
    34  H    2.150980   3.391758   3.871059   3.401447   2.154680
    35  H    6.230233   7.317435   8.407568   8.562282   7.661030
    36  H    7.856540   8.850242   9.973975  10.213434   9.373736
    37  H    7.626265   8.799132   9.923945  10.027295   9.023952
    38  H    8.431409   9.288794  10.637746  11.191543  10.500955
    39  H    8.851456   9.895284  11.180501  11.528507  10.656118
    40  H    8.959885   9.854520  11.129124  11.582863  10.841822
                   16         17         18         19         20
    16  C    0.000000
    17  N    7.492212   0.000000
    18  C    7.399217   1.472009   0.000000
    19  C    8.906173   1.477556   2.455104   0.000000
    20  O    7.210622   2.526323   3.843708   2.899156   0.000000
    21  H    4.464358   3.092767   3.133587   4.487416   3.400231
    22  H    5.319793   5.088874   6.019792   6.043352   3.752425
    23  H    6.500498   3.728512   4.925438   4.430983   2.259191
    24  H    5.782454   3.945667   4.061077   5.175936   4.876355
    25  H    6.791431   2.503343   3.109930   3.525201   3.503729
    26  H    3.836757   5.412414   5.725972   6.731552   5.263749
    27  H    3.282603   4.747347   4.675514   6.201520   5.111481
    28  H    2.639353   5.298478   5.545905   6.600987   4.626270
    29  H    3.342451   5.859465   6.423848   7.054168   4.735909
    30  H    3.393634   7.856058   8.262428   9.122420   7.055155
    31  H    3.869298  10.011260  10.197282  11.359229   9.412586
    32  H    3.403573  10.652368  10.541216  12.084523  10.342592
    33  H    2.152110   9.364485   9.058710  10.798900   9.272024
    34  H    1.086897   7.011811   6.807908   8.412671   6.862717
    35  H    6.447799   2.109151   1.089067   3.394245   4.129101
    36  H    8.169349   2.079063   1.092265   2.668167   4.601855
    37  H    7.772254   2.144983   1.097015   2.751807   4.224405
    38  H    9.131995   2.106258   3.387851   1.087930   2.453947
    39  H    9.299926   2.150873   2.745431   1.098351   3.349375
    40  H    9.529495   2.079372   2.669528   1.090743   3.855935
                   21         22         23         24         25
    21  H    0.000000
    22  H    3.970526   0.000000
    23  H    3.730948   1.792855   0.000000
    24  H    3.505737   3.985272   3.868362   0.000000
    25  H    3.373934   3.868628   2.946950   1.796503   0.000000
    26  H    3.547265   2.697811   3.748991   2.578793   3.689723
    27  H    2.372357   3.762711   4.331714   2.561132   3.630521
    28  H    2.418784   3.427020   4.202507   4.630205   4.987564
    29  H    3.550020   2.157314   3.544053   4.628823   4.999598
    30  H    5.538771   3.683372   5.400164   5.357185   6.355269
    31  H    7.430868   6.154890   7.853088   7.205544   8.491750
    32  H    7.748589   7.679694   9.203977   8.136021   9.494010
    33  H    6.321872   7.441607   8.647051   7.544876   8.718281
    34  H    3.926857   5.567192   6.495684   5.803670   6.652358
    35  H    2.447534   5.644228   4.852323   3.437377   2.957440
    36  H    4.066539   6.651004   5.504887   4.177064   3.240403
    37  H    3.539624   6.760850   5.657548   5.086147   4.166047
    38  H    4.849094   5.675161   3.940222   5.426971   3.670151
    39  H    4.846086   6.794266   5.219482   6.062561   4.503480
    40  H    5.161985   6.662859   5.065527   5.243417   3.625583
                   26         27         28         29         30
    26  H    0.000000
    27  H    1.758875   0.000000
    28  H    3.070396   2.507972   0.000000
    29  H    2.524286   3.068627   1.758308   0.000000
    30  H    2.794757   3.932801   3.743080   2.562201   0.000000
    31  H    4.802199   5.563637   5.507701   4.789166   2.472495
    32  H    5.984603   6.029019   5.876119   5.884345   4.299044
    33  H    5.750866   5.100588   4.703641   5.446067   4.957941
    34  H    4.217706   3.243857   2.404681   3.639184   4.291883
    35  H    4.952643   3.729914   4.817914   5.791039   7.474489
    36  H    6.217836   5.257845   6.449915   7.223903   8.886060
    37  H    6.553712   5.361219   5.917625   6.982935   8.956278
    38  H    6.773453   6.497753   6.703040   6.918874   9.015137
    39  H    7.501483   6.806540   6.977480   7.609208   9.807231
    40  H    7.132077   6.625099   7.357363   7.773527   9.669937
                   31         32         33         34         35
    31  H    0.000000
    32  H    2.487403   0.000000
    33  H    4.299163   2.487346   0.000000
    34  H    4.956177   4.299798   2.475612   0.000000
    35  H    9.284789   9.532815   8.049592   5.870837   0.000000
    36  H   10.789195  11.180434   9.781017   7.630876   1.768255
    37  H   10.839006  11.006814   9.330313   7.056912   1.785319
    38  H   11.351740  12.262927  11.120568   8.719505   4.201274
    39  H   12.005320  12.577496  11.121011   8.701135   3.751960
    40  H   11.868420  12.617307  11.382575   9.065564   3.644848
                   36         37         38         39         40
    36  H    0.000000
    37  H    1.783586   0.000000
    38  H    3.646605   3.746673   0.000000
    39  H    3.061724   2.586509   1.787648   0.000000
    40  H    2.415960   3.077829   1.776597   1.780122   0.000000
 Symmetry turned off by external request.
 Stoichiometry    C13H20N2O3S2
 Framework group  C1[X(C13H20N2O3S2)]
 Deg. of freedom   114
 Full point group                 C1      NOp   1
 Rotational constants (GHZ):           0.4658651           0.1516609           0.1263853
 Leave Link  202 at Mon Sep 21 06:23:41 2020, MaxMem=  2147483648 cpu:               0.0 elap:               0.0
 (Enter /prod/apps/gaussian/g16b1/l301.exe)
 Standard basis: 6-31G(d) (6D, 7F)
 Ernie: Thresh=  0.10000D-02 Tol=  0.10000D-05 Strict=F.
   348 basis functions,   688 primitive gaussians,   348 cartesian basis functions
    84 alpha electrons       84 beta electrons
       nuclear repulsion energy      1961.2785845149 Hartrees.
 IExCor=  402 DFT=T Ex+Corr=B3LYP ExCW=0 ScaHFX=  0.200000
 ScaDFX=  0.800000  0.720000  1.000000  0.810000 ScalE2=  1.000000  1.000000
 IRadAn=      5 IRanWt=     -1 IRanGd=            0 ICorTp=0 IEmpDi=  4
 NAtoms=   40 NActive=   40 NUniq=   40 SFac= 1.00D+00 NAtFMM=   60 NAOKFM=F Big=F
 Integral buffers will be    131072 words long.
 Raffenetti 2 integral format.
 Two-electron integral symmetry is turned off.
 Using the following non-standard input for PCM:
 MSTModel=DFT cav
 --- end of non-standard input.
 MST model for solvation energy: B3LYP parametrization.
 MST cavity parameters:
 ISph   IAn     Re0     Alpha   Atom Type   QCorr
 ------------------------------------------------
   1      8     1.40     1.25      O          F
   2     16     1.75     1.25      S          F
   3      7     1.50     1.25      NH         F
   4      6     1.50     1.25      C          F
   5      6     1.50     1.25      CH2        F
   6     16     1.75     1.25      S          F
   7      8     1.40     1.25      O          F
   8      6     1.50     1.25      CH2        F
   9      6     1.50     1.25      CH2        F
  10      6     1.50     1.25      CH2        F
  11      6     1.50     1.25      C          F
  12      6     1.50     1.25      CH         F
  13      6     1.50     1.25      CH         F
  14      6     1.50     1.25      CH         F
  15      6     1.50     1.25      CH         F
  16      6     1.50     1.25      CH         F
  17      7     1.40     1.25      N          F
  18      6     1.50     1.25      CH3        F
  19      6     1.50     1.25      CH3        F
  20      8     1.40     1.25      O          F
  21      1     0.90     1.25      NH         F
  22      1     1.20     1.25      CH2        F
  23      1     1.20     1.25      CH2        F
  24      1     1.20     1.25      CH2        F
  25      1     1.20     1.25      CH2        F
  26      1     1.20     1.25      CH2        F
  27      1     1.20     1.25      CH2        F
  28      1     1.20     1.25      CH2        F
  29      1     1.20     1.25      CH2        F
  30      1     1.20     1.25      CH         F
  31      1     1.20     1.25      CH         F
  32      1     1.20     1.25      CH         F
  33      1     1.20     1.25      CH         F
  34      1     1.20     1.25      CH         F
  35      1     1.20     1.25      CH3        F
  36      1     1.20     1.25      CH3        F
  37      1     1.20     1.25      CH3        F
  38      1     1.20     1.25      CH3        F
  39      1     1.20     1.25      CH3        F
  40      1     1.20     1.25      CH3        F
 ------------------------------------------------------------------------------
 Polarizable Continuum Model (PCM)
 =================================
 Model                : PCM.
 Atomic radii         : MST.
 Polarization charges : Total charges.
 Charge compensation  : None.
 Solution method      : On-the-fly selection.
 Cavity type          : Scaled VdW (van der Waals Surface) (Alpha=1.250).
 Cavity algorithm     : GePol (No added spheres)
                        Default sphere list used, NSphG=   40.
                        Lebedev-Laikov grids with approx.  5.0 points / Ang**2.
                        Smoothing algorithm: York/Karplus (Gamma=1.0000).
                        Polarization charges: spherical gaussians, with
                                              point-specific exponents (IZeta= 3).
                        Self-potential: point-specific (ISelfS= 7).
                        Self-field    : sphere-specific E.n sum rule (ISelfD= 2).
 1st derivatives      : Analytical E(r).r(x)/FMM algorithm (CHGder, D1EAlg=3).
                        Cavity 1st derivative terms included.
 Solvent              : Water, Eps=  78.355300 Eps(inf)=   1.777849
 ------------------------------------------------------------------------------
 GePol: Number of generator spheres                  =      40
 GePol: Total number of spheres                      =      40
 GePol: Number of exposed spheres                    =      40 (100.00%)
 GePol: Number of points                             =    2781
 GePol: Average weight of points                     =       0.13
 GePol: Minimum weight of points                     =   0.66D-10
 GePol: Maximum weight of points                     =    0.22001
 GePol: Number of points with low weight             =     218
 GePol: Fraction of low-weight points (<1% of avg)   =       7.84%
 GePol: Cavity surface area                          =    372.169 Ang**2
 GePol: Cavity volume                                =    367.717 Ang**3
 PCM non-electrostatic energy =         0.0030651983 Hartrees.
 Nuclear repulsion after PCM non-electrostatic terms =     1961.2816497132 Hartrees.
 Leave Link  301 at Mon Sep 21 06:23:41 2020, MaxMem=  2147483648 cpu:               0.3 elap:               0.1
 (Enter /prod/apps/gaussian/g16b1/l302.exe)
 NPDir=0 NMtPBC=     1 NCelOv=     1 NCel=       1 NClECP=     1 NCelD=      1
         NCelK=      1 NCelE2=     1 NClLst=     1 CellRange=     0.0.
 One-electron integrals computed using PRISM.
 NBasis=   348 RedAO= T EigKep=  4.67D-04  NBF=   348
 NBsUse=   348 1.00D-06 EigRej= -1.00D+00 NBFU=   348
 Precomputing XC quadrature grid using
 IXCGrd= 4 IRadAn=           5 IRanWt=          -1 IRanGd=           0 AccXCQ= 0.00D+00.
 Generated NRdTot=       0 NPtTot=           0 NUsed=           0 NTot=          32
 NSgBfM=   346   345   346   346   346 MxSgAt=    40 MxSgA2=    40.
 Leave Link  302 at Mon Sep 21 06:23:41 2020, MaxMem=  2147483648 cpu:               2.2 elap:               0.6
 (Enter /prod/apps/gaussian/g16b1/l303.exe)
 DipDrv:  MaxL=1.
 Leave Link  303 at Mon Sep 21 06:23:42 2020, MaxMem=  2147483648 cpu:               0.2 elap:               0.1
 (Enter /prod/apps/gaussian/g16b1/l401.exe)
 ExpMin= 1.17D-01 ExpMax= 2.19D+04 ExpMxC= 3.30D+03 IAcc=3 IRadAn=         5 AccDes= 0.00D+00
 Harris functional with IExCor=  402 and IRadAn=       5 diagonalized for initial guess.
 HarFok:  IExCor=  402 AccDes= 0.00D+00 IRadAn=         5 IDoV= 1 UseB2=F ITyADJ=14
 ICtDFT=  3500011 ScaDFX=  1.000000  1.000000  1.000000  1.000000
 FoFCou: FMM=F IPFlag=           0 FMFlag=      100000 FMFlg1=           0
         NFxFlg=           0 DoJE=T BraDBF=F KetDBF=T FulRan=T
         wScrn=  0.000000 ICntrl=       500 IOpCl=  0 I1Cent=   200000004 NGrid=           0
         NMat0=    1 NMatS0=      1 NMatT0=    0 NMatD0=    1 NMtDS0=    0 NMtDT0=    0
 Symmetry not used in FoFCou.
 Harris En= -1638.90181174263    
 JPrj=0 DoOrth=F DoCkMO=F.
 Leave Link  401 at Mon Sep 21 06:23:45 2020, MaxMem=  2147483648 cpu:              12.1 elap:               3.0
 (Enter /prod/apps/gaussian/g16b1/l502.exe)
 Two-electron integral symmetry not used.
 Closed shell SCF:
 Using DIIS extrapolation, IDIIS=  1040.
 NGot=  2147483648 LenX=  2147236206 LenY=  2147114661
 Requested convergence on RMS density matrix=1.00D-08 within2000 cycles.
 Requested convergence on MAX density matrix=1.00D-06.
 Requested convergence on             energy=1.00D-06.
 No special actions if energy rises.

 Cycle   1  Pass 1  IDiag  1:
 FoFJK:  IHMeth= 1 ICntrl=       0 DoSepK=F KAlg= 0 I1Cent=           0 FoldK=F
 IRaf= 770000000 NMat=       1 IRICut=       1 DoRegI=T DoRafI=F ISym2E= 0 IDoP0=0 IntGTp=1.
 FoFCou: FMM=F IPFlag=           0 FMFlag=      100000 FMFlg1=           0
         NFxFlg=           0 DoJE=F BraDBF=F KetDBF=F FulRan=T
         wScrn=  0.000000 ICntrl=         0 IOpCl=  0 I1Cent=           0 NGrid=           0
         NMat0=    1 NMatS0=      1 NMatT0=    0 NMatD0=    1 NMtDS0=    0 NMtDT0=    0
 Symmetry not used in FoFCou.
 Inv3:  Mode=1 IEnd=    23201883.
 Iteration    1 A*A^-1 deviation from unit magnitude is 3.33D-15 for    367.
 Iteration    1 A*A^-1 deviation from orthogonality  is 2.69D-15 for   2040    811.
 Iteration    1 A^-1*A deviation from unit magnitude is 3.55D-15 for    367.
 Iteration    1 A^-1*A deviation from orthogonality  is 6.08D-15 for   1793   1750.
 E= -1638.10214892905    
 DIIS: error= 3.35D-02 at cycle   1 NSaved=   1.
 NSaved= 1 IEnMin= 1 EnMin= -1638.10214892905     IErMin= 1 ErrMin= 3.35D-02
 ErrMax= 3.35D-02  0.00D+00 EMaxC= 1.00D-01 BMatC= 8.63D-01 BMatP= 8.63D-01
 IDIUse=3 WtCom= 6.65D-01 WtEn= 3.35D-01
 Coeff-Com:  0.100D+01
 Coeff-En:   0.100D+01
 Coeff:      0.100D+01
 Gap=     0.320 Goal=   None    Shift=    0.000
 GapD=    0.320 DampG=1.000 DampE=0.500 DampFc=0.5000 IDamp=-1.
 Damping current iteration by 5.00D-01
 RMSDP=6.60D-03 MaxDP=5.83D-01              OVMax= 2.35D-01

 Cycle   2  Pass 1  IDiag  1:
 E= -1638.31186373497     Delta-E=       -0.209714805923 Rises=F Damp=T
 DIIS: error= 1.13D-02 at cycle   2 NSaved=   2.
 NSaved= 2 IEnMin= 2 EnMin= -1638.31186373497     IErMin= 2 ErrMin= 1.13D-02
 ErrMax= 1.13D-02  0.00D+00 EMaxC= 1.00D-01 BMatC= 1.15D-01 BMatP= 8.63D-01
 IDIUse=3 WtCom= 8.87D-01 WtEn= 1.13D-01
 Coeff-Com:  0.215D+00 0.785D+00
 Coeff-En:   0.344D+00 0.656D+00
 Coeff:      0.230D+00 0.770D+00
 Gap=     0.298 Goal=   None    Shift=    0.000
 RMSDP=1.96D-03 MaxDP=1.30D-01 DE=-2.10D-01 OVMax= 1.69D-01

 Cycle   3  Pass 1  IDiag  1:
 E= -1638.79032474894     Delta-E=       -0.478461013970 Rises=F Damp=F
 DIIS: error= 8.70D-03 at cycle   3 NSaved=   3.
 NSaved= 3 IEnMin= 3 EnMin= -1638.79032474894     IErMin= 3 ErrMin= 8.70D-03
 ErrMax= 8.70D-03  0.00D+00 EMaxC= 1.00D-01 BMatC= 7.67D-02 BMatP= 1.15D-01
 IDIUse=3 WtCom= 9.13D-01 WtEn= 8.70D-02
 Coeff-Com:  0.777D-01 0.456D+00 0.466D+00
 Coeff-En:   0.000D+00 0.000D+00 0.100D+01
 Coeff:      0.710D-01 0.416D+00 0.513D+00
 Gap=     0.250 Goal=   None    Shift=    0.000
 RMSDP=1.15D-03 MaxDP=4.98D-02 DE=-4.78D-01 OVMax= 9.48D-02

 Cycle   4  Pass 1  IDiag  1:
 E= -1638.84857957346     Delta-E=       -0.058254824517 Rises=F Damp=F
 DIIS: error= 3.78D-03 at cycle   4 NSaved=   4.
 NSaved= 4 IEnMin= 4 EnMin= -1638.84857957346     IErMin= 4 ErrMin= 3.78D-03
 ErrMax= 3.78D-03  0.00D+00 EMaxC= 1.00D-01 BMatC= 1.12D-02 BMatP= 7.67D-02
 IDIUse=3 WtCom= 9.62D-01 WtEn= 3.78D-02
 Coeff-Com:  0.462D-02 0.975D-01 0.290D+00 0.608D+00
 Coeff-En:   0.000D+00 0.000D+00 0.131D+00 0.869D+00
 Coeff:      0.444D-02 0.938D-01 0.284D+00 0.618D+00
 Gap=     0.233 Goal=   None    Shift=    0.000
 RMSDP=4.19D-04 MaxDP=2.01D-02 DE=-5.83D-02 OVMax= 3.87D-02

 Cycle   5  Pass 1  IDiag  1:
 E= -1638.85754250966     Delta-E=       -0.008962936201 Rises=F Damp=F
 DIIS: error= 1.33D-03 at cycle   5 NSaved=   5.
 NSaved= 5 IEnMin= 5 EnMin= -1638.85754250966     IErMin= 5 ErrMin= 1.33D-03
 ErrMax= 1.33D-03  0.00D+00 EMaxC= 1.00D-01 BMatC= 1.22D-03 BMatP= 1.12D-02
 IDIUse=3 WtCom= 9.87D-01 WtEn= 1.33D-02
 Coeff-Com: -0.353D-02 0.215D-01 0.120D+00 0.356D+00 0.505D+00
 Coeff-En:   0.000D+00 0.000D+00 0.000D+00 0.452D-01 0.955D+00
 Coeff:     -0.348D-02 0.212D-01 0.119D+00 0.352D+00 0.511D+00
 Gap=     0.231 Goal=   None    Shift=    0.000
 RMSDP=1.31D-04 MaxDP=7.94D-03 DE=-8.96D-03 OVMax= 1.02D-02

 Cycle   6  Pass 1  IDiag  1:
 E= -1638.85853652037     Delta-E=       -0.000994010712 Rises=F Damp=F
 DIIS: error= 3.49D-04 at cycle   6 NSaved=   6.
 NSaved= 6 IEnMin= 6 EnMin= -1638.85853652037     IErMin= 6 ErrMin= 3.49D-04
 ErrMax= 3.49D-04  0.00D+00 EMaxC= 1.00D-01 BMatC= 1.13D-04 BMatP= 1.22D-03
 IDIUse=3 WtCom= 9.97D-01 WtEn= 3.49D-03
 Coeff-Com: -0.230D-02 0.487D-02 0.439D-01 0.150D+00 0.299D+00 0.504D+00
 Coeff-En:   0.000D+00 0.000D+00 0.000D+00 0.000D+00 0.000D+00 0.100D+01
 Coeff:     -0.230D-02 0.485D-02 0.438D-01 0.150D+00 0.298D+00 0.506D+00
 Gap=     0.232 Goal=   None    Shift=    0.000
 RMSDP=3.65D-05 MaxDP=2.04D-03 DE=-9.94D-04 OVMax= 2.08D-03

 Cycle   7  Pass 1  IDiag  1:
 E= -1638.85861719307     Delta-E=       -0.000080672698 Rises=F Damp=F
 DIIS: error= 1.03D-04 at cycle   7 NSaved=   7.
 NSaved= 7 IEnMin= 7 EnMin= -1638.85861719307     IErMin= 7 ErrMin= 1.03D-04
 ErrMax= 1.03D-04  0.00D+00 EMaxC= 1.00D-01 BMatC= 1.08D-05 BMatP= 1.13D-04
 IDIUse=3 WtCom= 9.99D-01 WtEn= 1.03D-03
 Coeff-Com: -0.929D-03 0.300D-04 0.983D-02 0.408D-01 0.108D+00 0.289D+00
 Coeff-Com:  0.552D+00
 Coeff-En:   0.000D+00 0.000D+00 0.000D+00 0.000D+00 0.000D+00 0.375D-01
 Coeff-En:   0.963D+00
 Coeff:     -0.928D-03 0.300D-04 0.982D-02 0.408D-01 0.108D+00 0.289D+00
 Coeff:      0.553D+00
 Gap=     0.232 Goal=   None    Shift=    0.000
 RMSDP=9.91D-06 MaxDP=4.50D-04 DE=-8.07D-05 OVMax= 5.17D-04

 Cycle   8  Pass 1  IDiag  1:
 E= -1638.85862590279     Delta-E=       -0.000008709721 Rises=F Damp=F
 DIIS: error= 2.82D-05 at cycle   8 NSaved=   8.
 NSaved= 8 IEnMin= 8 EnMin= -1638.85862590279     IErMin= 8 ErrMin= 2.82D-05
 ErrMax= 2.82D-05  0.00D+00 EMaxC= 1.00D-01 BMatC= 2.90D-07 BMatP= 1.08D-05
 IDIUse=1 WtCom= 1.00D+00 WtEn= 0.00D+00
 Coeff-Com: -0.192D-03-0.272D-03 0.558D-03 0.471D-02 0.200D-01 0.755D-01
 Coeff-Com:  0.209D+00 0.691D+00
 Coeff:     -0.192D-03-0.272D-03 0.558D-03 0.471D-02 0.200D-01 0.755D-01
 Coeff:      0.209D+00 0.691D+00
 Gap=     0.232 Goal=   None    Shift=    0.000
 RMSDP=2.30D-06 MaxDP=1.13D-04 DE=-8.71D-06 OVMax= 1.12D-04

 Cycle   9  Pass 1  IDiag  1:
 E= -1638.85862612464     Delta-E=       -0.000000221852 Rises=F Damp=F
 DIIS: error= 9.28D-06 at cycle   9 NSaved=   9.
 NSaved= 9 IEnMin= 9 EnMin= -1638.85862612464     IErMin= 9 ErrMin= 9.28D-06
 ErrMax= 9.28D-06  0.00D+00 EMaxC= 1.00D-01 BMatC= 5.40D-08 BMatP= 2.90D-07
 IDIUse=1 WtCom= 1.00D+00 WtEn= 0.00D+00
 Coeff-Com: -0.187D-04-0.134D-03-0.618D-03-0.127D-02 0.291D-03 0.124D-01
 Coeff-Com:  0.545D-01 0.357D+00 0.578D+00
 Coeff:     -0.187D-04-0.134D-03-0.618D-03-0.127D-02 0.291D-03 0.124D-01
 Coeff:      0.545D-01 0.357D+00 0.578D+00
 Gap=     0.232 Goal=   None    Shift=    0.000
 RMSDP=7.39D-07 MaxDP=3.45D-05 DE=-2.22D-07 OVMax= 2.86D-05

 Cycle  10  Pass 1  IDiag  1:
 E= -1638.85862617182     Delta-E=       -0.000000047172 Rises=F Damp=F
 DIIS: error= 2.63D-06 at cycle  10 NSaved=  10.
 NSaved=10 IEnMin=10 EnMin= -1638.85862617182     IErMin=10 ErrMin= 2.63D-06
 ErrMax= 2.63D-06  0.00D+00 EMaxC= 1.00D-01 BMatC= 3.12D-09 BMatP= 5.40D-08
 IDIUse=1 WtCom= 1.00D+00 WtEn= 0.00D+00
 Coeff-Com: -0.319D-05-0.473D-04-0.343D-03-0.827D-03-0.750D-03 0.300D-02
 Coeff-Com:  0.183D-01 0.153D+00 0.287D+00 0.541D+00
 Coeff:     -0.319D-05-0.473D-04-0.343D-03-0.827D-03-0.750D-03 0.300D-02
 Coeff:      0.183D-01 0.153D+00 0.287D+00 0.541D+00
 Gap=     0.232 Goal=   None    Shift=    0.000
 RMSDP=2.07D-07 MaxDP=1.21D-05 DE=-4.72D-08 OVMax= 1.65D-05

 Cycle  11  Pass 1  IDiag  1:
 E= -1638.85862617380     Delta-E=       -0.000000001986 Rises=F Damp=F
 DIIS: error= 1.23D-06 at cycle  11 NSaved=  11.
 NSaved=11 IEnMin=11 EnMin= -1638.85862617380     IErMin=11 ErrMin= 1.23D-06
 ErrMax= 1.23D-06  0.00D+00 EMaxC= 1.00D-01 BMatC= 7.63D-10 BMatP= 3.12D-09
 IDIUse=1 WtCom= 1.00D+00 WtEn= 0.00D+00
 Coeff-Com:  0.713D-06-0.174D-05-0.111D-03-0.293D-03-0.609D-03-0.610D-03
 Coeff-Com:  0.762D-03 0.273D-01 0.650D-01 0.339D+00 0.569D+00
 Coeff:      0.713D-06-0.174D-05-0.111D-03-0.293D-03-0.609D-03-0.610D-03
 Coeff:      0.762D-03 0.273D-01 0.650D-01 0.339D+00 0.569D+00
 Gap=     0.232 Goal=   None    Shift=    0.000
 RMSDP=8.08D-08 MaxDP=4.57D-06 DE=-1.99D-09 OVMax= 6.49D-06

 Cycle  12  Pass 1  IDiag  1:
 E= -1638.85862617437     Delta-E=       -0.000000000565 Rises=F Damp=F
 DIIS: error= 2.23D-07 at cycle  12 NSaved=  12.
 NSaved=12 IEnMin=12 EnMin= -1638.85862617437     IErMin=12 ErrMin= 2.23D-07
 ErrMax= 2.23D-07  0.00D+00 EMaxC= 1.00D-01 BMatC= 4.26D-11 BMatP= 7.63D-10
 IDIUse=1 WtCom= 1.00D+00 WtEn= 0.00D+00
 Coeff-Com:  0.274D-06 0.280D-05-0.348D-04-0.886D-04-0.276D-03-0.571D-03
 Coeff-Com: -0.117D-02 0.148D-02 0.859D-02 0.124D+00 0.278D+00 0.590D+00
 Coeff:      0.274D-06 0.280D-05-0.348D-04-0.886D-04-0.276D-03-0.571D-03
 Coeff:     -0.117D-02 0.148D-02 0.859D-02 0.124D+00 0.278D+00 0.590D+00
 Gap=     0.232 Goal=   None    Shift=    0.000
 RMSDP=2.21D-08 MaxDP=1.47D-06 DE=-5.65D-10 OVMax= 1.23D-06

 Cycle  13  Pass 1  IDiag  1:
 E= -1638.85862617440     Delta-E=       -0.000000000033 Rises=F Damp=F
 DIIS: error= 7.10D-08 at cycle  13 NSaved=  13.
 NSaved=13 IEnMin=13 EnMin= -1638.85862617440     IErMin=13 ErrMin= 7.10D-08
 ErrMax= 7.10D-08  0.00D+00 EMaxC= 1.00D-01 BMatC= 4.41D-12 BMatP= 4.26D-11
 IDIUse=1 WtCom= 1.00D+00 WtEn= 0.00D+00
 Coeff-Com: -0.862D-07 0.176D-05-0.483D-05-0.793D-05-0.661D-04-0.200D-03
 Coeff-Com: -0.647D-03-0.236D-02-0.353D-02 0.205D-01 0.689D-01 0.297D+00
 Coeff-Com:  0.620D+00
 Coeff:     -0.862D-07 0.176D-05-0.483D-05-0.793D-05-0.661D-04-0.200D-03
 Coeff:     -0.647D-03-0.236D-02-0.353D-02 0.205D-01 0.689D-01 0.297D+00
 Coeff:      0.620D+00
 Gap=     0.232 Goal=   None    Shift=    0.000
 RMSDP=7.41D-09 MaxDP=3.43D-07 DE=-3.32D-11 OVMax= 6.41D-07

 Error on total polarization charges =  0.02090
 SCF Done:  E(RB3LYP) =  -1638.85862617     A.U. after   13 cycles
            NFock= 13  Conv=0.74D-08     -V/T= 2.0066
 KE= 1.628074317869D+03 PE=-7.772499216163D+03 EE= 2.544284622407D+03
 Leave Link  502 at Mon Sep 21 06:25:24 2020, MaxMem=  2147483648 cpu:             397.7 elap:              99.5
 (Enter /prod/apps/gaussian/g16b1/l601.exe)
 Copying SCF densities to generalized density rwf, IOpCl= 0 IROHF=0.

 **********************************************************************

            Population analysis using the SCF Density.

 **********************************************************************

 Alpha  occ. eigenvalues --  -89.13992 -88.98528 -19.15699 -19.15511 -19.11846
 Alpha  occ. eigenvalues --  -14.37730 -14.37606 -10.26286 -10.21965 -10.21840
 Alpha  occ. eigenvalues --  -10.21235 -10.21198 -10.19623 -10.19310 -10.18920
 Alpha  occ. eigenvalues --  -10.18890 -10.18845 -10.18754 -10.18696 -10.18691
 Alpha  occ. eigenvalues --   -8.16191  -8.03354  -6.12669  -6.12618  -6.12598
 Alpha  occ. eigenvalues --   -5.99775  -5.99565  -5.99132  -1.13175  -1.01402
 Alpha  occ. eigenvalues --   -1.00688  -0.94727  -0.93433  -0.85624  -0.84526
 Alpha  occ. eigenvalues --   -0.78952  -0.74231  -0.74083  -0.72361  -0.70580
 Alpha  occ. eigenvalues --   -0.69783  -0.67181  -0.62418  -0.61055  -0.60277
 Alpha  occ. eigenvalues --   -0.57764  -0.56212  -0.54603  -0.51980  -0.51316
 Alpha  occ. eigenvalues --   -0.50714  -0.48175  -0.47811  -0.46803  -0.46283
 Alpha  occ. eigenvalues --   -0.45569  -0.44848  -0.44154  -0.43098  -0.42296
 Alpha  occ. eigenvalues --   -0.41976  -0.41670  -0.40844  -0.40661  -0.40225
 Alpha  occ. eigenvalues --   -0.39053  -0.38582  -0.38511  -0.37205  -0.36055
 Alpha  occ. eigenvalues --   -0.35473  -0.35102  -0.34594  -0.33887  -0.33283
 Alpha  occ. eigenvalues --   -0.33011  -0.32181  -0.31549  -0.28971  -0.26538
 Alpha  occ. eigenvalues --   -0.25825  -0.25103  -0.24410  -0.23390
 Alpha virt. eigenvalues --   -0.00236  -0.00074   0.00884   0.03211   0.05268
 Alpha virt. eigenvalues --    0.06503   0.06913   0.07613   0.09032   0.09871
 Alpha virt. eigenvalues --    0.10416   0.11191   0.12074   0.12825   0.13560
 Alpha virt. eigenvalues --    0.14108   0.14881   0.15202   0.15937   0.16390
 Alpha virt. eigenvalues --    0.16638   0.17168   0.17394   0.17910   0.18790
 Alpha virt. eigenvalues --    0.19135   0.19786   0.20022   0.20390   0.20956
 Alpha virt. eigenvalues --    0.21552   0.21951   0.22299   0.23954   0.25200
 Alpha virt. eigenvalues --    0.26579   0.27900   0.29205   0.30928   0.31394
 Alpha virt. eigenvalues --    0.32923   0.33381   0.34271   0.34814   0.36473
 Alpha virt. eigenvalues --    0.38536   0.41999   0.42646   0.44013   0.45351
 Alpha virt. eigenvalues --    0.46610   0.48044   0.49778   0.50184   0.51588
 Alpha virt. eigenvalues --    0.52626   0.53483   0.53694   0.54747   0.55700
 Alpha virt. eigenvalues --    0.56134   0.56778   0.58764   0.59285   0.59613
 Alpha virt. eigenvalues --    0.59837   0.60300   0.61180   0.61637   0.62096
 Alpha virt. eigenvalues --    0.62757   0.63135   0.63557   0.65240   0.66003
 Alpha virt. eigenvalues --    0.66964   0.67854   0.68651   0.69385   0.69862
 Alpha virt. eigenvalues --    0.72560   0.73691   0.74974   0.76698   0.77570
 Alpha virt. eigenvalues --    0.78255   0.80278   0.80541   0.81630   0.82589
 Alpha virt. eigenvalues --    0.83020   0.83403   0.83841   0.84426   0.84989
 Alpha virt. eigenvalues --    0.85718   0.86492   0.86887   0.87915   0.88194
 Alpha virt. eigenvalues --    0.88816   0.89536   0.90406   0.91126   0.91178
 Alpha virt. eigenvalues --    0.92156   0.92263   0.93537   0.94072   0.94807
 Alpha virt. eigenvalues --    0.95073   0.95747   0.96263   0.98422   0.99753
 Alpha virt. eigenvalues --    0.99972   1.01040   1.01510   1.02042   1.03098
 Alpha virt. eigenvalues --    1.04004   1.04206   1.06068   1.07639   1.09050
 Alpha virt. eigenvalues --    1.10612   1.11112   1.11484   1.12373   1.12775
 Alpha virt. eigenvalues --    1.14389   1.15443   1.16606   1.18031   1.19875
 Alpha virt. eigenvalues --    1.20702   1.22161   1.24370   1.25911   1.28171
 Alpha virt. eigenvalues --    1.30480   1.31934   1.33638   1.35750   1.37659
 Alpha virt. eigenvalues --    1.42046   1.42365   1.43909   1.44243   1.46628
 Alpha virt. eigenvalues --    1.48300   1.48784   1.50371   1.51108   1.51483
 Alpha virt. eigenvalues --    1.51959   1.55735   1.57937   1.61383   1.65384
 Alpha virt. eigenvalues --    1.68505   1.71207   1.72358   1.73915   1.75142
 Alpha virt. eigenvalues --    1.76033   1.79034   1.79593   1.80753   1.81831
 Alpha virt. eigenvalues --    1.82028   1.82374   1.83273   1.84557   1.85046
 Alpha virt. eigenvalues --    1.85954   1.88816   1.89601   1.90977   1.91153
 Alpha virt. eigenvalues --    1.93351   1.93851   1.94010   1.95970   1.97109
 Alpha virt. eigenvalues --    1.97480   1.98006   1.98627   1.99946   2.00552
 Alpha virt. eigenvalues --    2.02472   2.02953   2.03207   2.05904   2.08088
 Alpha virt. eigenvalues --    2.09053   2.09404   2.10835   2.12207   2.12928
 Alpha virt. eigenvalues --    2.14024   2.14224   2.15052   2.15195   2.19369
 Alpha virt. eigenvalues --    2.20317   2.21353   2.22145   2.24607   2.24898
 Alpha virt. eigenvalues --    2.27014   2.28229   2.29612   2.30954   2.32829
 Alpha virt. eigenvalues --    2.34542   2.35196   2.38550   2.41210   2.41879
 Alpha virt. eigenvalues --    2.42774   2.46815   2.48984   2.50537   2.55708
 Alpha virt. eigenvalues --    2.57622   2.58146   2.61172   2.66281   2.70434
 Alpha virt. eigenvalues --    2.71046   2.71386   2.72424   2.72849   2.74658
 Alpha virt. eigenvalues --    2.75404   2.76833   2.78624   2.79730   2.82920
 Alpha virt. eigenvalues --    2.89659   2.95555   3.05332   3.41118   3.80027
 Alpha virt. eigenvalues --    3.82470   3.92123   3.94056   4.00252   4.02134
 Alpha virt. eigenvalues --    4.06039   4.09131   4.11570   4.14682   4.21523
 Alpha virt. eigenvalues --    4.24054   4.25695   4.32005   4.33297   4.35829
 Alpha virt. eigenvalues --    4.41020   4.52668   4.70083   4.72050
          Condensed to atoms (all electrons):
               1          2          3          4          5          6
     1  O    8.283693   0.441449  -0.060296   0.002172  -0.000103  -0.000001
     2  S    0.441449  13.528195   0.188261  -0.000143  -0.004402   0.000377
     3  N   -0.060296   0.188261   7.363131   0.198404  -0.042820   0.004391
     4  C    0.002172  -0.000143   0.198404   4.849889   0.324313  -0.066558
     5  C   -0.000103  -0.004402  -0.042820   0.324313   5.660405   0.088046
     6  S   -0.000001   0.000377   0.004391  -0.066558   0.088046  14.888927
     7  O   -0.000000  -0.000001  -0.000055  -0.000464  -0.038735   0.290538
     8  C   -0.000064  -0.008828  -0.042997   0.332673  -0.126493   0.089347
     9  C   -0.000094   0.000344  -0.050788   0.356416  -0.052204   0.006148
    10  C   -0.000009  -0.000011  -0.005349  -0.033634  -0.008888  -0.000512
    11  C   -0.000000  -0.000018   0.000298   0.003403   0.000082   0.000019
    12  C    0.000000   0.000000  -0.000002   0.000167   0.000005  -0.000006
    13  C    0.000000   0.000000   0.000000   0.000003  -0.000000   0.000000
    14  C   -0.000000  -0.000000   0.000000  -0.000000   0.000000  -0.000000
    15  C    0.000000   0.000000  -0.000000   0.000002  -0.000000   0.000000
    16  C    0.000000  -0.000000  -0.000010   0.000044  -0.000004   0.000001
    17  N   -0.057733   0.150117  -0.054414   0.000612  -0.001102   0.000121
    18  C    0.001814  -0.009682  -0.005835   0.000085   0.000003  -0.000000
    19  C   -0.002488  -0.019810   0.002141  -0.000053   0.000023   0.000015
    20  O   -0.044543   0.433558  -0.054258  -0.001256  -0.007471   0.000136
    21  H    0.002048  -0.005528   0.290363  -0.022207   0.003887  -0.000292
    22  H    0.000001   0.000183   0.001404  -0.028963   0.352556  -0.017766
    23  H    0.000021   0.002597  -0.005207  -0.023500   0.323756  -0.005855
    24  H    0.000001  -0.000011   0.001505  -0.029299   0.009873  -0.018330
    25  H    0.000017   0.002615  -0.006635  -0.023790   0.002563  -0.006976
    26  H    0.000000   0.000038   0.003156  -0.031204  -0.008023   0.005410
    27  H   -0.000002  -0.000165  -0.006276  -0.029516   0.005951  -0.000447
    28  H    0.000001   0.000352   0.007673  -0.007782  -0.000273  -0.000027
    29  H    0.000000  -0.000002  -0.000288  -0.004300   0.003004  -0.000119
    30  H   -0.000000  -0.000000  -0.000000  -0.000109  -0.000002  -0.000000
    31  H   -0.000000   0.000000  -0.000000  -0.000000  -0.000000   0.000000
    32  H   -0.000000  -0.000000   0.000000  -0.000000   0.000000  -0.000000
    33  H    0.000000   0.000000  -0.000000  -0.000000  -0.000000  -0.000000
    34  H   -0.000000  -0.000000  -0.000011  -0.000033   0.000000  -0.000000
    35  H   -0.002046  -0.000534   0.008301  -0.000436   0.000049   0.000031
    36  H    0.000065   0.002542  -0.000079  -0.000005   0.000001  -0.000002
    37  H    0.007072  -0.008937  -0.000283  -0.000002  -0.000001   0.000000
    38  H   -0.000216  -0.003767   0.000099   0.000010  -0.000013   0.000010
    39  H    0.003415  -0.003967  -0.000085   0.000000  -0.000001   0.000000
    40  H   -0.000109   0.001757  -0.000080   0.000001  -0.000001  -0.000002
               7          8          9         10         11         12
     1  O   -0.000000  -0.000064  -0.000094  -0.000009  -0.000000   0.000000
     2  S   -0.000001  -0.008828   0.000344  -0.000011  -0.000018   0.000000
     3  N   -0.000055  -0.042997  -0.050788  -0.005349   0.000298  -0.000002
     4  C   -0.000464   0.332673   0.356416  -0.033634   0.003403   0.000167
     5  C   -0.038735  -0.126493  -0.052204  -0.008888   0.000082   0.000005
     6  S    0.290538   0.089347   0.006148  -0.000512   0.000019  -0.000006
     7  O    8.459024  -0.038555  -0.008441   0.000049   0.000022  -0.000092
     8  C   -0.038555   5.647646  -0.053615   0.004721  -0.000067  -0.000009
     9  C   -0.008441  -0.053615   5.193728   0.346376  -0.040088  -0.003771
    10  C    0.000049   0.004721   0.346376   5.166351   0.352500  -0.061872
    11  C    0.000022  -0.000067  -0.040088   0.352500   4.654893   0.538382
    12  C   -0.000092  -0.000009  -0.003771  -0.061872   0.538382   4.994388
    13  C   -0.000000  -0.000000   0.000065   0.006349  -0.019964   0.518457
    14  C    0.000000   0.000000   0.000010   0.000330  -0.034546  -0.037570
    15  C   -0.000000  -0.000000  -0.000102   0.006927  -0.022601  -0.047530
    16  C   -0.000000  -0.000002  -0.002946  -0.053644   0.549972  -0.040282
    17  N   -0.000000  -0.007463  -0.000054   0.000002   0.000000  -0.000000
    18  C    0.000000   0.000761  -0.000057   0.000001   0.000000  -0.000000
    19  C    0.000000   0.000104   0.000001  -0.000000  -0.000000   0.000000
    20  O   -0.000000  -0.000870   0.000026  -0.000021  -0.000000   0.000000
    21  H    0.000001   0.000634  -0.004569  -0.000130  -0.000134   0.000001
    22  H    0.000303   0.009638  -0.007561   0.001922  -0.000090  -0.000005
    23  H    0.001165   0.002829   0.004341   0.000012   0.000003  -0.000000
    24  H    0.000001   0.353885  -0.005139   0.000115  -0.000011  -0.000000
    25  H    0.001198   0.324862   0.003858  -0.000104   0.000001   0.000000
    26  H    0.026349  -0.006996   0.350051  -0.033875  -0.001887   0.003935
    27  H    0.000248  -0.005804   0.356420  -0.038207  -0.000838  -0.000069
    28  H   -0.000003   0.000112  -0.034514   0.361050  -0.029118   0.004335
    29  H    0.000046   0.000085  -0.042032   0.361351  -0.027514  -0.004678
    30  H    0.000209   0.000004   0.000044  -0.008565  -0.045651   0.359316
    31  H   -0.000000   0.000000  -0.000000  -0.000172   0.003593  -0.038891
    32  H    0.000000  -0.000000   0.000000   0.000006   0.000622   0.004623
    33  H   -0.000000   0.000000   0.000000  -0.000173   0.003720   0.000738
    34  H    0.000000   0.000000   0.000234  -0.009760  -0.043734   0.006258
    35  H    0.000000   0.000720   0.000000  -0.000001  -0.000000   0.000000
    36  H    0.000000   0.000191  -0.000000  -0.000000   0.000000   0.000000
    37  H    0.000000  -0.000037   0.000001   0.000000   0.000000  -0.000000
    38  H    0.000000   0.000021   0.000000   0.000000  -0.000000   0.000000
    39  H   -0.000000  -0.000011   0.000000   0.000000   0.000000  -0.000000
    40  H    0.000000   0.000054  -0.000000   0.000000   0.000000  -0.000000
              13         14         15         16         17         18
     1  O    0.000000  -0.000000   0.000000   0.000000  -0.057733   0.001814
     2  S    0.000000  -0.000000   0.000000  -0.000000   0.150117  -0.009682
     3  N    0.000000   0.000000  -0.000000  -0.000010  -0.054414  -0.005835
     4  C    0.000003  -0.000000   0.000002   0.000044   0.000612   0.000085
     5  C   -0.000000   0.000000  -0.000000  -0.000004  -0.001102   0.000003
     6  S    0.000000  -0.000000   0.000000   0.000001   0.000121  -0.000000
     7  O   -0.000000   0.000000  -0.000000  -0.000000  -0.000000   0.000000
     8  C   -0.000000   0.000000  -0.000000  -0.000002  -0.007463   0.000761
     9  C    0.000065   0.000010  -0.000102  -0.002946  -0.000054  -0.000057
    10  C    0.006349   0.000330   0.006927  -0.053644   0.000002   0.000001
    11  C   -0.019964  -0.034546  -0.022601   0.549972   0.000000   0.000000
    12  C    0.518457  -0.037570  -0.047530  -0.040282  -0.000000  -0.000000
    13  C    4.899889   0.542591  -0.028754  -0.046935  -0.000000   0.000000
    14  C    0.542591   4.885371   0.546279  -0.038217   0.000000   0.000000
    15  C   -0.028754   0.546279   4.901824   0.515184  -0.000000  -0.000000
    16  C   -0.046935  -0.038217   0.515184   4.984990  -0.000000   0.000000
    17  N   -0.000000   0.000000  -0.000000  -0.000000   7.217660   0.264247
    18  C    0.000000   0.000000  -0.000000   0.000000   0.264247   5.005982
    19  C   -0.000000  -0.000000   0.000000   0.000000   0.278670  -0.051039
    20  O    0.000000  -0.000000   0.000000   0.000000  -0.055634   0.001713
    21  H   -0.000000   0.000000  -0.000000   0.000003  -0.000052  -0.000219
    22  H   -0.000000   0.000000  -0.000000   0.000001   0.000000   0.000000
    23  H    0.000000   0.000000   0.000000   0.000000  -0.000174  -0.000003
    24  H   -0.000000   0.000000  -0.000000  -0.000000   0.000146  -0.000084
    25  H    0.000000  -0.000000   0.000000   0.000000   0.015103  -0.001444
    26  H   -0.000182   0.000002  -0.000012  -0.000009   0.000001  -0.000000
    27  H   -0.000020  -0.000006  -0.000094   0.002701  -0.000005  -0.000016
    28  H   -0.000194   0.000008   0.000150  -0.004667   0.000004  -0.000000
    29  H    0.000062   0.000016  -0.000218   0.003166   0.000000  -0.000000
    30  H   -0.044826   0.004786   0.000268   0.005978   0.000000  -0.000000
    31  H    0.360940  -0.042373   0.004520   0.000763  -0.000000  -0.000000
    32  H   -0.042295   0.363069  -0.042411   0.004614   0.000000   0.000000
    33  H    0.004531  -0.042631   0.360625  -0.038758   0.000000  -0.000000
    34  H    0.000256   0.004783  -0.045548   0.358688   0.000000  -0.000000
    35  H    0.000000  -0.000000   0.000000   0.000000  -0.035232   0.374810
    36  H   -0.000000   0.000000  -0.000000  -0.000000  -0.032570   0.378192
    37  H   -0.000000   0.000000  -0.000000  -0.000000  -0.044246   0.372653
    38  H    0.000000  -0.000000   0.000000   0.000000  -0.032932   0.004696
    39  H   -0.000000   0.000000  -0.000000  -0.000000  -0.046196  -0.003014
    40  H   -0.000000   0.000000  -0.000000  -0.000000  -0.035932  -0.002735
              19         20         21         22         23         24
     1  O   -0.002488  -0.044543   0.002048   0.000001   0.000021   0.000001
     2  S   -0.019810   0.433558  -0.005528   0.000183   0.002597  -0.000011
     3  N    0.002141  -0.054258   0.290363   0.001404  -0.005207   0.001505
     4  C   -0.000053  -0.001256  -0.022207  -0.028963  -0.023500  -0.029299
     5  C    0.000023  -0.007471   0.003887   0.352556   0.323756   0.009873
     6  S    0.000015   0.000136  -0.000292  -0.017766  -0.005855  -0.018330
     7  O    0.000000  -0.000000   0.000001   0.000303   0.001165   0.000001
     8  C    0.000104  -0.000870   0.000634   0.009638   0.002829   0.353885
     9  C    0.000001   0.000026  -0.004569  -0.007561   0.004341  -0.005139
    10  C   -0.000000  -0.000021  -0.000130   0.001922   0.000012   0.000115
    11  C   -0.000000  -0.000000  -0.000134  -0.000090   0.000003  -0.000011
    12  C    0.000000   0.000000   0.000001  -0.000005  -0.000000  -0.000000
[...]
     8  C    0.024439  -0.002839  -0.013140  -0.058454  -0.184743   0.120997
     9  C    0.109482  -0.123061   0.294348   0.063963  -0.351062  -0.255047
    10  C   -0.793494   0.400969  -0.774021  -0.150208  -0.116677  -0.047475
    11  C    3.191127  -3.815651   3.228027  -6.514888   0.038441   0.019790
    12  C   -4.544435   3.323222  -3.842699   1.383722  -0.001853   0.000422
    13  C   11.507026  -3.333703   3.775112  -4.119418   0.000458   0.000244
    14  C   -3.333703   9.109083  -3.394305   3.486725  -0.000210  -0.000059
    15  C    3.775112  -3.394305  11.267706  -4.478727   0.000552  -0.001054
    16  C   -4.119418   3.486725  -4.478727  17.106157  -0.003756  -0.005769
    17  N    0.000458  -0.000210   0.000552  -0.003756   9.313094   0.221556
    18  C    0.000244  -0.000059  -0.001054  -0.005769   0.221556   4.501521
    19  C   -0.000066  -0.000009   0.000171   0.000965   0.030893  -0.119951
    20  O   -0.000054  -0.000029   0.000281   0.000015   0.071133   0.013870
    21  H    0.000015   0.000369   0.004746  -0.034796   0.007019  -0.015572
    22  H    0.026515  -0.004254   0.002823  -0.018589   0.007456   0.009551
    23  H   -0.005819   0.000535   0.000429   0.015882   0.002783  -0.017155
    24  H    0.000856  -0.002497   0.001402   0.001322   0.018919   0.013370
    25  H    0.001962   0.000297  -0.001459  -0.005491  -0.125074  -0.010047
    26  H   -0.020025   0.027642  -0.038450   0.051182  -0.016246  -0.005700
    27  H   -0.057609   0.032043  -0.012473   0.115091   0.002101  -0.017622
    28  H   -0.075547  -0.001463   0.142821   0.272895  -0.006816  -0.002170
    29  H    0.104222   0.020835  -0.088363  -0.210750  -0.006461  -0.004385
    30  H    0.391383  -0.157725   0.123850  -0.069117   0.000090   0.000053
    31  H   -0.739322   0.314077  -0.240471   0.132469   0.000021   0.000002
    32  H    0.379135  -0.611699   0.380891  -0.148970  -0.000005   0.000002
    33  H   -0.242667   0.327741  -0.781495   0.637213   0.000048  -0.000045
    34  H    0.121954  -0.164669   0.299107  -1.247641  -0.000554   0.001289
    35  H    0.000728  -0.000621   0.000075  -0.000648  -0.017470   0.315252
    36  H   -0.000049   0.000027   0.000101   0.000265  -0.131914   0.323883
    37  H   -0.000029   0.000008  -0.000056   0.000224  -0.082385   0.247773
    38  H    0.000047  -0.000013   0.000004  -0.000141  -0.095075  -0.114191
    39  H   -0.000004   0.000001   0.000008   0.000034   0.059199   0.066626
    40  H   -0.000016   0.000003   0.000003   0.000135  -0.328822   0.084157
              19         20         21         22         23         24
     1  O    0.016313  -0.010272   0.017304  -0.000448   0.003434  -0.001843
     2  S   -0.127315  -0.134749  -0.205912   0.062322  -0.056200   0.049705
     3  N   -0.232155  -0.209906  -0.024484   0.264715  -0.106149   0.109866
     4  C    0.359631   0.519058   0.563429  -0.699900  -0.142492  -0.063805
     5  C   -0.041225  -0.136482  -0.166835   0.377164   0.229684   0.203736
     6  S   -0.007184   0.013808   0.001607   0.122812  -0.192644   0.082550
     7  O    0.000570  -0.002279  -0.000402  -0.006442   0.026844  -0.003594
     8  C   -0.191667  -0.092594  -0.080129   0.360492  -0.116257  -0.048595
     9  C    0.005895  -0.085673  -0.076283  -0.188743   0.370847  -0.198294
    10  C    0.013215   0.004980   0.032808  -0.132798   0.081080   0.037841
    11  C   -0.000128   0.009355   0.011896   0.046706  -0.020977   0.009744
    12  C   -0.000403  -0.001705   0.007566  -0.030701  -0.002521  -0.005610
    13  C   -0.000066  -0.000054   0.000015   0.026515  -0.005819   0.000856
    14  C   -0.000009  -0.000029   0.000369  -0.004254   0.000535  -0.002497
    15  C    0.000171   0.000281   0.004746   0.002823   0.000429   0.001402
    16  C    0.000965   0.000015  -0.034796  -0.018589   0.015882   0.001322
    17  N    0.030893   0.071133   0.007019   0.007456   0.002783   0.018919
    18  C   -0.119951   0.013870  -0.015572   0.009551  -0.017155   0.013370
    19  C    4.341346   0.057616   0.010675  -0.010010   0.015164   0.008690
    20  O    0.057616   9.204111   0.014948  -0.010697  -0.023538   0.000794
    21  H    0.010675   0.014948   1.083796  -0.007288  -0.003412   0.011503
    22  H   -0.010010  -0.010697  -0.007288   1.478429  -0.378856   0.006557
    23  H    0.015164  -0.023538  -0.003412  -0.378856   1.462174   0.013718
    24  H    0.008690   0.000794   0.011503   0.006557   0.013718   1.674004
    25  H   -0.084512  -0.016799  -0.014406   0.043973   0.000683  -0.463028
    26  H   -0.001808  -0.001789   0.001900  -0.069119   0.029483  -0.068363
    27  H   -0.001220  -0.001383  -0.021453   0.033688   0.001534  -0.026981
    28  H   -0.001993  -0.002418  -0.001814   0.002610  -0.003776   0.002051
    29  H    0.001974   0.005560   0.022577  -0.055369   0.010380   0.000028
    30  H    0.000052  -0.000105  -0.001286  -0.001655   0.003419   0.000225
    31  H    0.000001   0.000009   0.000025   0.001812  -0.000246  -0.000023
    32  H   -0.000001  -0.000001  -0.000035  -0.000009   0.000013  -0.000018
    33  H    0.000003   0.000014   0.001626  -0.000146  -0.000053   0.000084
    34  H    0.000072  -0.000406  -0.004399   0.000422   0.000839   0.000579
    35  H   -0.075376   0.008143  -0.016197  -0.002446   0.006728  -0.002674
    36  H    0.061247  -0.003260  -0.003893   0.000237  -0.001338   0.004994
    37  H    0.030911  -0.001237   0.003384   0.000178   0.000534   0.000464
    38  H    0.414898  -0.042500   0.005202   0.000761  -0.003230   0.001080
    39  H    0.247061   0.011362  -0.004978  -0.000326   0.001792   0.000280
    40  H    0.402076   0.008108  -0.002262  -0.001397   0.001872   0.000271
              25         26         27         28         29         30
     1  O    0.002825   0.002302   0.003387  -0.006765   0.000139  -0.000154
     2  S   -0.021563  -0.026557  -0.039403   0.024281  -0.047664   0.001683
     3  N    0.328350  -0.103721   0.057561  -0.135313  -0.054144   0.004604
     4  C   -1.027784   0.164905  -1.177316   0.431700  -0.265090  -0.025886
     5  C   -0.011745  -0.059126   0.136128  -0.018279   0.020352   0.007978
     6  S   -0.184223  -0.099599   0.014505  -0.001205  -0.009914  -0.002132
     7  O    0.003424   0.020387   0.014194   0.001497   0.004764   0.004162
     8  C    0.706860  -0.108811   0.021169   0.021108  -0.037040  -0.000503
     9  C    0.318979  -0.027692   0.776403  -0.243719   0.255950   0.095925
    10  C   -0.064466   0.132887  -0.033084  -0.355112   0.109031  -0.214475
    11  C   -0.018014  -0.240816  -0.309999   0.093848  -0.210402   0.743729
    12  C   -0.005679   0.045659   0.075125  -0.260485   0.302617  -1.202613
    13  C    0.001962  -0.020025  -0.057609  -0.075547   0.104222   0.391383
    14  C    0.000297   0.027642   0.032043  -0.001463   0.020835  -0.157725
    15  C   -0.001459  -0.038450  -0.012473   0.142821  -0.088363   0.123850
    16  C   -0.005491   0.051182   0.115091   0.272895  -0.210750  -0.069117
    17  N   -0.125074  -0.016246   0.002101  -0.006816  -0.006461   0.000090
    18  C   -0.010047  -0.005700  -0.017622  -0.002170  -0.004385   0.000053
    19  C   -0.084512  -0.001808  -0.001220  -0.001993   0.001974   0.000052
    20  O   -0.016799  -0.001789  -0.001383  -0.002418   0.005560  -0.000105
    21  H   -0.014406   0.001900  -0.021453  -0.001814   0.022577  -0.001286
    22  H    0.043973  -0.069119   0.033688   0.002610  -0.055369  -0.001655
    23  H    0.000683   0.029483   0.001534  -0.003776   0.010380   0.003419
    24  H   -0.463028  -0.068363  -0.026981   0.002051   0.000028   0.000225
    25  H    1.809799   0.018860   0.052411   0.003100  -0.005183  -0.000577
    26  H    0.018860   1.924642  -0.430051   0.080137  -0.080279  -0.015987
    27  H    0.052411  -0.430051   2.053318  -0.098057   0.087462   0.007163
    28  H    0.003100   0.080137  -0.098057   1.824893  -0.340082   0.015737
    29  H   -0.005183  -0.080279   0.087462  -0.340082   1.782441  -0.036533
    30  H   -0.000577  -0.015987   0.007163   0.015737  -0.036533   2.124914
    31  H    0.000033  -0.003191   0.001062  -0.001713  -0.001806  -0.091995
    32  H   -0.000014  -0.000333  -0.000357   0.001017  -0.000013  -0.015453
    33  H   -0.000053   0.000941  -0.003092   0.000216   0.001330   0.010369
    34  H   -0.000532   0.006731  -0.024583  -0.035942   0.012724  -0.022138
    35  H   -0.019736   0.005981  -0.016848   0.003448  -0.002221   0.000092
    36  H   -0.019842  -0.000215  -0.000505   0.000484   0.000268  -0.000002
    37  H    0.002555  -0.001057   0.001462   0.000596  -0.000339   0.000015
    38  H    0.009644  -0.000649   0.001119   0.000012  -0.000087  -0.000032
    39  H   -0.013898  -0.000004  -0.000564   0.000001   0.000003   0.000005
    40  H   -0.022007   0.000541  -0.000824  -0.000040   0.000249   0.000016
              31         32         33         34         35         36
     1  O    0.000002  -0.000001  -0.000021   0.000175   0.043109  -0.007759
     2  S    0.000002   0.000007  -0.000037   0.005175   0.013065   0.006275
     3  N    0.000086  -0.000091   0.000253  -0.010016  -0.033544   0.032432
     4  C    0.009738   0.000375   0.002726   0.128553  -0.024397   0.012368
     5  C   -0.000366  -0.000148  -0.000244   0.004801   0.025057   0.002112
     6  S    0.000203  -0.000027  -0.000010  -0.000073   0.005820  -0.001922
     7  O   -0.000299  -0.000025   0.000007  -0.000345  -0.000887   0.000078
     8  C    0.000483  -0.000209  -0.000461   0.001321   0.030512   0.005389
     9  C    0.000943  -0.003240  -0.004320  -0.009786  -0.024779  -0.008365
    10  C    0.003939  -0.001576   0.022215  -0.221330  -0.010013   0.002793
    11  C   -0.137396   0.095678  -0.151370   0.878816   0.014733  -0.000618
    12  C    0.609546  -0.127508   0.135652  -0.064870   0.000145  -0.000156
    13  C   -0.739322   0.379135  -0.242667   0.121954   0.000728  -0.000049
    14  C    0.314077  -0.611699   0.327741  -0.164669  -0.000621   0.000027
    15  C   -0.240471   0.380891  -0.781495   0.299107   0.000075   0.000101
    16  C    0.132469  -0.148970   0.637213  -1.247641  -0.000648   0.000265
    17  N    0.000021  -0.000005   0.000048  -0.000554  -0.017470  -0.131914
    18  C    0.000002   0.000002  -0.000045   0.001289   0.315252   0.323883
    19  C    0.000001  -0.000001   0.000003   0.000072  -0.075376   0.061247
    20  O    0.000009  -0.000001   0.000014  -0.000406   0.008143  -0.003260
    21  H    0.000025  -0.000035   0.001626  -0.004399  -0.016197  -0.003893
    22  H    0.001812  -0.000009  -0.000146   0.000422  -0.002446   0.000237
    23  H   -0.000246   0.000013  -0.000053   0.000839   0.006728  -0.001338
    24  H   -0.000023  -0.000018   0.000084   0.000579  -0.002674   0.004994
    25  H    0.000033  -0.000014  -0.000053  -0.000532  -0.019736  -0.019842
    26  H   -0.003191  -0.000333   0.000941   0.006731   0.005981  -0.000215
    27  H    0.001062  -0.000357  -0.003092  -0.024583  -0.016848  -0.000505
    28  H   -0.001713   0.001017   0.000216  -0.035942   0.003448   0.000484
    29  H   -0.001806  -0.000013   0.001330   0.012724  -0.002221   0.000268
    30  H   -0.091995  -0.015453   0.010369  -0.022138   0.000092  -0.000002
    31  H    1.669317  -0.052042  -0.020153   0.011407  -0.000006   0.000000
    32  H   -0.052042   1.609081  -0.050803  -0.016828   0.000004   0.000000
    33  H   -0.020153  -0.050803   1.677069  -0.089432   0.000004   0.000001
    34  H    0.011407  -0.016828  -0.089432   2.091073   0.001950  -0.000084
    35  H   -0.000006   0.000004   0.000004   0.001950   1.515789  -0.319347
    36  H    0.000000   0.000000   0.000001  -0.000084  -0.319347   1.371911
    37  H   -0.000001  -0.000000  -0.000004  -0.000267  -0.232080  -0.190834
    38  H    0.000002  -0.000000   0.000001  -0.000033  -0.022096   0.009973
    39  H    0.000000   0.000000   0.000001   0.000013   0.014267  -0.000159
    40  H   -0.000001   0.000000  -0.000001   0.000046   0.013176   0.012311
              37         38         39         40
     1  O   -0.026670  -0.008018   0.020556  -0.010564
     2  S    0.062830   0.108253  -0.112869   0.028578
     3  N   -0.041684   0.035146  -0.000598  -0.017541
     4  C    0.061940   0.048205   0.021047   0.043609
     5  C    0.000560  -0.015078   0.001024  -0.005374
     6  S   -0.000707   0.002059  -0.000403  -0.003630
     7  O   -0.000034  -0.000597   0.000029   0.000213
     8  C   -0.033933  -0.009612  -0.001851  -0.035099
     9  C   -0.000711   0.004883  -0.005349   0.010695
    10  C   -0.000906  -0.000295   0.000546   0.001780
    11  C   -0.000774   0.000122   0.000314  -0.000294
    12  C   -0.000010  -0.000104  -0.000009   0.000056
    13  C   -0.000029   0.000047  -0.000004  -0.000016
    14  C    0.000008  -0.000013   0.000001   0.000003
    15  C   -0.000056   0.000004   0.000008   0.000003
    16  C    0.000224  -0.000141   0.000034   0.000135
    17  N   -0.082385  -0.095075   0.059199  -0.328822
    18  C    0.247773  -0.114191   0.066626   0.084157
    19  C    0.030911   0.414898   0.247061   0.402076
    20  O   -0.001237  -0.042500   0.011362   0.008108
    21  H    0.003384   0.005202  -0.004978  -0.002262
    22  H    0.000178   0.000761  -0.000326  -0.001397
    23  H    0.000534  -0.003230   0.001792   0.001872
    24  H    0.000464   0.001080   0.000280   0.000271
    25  H    0.002555   0.009644  -0.013898  -0.022007
    26  H   -0.001057  -0.000649  -0.000004   0.000541
    27  H    0.001462   0.001119  -0.000564  -0.000824
    28  H    0.000596   0.000012   0.000001  -0.000040
    29  H   -0.000339  -0.000087   0.000003   0.000249
    30  H    0.000015  -0.000032   0.000005   0.000016
    31  H   -0.000001   0.000002   0.000000  -0.000001
    32  H   -0.000000  -0.000000   0.000000   0.000000
    33  H   -0.000004   0.000001   0.000001  -0.000001
    34  H   -0.000267  -0.000033   0.000013   0.000046
    35  H   -0.232080  -0.022096   0.014267   0.013176
    36  H   -0.190834   0.009973  -0.000159   0.012311
    37  H    1.284145   0.002597  -0.009029   0.012425
    38  H    0.002597   1.342690  -0.243380  -0.288890
    39  H   -0.009029  -0.243380   1.193371  -0.166867
    40  H    0.012425  -0.288890  -0.166867   1.437465
 Mulliken charges:
               1
     1  O   -1.154761
     2  S    3.199021
     3  N   -1.016635
     4  C   -0.243400
     5  C    0.383046
     6  S    1.496780
     7  O   -1.248102
     8  C    0.762707
     9  C    0.131212
    10  C    0.976974
    11  C    1.042509
    12  C    0.567006
    13  C    0.005767
    14  C    0.678136
    15  C    0.079891
    16  C    0.486245
    17  N   -1.095499
    18  C    0.795908
    19  C    0.875583
    20  O   -1.165286
    21  H   -0.116559
    22  H   -0.230031
    23  H   -0.205189
    24  H   -0.369309
    25  H   -0.167623
    26  H   -0.094590
    27  H   -0.213502
    28  H   -0.329745
    29  H   -0.286781
    30  H   -0.677098
    31  H   -0.466146
    32  H   -0.436798
    33  H   -0.473104
    34  H   -0.653118
    35  H   -0.196694
    36  H   -0.156883
    37  H   -0.089852
    38  H   -0.142677
    39  H   -0.077250
    40  H   -0.174154
 Sum of Mulliken charges =  -0.00000
 Mulliken charges with hydrogens summed into heavy atoms:
               1
     1  O   -1.154761
     2  S    3.199021
     3  N   -1.133194
     4  C   -0.243400
     5  C   -0.052174
     6  S    1.496780
     7  O   -1.248102
     8  C    0.225776
     9  C   -0.176881
    10  C    0.360449
    11  C    1.042509
    12  C   -0.110092
    13  C   -0.460379
    14  C    0.241338
    15  C   -0.393213
    16  C   -0.166872
    17  N   -1.095499
    18  C    0.352479
    19  C    0.481501
    20  O   -1.165286
 Electronic spatial extent (au):  <R**2>=           8436.3833
 Charge=              0.0000 electrons
 Dipole moment (field-independent basis, Debye):
    X=              2.2631    Y=             -1.8801    Z=              3.9499  Tot=              4.9253
 Quadrupole moment (field-independent basis, Debye-Ang):
   XX=           -122.1109   YY=           -158.5533   ZZ=           -136.6622
   XY=             10.8431   XZ=             14.3193   YZ=            -12.9650
 Traceless Quadrupole moment (field-independent basis, Debye-Ang):
   XX=             16.9979   YY=            -19.4445   ZZ=              2.4466
   XY=             10.8431   XZ=             14.3193   YZ=            -12.9650
 Octapole moment (field-independent basis, Debye-Ang**2):
  XXX=             75.4759  YYY=            -56.5156  ZZZ=             10.1543  XYY=              7.6197
  XXY=             15.6884  XXZ=             59.7178  XZZ=             29.2035  YZZ=              9.6229
  YYZ=              2.7187  XYZ=              2.9960
 Hexadecapole moment (field-independent basis, Debye-Ang**3):
 XXXX=          -7591.9158 YYYY=          -2623.5690 ZZZZ=           -734.5297 XXXY=            -86.0872
 XXXZ=             14.6282 YYYX=            123.7939 YYYZ=            -88.1465 ZZZX=             49.8507
 ZZZY=             -3.2837 XXYY=          -1802.7866 XXZZ=          -1622.2546 YYZZ=           -486.7297
 XXYZ=           -125.6855 YYXZ=             16.2283 ZZXY=            -17.7182
 N-N= 1.964421987845D+03 E-N=-7.777506645680D+03  KE= 1.630821903823D+03
 Leave Link  601 at Mon Sep 21 09:11:04 2020, MaxMem=   262144000 cpu:               1.4 elap:               0.5
 (Enter /prod/apps/gaussian/g16b1/l9999.exe)
 1\1\GINC-PIRINEUS30\SP\RMP2-FC\Aug-CC-pVDZ\C13H20N2O3S2\UBAFAR01\21-Se
 p-2020\0\\#p mp2/aug-cc-pVDZ scf=(MaxCycle=2000,NoVarAcc,NoIncFock) ma
 xdisk=120GB geom=allcheck\\SM37_m0.n.7.pdb.xyz\\0,1\O,0,2.6839810353,-
 2.6232261987,-0.733150557\S,0,2.6057624381,-1.1598703411,-0.6116182033
 \N,0,1.0248017372,-0.8533587398,-0.2163614073\C,0,0.4232734999,0.46897
 63218,0.0369729868\C,0,0.5916130978,1.4983027117,-1.1073434445\S,0,0.7
 797177571,2.9087295693,0.1057475224\O,0,-0.5976622516,3.4801848854,0.4
 395635447\C,0,1.0778820216,1.3680430961,1.1176397836\C,0,-1.0613032976
 ,0.2328267607,0.3731621491\C,0,-1.8719348672,-0.4744962449,-0.72759977
 13\C,0,-3.3247934679,-0.6386978963,-0.3402130885\C,0,-4.2443112019,0.4
 023135095,-0.5302654698\C,0,-5.5781050613,0.2591235472,-0.1453073497\C
 ,0,-6.0160251168,-0.9320012128,0.4383880967\C,0,-5.1101869047,-1.97673
 91844,0.6320988187\C,0,-3.7777416574,-1.827691828,0.2445629667\N,0,3.5
 307608295,-0.5919701066,0.6803049325\C,0,3.3949362221,-1.3750881992,1.
 9153805791\C,0,4.9235002117,-0.2517663082,0.3442511764\O,0,2.978500197
 6,-0.3268334968,-1.759574927\H,0,0.6429338135,-1.6120013815,0.34687579
 04\H,0,-0.2483286544,1.6307107754,-1.7898099626\H,0,1.5258313429,1.388
 2241752,-1.6572648368\H,0,0.606182115,1.4005314603,2.1010066892\H,0,2.
 1549074295,1.2073946307,1.2001181434\H,0,-1.4918628059,1.2175207287,0.
 5796336203\H,0,-1.1180365135,-0.3427014987,1.3050619406\H,0,-1.4343898
 163,-1.4558621062,-0.931908211\H,0,-1.8006987671,0.1044932744,-1.65515
 16423\H,0,-3.9123540091,1.3304913114,-0.9872992905\H,0,-6.275824248,1.
 0754542686,-0.3047876566\H,0,-7.0536239578,-1.0455736445,0.7356758466\
 H,0,-5.4404706098,-2.9085857881,1.0803105896\H,0,-3.0780971303,-2.6454
 575879,0.3925074957\H,0,2.3405017622,-1.5152170486,2.1567712069\H,0,3.
 8562894441,-0.7977390594,2.7182028337\H,0,3.8849988079,-2.3530328582,1
 .8460776447\H,0,4.9356989417,0.3686800175,-0.5493367261\H,0,5.54689803
 3,-1.1406043489,0.1870048496\H,0,5.3247796007,0.3175140346,1.184673337
 \\Version=ES64L-G16RevB.01\State=1-A\HF=-1632.4017007\MP2=-1635.518143
 9\RMSD=9.406e-09\PG=C01 [X(C13H20N2O3S2)]\\@



 IN THIS SHORT LIFE

 THAT ONLY LASTS AN HOUR

 HOW MUCH, HOW LITTLE, IS WITHIN OUR POWER....


 EMILY DICKINSON BOLTS OF MELODY NO. 521
 Job cpu time:       0 days  4 hours 56 minutes 16.8 seconds.
 Elapsed time:       0 days  1 hours 25 minutes  4.5 seconds.
 File lengths (MBytes):  RWF=  75683 Int=      0 D2E=      0 Chk=     34 Scr=      1
 Normal termination of Gaussian 16 at Mon Sep 21 09:11:06 2020.
