 Entering Gaussian System, Link 0=g16
 Initial command:
 /prod/apps/gaussian/g16b1/l1.exe "/tmp/ubafar01/1459142/Gau-50478.inp" -scrdir="/tmp/ubafar01/1459142/"
 Entering Link 1 = /prod/apps/gaussian/g16b1/l1.exe PID=     50479.
  
 Copyright (c) 1988-2017, Gaussian, Inc.  All Rights Reserved.
  
 This is part of the Gaussian(R) 16 program.  It is based on
 the Gaussian(R) 09 system (copyright 2009, Gaussian, Inc.),
 the Gaussian(R) 03 system (copyright 2003, Gaussian, Inc.),
 the Gaussian(R) 98 system (copyright 1998, Gaussian, Inc.),
 the Gaussian(R) 94 system (copyright 1995, Gaussian, Inc.),
 the Gaussian 92(TM) system (copyright 1992, Gaussian, Inc.),
 the Gaussian 90(TM) system (copyright 1990, Gaussian, Inc.),
 the Gaussian 88(TM) system (copyright 1988, Gaussian, Inc.),
 the Gaussian 86(TM) system (copyright 1986, Carnegie Mellon
 University), and the Gaussian 82(TM) system (copyright 1983,
 Carnegie Mellon University). Gaussian is a federally registered
 trademark of Gaussian, Inc.
  
 This software contains proprietary and confidential information,
 including trade secrets, belonging to Gaussian, Inc.
  
 This software is provided under written license and may be
 used, copied, transmitted, or stored only in accord with that
 written license.
  
 The following legend is applicable only to US Government
 contracts under FAR:
  
                    RESTRICTED RIGHTS LEGEND
  
 Use, reproduction and disclosure by the US Government is
 subject to restrictions as set forth in subparagraphs (a)
 and (c) of the Commercial Computer Software - Restricted
 Rights clause in FAR 52.227-19.
  
 Gaussian, Inc.
 340 Quinnipiac St., Bldg. 40, Wallingford CT 06492
  
  
 ---------------------------------------------------------------
 Warning -- This program may not be used in any manner that
 competes with the business of Gaussian, Inc. or will provide
 assistance to any competitor of Gaussian, Inc.  The licensee
 of this program is prohibited from giving any competitor of
 Gaussian, Inc. access to this program.  By using this program,
 the user acknowledges that Gaussian, Inc. is engaged in the
 business of creating and licensing software in the field of
 computational chemistry and represents and warrants to the
 licensee that it is not a competitor of Gaussian, Inc. and that
 it will not use this program in any manner prohibited above.
 ---------------------------------------------------------------
  

 Cite this work as:
 Gaussian 16, Revision B.01,
 M. J. Frisch, G. W. Trucks, H. B. Schlegel, G. E. Scuseria, 
 M. A. Robb, J. R. Cheeseman, G. Scalmani, V. Barone, 
 G. A. Petersson, H. Nakatsuji, X. Li, M. Caricato, A. V. Marenich, 
 J. Bloino, B. G. Janesko, R. Gomperts, B. Mennucci, H. P. Hratchian, 
 J. V. Ortiz, A. F. Izmaylov, J. L. Sonnenberg, D. Williams-Young, 
 F. Ding, F. Lipparini, F. Egidi, J. Goings, B. Peng, A. Petrone, 
 T. Henderson, D. Ranasinghe, V. G. Zakrzewski, J. Gao, N. Rega, 
 G. Zheng, W. Liang, M. Hada, M. Ehara, K. Toyota, R. Fukuda, 
 J. Hasegawa, M. Ishida, T. Nakajima, Y. Honda, O. Kitao, H. Nakai, 
 T. Vreven, K. Throssell, J. A. Montgomery, Jr., J. E. Peralta, 
 F. Ogliaro, M. J. Bearpark, J. J. Heyd, E. N. Brothers, K. N. Kudin, 
 V. N. Staroverov, T. A. Keith, R. Kobayashi, J. Normand, 
 K. Raghavachari, A. P. Rendell, J. C. Burant, S. S. Iyengar, 
 J. Tomasi, M. Cossi, J. M. Millam, M. Klene, C. Adamo, R. Cammi, 
 J. W. Ochterski, R. L. Martin, K. Morokuma, O. Farkas, 
 J. B. Foresman, and D. J. Fox, Gaussian, Inc., Wallingford CT, 2016.
 
 ******************************************
 Gaussian 16:  ES64L-G16RevB.01 20-Dec-2017
                15-Sep-2020 
 ******************************************
 %nproc=4
 Will use up to    4 processors via shared memory.
 %Chk=SM37_m0.n.5.pdb.xyz.mst.n.w.chk
 %mem=16GB
 ----------------------------------------------------------------------
 #p b3lyp/6-31G(d) opt freq NoSymm scf=(MaxCycle=2000,NoVarAcc,NoIncFoc
 k) scrf=(iefpcm,read,solvent=water) MaxDisk=20GB
 ----------------------------------------------------------------------
 1/18=20,19=15,26=3,38=1,40=2/1,3;
 2/9=110,12=2,15=1,17=6,18=5,40=1/2;
 3/5=1,6=6,7=1,11=2,25=1,30=1,70=2203,71=1,72=1,74=-5/1,2,3;
 4//1;
 5/5=100002,7=2000,38=1,53=1/2;
 6/7=2,8=2,9=2,10=2,28=1/1;
 7/30=1/1,2,3,16;
 1/18=20,19=15,26=3/3(2);
 2/9=110,15=1/2;
 99//99;
 2/9=110,15=1/2;
 3/5=1,6=6,7=1,11=2,25=1,30=1,70=2205,71=1,72=1,74=-5/1,2,3;
 4/5=5,16=3,69=1/1;
 5/5=100002,7=2000,38=1,53=1/2;
 7/30=1/1,2,3,16;
 1/18=20,19=15,26=3/3(-5);
 2/9=110,15=1/2;
 6/7=2,8=2,9=2,10=2,19=2,28=1/1;
 99/9=1/99;
 Leave Link    1 at Tue Sep 15 07:39:15 2020, MaxMem=  2147483648 cpu:               0.2 elap:               0.1
 (Enter /prod/apps/gaussian/g16b1/l101.exe)
 -------------------
 SM37_m0.n.5.pdb.xyz
 -------------------
 Symbolic Z-matrix:
 Charge =  0 Multiplicity = 1
 O                    -3.534     0.454    -0.713 
 S                    -2.775    -0.802    -0.608 
 N                    -1.133    -0.574    -0.742 
 C                    -0.465     0.705    -0.446 
 C                    -0.822     1.337     0.914 
 S                    -0.74      3.064     0.203 
 O                     0.688     3.595     0.308 
 C                    -0.888     1.938    -1.285 
 C                     1.047     0.473    -0.584 
 C                     1.618    -0.607     0.349 
 C                     3.12     -0.733     0.221 
 C                     3.975     0.122     0.932 
 C                     5.36      0.027     0.794 
 C                     5.916    -0.929    -0.06 
 C                     5.075    -1.786    -0.773 
 C                     3.691    -1.687    -0.631 
 N                    -2.901    -1.271     1.008 
 C                    -4.274    -1.184     1.537 
 C                    -2.245    -2.556     1.306 
 O                    -3.095    -1.893    -1.545 
 H                    -0.809    -1.011    -1.607 
 H                    -0.132     1.175     1.742 
 H                    -1.848     1.158     1.232 
 H                    -0.242     2.23     -2.114 
 H                    -1.937     1.913    -1.58 
 H                     1.529     1.435    -0.388 
 H                     1.264     0.214    -1.629 
 H                     1.144    -1.566     0.121 
 H                     1.356    -0.361     1.384 
 H                     3.55      0.865     1.601 
 H                     6.006     0.694     1.356 
 H                     6.993    -1.006    -0.166 
 H                     5.498    -2.535    -1.436 
 H                     3.041    -2.36     -1.184 
 H                    -4.692    -0.206     1.304 
 H                    -4.211    -1.296     2.62 
 H                    -4.928    -1.969     1.139 
 H                    -1.232    -2.543     0.904 
 H                    -2.796    -3.41      0.895 
 H                    -2.196    -2.653     2.393 
 
 ITRead=  0  0  0  0  0  0  0  0  0  0  0  0  0  0  0  0  0  0  0  0
 ITRead=  0  0  0  0  0  0  0  0  0  0  0  0  0  0  0  0  0  0  0  0
 MicOpt= -1 -1 -1 -1 -1 -1 -1 -1 -1 -1 -1 -1 -1 -1 -1 -1 -1 -1 -1 -1
 MicOpt= -1 -1 -1 -1 -1 -1 -1 -1 -1 -1 -1 -1 -1 -1 -1 -1 -1 -1 -1 -1
 NAtoms=     40 NQM=       40 NQMF=       0 NMMI=      0 NMMIF=      0
                NMic=       0 NMicF=      0.
                    Isotopes and Nuclear Properties:
 (Nuclear quadrupole moments (NQMom) in fm**2, nuclear magnetic moments (NMagM)
  in nuclear magnetons)

  Atom         1           2           3           4           5           6           7           8           9          10
 IAtWgt=          16          32          14          12          12          32          16          12          12          12
 AtmWgt=  15.9949146  31.9720718  14.0030740  12.0000000  12.0000000  31.9720718  15.9949146  12.0000000  12.0000000  12.0000000
 NucSpn=           0           0           2           0           0           0           0           0           0           0
 AtZEff=  -0.0000000  -0.0000000  -0.0000000  -0.0000000  -0.0000000  -0.0000000  -0.0000000  -0.0000000  -0.0000000  -0.0000000
 NQMom=    0.0000000   0.0000000   2.0440000   0.0000000   0.0000000   0.0000000   0.0000000   0.0000000   0.0000000   0.0000000
 NMagM=    0.0000000   0.0000000   0.4037610   0.0000000   0.0000000   0.0000000   0.0000000   0.0000000   0.0000000   0.0000000
 AtZNuc=   8.0000000  16.0000000   7.0000000   6.0000000   6.0000000  16.0000000   8.0000000   6.0000000   6.0000000   6.0000000

  Atom        11          12          13          14          15          16          17          18          19          20
 IAtWgt=          12          12          12          12          12          12          14          12          12          16
 AtmWgt=  12.0000000  12.0000000  12.0000000  12.0000000  12.0000000  12.0000000  14.0030740  12.0000000  12.0000000  15.9949146
 NucSpn=           0           0           0           0           0           0           2           0           0           0
 AtZEff=  -0.0000000  -0.0000000  -0.0000000  -0.0000000  -0.0000000  -0.0000000  -0.0000000  -0.0000000  -0.0000000  -0.0000000
 NQMom=    0.0000000   0.0000000   0.0000000   0.0000000   0.0000000   0.0000000   2.0440000   0.0000000   0.0000000   0.0000000
 NMagM=    0.0000000   0.0000000   0.0000000   0.0000000   0.0000000   0.0000000   0.4037610   0.0000000   0.0000000   0.0000000
 AtZNuc=   6.0000000   6.0000000   6.0000000   6.0000000   6.0000000   6.0000000   7.0000000   6.0000000   6.0000000   8.0000000

  Atom        21          22          23          24          25          26          27          28          29          30
 IAtWgt=           1           1           1           1           1           1           1           1           1           1
 AtmWgt=   1.0078250   1.0078250   1.0078250   1.0078250   1.0078250   1.0078250   1.0078250   1.0078250   1.0078250   1.0078250
 NucSpn=           1           1           1           1           1           1           1           1           1           1
 AtZEff=  -0.0000000  -0.0000000  -0.0000000  -0.0000000  -0.0000000  -0.0000000  -0.0000000  -0.0000000  -0.0000000  -0.0000000
 NQMom=    0.0000000   0.0000000   0.0000000   0.0000000   0.0000000   0.0000000   0.0000000   0.0000000   0.0000000   0.0000000
 NMagM=    2.7928460   2.7928460   2.7928460   2.7928460   2.7928460   2.7928460   2.7928460   2.7928460   2.7928460   2.7928460
 AtZNuc=   1.0000000   1.0000000   1.0000000   1.0000000   1.0000000   1.0000000   1.0000000   1.0000000   1.0000000   1.0000000

  Atom        31          32          33          34          35          36          37          38          39          40
 IAtWgt=           1           1           1           1           1           1           1           1           1           1
 AtmWgt=   1.0078250   1.0078250   1.0078250   1.0078250   1.0078250   1.0078250   1.0078250   1.0078250   1.0078250   1.0078250
 NucSpn=           1           1           1           1           1           1           1           1           1           1
 AtZEff=  -0.0000000  -0.0000000  -0.0000000  -0.0000000  -0.0000000  -0.0000000  -0.0000000  -0.0000000  -0.0000000  -0.0000000
 NQMom=    0.0000000   0.0000000   0.0000000   0.0000000   0.0000000   0.0000000   0.0000000   0.0000000   0.0000000   0.0000000
 NMagM=    2.7928460   2.7928460   2.7928460   2.7928460   2.7928460   2.7928460   2.7928460   2.7928460   2.7928460   2.7928460
 AtZNuc=   1.0000000   1.0000000   1.0000000   1.0000000   1.0000000   1.0000000   1.0000000   1.0000000   1.0000000   1.0000000
 Leave Link  101 at Tue Sep 15 07:39:16 2020, MaxMem=  2147483648 cpu:               1.5 elap:               0.4
 (Enter /prod/apps/gaussian/g16b1/l103.exe)

 GradGradGradGradGradGradGradGradGradGradGradGradGradGradGradGradGradGrad
 Berny optimization.
 Initialization pass.
                           ----------------------------
                           !    Initial Parameters    !
                           ! (Angstroms and Degrees)  !
 --------------------------                            --------------------------
 ! Name  Definition              Value          Derivative Info.                !
 --------------------------------------------------------------------------------
 ! R1    R(1,2)                  1.4713         estimate D2E/DX2                !
 ! R2    R(2,3)                  1.6632         estimate D2E/DX2                !
 ! R3    R(2,17)                 1.6874         estimate D2E/DX2                !
 ! R4    R(2,20)                 1.4733         estimate D2E/DX2                !
 ! R5    R(3,4)                  1.473          estimate D2E/DX2                !
 ! R6    R(3,21)                 1.0218         estimate D2E/DX2                !
 ! R7    R(4,5)                  1.5416         estimate D2E/DX2                !
 ! R8    R(4,8)                  1.5502         estimate D2E/DX2                !
 ! R9    R(4,9)                  1.5359         estimate D2E/DX2                !
 ! R10   R(5,6)                  1.8694         estimate D2E/DX2                !
 ! R11   R(5,22)                 1.0899         estimate D2E/DX2                !
 ! R12   R(5,23)                 1.089          estimate D2E/DX2                !
 ! R13   R(6,7)                  1.5271         estimate D2E/DX2                !
 ! R14   R(6,8)                  1.8719         estimate D2E/DX2                !
 ! R15   R(8,24)                 1.0908         estimate D2E/DX2                !
 ! R16   R(8,25)                 1.09           estimate D2E/DX2                !
 ! R17   R(9,10)                 1.5372         estimate D2E/DX2                !
 ! R18   R(9,26)                 1.0937         estimate D2E/DX2                !
 ! R19   R(9,27)                 1.0983         estimate D2E/DX2                !
 ! R20   R(10,11)                1.5127         estimate D2E/DX2                !
 ! R21   R(10,28)                1.0938         estimate D2E/DX2                !
 ! R22   R(10,29)                1.0956         estimate D2E/DX2                !
 ! R23   R(11,12)                1.4027         estimate D2E/DX2                !
 ! R24   R(11,16)                1.4007         estimate D2E/DX2                !
 ! R25   R(12,13)                1.3951         estimate D2E/DX2                !
 ! R26   R(12,30)                1.0864         estimate D2E/DX2                !
 ! R27   R(13,14)                1.3973         estimate D2E/DX2                !
 ! R28   R(13,31)                1.0854         estimate D2E/DX2                !
 ! R29   R(14,15)                1.3965         estimate D2E/DX2                !
 ! R30   R(14,32)                1.0849         estimate D2E/DX2                !
 ! R31   R(15,16)                1.3948         estimate D2E/DX2                !
 ! R32   R(15,33)                1.086          estimate D2E/DX2                !
 ! R33   R(16,34)                1.0868         estimate D2E/DX2                !
 ! R34   R(17,18)                1.474          estimate D2E/DX2                !
 ! R35   R(17,19)                1.4732         estimate D2E/DX2                !
 ! R36   R(18,35)                1.0888         estimate D2E/DX2                !
 ! R37   R(18,36)                1.0906         estimate D2E/DX2                !
 ! R38   R(18,37)                1.0965         estimate D2E/DX2                !
 ! R39   R(19,38)                1.0899         estimate D2E/DX2                !
 ! R40   R(19,39)                1.0963         estimate D2E/DX2                !
 ! R41   R(19,40)                1.0924         estimate D2E/DX2                !
 ! A1    A(1,2,3)              112.7392         estimate D2E/DX2                !
 ! A2    A(1,2,17)             105.4919         estimate D2E/DX2                !
 ! A3    A(1,2,20)             118.3413         estimate D2E/DX2                !
 ! A4    A(3,2,17)             100.8935         estimate D2E/DX2                !
 ! A5    A(3,2,20)             105.3496         estimate D2E/DX2                !
 ! A6    A(17,2,20)            112.7702         estimate D2E/DX2                !
 ! A7    A(2,3,4)              123.4065         estimate D2E/DX2                !
 ! A8    A(2,3,21)             108.8211         estimate D2E/DX2                !
 ! A9    A(4,3,21)             113.4315         estimate D2E/DX2                !
 ! A10   A(3,4,5)              115.3558         estimate D2E/DX2                !
 ! A11   A(3,4,8)              117.2663         estimate D2E/DX2                !
 ! A12   A(3,4,9)              107.2912         estimate D2E/DX2                !
 ! A13   A(5,4,8)               95.06           estimate D2E/DX2                !
 ! A14   A(5,4,9)              111.6643         estimate D2E/DX2                !
 ! A15   A(8,4,9)              109.885          estimate D2E/DX2                !
 ! A16   A(4,5,6)               91.8936         estimate D2E/DX2                !
 ! A17   A(4,5,22)             117.559          estimate D2E/DX2                !
 ! A18   A(4,5,23)             114.106          estimate D2E/DX2                !
 ! A19   A(6,5,22)             113.4828         estimate D2E/DX2                !
 ! A20   A(6,5,23)             107.7127         estimate D2E/DX2                !
 ! A21   A(22,5,23)            110.4991         estimate D2E/DX2                !
 ! A22   A(5,6,7)              109.6384         estimate D2E/DX2                !
 ! A23   A(5,6,8)               75.1174         estimate D2E/DX2                !
 ! A24   A(7,6,8)              109.7396         estimate D2E/DX2                !
 ! A25   A(4,8,6)               91.5269         estimate D2E/DX2                !
 ! A26   A(4,8,24)             117.5579         estimate D2E/DX2                !
 ! A27   A(4,8,25)             113.0071         estimate D2E/DX2                !
 ! A28   A(6,8,24)             113.3464         estimate D2E/DX2                !
 ! A29   A(6,8,25)             107.7602         estimate D2E/DX2                !
 ! A30   A(24,8,25)            111.7412         estimate D2E/DX2                !
 ! A31   A(4,9,10)             114.6622         estimate D2E/DX2                !
 ! A32   A(4,9,26)             106.5518         estimate D2E/DX2                !
 ! A33   A(4,9,27)             108.3983         estimate D2E/DX2                !
 ! A34   A(10,9,26)            110.2126         estimate D2E/DX2                !
 ! A35   A(10,9,27)            109.7815         estimate D2E/DX2                !
 ! A36   A(26,9,27)            106.9099         estimate D2E/DX2                !
 ! A37   A(9,10,11)            112.0858         estimate D2E/DX2                !
 ! A38   A(9,10,28)            109.1787         estimate D2E/DX2                !
 ! A39   A(9,10,29)            109.0742         estimate D2E/DX2                !
 ! A40   A(11,10,28)           109.8541         estimate D2E/DX2                !
 ! A41   A(11,10,29)           109.6382         estimate D2E/DX2                !
 ! A42   A(28,10,29)           106.867          estimate D2E/DX2                !
 ! A43   A(10,11,12)           120.7681         estimate D2E/DX2                !
 ! A44   A(10,11,16)           120.861          estimate D2E/DX2                !
 ! A45   A(12,11,16)           118.3577         estimate D2E/DX2                !
 ! A46   A(11,12,13)           120.8959         estimate D2E/DX2                !
 ! A47   A(11,12,30)           119.3773         estimate D2E/DX2                !
 ! A48   A(13,12,30)           119.7265         estimate D2E/DX2                !
 ! A49   A(12,13,14)           120.138          estimate D2E/DX2                !
 ! A50   A(12,13,31)           119.8552         estimate D2E/DX2                !
 ! A51   A(14,13,31)           120.0059         estimate D2E/DX2                !
 ! A52   A(13,14,15)           119.4919         estimate D2E/DX2                !
 ! A53   A(13,14,32)           120.217          estimate D2E/DX2                !
 ! A54   A(15,14,32)           120.2909         estimate D2E/DX2                !
 ! A55   A(14,15,16)           120.1351         estimate D2E/DX2                !
 ! A56   A(14,15,33)           120.0244         estimate D2E/DX2                !
 ! A57   A(16,15,33)           119.8398         estimate D2E/DX2                !
 ! A58   A(11,16,15)           120.9813         estimate D2E/DX2                !
 ! A59   A(11,16,34)           119.1714         estimate D2E/DX2                !
 ! A60   A(15,16,34)           119.8469         estimate D2E/DX2                !
 ! A61   A(2,17,18)            113.3824         estimate D2E/DX2                !
 ! A62   A(2,17,19)            113.7599         estimate D2E/DX2                !
 ! A63   A(18,17,19)           113.1832         estimate D2E/DX2                !
 ! A64   A(17,18,35)           109.5013         estimate D2E/DX2                !
 ! A65   A(17,18,36)           107.2491         estimate D2E/DX2                !
 ! A66   A(17,18,37)           112.5233         estimate D2E/DX2                !
 ! A67   A(35,18,36)           109.0824         estimate D2E/DX2                !
 ! A68   A(35,18,37)           109.6576         estimate D2E/DX2                !
 ! A69   A(36,18,37)           108.746          estimate D2E/DX2                !
 ! A70   A(17,19,38)           109.1987         estimate D2E/DX2                !
 ! A71   A(17,19,39)           112.3234         estimate D2E/DX2                !
 ! A72   A(17,19,40)           107.3794         estimate D2E/DX2                !
 ! A73   A(38,19,39)           109.7641         estimate D2E/DX2                !
 ! A74   A(38,19,40)           109.0488         estimate D2E/DX2                !
 ! A75   A(39,19,40)           109.0515         estimate D2E/DX2                !
 ! D1    D(1,2,3,4)             23.5493         estimate D2E/DX2                !
 ! D2    D(1,2,3,21)          -113.1746         estimate D2E/DX2                !
 ! D3    D(17,2,3,4)           -88.5113         estimate D2E/DX2                !
 ! D4    D(17,2,3,21)          134.7648         estimate D2E/DX2                !
 ! D5    D(20,2,3,4)           154.0018         estimate D2E/DX2                !
 ! D6    D(20,2,3,21)           17.2779         estimate D2E/DX2                !
 ! D7    D(1,2,17,18)           46.2803         estimate D2E/DX2                !
 ! D8    D(1,2,17,19)          177.5002         estimate D2E/DX2                !
 ! D9    D(3,2,17,18)          163.7844         estimate D2E/DX2                !
 ! D10   D(3,2,17,19)          -64.9956         estimate D2E/DX2                !
 ! D11   D(20,2,17,18)         -84.3066         estimate D2E/DX2                !
 ! D12   D(20,2,17,19)          46.9133         estimate D2E/DX2                !
 ! D13   D(2,3,4,5)             50.5539         estimate D2E/DX2                !
 ! D14   D(2,3,4,8)            -60.1808         estimate D2E/DX2                !
 ! D15   D(2,3,4,9)            175.6801         estimate D2E/DX2                !
 ! D16   D(21,3,4,5)          -174.4518         estimate D2E/DX2                !
 ! D17   D(21,3,4,8)            74.8135         estimate D2E/DX2                !
 ! D18   D(21,3,4,9)           -49.3256         estimate D2E/DX2                !
 ! D19   D(3,4,5,6)           -144.0844         estimate D2E/DX2                !
 ! D20   D(3,4,5,22)            98.0776         estimate D2E/DX2                !
 ! D21   D(3,4,5,23)           -33.7018         estimate D2E/DX2                !
 ! D22   D(8,4,5,6)            -20.6551         estimate D2E/DX2                !
 ! D23   D(8,4,5,22)          -138.4931         estimate D2E/DX2                !
 ! D24   D(8,4,5,23)            89.7275         estimate D2E/DX2                !
 ! D25   D(9,4,5,6)             93.0851         estimate D2E/DX2                !
 ! D26   D(9,4,5,22)           -24.7529         estimate D2E/DX2                !
 ! D27   D(9,4,5,23)          -156.5323         estimate D2E/DX2                !
 ! D28   D(3,4,8,6)            142.5802         estimate D2E/DX2                !
 ! D29   D(3,4,8,24)           -99.9634         estimate D2E/DX2                !
 ! D30   D(3,4,8,25)            32.5307         estimate D2E/DX2                !
 ! D31   D(5,4,8,6)             20.6227         estimate D2E/DX2                !
 ! D32   D(5,4,8,24)           138.0791         estimate D2E/DX2                !
 ! D33   D(5,4,8,25)           -89.4267         estimate D2E/DX2                !
 ! D34   D(9,4,8,6)            -94.5998         estimate D2E/DX2                !
 ! D35   D(9,4,8,24)            22.8566         estimate D2E/DX2                !
 ! D36   D(9,4,8,25)           155.3507         estimate D2E/DX2                !
 ! D37   D(3,4,9,10)           -59.25           estimate D2E/DX2                !
 ! D38   D(3,4,9,26)           178.5364         estimate D2E/DX2                !
 ! D39   D(3,4,9,27)            63.7875         estimate D2E/DX2                !
 ! D40   D(5,4,9,10)            68.0691         estimate D2E/DX2                !
 ! D41   D(5,4,9,26)           -54.1445         estimate D2E/DX2                !
 ! D42   D(5,4,9,27)          -168.8934         estimate D2E/DX2                !
 ! D43   D(8,4,9,10)           172.227          estimate D2E/DX2                !
 ! D44   D(8,4,9,26)            50.0134         estimate D2E/DX2                !
 ! D45   D(8,4,9,27)           -64.7354         estimate D2E/DX2                !
 ! D46   D(4,5,6,7)            -88.5119         estimate D2E/DX2                !
 ! D47   D(4,5,6,8)             17.5229         estimate D2E/DX2                !
 ! D48   D(22,5,6,7)            32.7586         estimate D2E/DX2                !
 ! D49   D(22,5,6,8)           138.7934         estimate D2E/DX2                !
 ! D50   D(23,5,6,7)           155.4133         estimate D2E/DX2                !
 ! D51   D(23,5,6,8)           -98.5519         estimate D2E/DX2                !
 ! D52   D(5,6,8,4)            -17.4188         estimate D2E/DX2                !
 ! D53   D(5,6,8,24)          -138.4555         estimate D2E/DX2                !
 ! D54   D(5,6,8,25)            97.3582         estimate D2E/DX2                !
 ! D55   D(7,6,8,4)             88.4894         estimate D2E/DX2                !
 ! D56   D(7,6,8,24)           -32.5473         estimate D2E/DX2                !
 ! D57   D(7,6,8,25)          -156.7336         estimate D2E/DX2                !
 ! D58   D(4,9,10,11)         -176.7742         estimate D2E/DX2                !
 ! D59   D(4,9,10,28)           61.2749         estimate D2E/DX2                !
 ! D60   D(4,9,10,29)          -55.1687         estimate D2E/DX2                !
 ! D61   D(26,9,10,11)         -56.569          estimate D2E/DX2                !
 ! D62   D(26,9,10,28)        -178.52           estimate D2E/DX2                !
 ! D63   D(26,9,10,29)          65.0365         estimate D2E/DX2                !
 ! D64   D(27,9,10,11)          60.935          estimate D2E/DX2                !
 ! D65   D(27,9,10,28)         -61.0159         estimate D2E/DX2                !
 ! D66   D(27,9,10,29)        -177.4595         estimate D2E/DX2                !
 ! D67   D(9,10,11,12)          83.7611         estimate D2E/DX2                !
 ! D68   D(9,10,11,16)         -94.8956         estimate D2E/DX2                !
 ! D69   D(28,10,11,12)       -154.6747         estimate D2E/DX2                !
 ! D70   D(28,10,11,16)         26.6686         estimate D2E/DX2                !
 ! D71   D(29,10,11,12)        -37.5204         estimate D2E/DX2                !
 ! D72   D(29,10,11,16)        143.8229         estimate D2E/DX2                !
 ! D73   D(10,11,12,13)       -178.6154         estimate D2E/DX2                !
 ! D74   D(10,11,12,30)          1.5933         estimate D2E/DX2                !
 ! D75   D(16,11,12,13)          0.0743         estimate D2E/DX2                !
 ! D76   D(16,11,12,30)       -179.7171         estimate D2E/DX2                !
 ! D77   D(10,11,16,15)        178.5939         estimate D2E/DX2                !
 ! D78   D(10,11,16,34)         -1.6548         estimate D2E/DX2                !
 ! D79   D(12,11,16,15)         -0.0945         estimate D2E/DX2                !
 ! D80   D(12,11,16,34)        179.6568         estimate D2E/DX2                !
 ! D81   D(11,12,13,14)         -0.0452         estimate D2E/DX2                !
 ! D82   D(11,12,13,31)       -179.7019         estimate D2E/DX2                !
 ! D83   D(30,12,13,14)        179.7454         estimate D2E/DX2                !
 ! D84   D(30,12,13,31)          0.0888         estimate D2E/DX2                !
 ! D85   D(12,13,14,15)          0.0341         estimate D2E/DX2                !
 ! D86   D(12,13,14,32)       -179.8142         estimate D2E/DX2                !
 ! D87   D(31,13,14,15)        179.6903         estimate D2E/DX2                !
 ! D88   D(31,13,14,32)         -0.1581         estimate D2E/DX2                !
 ! D89   D(13,14,15,16)         -0.0541         estimate D2E/DX2                !
 ! D90   D(13,14,15,33)       -179.7432         estimate D2E/DX2                !
 ! D91   D(32,14,15,16)        179.7941         estimate D2E/DX2                !
 ! D92   D(32,14,15,33)          0.1051         estimate D2E/DX2                !
 ! D93   D(14,15,16,11)          0.0857         estimate D2E/DX2                !
 ! D94   D(14,15,16,34)       -179.664          estimate D2E/DX2                !
 ! D95   D(33,15,16,11)        179.7754         estimate D2E/DX2                !
 ! D96   D(33,15,16,34)          0.0257         estimate D2E/DX2                !
 ! D97   D(2,17,18,35)         -49.804          estimate D2E/DX2                !
 ! D98   D(2,17,18,36)        -168.0407         estimate D2E/DX2                !
 ! D99   D(2,17,18,37)          72.4179         estimate D2E/DX2                !
 ! D100  D(19,17,18,35)        178.6916         estimate D2E/DX2                !
 ! D101  D(19,17,18,36)         60.455          estimate D2E/DX2                !
 ! D102  D(19,17,18,37)        -59.0864         estimate D2E/DX2                !
 ! D103  D(2,17,19,38)          49.753          estimate D2E/DX2                !
 ! D104  D(2,17,19,39)         -72.2559         estimate D2E/DX2                !
 ! D105  D(2,17,19,40)         167.8594         estimate D2E/DX2                !
 ! D106  D(18,17,19,38)       -178.9294         estimate D2E/DX2                !
 ! D107  D(18,17,19,39)         59.0617         estimate D2E/DX2                !
 ! D108  D(18,17,19,40)        -60.823          estimate D2E/DX2                !
 --------------------------------------------------------------------------------
 Trust Radius=3.00D-01 FncErr=1.00D-07 GrdErr=1.00D-06 EigMax=2.50D+02 EigMin=1.00D-04
 Number of steps in this run=    234 maximum allowed number of steps=    240.
 GradGradGradGradGradGradGradGradGradGradGradGradGradGradGradGradGradGrad

 Leave Link  103 at Tue Sep 15 07:39:16 2020, MaxMem=  2147483648 cpu:               0.1 elap:               0.1
 (Enter /prod/apps/gaussian/g16b1/l202.exe)
                          Input orientation:                          
 ---------------------------------------------------------------------
 Center     Atomic      Atomic             Coordinates (Angstroms)
 Number     Number       Type             X           Y           Z
 ---------------------------------------------------------------------
      1          8           0       -3.534000    0.454000   -0.713000
      2         16           0       -2.775000   -0.802000   -0.608000
      3          7           0       -1.133000   -0.574000   -0.742000
      4          6           0       -0.465000    0.705000   -0.446000
      5          6           0       -0.822000    1.337000    0.914000
      6         16           0       -0.740000    3.064000    0.203000
      7          8           0        0.688000    3.595000    0.308000
      8          6           0       -0.888000    1.938000   -1.285000
      9          6           0        1.047000    0.473000   -0.584000
     10          6           0        1.618000   -0.607000    0.349000
     11          6           0        3.120000   -0.733000    0.221000
     12          6           0        3.975000    0.122000    0.932000
     13          6           0        5.360000    0.027000    0.794000
     14          6           0        5.916000   -0.929000   -0.060000
     15          6           0        5.075000   -1.786000   -0.773000
     16          6           0        3.691000   -1.687000   -0.631000
     17          7           0       -2.901000   -1.271000    1.008000
     18          6           0       -4.274000   -1.184000    1.537000
     19          6           0       -2.245000   -2.556000    1.306000
     20          8           0       -3.095000   -1.893000   -1.545000
     21          1           0       -0.809000   -1.011000   -1.607000
     22          1           0       -0.132000    1.175000    1.742000
     23          1           0       -1.848000    1.158000    1.232000
     24          1           0       -0.242000    2.230000   -2.114000
     25          1           0       -1.937000    1.913000   -1.580000
     26          1           0        1.529000    1.435000   -0.388000
     27          1           0        1.264000    0.214000   -1.629000
     28          1           0        1.144000   -1.566000    0.121000
     29          1           0        1.356000   -0.361000    1.384000
     30          1           0        3.550000    0.865000    1.601000
     31          1           0        6.006000    0.694000    1.356000
     32          1           0        6.993000   -1.006000   -0.166000
     33          1           0        5.498000   -2.535000   -1.436000
     34          1           0        3.041000   -2.360000   -1.184000
     35          1           0       -4.692000   -0.206000    1.304000
     36          1           0       -4.211000   -1.296000    2.620000
     37          1           0       -4.928000   -1.969000    1.139000
     38          1           0       -1.232000   -2.543000    0.904000
     39          1           0       -2.796000   -3.410000    0.895000
     40          1           0       -2.196000   -2.653000    2.393000
 ---------------------------------------------------------------------
                    Distance matrix (angstroms):
                    1          2          3          4          5
     1  O    0.000000
     2  S    1.471272   0.000000
     3  N    2.611977   1.663161   0.000000
     4  C    3.090801   2.762860   1.472984   0.000000
     5  C    3.283559   3.272005   2.547740   1.541581   0.000000
     6  S    3.931614   4.443524   3.779222   2.462053   1.869431
     7  O    5.360374   5.671423   4.668951   3.201566   2.783146
     8  C    3.087192   3.395099   2.581670   1.550206   2.280605
     9  C    4.582855   4.029130   2.423546   1.535908   2.546303
    10  C    5.366253   4.500258   2.959623   2.586940   3.170483
    11  C    6.823272   5.953405   4.363560   3.919816   4.506053
    12  C    7.694240   6.984832   5.420180   4.685336   4.948511
    13  C    9.030870   8.296449   6.699220   5.993989   6.320413
    14  C    9.572962   8.709186   7.090807   6.598190   7.175240
    15  C    8.895846   7.913152   6.325280   6.083059   6.882856
    16  C    7.535996   6.526324   4.951976   4.798773   5.647900
    17  N    2.517569   1.687392   2.583434   3.457280   3.336576
    18  C    2.879782   2.644608   3.928336   4.691385   4.319708
    19  C    3.846815   2.649681   3.059276   4.107557   4.163417
    20  O    2.528508   1.473313   2.496801   3.856722   4.652538
    21  H    3.220417   2.215138   1.021846   2.100217   3.445100
    22  H    4.256815   4.051725   3.198634   2.262550   1.089921
    23  H    2.668565   2.843682   2.721714   2.221167   1.088963
    24  H    3.994276   4.228138   3.246333   2.271030   3.209771
    25  H    2.330403   3.003041   2.744782   2.216304   2.791959
    26  H    5.167393   4.855614   3.353750   2.124218   2.689239
    27  H    4.890548   4.288149   2.674569   2.151746   3.475539
    28  H    5.163297   4.058780   2.629365   2.840389   3.594637
    29  H    5.382726   4.607353   3.280300   2.793080   2.801390
    30  H    7.463684   6.903926   5.430549   4.509549   4.450746
    31  H    9.764730   9.121473   7.548162   6.717229   6.872437
    32  H   10.641830   9.780123   8.157835   7.656872   8.229840
    33  H    9.541167   8.493021   6.949627   6.858212   7.775428
    34  H    7.167361   6.048553   4.561517   4.714966   5.743882
    35  H    2.417613   2.772336   4.121653   4.664756   4.184477
    36  H    3.824881   3.567368   4.615020   5.238022   4.618273
    37  H    3.353218   3.008207   4.459396   5.438830   5.276315
    38  H    4.110463   2.774540   2.568283   3.600041   3.901615
    39  H    4.249800   3.010168   3.672633   4.915798   5.141113
    40  H    4.592486   3.573156   3.909020   4.725722   4.471624
                    6          7          8          9         10
     6  S    0.000000
     7  O    1.527144   0.000000
     8  C    1.871877   2.786947   0.000000
     9  C    3.244383   3.266715   2.526233   0.000000
    10  C    4.365515   4.303880   3.927724   1.537182   0.000000
    11  C    5.414530   4.965257   5.046419   2.529781   1.512701
    12  C    5.605179   4.822393   5.644618   3.315817   2.535109
    13  C    6.839784   5.898678   6.856505   4.549700   3.821328
    14  C    7.766309   6.923437   7.484299   5.093853   4.329407
    15  C    7.634743   7.026343   7.048949   4.622076   3.820965
    16  C    6.549910   6.148110   5.876698   3.414461   2.534587
    17  N    4.910211   6.086779   4.428058   4.600294   4.614817
    18  C    5.684559   6.997909   5.401441   5.962997   6.038206
    19  C    5.921658   6.887183   5.361974   4.856357   4.431390
    20  O    5.759633   6.918298   4.428884   4.865968   5.239599
    21  H    4.459427   5.208020   2.967579   2.587184   3.143164
    22  H    2.511276   2.930044   3.211921   2.700578   2.859803
    23  H    2.432970   3.636487   2.804512   3.485413   3.988492
    24  H    2.512379   2.931588   1.090789   2.662606   4.192200
    25  H    2.436534   3.644762   1.089978   3.459750   4.765445
    26  H    2.855045   2.420185   2.626691   1.093702   2.172753
    27  H    3.936336   3.938897   2.778780   1.098269   2.170678
    28  H    4.999308   5.184479   4.287642   2.159619   1.093774
    29  H    4.185523   4.153786   4.176661   2.159644   1.095621
    30  H    5.019373   4.161225   5.401497   3.345579   2.732565
    31  H    7.242570   6.147782   7.486632   5.329552   4.686277
    32  H    8.746448   7.819648   8.487017   6.141423   5.414338
    33  H    8.540946   7.984644   7.798175   5.439243   4.685916
    34  H    6.755702   6.574549   5.824092   3.515953   2.729107
    35  H    5.246275   6.662133   5.076423   6.079614   6.394445
    36  H    6.074482   7.298454   6.062187   6.406367   6.293600
    37  H    6.614116   7.949095   6.120623   6.680772   6.732701
    38  H    5.672029   6.458844   4.998942   4.062541   3.489788
    39  H    6.827787   7.845562   6.082267   5.659839   5.257216
    40  H    6.292863   7.190423   6.026262   5.399209   4.786507
                   11         12         13         14         15
    11  C    0.000000
    12  C    1.402701   0.000000
    13  C    2.433830   1.395096   0.000000
    14  C    2.816912   2.419948   1.397279   0.000000
    15  C    2.432873   2.785227   2.413231   1.396459   0.000000
    16  C    1.400736   2.407510   2.784597   2.418932   1.394783
    17  N    6.096003   7.016096   8.365089   8.888030   8.188636
    18  C    7.523729   8.373629   9.738199  10.317535   9.648954
    19  C    5.769210   6.782327   8.047985   8.432971   7.648369
    20  O    6.564342   7.757619   8.980220   9.183281   8.207090
    21  H    4.342339   5.533251   6.700657   6.901127   5.993132
    22  H    4.065638   4.316522   5.690226   6.652242   6.496583
    23  H    5.411010   5.922046   7.309328   8.142759   7.785569
    24  H    5.053181   5.612920   6.685213   7.219360   6.796839
    25  H    5.984828   6.668551   7.901840   8.488638   7.968814
    26  H    2.757242   3.073969   4.249253   4.994182   4.805953
    27  H    2.786404   3.730510   4.762679   5.040765   4.388218
    28  H    2.146734   3.394352   4.556889   4.817729   4.037375
    29  H    2.145379   2.701250   4.065791   4.816779   4.529264
    30  H    2.154740   1.086386   2.151649   3.402251   3.871602
    31  H    3.413730   2.152190   1.085380   2.155756   3.398500
    32  H    3.901849   3.403867   2.157632   1.084940   2.157678
    33  H    3.412878   3.871253   3.399381   2.155768   1.086047
    34  H    2.151138   3.392659   3.871436   3.402464   2.153033
    35  H    7.904300   8.681178  10.067626  10.719743  10.109630
    36  H    7.734063   8.477657   9.833038  10.482043   9.898603
    37  H    8.193944   9.147597  10.485513  10.959541  10.185737
    38  H    4.762614   5.849432   7.076119   7.391089   6.569903
    39  H    6.528374   7.636939   8.851187   9.108586   8.208060
    40  H    6.055067   6.922166   8.175105   8.648348   7.977637
                   16         17         18         19         20
    16  C    0.000000
    17  N    6.805427   0.000000
    18  C    8.270094   1.473954   0.000000
    19  C    6.304223   1.473216   2.460200   0.000000
    20  O    6.850374   2.634830   3.375122   3.047994   0.000000
    21  H    4.653982   3.358912   4.681975   3.596483   2.451033
    22  H    5.332682   3.766833   4.771066   4.309899   5.384827
    23  H    6.499640   2.656883   3.385774   3.735891   4.309912
    24  H    5.745491   5.392047   6.422011   6.214033   5.046038
    25  H    6.747962   4.214842   4.976813   5.328773   3.978420
    26  H    3.805283   5.375514   6.651285   5.748112   5.813399
    27  H    3.240391   5.148419   6.530498   5.347916   4.842250
    28  H    2.658450   4.151604   5.612994   3.724197   4.566356
    29  H    3.357190   4.369385   5.691892   4.217975   5.544138
    30  H    3.393289   6.821257   8.088107   6.735896   7.852382
    31  H    3.869955   9.127813  10.451701   8.868145   9.896291
    32  H    3.403409   9.966932  11.396367   9.482085  10.220379
    33  H    2.152296   8.838214  10.303199   8.214198   8.617639
    34  H    1.086848   6.426364   7.892784   5.846393   6.164325
    35  H    8.729964   2.104643   1.088805   3.392685   3.676028
    36  H    8.553566   2.077323   1.090597   2.679431   4.353055
    37  H    8.803385   2.147811   1.096515   2.751535   3.251080
    38  H    5.227321   2.101038   3.391362   1.089928   3.144975
    39  H    6.883210   2.144555   2.748040   1.096284   2.888648
    40  H    6.688386   2.079705   2.684917   1.092419   4.110188
                   21         22         23         24         25
    21  H    0.000000
    22  H    4.056196   0.000000
    23  H    3.720753   1.790264   0.000000
    24  H    3.329057   3.999233   3.863177   0.000000
    25  H    3.134149   3.852058   2.912952   1.805179   0.000000
    26  H    3.596543   2.713562   3.755697   2.597603   3.696282
    27  H    2.407995   3.773060   4.331397   2.562717   3.624280
    28  H    2.666124   3.430583   4.196017   4.617991   4.948677
    29  H    3.749107   2.168318   3.549096   4.637121   4.979982
    30  H    5.728134   3.697716   5.418525   5.481215   6.428393
    31  H    7.624344   6.168906   7.868671   7.310109   8.555542
    32  H    7.933959   7.691739   9.208723   8.161595   9.500782
    33  H    6.490768   7.453904   8.644084   7.490828   8.665141
    34  H    4.101369   5.579035   6.489661   5.719361   6.572353
    35  H    4.919312   4.784622   3.154999   6.117133   4.516375
    36  H    5.433448   4.849223   3.678645   7.113114   5.754021
    37  H    5.042265   5.766278   4.390123   7.083234   5.604370
    38  H    2.971712   3.966833   3.766224   5.733232   5.150070
    39  H    3.995419   5.369966   4.677488   6.883792   5.932776
    40  H    4.540918   4.397440   3.999093   6.926388   6.058066
                   26         27         28         29         30
    26  H    0.000000
    27  H    1.761007   0.000000
    28  H    3.068111   2.499060   0.000000
    29  H    2.528938   3.068755   1.758448   0.000000
    30  H    2.892311   4.010299   3.726794   2.522658   0.000000
    31  H    4.861496   5.623806   5.501988   4.768261   2.474106
    32  H    5.988578   6.037401   5.882752   5.881691   4.298509
    33  H    5.710706   5.051832   4.724460   5.462128   4.957628
    34  H    4.161945   3.159308   2.435584   3.664676   4.291379
    35  H    6.652562   6.652280   6.108026   6.050515   8.316599
    36  H    7.032356   7.092935   5.915566   5.778703   8.120431
    37  H    7.457332   7.125179   6.169920   6.491097   8.951060
    38  H    5.011673   4.499684   2.685702   3.418957   5.913358
    39  H    6.620101   5.998963   4.418485   5.174420   7.684125
    40  H    6.190422   6.030570   4.183199   4.346038   6.783812
                   31         32         33         34         35
    31  H    0.000000
    32  H    2.486092   0.000000
    33  H    4.298810   2.487120   0.000000
    34  H    4.956787   4.299761   2.476081   0.000000
    35  H   10.735917  11.804242  10.805922   8.404115   0.000000
    36  H   10.485461  11.548832  10.594854   8.257967   1.775195
    37  H   11.255710  12.030820  10.754183   8.309884   1.786362
    38  H    7.941733   8.435514   7.125206   4.759387   4.194421
    39  H    9.722682  10.135554   8.659655   6.284529   3.745359
    40  H    8.919113   9.679815   8.594929   6.348775   3.661113
                   36         37         38         39         40
    36  H    0.000000
    37  H    1.777745   0.000000
    38  H    3.657062   3.747682   0.000000
    39  H    3.073572   2.584848   1.788258   0.000000
    40  H    2.439919   3.082888   1.777222   1.782429   0.000000
 Symmetry turned off by external request.
 Stoichiometry    C13H20N2O3S2
 Framework group  C1[X(C13H20N2O3S2)]
 Deg. of freedom   114
 Full point group                 C1      NOp   1
 Rotational constants (GHZ):           0.4262896           0.1617649           0.1322167
 Leave Link  202 at Tue Sep 15 07:39:16 2020, MaxMem=  2147483648 cpu:               0.2 elap:               0.1
 (Enter /prod/apps/gaussian/g16b1/l301.exe)
 Standard basis: 6-31G(d) (6D, 7F)
 Ernie: Thresh=  0.10000D-02 Tol=  0.10000D-05 Strict=F.
   348 basis functions,   688 primitive gaussians,   348 cartesian basis functions
    84 alpha electrons       84 beta electrons
       nuclear repulsion energy      1972.8842246151 Hartrees.
 IExCor=  402 DFT=T Ex+Corr=B3LYP ExCW=0 ScaHFX=  0.200000
 ScaDFX=  0.800000  0.720000  1.000000  0.810000 ScalE2=  1.000000  1.000000
 IRadAn=      5 IRanWt=     -1 IRanGd=            0 ICorTp=0 IEmpDi=  4
 NAtoms=   40 NActive=   40 NUniq=   40 SFac= 1.00D+00 NAtFMM=   60 NAOKFM=F Big=F
 Integral buffers will be    131072 words long.
 Raffenetti 2 integral format.
 Two-electron integral symmetry is turned off.
 Using the following non-standard input for PCM:
 MSTModel=DFT cav
 --- end of non-standard input.
 MST model for solvation energy: B3LYP parametrization.
 MST cavity parameters:
 ISph   IAn     Re0     Alpha   Atom Type   QCorr
 ------------------------------------------------
   1      8     1.40     1.25      O          F
   2     16     1.75     1.25      S          F
   3      7     1.50     1.25      NH         F
   4      6     1.50     1.25      C          F
   5      6     1.50     1.25      CH2        F
   6     16     1.75     1.25      S          F
   7      8     1.40     1.25      O          F
   8      6     1.50     1.25      CH2        F
   9      6     1.50     1.25      CH2        F
  10      6     1.50     1.25      CH2        F
  11      6     1.50     1.25      C          F
  12      6     1.50     1.25      CH         F
  13      6     1.50     1.25      CH         F
  14      6     1.50     1.25      CH         F
  15      6     1.50     1.25      CH         F
  16      6     1.50     1.25      CH         F
  17      7     1.40     1.25      N          F
  18      6     1.50     1.25      CH3        F
  19      6     1.50     1.25      CH3        F
  20      8     1.40     1.25      O          F
  21      1     0.90     1.25      NH         F
  22      1     1.20     1.25      CH2        F
  23      1     1.20     1.25      CH2        F
  24      1     1.20     1.25      CH2        F
  25      1     1.20     1.25      CH2        F
  26      1     1.20     1.25      CH2        F
  27      1     1.20     1.25      CH2        F
  28      1     1.20     1.25      CH2        F
  29      1     1.20     1.25      CH2        F
  30      1     1.20     1.25      CH         F
  31      1     1.20     1.25      CH         F
  32      1     1.20     1.25      CH         F
  33      1     1.20     1.25      CH         F
  34      1     1.20     1.25      CH         F
  35      1     1.20     1.25      CH3        F
  36      1     1.20     1.25      CH3        F
  37      1     1.20     1.25      CH3        F
  38      1     1.20     1.25      CH3        F
  39      1     1.20     1.25      CH3        F
  40      1     1.20     1.25      CH3        F
 ------------------------------------------------------------------------------
 Polarizable Continuum Model (PCM)
 =================================
 Model                : PCM.
 Atomic radii         : MST.
 Polarization charges : Total charges.
 Charge compensation  : None.
 Solution method      : On-the-fly selection.
 Cavity type          : Scaled VdW (van der Waals Surface) (Alpha=1.250).
 Cavity algorithm     : GePol (No added spheres)
                        Default sphere list used, NSphG=   40.
                        Lebedev-Laikov grids with approx.  5.0 points / Ang**2.
                        Smoothing algorithm: York/Karplus (Gamma=1.0000).
                        Polarization charges: spherical gaussians, with
                                              point-specific exponents (IZeta= 3).
                        Self-potential: point-specific (ISelfS= 7).
                        Self-field    : sphere-specific E.n sum rule (ISelfD= 2).
 1st derivatives      : Analytical E(r).r(x)/FMM algorithm (CHGder, D1EAlg=3).
                        Cavity 1st derivative terms included.
 Solvent              : Water, Eps=  78.355300 Eps(inf)=   1.777849
 ------------------------------------------------------------------------------
 GePol: Number of generator spheres                  =      40
 GePol: Total number of spheres                      =      40
 GePol: Number of exposed spheres                    =      40 (100.00%)
 GePol: Number of points                             =    2742
 GePol: Average weight of points                     =       0.13
 GePol: Minimum weight of points                     =   0.16D-11
 GePol: Maximum weight of points                     =    0.22001
 GePol: Number of points with low weight             =     199
 GePol: Fraction of low-weight points (<1% of avg)   =       7.26%
 GePol: Cavity surface area                          =    368.930 Ang**2
 GePol: Cavity volume                                =    366.892 Ang**3
 PCM non-electrostatic energy =         0.0030902865 Hartrees.
 Nuclear repulsion after PCM non-electrostatic terms =     1972.8873149016 Hartrees.
 Leave Link  301 at Tue Sep 15 07:39:17 2020, MaxMem=  2147483648 cpu:               0.5 elap:               0.2
 (Enter /prod/apps/gaussian/g16b1/l302.exe)
 NPDir=0 NMtPBC=     1 NCelOv=     1 NCel=       1 NClECP=     1 NCelD=      1
         NCelK=      1 NCelE2=     1 NClLst=     1 CellRange=     0.0.
 One-electron integrals computed using PRISM.
 NBasis=   348 RedAO= T EigKep=  4.66D-04  NBF=   348
 NBsUse=   348 1.00D-06 EigRej= -1.00D+00 NBFU=   348
 Precomputing XC quadrature grid using
 IXCGrd= 4 IRadAn=           5 IRanWt=          -1 IRanGd=           0 AccXCQ= 0.00D+00.
 Generated NRdTot=       0 NPtTot=           0 NUsed=           0 NTot=          32
 NSgBfM=   346   345   346   346   346 MxSgAt=    40 MxSgA2=    40.
 Leave Link  302 at Tue Sep 15 07:39:18 2020, MaxMem=  2147483648 cpu:               2.7 elap:               0.8
 (Enter /prod/apps/gaussian/g16b1/l303.exe)
 DipDrv:  MaxL=1.
 Leave Link  303 at Tue Sep 15 07:39:18 2020, MaxMem=  2147483648 cpu:               0.3 elap:               0.2
 (Enter /prod/apps/gaussian/g16b1/l401.exe)
 ExpMin= 1.17D-01 ExpMax= 2.19D+04 ExpMxC= 3.30D+03 IAcc=3 IRadAn=         5 AccDes= 0.00D+00
 Harris functional with IExCor=  402 and IRadAn=       5 diagonalized for initial guess.
 HarFok:  IExCor=  402 AccDes= 0.00D+00 IRadAn=         5 IDoV= 1 UseB2=F ITyADJ=14
 ICtDFT=  3500011 ScaDFX=  1.000000  1.000000  1.000000  1.000000
 FoFCou: FMM=F IPFlag=           0 FMFlag=      100000 FMFlg1=           0
         NFxFlg=           0 DoJE=T BraDBF=F KetDBF=T FulRan=T
         wScrn=  0.000000 ICntrl=       500 IOpCl=  0 I1Cent=   200000004 NGrid=           0
         NMat0=    1 NMatS0=      1 NMatT0=    0 NMatD0=    1 NMtDS0=    0 NMtDT0=    0
 Symmetry not used in FoFCou.
 Harris En= -1638.90325961815    
 JPrj=0 DoOrth=F DoCkMO=F.
 Leave Link  401 at Tue Sep 15 07:39:22 2020, MaxMem=  2147483648 cpu:              14.4 elap:               3.7
 (Enter /prod/apps/gaussian/g16b1/l502.exe)
 Two-electron integral symmetry not used.
 Closed shell SCF:
 Using DIIS extrapolation, IDIIS=  1040.
 NGot=  2147483648 LenX=  2147236206 LenY=  2147114661
 Requested convergence on RMS density matrix=1.00D-08 within2000 cycles.
 Requested convergence on MAX density matrix=1.00D-06.
 Requested convergence on             energy=1.00D-06.
 No special actions if energy rises.

 Cycle   1  Pass 1  IDiag  1:
 FoFJK:  IHMeth= 1 ICntrl=       0 DoSepK=F KAlg= 0 I1Cent=           0 FoldK=F
 IRaf= 780000000 NMat=       1 IRICut=       1 DoRegI=T DoRafI=F ISym2E= 0 IDoP0=0 IntGTp=1.
 FoFCou: FMM=F IPFlag=           0 FMFlag=      100000 FMFlg1=           0
         NFxFlg=           0 DoJE=F BraDBF=F KetDBF=F FulRan=T
         wScrn=  0.000000 ICntrl=         0 IOpCl=  0 I1Cent=           0 NGrid=           0
         NMat0=    1 NMatS0=      1 NMatT0=    0 NMatD0=    1 NMtDS0=    0 NMtDT0=    0
 Symmetry not used in FoFCou.
 Inv3:  Mode=1 IEnd=    22555692.
 Iteration    1 A*A^-1 deviation from unit magnitude is 3.55D-15 for   1132.
 Iteration    1 A*A^-1 deviation from orthogonality  is 3.30D-15 for   1807    561.
 Iteration    1 A^-1*A deviation from unit magnitude is 3.33D-15 for    223.
 Iteration    1 A^-1*A deviation from orthogonality  is 4.16D-15 for    756    748.
 E= -1638.10331226386    
 DIIS: error= 3.90D-02 at cycle   1 NSaved=   1.
 NSaved= 1 IEnMin= 1 EnMin= -1638.10331226386     IErMin= 1 ErrMin= 3.90D-02
 ErrMax= 3.90D-02  0.00D+00 EMaxC= 1.00D-01 BMatC= 8.62D-01 BMatP= 8.62D-01
 IDIUse=3 WtCom= 6.10D-01 WtEn= 3.90D-01
 Coeff-Com:  0.100D+01
 Coeff-En:   0.100D+01
 Coeff:      0.100D+01
 Gap=     0.319 Goal=   None    Shift=    0.000
 GapD=    0.319 DampG=1.000 DampE=0.500 DampFc=0.5000 IDamp=-1.
 Damping current iteration by 5.00D-01
 RMSDP=6.60D-03 MaxDP=5.78D-01              OVMax= 2.38D-01

 Cycle   2  Pass 1  IDiag  1:
 E= -1638.31581692635     Delta-E=       -0.212504662488 Rises=F Damp=T
 DIIS: error= 1.39D-02 at cycle   2 NSaved=   2.
 NSaved= 2 IEnMin= 2 EnMin= -1638.31581692635     IErMin= 2 ErrMin= 1.39D-02
 ErrMax= 1.39D-02  0.00D+00 EMaxC= 1.00D-01 BMatC= 1.14D-01 BMatP= 8.62D-01
 IDIUse=3 WtCom= 8.61D-01 WtEn= 1.39D-01
 Coeff-Com:  0.213D+00 0.787D+00
 Coeff-En:   0.341D+00 0.659D+00
 Coeff:      0.231D+00 0.769D+00
 Gap=     0.277 Goal=   None    Shift=    0.000
 RMSDP=1.96D-03 MaxDP=1.24D-01 DE=-2.13D-01 OVMax= 1.71D-01

 Cycle   3  Pass 1  IDiag  1:
 E= -1638.79130818165     Delta-E=       -0.475491255294 Rises=F Damp=F
 DIIS: error= 1.35D-02 at cycle   3 NSaved=   3.
 NSaved= 3 IEnMin= 3 EnMin= -1638.79130818165     IErMin= 3 ErrMin= 1.35D-02
 ErrMax= 1.35D-02  0.00D+00 EMaxC= 1.00D-01 BMatC= 7.68D-02 BMatP= 1.14D-01
 IDIUse=3 WtCom= 8.65D-01 WtEn= 1.35D-01
 Coeff-Com:  0.800D-01 0.457D+00 0.463D+00
 Coeff-En:   0.000D+00 0.000D+00 0.100D+01
 Coeff:      0.692D-01 0.395D+00 0.536D+00
 Gap=     0.248 Goal=   None    Shift=    0.000
 RMSDP=1.24D-03 MaxDP=5.45D-02 DE=-4.75D-01 OVMax= 1.04D-01

 Cycle   4  Pass 1  IDiag  1:
 E= -1638.84523086862     Delta-E=       -0.053922686978 Rises=F Damp=F
 DIIS: error= 5.91D-03 at cycle   4 NSaved=   4.
 NSaved= 4 IEnMin= 4 EnMin= -1638.84523086862     IErMin= 4 ErrMin= 5.91D-03
 ErrMax= 5.91D-03  0.00D+00 EMaxC= 1.00D-01 BMatC= 1.68D-02 BMatP= 7.68D-02
 IDIUse=3 WtCom= 9.41D-01 WtEn= 5.91D-02
 Coeff-Com:  0.905D-02 0.905D-01 0.325D+00 0.576D+00
 Coeff-En:   0.000D+00 0.000D+00 0.204D+00 0.796D+00
 Coeff:      0.852D-02 0.851D-01 0.318D+00 0.589D+00
 Gap=     0.233 Goal=   None    Shift=    0.000
 RMSDP=4.94D-04 MaxDP=2.44D-02 DE=-5.39D-02 OVMax= 4.54D-02

 Cycle   5  Pass 1  IDiag  1:
 E= -1638.85890125916     Delta-E=       -0.013670390533 Rises=F Damp=F
 DIIS: error= 1.48D-03 at cycle   5 NSaved=   5.
 NSaved= 5 IEnMin= 5 EnMin= -1638.85890125916     IErMin= 5 ErrMin= 1.48D-03
 ErrMax= 1.48D-03  0.00D+00 EMaxC= 1.00D-01 BMatC= 1.26D-03 BMatP= 1.68D-02
 IDIUse=3 WtCom= 9.85D-01 WtEn= 1.48D-02
 Coeff-Com: -0.124D-02 0.165D-01 0.139D+00 0.338D+00 0.508D+00
 Coeff-En:   0.000D+00 0.000D+00 0.000D+00 0.117D-02 0.999D+00
 Coeff:     -0.123D-02 0.162D-01 0.137D+00 0.333D+00 0.515D+00
 Gap=     0.231 Goal=   None    Shift=    0.000
 RMSDP=1.34D-04 MaxDP=8.14D-03 DE=-1.37D-02 OVMax= 1.04D-02

 Cycle   6  Pass 1  IDiag  1:
 E= -1638.85993459008     Delta-E=       -0.001033330921 Rises=F Damp=F
 DIIS: error= 3.94D-04 at cycle   6 NSaved=   6.
 NSaved= 6 IEnMin= 6 EnMin= -1638.85993459008     IErMin= 6 ErrMin= 3.94D-04
 ErrMax= 3.94D-04  0.00D+00 EMaxC= 1.00D-01 BMatC= 1.19D-04 BMatP= 1.26D-03
 IDIUse=3 WtCom= 9.96D-01 WtEn= 3.94D-03
 Coeff-Com: -0.132D-02 0.267D-02 0.516D-01 0.142D+00 0.301D+00 0.504D+00
 Coeff-En:   0.000D+00 0.000D+00 0.000D+00 0.000D+00 0.000D+00 0.100D+01
 Coeff:     -0.132D-02 0.265D-02 0.514D-01 0.141D+00 0.300D+00 0.506D+00
 Gap=     0.231 Goal=   None    Shift=    0.000
 RMSDP=3.80D-05 MaxDP=2.07D-03 DE=-1.03D-03 OVMax= 2.23D-03

 Cycle   7  Pass 1  IDiag  1:
 E= -1638.86001826869     Delta-E=       -0.000083678607 Rises=F Damp=F
 DIIS: error= 1.07D-04 at cycle   7 NSaved=   7.
 NSaved= 7 IEnMin= 7 EnMin= -1638.86001826869     IErMin= 7 ErrMin= 1.07D-04
 ErrMax= 1.07D-04  0.00D+00 EMaxC= 1.00D-01 BMatC= 1.23D-05 BMatP= 1.19D-04
 IDIUse=3 WtCom= 9.99D-01 WtEn= 1.07D-03
 Coeff-Com: -0.628D-03-0.675D-03 0.114D-01 0.369D-01 0.107D+00 0.295D+00
 Coeff-Com:  0.551D+00
 Coeff-En:   0.000D+00 0.000D+00 0.000D+00 0.000D+00 0.000D+00 0.545D-01
 Coeff-En:   0.945D+00
 Coeff:     -0.627D-03-0.674D-03 0.114D-01 0.368D-01 0.107D+00 0.294D+00
 Coeff:      0.551D+00
 Gap=     0.231 Goal=   None    Shift=    0.000
 RMSDP=1.06D-05 MaxDP=4.38D-04 DE=-8.37D-05 OVMax= 5.49D-04

 Cycle   8  Pass 1  IDiag  1:
 E= -1638.86002814672     Delta-E=       -0.000009878038 Rises=F Damp=F
 DIIS: error= 1.76D-05 at cycle   8 NSaved=   8.
 NSaved= 8 IEnMin= 8 EnMin= -1638.86002814672     IErMin= 8 ErrMin= 1.76D-05
 ErrMax= 1.76D-05  0.00D+00 EMaxC= 1.00D-01 BMatC= 3.14D-07 BMatP= 1.23D-05
 IDIUse=1 WtCom= 1.00D+00 WtEn= 0.00D+00
 Coeff-Com: -0.139D-03-0.376D-03 0.653D-03 0.381D-02 0.195D-01 0.778D-01
 Coeff-Com:  0.208D+00 0.690D+00
 Coeff:     -0.139D-03-0.376D-03 0.653D-03 0.381D-02 0.195D-01 0.778D-01
 Coeff:      0.208D+00 0.690D+00
 Gap=     0.231 Goal=   None    Shift=    0.000
 RMSDP=2.39D-06 MaxDP=1.13D-04 DE=-9.88D-06 OVMax= 1.17D-04

 Cycle   9  Pass 1  IDiag  1:
 E= -1638.86002838998     Delta-E=       -0.000000243254 Rises=F Damp=F
 DIIS: error= 6.73D-06 at cycle   9 NSaved=   9.
 NSaved= 9 IEnMin= 9 EnMin= -1638.86002838998     IErMin= 9 ErrMin= 6.73D-06
 ErrMax= 6.73D-06  0.00D+00 EMaxC= 1.00D-01 BMatC= 5.48D-08 BMatP= 3.14D-07
 IDIUse=1 WtCom= 1.00D+00 WtEn= 0.00D+00
 Coeff-Com: -0.192D-04-0.122D-03-0.671D-03-0.127D-02 0.369D-03 0.138D-01
 Coeff-Com:  0.553D-01 0.353D+00 0.580D+00
 Coeff:     -0.192D-04-0.122D-03-0.671D-03-0.127D-02 0.369D-03 0.138D-01
 Coeff:      0.553D-01 0.353D+00 0.580D+00
 Gap=     0.231 Goal=   None    Shift=    0.000
 RMSDP=7.48D-07 MaxDP=3.56D-05 DE=-2.43D-07 OVMax= 3.13D-05

 Cycle  10  Pass 1  IDiag  1:
 E= -1638.86002843964     Delta-E=       -0.000000049660 Rises=F Damp=F
 DIIS: error= 1.66D-06 at cycle  10 NSaved=  10.
 NSaved=10 IEnMin=10 EnMin= -1638.86002843964     IErMin=10 ErrMin= 1.66D-06
 ErrMax= 1.66D-06  0.00D+00 EMaxC= 1.00D-01 BMatC= 1.86D-09 BMatP= 5.48D-08
 IDIUse=1 WtCom= 1.00D+00 WtEn= 0.00D+00
 Coeff-Com: -0.483D-05-0.275D-04-0.323D-03-0.683D-03-0.681D-03 0.264D-02
 Coeff-Com:  0.149D-01 0.124D+00 0.239D+00 0.621D+00
 Coeff:     -0.483D-05-0.275D-04-0.323D-03-0.683D-03-0.681D-03 0.264D-02
 Coeff:      0.149D-01 0.124D+00 0.239D+00 0.621D+00
 Gap=     0.231 Goal=   None    Shift=    0.000
 RMSDP=1.77D-07 MaxDP=7.99D-06 DE=-4.97D-08 OVMax= 1.13D-05

 Cycle  11  Pass 1  IDiag  1:
 E= -1638.86002844072     Delta-E=       -0.000000001080 Rises=F Damp=F
 DIIS: error= 1.17D-06 at cycle  11 NSaved=  11.
 NSaved=11 IEnMin=11 EnMin= -1638.86002844072     IErMin=11 ErrMin= 1.17D-06
 ErrMax= 1.17D-06  0.00D+00 EMaxC= 1.00D-01 BMatC= 6.70D-10 BMatP= 1.86D-09
 IDIUse=1 WtCom= 1.00D+00 WtEn= 0.00D+00
 Coeff-Com: -0.103D-05 0.352D-05-0.114D-03-0.250D-03-0.562D-03-0.589D-03
 Coeff-Com:  0.479D-03 0.230D-01 0.566D-01 0.390D+00 0.532D+00
 Coeff:     -0.103D-05 0.352D-05-0.114D-03-0.250D-03-0.562D-03-0.589D-03
 Coeff:      0.479D-03 0.230D-01 0.566D-01 0.390D+00 0.532D+00
 Gap=     0.231 Goal=   None    Shift=    0.000
 RMSDP=7.74D-08 MaxDP=3.83D-06 DE=-1.08D-09 OVMax= 5.38D-06

 Cycle  12  Pass 1  IDiag  1:
 E= -1638.86002844127     Delta-E=       -0.000000000548 Rises=F Damp=F
 DIIS: error= 3.05D-07 at cycle  12 NSaved=  12.
 NSaved=12 IEnMin=12 EnMin= -1638.86002844127     IErMin=12 ErrMin= 3.05D-07
 ErrMax= 3.05D-07  0.00D+00 EMaxC= 1.00D-01 BMatC= 4.50D-11 BMatP= 6.70D-10
 IDIUse=1 WtCom= 1.00D+00 WtEn= 0.00D+00
 Coeff-Com: -0.561D-06 0.442D-05-0.378D-04-0.768D-04-0.261D-03-0.559D-03
 Coeff-Com: -0.112D-02 0.131D-02 0.823D-02 0.153D+00 0.280D+00 0.560D+00
 Coeff:     -0.561D-06 0.442D-05-0.378D-04-0.768D-04-0.261D-03-0.559D-03
 Coeff:     -0.112D-02 0.131D-02 0.823D-02 0.153D+00 0.280D+00 0.560D+00
 Gap=     0.231 Goal=   None    Shift=    0.000
 RMSDP=2.26D-08 MaxDP=1.22D-06 DE=-5.48D-10 OVMax= 1.47D-06

 Cycle  13  Pass 1  IDiag  1:
 E= -1638.86002844132     Delta-E=       -0.000000000054 Rises=F Damp=F
 DIIS: error= 9.68D-08 at cycle  13 NSaved=  13.
 NSaved=13 IEnMin=13 EnMin= -1638.86002844132     IErMin=13 ErrMin= 9.68D-08
 ErrMax= 9.68D-08  0.00D+00 EMaxC= 1.00D-01 BMatC= 5.69D-12 BMatP= 4.50D-11
 IDIUse=1 WtCom= 1.00D+00 WtEn= 0.00D+00
 Coeff-Com: -0.278D-06 0.210D-05-0.514D-05-0.548D-05-0.661D-04-0.220D-03
 Coeff-Com: -0.688D-03-0.254D-02-0.384D-02 0.266D-01 0.756D-01 0.310D+00
 Coeff-Com:  0.595D+00
 Coeff:     -0.278D-06 0.210D-05-0.514D-05-0.548D-05-0.661D-04-0.220D-03
 Coeff:     -0.688D-03-0.254D-02-0.384D-02 0.266D-01 0.756D-01 0.310D+00
 Coeff:      0.595D+00
 Gap=     0.231 Goal=   None    Shift=    0.000
 RMSDP=7.78D-09 MaxDP=3.10D-07 DE=-5.41D-11 OVMax= 4.66D-07

 Error on total polarization charges =  0.02070
 SCF Done:  E(RB3LYP) =  -1638.86002844     A.U. after   13 cycles
            NFock= 13  Conv=0.78D-08     -V/T= 2.0066
 KE= 1.628110968361D+03 PE=-7.795836676700D+03 EE= 2.555978364996D+03
 Leave Link  502 at Tue Sep 15 07:41:20 2020, MaxMem=  2147483648 cpu:             472.4 elap:             118.3
 (Enter /prod/apps/gaussian/g16b1/l601.exe)
 Copying SCF densities to generalized density rwf, IOpCl= 0 IROHF=0.

 **********************************************************************

            Population analysis using the SCF Density.

 **********************************************************************

 Alpha  occ. eigenvalues --  -89.13911 -88.98592 -19.15728 -19.15589 -19.11924
 Alpha  occ. eigenvalues --  -14.37774 -14.37333 -10.26071 -10.21789 -10.21751
 Alpha  occ. eigenvalues --  -10.21532 -10.21134 -10.19605 -10.19188 -10.18901
 Alpha  occ. eigenvalues --  -10.18890 -10.18750 -10.18739 -10.18672 -10.18668
 Alpha  occ. eigenvalues --   -8.16140  -8.03419  -6.12623  -6.12576  -6.12520
 Alpha  occ. eigenvalues --   -5.99839  -5.99629  -5.99196  -1.13067  -1.01293
 Alpha  occ. eigenvalues --   -1.00746  -0.94877  -0.93474  -0.85592  -0.84488
 Alpha  occ. eigenvalues --   -0.78897  -0.74242  -0.74059  -0.72328  -0.71024
 Alpha  occ. eigenvalues --   -0.69668  -0.67101  -0.62280  -0.60596  -0.60219
 Alpha  occ. eigenvalues --   -0.57755  -0.56214  -0.53743  -0.52335  -0.51197
 Alpha  occ. eigenvalues --   -0.50939  -0.48325  -0.48116  -0.46771  -0.45774
 Alpha  occ. eigenvalues --   -0.45468  -0.44805  -0.44129  -0.43300  -0.42243
 Alpha  occ. eigenvalues --   -0.41718  -0.41589  -0.40975  -0.40604  -0.40258
 Alpha  occ. eigenvalues --   -0.39107  -0.38579  -0.38423  -0.37235  -0.36349
 Alpha  occ. eigenvalues --   -0.35371  -0.35227  -0.34703  -0.33878  -0.33280
 Alpha  occ. eigenvalues --   -0.32916  -0.32637  -0.31471  -0.28586  -0.26595
 Alpha  occ. eigenvalues --   -0.25892  -0.25119  -0.24381  -0.23310
 Alpha virt. eigenvalues --   -0.00207  -0.00082   0.00788   0.03185   0.05367
 Alpha virt. eigenvalues --    0.06776   0.07073   0.07628   0.08820   0.09605
 Alpha virt. eigenvalues --    0.10398   0.11157   0.11796   0.12176   0.13505
 Alpha virt. eigenvalues --    0.14432   0.14682   0.15127   0.15787   0.16116
 Alpha virt. eigenvalues --    0.16335   0.16631   0.17501   0.17706   0.18767
 Alpha virt. eigenvalues --    0.19215   0.19648   0.20325   0.20506   0.20967
 Alpha virt. eigenvalues --    0.21754   0.22018   0.23116   0.24542   0.26064
 Alpha virt. eigenvalues --    0.27053   0.27508   0.29088   0.30924   0.32646
 Alpha virt. eigenvalues --    0.32812   0.33967   0.34797   0.35479   0.36429
 Alpha virt. eigenvalues --    0.39157   0.42040   0.42748   0.43868   0.45608
 Alpha virt. eigenvalues --    0.46609   0.49389   0.49724   0.50283   0.51008
 Alpha virt. eigenvalues --    0.52581   0.53055   0.54233   0.55260   0.55472
 Alpha virt. eigenvalues --    0.56208   0.57416   0.58107   0.58437   0.59567
 Alpha virt. eigenvalues --    0.59745   0.60256   0.60935   0.61196   0.61708
 Alpha virt. eigenvalues --    0.62455   0.63087   0.63925   0.65134   0.66305
 Alpha virt. eigenvalues --    0.67348   0.68041   0.68743   0.69797   0.70102
 Alpha virt. eigenvalues --    0.72520   0.73672   0.74769   0.76570   0.77754
 Alpha virt. eigenvalues --    0.77937   0.80220   0.80840   0.81266   0.82451
 Alpha virt. eigenvalues --    0.83052   0.83603   0.84046   0.84480   0.84970
 Alpha virt. eigenvalues --    0.85920   0.86142   0.86678   0.87185   0.88622
 Alpha virt. eigenvalues --    0.89366   0.89783   0.89917   0.90627   0.91249
 Alpha virt. eigenvalues --    0.92227   0.92895   0.93365   0.93847   0.94257
 Alpha virt. eigenvalues --    0.94370   0.96415   0.96740   0.97764   0.98064
 Alpha virt. eigenvalues --    0.99542   1.00580   1.00734   1.02207   1.03068
 Alpha virt. eigenvalues --    1.04453   1.06709   1.06964   1.07449   1.08199
 Alpha virt. eigenvalues --    1.10075   1.10723   1.12283   1.12902   1.13543
 Alpha virt. eigenvalues --    1.13998   1.16467   1.17402   1.17826   1.19234
 Alpha virt. eigenvalues --    1.19920   1.22677   1.24517   1.25721   1.26123
 Alpha virt. eigenvalues --    1.30717   1.32488   1.34602   1.37379   1.38140
 Alpha virt. eigenvalues --    1.42172   1.42309   1.43375   1.44219   1.46841
 Alpha virt. eigenvalues --    1.48428   1.49071   1.50133   1.51368   1.51789
 Alpha virt. eigenvalues --    1.53091   1.55848   1.56948   1.61323   1.67005
 Alpha virt. eigenvalues --    1.70085   1.71013   1.72111   1.73462   1.75664
 Alpha virt. eigenvalues --    1.77109   1.78360   1.79918   1.80602   1.81703
 Alpha virt. eigenvalues --    1.81726   1.81950   1.83221   1.84778   1.85513
 Alpha virt. eigenvalues --    1.87481   1.88855   1.89328   1.90363   1.92501
 Alpha virt. eigenvalues --    1.93586   1.93794   1.94269   1.95123   1.96490
 Alpha virt. eigenvalues --    1.97986   1.98123   1.99322   2.01454   2.02502
 Alpha virt. eigenvalues --    2.03020   2.04216   2.05910   2.07156   2.08175
 Alpha virt. eigenvalues --    2.09036   2.10062   2.11438   2.12610   2.13373
 Alpha virt. eigenvalues --    2.14106   2.14191   2.15297   2.16999   2.19010
 Alpha virt. eigenvalues --    2.20753   2.21852   2.22588   2.24333   2.25537
 Alpha virt. eigenvalues --    2.26661   2.28419   2.29966   2.30953   2.31588
 Alpha virt. eigenvalues --    2.36137   2.36531   2.38931   2.41891   2.42126
 Alpha virt. eigenvalues --    2.42607   2.45471   2.49025   2.51352   2.56193
 Alpha virt. eigenvalues --    2.57884   2.58485   2.61948   2.66347   2.69884
 Alpha virt. eigenvalues --    2.71292   2.71705   2.72432   2.72597   2.74632
 Alpha virt. eigenvalues --    2.75035   2.77021   2.78034   2.80595   2.82875
 Alpha virt. eigenvalues --    2.86429   2.95165   3.05239   3.41156   3.79296
 Alpha virt. eigenvalues --    3.83837   3.91873   3.94309   4.01074   4.06710
 Alpha virt. eigenvalues --    4.09121   4.09620   4.11653   4.14757   4.21924
 Alpha virt. eigenvalues --    4.25268   4.26385   4.32924   4.34386   4.35567
 Alpha virt. eigenvalues --    4.41270   4.52899   4.70319   4.72449
          Condensed to atoms (all electrons):
               1          2          3          4          5          6
     1  O    8.328728   0.397464  -0.053789   0.005988  -0.005278   0.000427
     2  S    0.397464  13.571201   0.154859   0.004165  -0.006060   0.000819
     3  N   -0.053789   0.154859   7.373850   0.216083  -0.039628   0.005017
     4  C    0.005988   0.004165   0.216083   4.856246   0.321409  -0.066937
     5  C   -0.005278  -0.006060  -0.039628   0.321409   5.647465   0.088305
     6  S    0.000427   0.000819   0.005017  -0.066937   0.088305  14.890839
     7  O   -0.000000   0.000011  -0.000056   0.000013  -0.038824   0.290931
     8  C   -0.008580  -0.006977  -0.051930   0.332103  -0.122871   0.083835
     9  C    0.000085   0.001063  -0.055289   0.350147  -0.052549   0.006379
    10  C   -0.000000  -0.000155  -0.005179  -0.033452  -0.008236  -0.000566
    11  C    0.000000  -0.000002   0.000228   0.003207   0.000116   0.000009
    12  C   -0.000000   0.000000  -0.000003   0.000133   0.000005  -0.000005
    13  C   -0.000000   0.000000   0.000000   0.000003  -0.000000   0.000000
    14  C    0.000000  -0.000000   0.000000  -0.000000   0.000000  -0.000000
    15  C   -0.000000   0.000000   0.000000   0.000002  -0.000000   0.000000
    16  C   -0.000000  -0.000001  -0.000004   0.000068  -0.000004   0.000001
    17  N   -0.054605   0.145588  -0.045864  -0.005344   0.001268   0.000144
    18  C   -0.004341  -0.025246   0.002372   0.000047  -0.000058   0.000003
    19  C    0.001654  -0.012356  -0.008830   0.000534  -0.000057   0.000000
    20  O   -0.044874   0.446088  -0.057724   0.001702  -0.000062  -0.000001
    21  H   -0.000123  -0.014977   0.297683  -0.020984   0.004345  -0.000248
    22  H    0.000110   0.000010   0.001354  -0.028716   0.352237  -0.018150
    23  H    0.004778   0.008475  -0.006871  -0.025226   0.326630  -0.006296
    24  H    0.000159   0.000280   0.001378  -0.029867   0.009781  -0.018115
    25  H    0.015369   0.001361  -0.005011  -0.024636   0.003225  -0.006196
    26  H    0.000001   0.000037   0.003271  -0.030831  -0.008829   0.004952
    27  H    0.000000  -0.000162  -0.006252  -0.029082   0.005811  -0.000404
    28  H    0.000002   0.000242   0.006890  -0.007636  -0.000301  -0.000037
    29  H    0.000000  -0.000092  -0.000140  -0.004680   0.003119  -0.000107
    30  H    0.000000  -0.000000  -0.000000  -0.000094  -0.000002   0.000003
    31  H   -0.000000  -0.000000  -0.000000  -0.000000  -0.000000   0.000000
    32  H    0.000000   0.000000   0.000000  -0.000000   0.000000  -0.000000
    33  H   -0.000000  -0.000000  -0.000000  -0.000000  -0.000000  -0.000000
    34  H    0.000000  -0.000000  -0.000006  -0.000043   0.000000  -0.000000
    35  H    0.011616  -0.004863   0.000115   0.000016  -0.000051   0.000004
    36  H    0.000206   0.002290  -0.000088   0.000002   0.000014  -0.000002
    37  H   -0.000523  -0.003634  -0.000078  -0.000009   0.000001   0.000000
    38  H    0.000021  -0.003226   0.011112  -0.000046  -0.000049  -0.000000
    39  H   -0.000041  -0.007826  -0.000215  -0.000033   0.000005   0.000000
    40  H   -0.000050   0.003159   0.000003   0.000008   0.000033  -0.000001
               7          8          9         10         11         12
     1  O   -0.000000  -0.008580   0.000085  -0.000000   0.000000  -0.000000
     2  S    0.000011  -0.006977   0.001063  -0.000155  -0.000002   0.000000
     3  N   -0.000056  -0.051930  -0.055289  -0.005179   0.000228  -0.000003
     4  C    0.000013   0.332103   0.350147  -0.033452   0.003207   0.000133
     5  C   -0.038824  -0.122871  -0.052549  -0.008236   0.000116   0.000005
     6  S    0.290931   0.083835   0.006379  -0.000566   0.000009  -0.000005
     7  O    8.456964  -0.038209  -0.008446   0.000066   0.000015  -0.000056
     8  C   -0.038209   5.659584  -0.055415   0.004694  -0.000079  -0.000008
     9  C   -0.008446  -0.055415   5.191855   0.345423  -0.039154  -0.003798
    10  C    0.000066   0.004694   0.345423   5.165749   0.352815  -0.059775
    11  C    0.000015  -0.000079  -0.039154   0.352815   4.655946   0.539941
    12  C   -0.000056  -0.000008  -0.003798  -0.059775   0.539941   4.991340
    13  C   -0.000000  -0.000000   0.000008   0.006355  -0.020598   0.518646
    14  C    0.000000   0.000000   0.000014   0.000348  -0.034476  -0.037916
    15  C   -0.000000  -0.000000  -0.000087   0.006775  -0.022254  -0.047249
    16  C   -0.000000  -0.000003  -0.003185  -0.055002   0.548593  -0.041040
    17  N   -0.000000  -0.000262  -0.000259   0.000022  -0.000001   0.000000
    18  C    0.000000   0.000014   0.000002   0.000000   0.000000  -0.000000
    19  C    0.000000  -0.000012   0.000060  -0.000258   0.000005   0.000000
    20  O   -0.000000  -0.000011  -0.000099  -0.000000  -0.000000   0.000000
    21  H    0.000002  -0.000269  -0.004737  -0.000102  -0.000073   0.000000
    22  H    0.000298   0.010016  -0.007214   0.001914  -0.000078  -0.000010
    23  H    0.001168   0.002338   0.004436   0.000016   0.000002  -0.000000
    24  H   -0.000055   0.352718  -0.004652   0.000109  -0.000009  -0.000000
    25  H    0.001180   0.324388   0.003938  -0.000111   0.000001   0.000000
    26  H    0.025937  -0.005510   0.348548  -0.033338  -0.001443   0.003764
    27  H    0.000242  -0.005695   0.357400  -0.037541  -0.001076  -0.000052
    28  H   -0.000003   0.000110  -0.033621   0.362386  -0.029740   0.004132
    29  H    0.000042   0.000091  -0.041741   0.361735  -0.027948  -0.004891
    30  H    0.000115   0.000003   0.000186  -0.008730  -0.045333   0.359558
    31  H   -0.000000   0.000000  -0.000000  -0.000171   0.003619  -0.038916
    32  H    0.000000  -0.000000   0.000000   0.000006   0.000625   0.004613
    33  H   -0.000000   0.000000  -0.000000  -0.000172   0.003689   0.000746
    34  H    0.000000   0.000001   0.000257  -0.009539  -0.043998   0.006220
    35  H    0.000000   0.000000   0.000000   0.000000  -0.000000   0.000000
    36  H    0.000000  -0.000000  -0.000000  -0.000000  -0.000000   0.000000
    37  H   -0.000000  -0.000000  -0.000000   0.000000  -0.000000   0.000000
    38  H    0.000000   0.000025  -0.000192   0.000540   0.000017  -0.000000
    39  H   -0.000000  -0.000000  -0.000001   0.000004  -0.000000   0.000000
    40  H    0.000000   0.000000  -0.000000  -0.000002  -0.000000  -0.000000
              13         14         15         16         17         18
     1  O   -0.000000   0.000000  -0.000000  -0.000000  -0.054605  -0.004341
     2  S    0.000000  -0.000000   0.000000  -0.000001   0.145588  -0.025246
     3  N    0.000000   0.000000   0.000000  -0.000004  -0.045864   0.002372
     4  C    0.000003  -0.000000   0.000002   0.000068  -0.005344   0.000047
     5  C   -0.000000   0.000000  -0.000000  -0.000004   0.001268  -0.000058
     6  S    0.000000  -0.000000   0.000000   0.000001   0.000144   0.000003
     7  O   -0.000000   0.000000  -0.000000  -0.000000  -0.000000   0.000000
     8  C   -0.000000   0.000000  -0.000000  -0.000003  -0.000262   0.000014
     9  C    0.000008   0.000014  -0.000087  -0.003185  -0.000259   0.000002
    10  C    0.006355   0.000348   0.006775  -0.055002   0.000022   0.000000
    11  C   -0.020598  -0.034476  -0.022254   0.548593  -0.000001   0.000000
    12  C    0.518646  -0.037916  -0.047249  -0.041040   0.000000  -0.000000
    13  C    4.899754   0.543354  -0.028872  -0.046653   0.000000   0.000000
    14  C    0.543354   4.886413   0.545211  -0.038297  -0.000000   0.000000
    15  C   -0.028872   0.545211   4.902150   0.516362   0.000000  -0.000000
    16  C   -0.046653  -0.038297   0.516362   4.984663   0.000000  -0.000000
    17  N    0.000000  -0.000000   0.000000   0.000000   7.216143   0.281190
    18  C    0.000000   0.000000  -0.000000  -0.000000   0.281190   4.997886
    19  C   -0.000000   0.000000  -0.000000  -0.000000   0.269151  -0.049597
    20  O    0.000000  -0.000000   0.000000   0.000000  -0.056359  -0.002318
    21  H   -0.000000   0.000000  -0.000000   0.000001   0.002106  -0.000044
    22  H   -0.000001   0.000000  -0.000000   0.000001  -0.000137   0.000003
    23  H    0.000000  -0.000000   0.000000   0.000000   0.003732  -0.000217
    24  H   -0.000000   0.000000  -0.000000  -0.000000   0.000000  -0.000000
    25  H    0.000000  -0.000000   0.000000   0.000000   0.000001   0.000009
    26  H   -0.000162  -0.000000  -0.000013  -0.000042   0.000000  -0.000000
    27  H   -0.000013  -0.000005  -0.000105   0.002943   0.000001  -0.000000
    28  H   -0.000193   0.000008   0.000152  -0.004521  -0.000060   0.000000
    29  H    0.000092   0.000013  -0.000214   0.003508   0.000002   0.000000
    30  H   -0.045115   0.004783   0.000270   0.006009  -0.000000   0.000000
    31  H    0.360823  -0.042508   0.004527   0.000758   0.000000  -0.000000
    32  H   -0.042274   0.363134  -0.042294   0.004597  -0.000000   0.000000
    33  H    0.004523  -0.042574   0.360561  -0.038787   0.000000  -0.000000
    34  H    0.000255   0.004782  -0.045746   0.358987   0.000000  -0.000000
    35  H   -0.000000  -0.000000   0.000000   0.000000  -0.032428   0.376853
    36  H    0.000000  -0.000000   0.000000   0.000000  -0.036379   0.381070
    37  H    0.000000  -0.000000   0.000000   0.000000  -0.046337   0.372091
    38  H   -0.000000   0.000000  -0.000000  -0.000004  -0.033049   0.004624
    39  H    0.000000  -0.000000   0.000000   0.000000  -0.045454  -0.002446
    40  H    0.000000  -0.000000  -0.000000   0.000000  -0.033767  -0.003475
              19         20         21         22         23         24
     1  O    0.001654  -0.044874  -0.000123   0.000110   0.004778   0.000159
     2  S   -0.012356   0.446088  -0.014977   0.000010   0.008475   0.000280
     3  N   -0.008830  -0.057724   0.297683   0.001354  -0.006871   0.001378
     4  C    0.000534   0.001702  -0.020984  -0.028716  -0.025226  -0.029867
     5  C   -0.000057  -0.000062   0.004345   0.352237   0.326630   0.009781
     6  S    0.000000  -0.000001  -0.000248  -0.018150  -0.006296  -0.018115
     7  O    0.000000  -0.000000   0.000002   0.000298   0.001168  -0.000055
     8  C   -0.000012  -0.000011  -0.000269   0.010016   0.002338   0.352718
     9  C    0.000060  -0.000099  -0.004737  -0.007214   0.004436  -0.004652
    10  C   -0.000258  -0.000000  -0.000102   0.001914   0.000016   0.000109
    11  C    0.000005  -0.000000  -0.000073  -0.000078   0.000002  -0.000009
    12  C    0.000000   0.000000   0.000000  -0.000010  -0.000000  -0.000000
[...]
     8  C    0.031359  -0.010698   0.000246  -0.067921  -0.201518  -0.038046
     9  C    0.123694  -0.124353   0.273825   0.121632  -0.126600  -0.020531
    10  C   -0.695897   0.334478  -0.605275  -0.341740   0.067502   0.017355
    11  C    3.111367  -3.910362   2.994925  -6.575456   0.011138  -0.002611
    12  C   -4.629544   3.378790  -3.754584   1.355558   0.004686   0.000201
    13  C   11.684922  -3.360100   3.778039  -4.069471   0.000112  -0.000038
    14  C   -3.360100   9.177613  -3.379007   3.481175   0.000462   0.000057
    15  C    3.778039  -3.379007  11.487515  -4.593182  -0.002383  -0.000254
    16  C   -4.069471   3.481175  -4.593182  17.381916   0.001521   0.000695
    17  N    0.000112   0.000462  -0.002383   0.001521   9.180384   0.041343
    18  C   -0.000038   0.000057  -0.000254   0.000695   0.041343   4.460794
    19  C   -0.003534   0.000459   0.003833   0.011071   0.067191  -0.225939
    20  O    0.000028  -0.000004  -0.000155   0.001000   0.178190  -0.007945
    21  H    0.003573  -0.001553  -0.003735  -0.027883   0.012551   0.007368
    22  H    0.016495  -0.004717   0.004408  -0.010937  -0.009207   0.010651
    23  H   -0.001857  -0.000346   0.000988   0.008220  -0.147325  -0.048775
    24  H    0.003012  -0.002600   0.002133  -0.004508  -0.009010  -0.001710
    25  H    0.000957  -0.000180  -0.000156   0.000908   0.008868  -0.005513
    26  H   -0.001940   0.026391  -0.050577   0.036367  -0.008917   0.001148
    27  H   -0.050824   0.025294   0.002721   0.110668   0.012441   0.001085
    28  H   -0.112406  -0.004583   0.142203   0.264254   0.001525  -0.000559
    29  H    0.140975   0.012272  -0.100827  -0.284664   0.013392  -0.006498
    30  H    0.356595  -0.144368   0.120958  -0.067433   0.000605   0.000067
    31  H   -0.758191   0.316959  -0.247727   0.134192  -0.000037  -0.000008
    32  H    0.383503  -0.614633   0.381436  -0.147747   0.000014   0.000002
    33  H   -0.239922   0.326873  -0.778873   0.654652  -0.000085  -0.000010
    34  H    0.097235  -0.132587   0.296088  -1.233844   0.001068   0.000125
    35  H   -0.000021   0.000007  -0.000007   0.000022  -0.137824   0.461453
    36  H    0.000008   0.000003  -0.000008   0.000051  -0.366140   0.412926
    37  H    0.000000   0.000000  -0.000004   0.000052   0.113367   0.224364
    38  H    0.006304  -0.000420  -0.004619  -0.014984  -0.056819  -0.092158
    39  H   -0.000348   0.000069   0.000565   0.000718  -0.002606   0.057674
    40  H   -0.000385   0.000019  -0.000061  -0.001142  -0.158821   0.047461
              19         20         21         22         23         24
     1  O    0.008454  -0.023598   0.003369   0.009880   0.035160   0.002979
     2  S   -0.209335  -0.405261  -0.112299   0.122503  -0.201971   0.010288
     3  N   -0.011296  -0.102325   0.335822   0.224109  -0.103841   0.079145
     4  C    0.049049   0.126029   0.199831  -0.398577  -0.069411  -0.665930
     5  C   -0.009652  -0.047385  -0.000528   0.275684   0.187865   0.173591
     6  S    0.007569  -0.001469   0.000717   0.057215  -0.219191   0.119861
     7  O   -0.000299   0.000292  -0.002204   0.008720   0.005540  -0.000023
     8  C    0.048636  -0.006600  -0.017343   0.186642  -0.100390   0.403869
     9  C   -0.024002   0.077282  -0.205320  -0.306980   0.262041   0.043797
    10  C   -0.058834   0.007602  -0.019034  -0.067060  -0.001486   0.021567
    11  C   -0.018887   0.000727   0.021477   0.092548   0.008730   0.015330
    12  C   -0.007027   0.000175   0.011538  -0.059830   0.005128  -0.004329
    13  C   -0.003534   0.000028   0.003573   0.016495  -0.001857   0.003012
    14  C    0.000459  -0.000004  -0.001553  -0.004717  -0.000346  -0.002600
    15  C    0.003833  -0.000155  -0.003735   0.004408   0.000988   0.002133
    16  C    0.011071   0.001000  -0.027883  -0.010937   0.008220  -0.004508
    17  N    0.067191   0.178190   0.012551  -0.009207  -0.147325  -0.009010
    18  C   -0.225939  -0.007945   0.007368   0.010651  -0.048775  -0.001710
    19  C    4.355566   0.053919  -0.001377  -0.018164   0.092139   0.005416
    20  O    0.053919   9.283388   0.000454  -0.006309   0.020965  -0.001623
    21  H   -0.001377   0.000454   0.861948  -0.005195   0.015892   0.020262
    22  H   -0.018164  -0.006309  -0.005195   1.634471  -0.410703  -0.005537
    23  H    0.092139   0.020965   0.015892  -0.410703   1.841253   0.030560
    24  H    0.005416  -0.001623   0.020262  -0.005537   0.030560   1.499600
    25  H   -0.003255   0.000092  -0.026755   0.024313  -0.001214  -0.330346
    26  H   -0.001918   0.003074   0.013182  -0.062212   0.022837  -0.033592
    27  H   -0.004814   0.001707  -0.030615   0.029354  -0.002484  -0.021185
    28  H    0.010413  -0.006241  -0.015860   0.024240  -0.017454   0.006307
    29  H   -0.013632   0.002147   0.013004  -0.053527   0.024017   0.003566
    30  H    0.002017  -0.000028  -0.001028  -0.006247   0.005993  -0.000339
    31  H   -0.000126   0.000001   0.000026   0.002083  -0.000209   0.000040
    32  H    0.000003   0.000001  -0.000036  -0.000121   0.000013  -0.000024
    33  H    0.000022  -0.000003   0.000869   0.000061  -0.000040   0.000102
    34  H    0.000052   0.000583  -0.001147  -0.002569   0.001668   0.000228
    35  H   -0.118988  -0.012990   0.003075   0.004899  -0.000549  -0.000555
    36  H    0.081259  -0.009590   0.000084   0.002642  -0.001645  -0.000186
    37  H    0.056723   0.025014  -0.002353   0.000592  -0.008397   0.000276
    38  H    0.530039   0.064846  -0.001082  -0.011284   0.015183   0.000082
    39  H    0.179743  -0.024127  -0.001941  -0.000840  -0.000101  -0.000212
    40  H    0.315213  -0.011317   0.005116   0.002470  -0.000217   0.000700
              25         26         27         28         29         30
     1  O   -0.031329   0.000778  -0.004741   0.001263  -0.001916   0.000017
     2  S    0.025382  -0.025617  -0.009705   0.029515  -0.006247  -0.002001
     3  N    0.073894  -0.093237   0.096247   0.086101  -0.131089   0.006777
     4  C   -0.228113  -0.063887  -0.538216  -0.182219   0.271154  -0.018721
     5  C    0.072175   0.001232   0.101374   0.002333   0.008609   0.014345
     6  S   -0.184645  -0.064804  -0.002177   0.001078   0.000282  -0.001763
     7  O    0.015483   0.016015   0.013755   0.009075  -0.005123   0.001904
     8  C    0.112678  -0.042416  -0.135880  -0.017144  -0.043169  -0.011996
     9  C    0.254798   0.109811   0.299832   0.047361  -0.128358   0.118532
    10  C    0.003389   0.026811  -0.126417  -0.273003  -0.129237  -0.204989
    11  C   -0.013621  -0.206202  -0.162865   0.110984  -0.090046   0.709433
    12  C   -0.005219   0.030806   0.058098  -0.465480   0.322584  -1.169255
    13  C    0.000957  -0.001940  -0.050824  -0.112406   0.140975   0.356595
    14  C   -0.000180   0.026391   0.025294  -0.004583   0.012272  -0.144368
    15  C   -0.000156  -0.050577   0.002721   0.142203  -0.100827   0.120958
    16  C    0.000908   0.036367   0.110668   0.264254  -0.284664  -0.067433
    17  N    0.008868  -0.008917   0.012441   0.001525   0.013392   0.000605
    18  C   -0.005513   0.001148   0.001085  -0.000559  -0.006498   0.000067
    19  C   -0.003255  -0.001918  -0.004814   0.010413  -0.013632   0.002017
    20  O    0.000092   0.003074   0.001707  -0.006241   0.002147  -0.000028
    21  H   -0.026755   0.013182  -0.030615  -0.015860   0.013004  -0.001028
    22  H    0.024313  -0.062212   0.029354   0.024240  -0.053527  -0.006247
    23  H   -0.001214   0.022837  -0.002484  -0.017454   0.024017   0.005993
    24  H   -0.330346  -0.033592  -0.021185   0.006307   0.003566  -0.000339
    25  H    1.400891   0.019326   0.028043   0.007338  -0.005046  -0.000788
    26  H    0.019326   1.858606  -0.376060   0.116457  -0.102651  -0.017702
    27  H    0.028043  -0.376060   1.861422  -0.089911   0.077930   0.011198
    28  H    0.007338   0.116457  -0.089911   2.286150  -0.390812   0.002927
    29  H   -0.005046  -0.102651   0.077930  -0.390812   1.904489  -0.036386
    30  H   -0.000788  -0.017702   0.011198   0.002927  -0.036386   2.126112
    31  H    0.000040  -0.002520   0.000454  -0.000456  -0.001579  -0.091345
    32  H   -0.000019  -0.000497   0.000061   0.001010   0.000491  -0.016585
    33  H   -0.000013   0.000876  -0.003855   0.001298   0.000398   0.010462
    34  H   -0.000519   0.000929  -0.012130  -0.051491   0.018467  -0.021667
    35  H   -0.001438   0.000211  -0.000381   0.003133   0.000144  -0.000055
    36  H    0.000029   0.000285   0.000440  -0.003867  -0.000470  -0.000027
    37  H   -0.000249  -0.000121  -0.000061  -0.001945  -0.000189   0.000024
    38  H   -0.001996  -0.010282   0.001836  -0.168695   0.034728   0.003468
    39  H    0.001070   0.000303   0.000561   0.013414  -0.000311  -0.000114
    40  H   -0.000904   0.001020  -0.002093   0.004616  -0.006950   0.000048
              31         32         33         34         35         36
     1  O   -0.000001  -0.000000   0.000004  -0.000238  -0.016833   0.009181
     2  S    0.000116  -0.000016   0.000114  -0.002234   0.156846   0.040470
     3  N   -0.000069  -0.000119   0.001296  -0.019896   0.023832  -0.007804
     4  C    0.003593   0.000840   0.000688   0.107329  -0.034011  -0.042995
     5  C    0.000152  -0.000268   0.000048   0.000932   0.018248   0.011302
     6  S    0.000169  -0.000020   0.000005   0.000233  -0.000351  -0.000972
     7  O   -0.000065  -0.000051   0.000040  -0.000749  -0.000163  -0.000023
     8  C    0.001355  -0.000441   0.000365  -0.005579  -0.010397   0.000367
     9  C    0.001548  -0.003794  -0.000713   0.022460   0.002101   0.005889
    10  C    0.006977  -0.001943   0.013841  -0.162962   0.004075  -0.002057
    11  C   -0.137277   0.098051  -0.162509   0.789952  -0.000512  -0.000635
    12  C    0.630457  -0.132393   0.129918  -0.023087  -0.000060   0.000096
    13  C   -0.758191   0.383503  -0.239922   0.097235  -0.000021   0.000008
    14  C    0.316959  -0.614633   0.326873  -0.132587   0.000007   0.000003
    15  C   -0.247727   0.381436  -0.778873   0.296088  -0.000007  -0.000008
    16  C    0.134192  -0.147747   0.654652  -1.233844   0.000022   0.000051
    17  N   -0.000037   0.000014  -0.000085   0.001068  -0.137824  -0.366140
    18  C   -0.000008   0.000002  -0.000010   0.000125   0.461453   0.412926
    19  C   -0.000126   0.000003   0.000022   0.000052  -0.118988   0.081259
    20  O    0.000001   0.000001  -0.000003   0.000583  -0.012990  -0.009590
    21  H    0.000026  -0.000036   0.000869  -0.001147   0.003075   0.000084
    22  H    0.002083  -0.000121   0.000061  -0.002569   0.004899   0.002642
    23  H   -0.000209   0.000013  -0.000040   0.001668  -0.000549  -0.001645
    24  H    0.000040  -0.000024   0.000102   0.000228  -0.000555  -0.000186
    25  H    0.000040  -0.000019  -0.000013  -0.000519  -0.001438   0.000029
    26  H   -0.002520  -0.000497   0.000876   0.000929   0.000211   0.000285
    27  H    0.000454   0.000061  -0.003855  -0.012130  -0.000381   0.000440
    28  H   -0.000456   0.001010   0.001298  -0.051491   0.003133  -0.003867
    29  H   -0.001579   0.000491   0.000398   0.018467   0.000144  -0.000470
    30  H   -0.091345  -0.016585   0.010462  -0.021667  -0.000055  -0.000027
    31  H    1.669065  -0.051334  -0.020326   0.010230  -0.000000   0.000001
    32  H   -0.051334   1.609264  -0.050480  -0.017513   0.000000   0.000000
    33  H   -0.020326  -0.050480   1.667908  -0.085441  -0.000001  -0.000001
    34  H    0.010230  -0.017513  -0.085441   2.075438  -0.000043   0.000040
    35  H   -0.000000   0.000000  -0.000001  -0.000043   1.384823  -0.291158
    36  H    0.000001   0.000000  -0.000001   0.000040  -0.291158   1.432363
    37  H   -0.000001   0.000000   0.000000   0.000048  -0.253511  -0.156278
    38  H   -0.000022   0.000054  -0.000146   0.005358  -0.030344   0.030541
    39  H   -0.000006  -0.000001   0.000007  -0.000385   0.005096  -0.002241
    40  H   -0.000015  -0.000003   0.000008  -0.000041   0.008970   0.011146
              37         38         39         40
     1  O    0.014291   0.006877  -0.004503  -0.001206
     2  S   -0.134505  -0.083842   0.037702   0.034047
     3  N    0.016139  -0.083464  -0.035426   0.024874
     4  C    0.007148   0.142780   0.110490  -0.086794
     5  C   -0.000630   0.006154  -0.042940   0.032595
     6  S   -0.000178   0.002914  -0.000485   0.001189
     7  O    0.000005  -0.001894   0.000052   0.000124
     8  C    0.004778   0.018525   0.000716   0.003970
     9  C   -0.004511  -0.105354   0.016405  -0.011185
    10  C    0.000012  -0.065395  -0.003687   0.013661
    11  C    0.000242   0.031464  -0.002813  -0.001696
    12  C    0.000011   0.030861  -0.001368   0.001110
    13  C    0.000000   0.006304  -0.000348  -0.000385
    14  C    0.000000  -0.000420   0.000069   0.000019
    15  C   -0.000004  -0.004619   0.000565  -0.000061
    16  C    0.000052  -0.014984   0.000718  -0.001142
    17  N    0.113367  -0.056819  -0.002606  -0.158821
    18  C    0.224364  -0.092158   0.057674   0.047461
    19  C    0.056723   0.530039   0.179743   0.315213
    20  O    0.025014   0.064846  -0.024127  -0.011317
    21  H   -0.002353  -0.001082  -0.001941   0.005116
    22  H    0.000592  -0.011284  -0.000840   0.002470
    23  H   -0.008397   0.015183  -0.000101  -0.000217
    24  H    0.000276   0.000082  -0.000212   0.000700
    25  H   -0.000249  -0.001996   0.001070  -0.000904
    26  H   -0.000121  -0.010282   0.000303   0.001020
    27  H   -0.000061   0.001836   0.000561  -0.002093
    28  H   -0.001945  -0.168695   0.013414   0.004616
    29  H   -0.000189   0.034728  -0.000311  -0.006950
    30  H    0.000024   0.003468  -0.000114   0.000048
    31  H   -0.000001  -0.000022  -0.000006  -0.000015
    32  H    0.000000   0.000054  -0.000001  -0.000003
    33  H    0.000000  -0.000146   0.000007   0.000008
    34  H    0.000048   0.005358  -0.000385  -0.000041
    35  H   -0.253511  -0.030344   0.005096   0.008970
    36  H   -0.156278   0.030541  -0.002241   0.011146
    37  H    1.178561   0.013024  -0.010671   0.000336
    38  H    0.013024   1.735767  -0.324803  -0.285342
    39  H   -0.010671  -0.324803   1.239162  -0.181919
    40  H    0.000336  -0.285342  -0.181919   1.390055
 Mulliken charges:
               1
     1  O   -1.209376
     2  S    3.354150
     3  N   -1.269893
     4  C    0.916737
     5  C    0.308442
     6  S    1.484800
     7  O   -1.253140
     8  C    0.348594
     9  C   -0.184560
    10  C    0.824492
    11  C    1.285566
    12  C    0.516527
    13  C   -0.000240
    14  C    0.648457
    15  C    0.035399
    16  C    0.480262
    17  N   -1.079361
    18  C    0.859241
    19  C    0.852293
    20  O   -1.180546
    21  H   -0.052872
    22  H   -0.293964
    23  H   -0.246586
    24  H   -0.361002
    25  H   -0.208358
    26  H   -0.121312
    27  H   -0.160107
    28  H   -0.370867
    29  H   -0.309924
    30  H   -0.678644
    31  H   -0.466142
    32  H   -0.436705
    33  H   -0.467432
    34  H   -0.654341
    35  H   -0.166742
    36  H   -0.153029
    37  H   -0.081406
    38  H   -0.337860
    39  H   -0.021897
    40  H   -0.148656
 Sum of Mulliken charges =  -0.00000
 Mulliken charges with hydrogens summed into heavy atoms:
               1
     1  O   -1.209376
     2  S    3.354150
     3  N   -1.322765
     4  C    0.916737
     5  C   -0.232108
     6  S    1.484800
     7  O   -1.253140
     8  C   -0.220765
     9  C   -0.465979
    10  C    0.143701
    11  C    1.285566
    12  C   -0.162117
    13  C   -0.466382
    14  C    0.211752
    15  C   -0.432033
    16  C   -0.174079
    17  N   -1.079361
    18  C    0.458065
    19  C    0.343879
    20  O   -1.180546
 Electronic spatial extent (au):  <R**2>=           8194.8074
 Charge=              0.0000 electrons
 Dipole moment (field-independent basis, Debye):
    X=             -0.1441    Y=             -3.6792    Z=              2.5219  Tot=              4.4628
 Quadrupole moment (field-independent basis, Debye-Ang):
   XX=           -136.9114   YY=           -156.2284   ZZ=           -130.5055
   XY=             -6.5119   XZ=            -16.5897   YZ=             -5.6288
 Traceless Quadrupole moment (field-independent basis, Debye-Ang):
   XX=              4.3037   YY=            -15.0133   ZZ=             10.7096
   XY=             -6.5119   XZ=            -16.5897   YZ=             -5.6288
 Octapole moment (field-independent basis, Debye-Ang**2):
  XXX=             14.2251  YYY=            -72.6728  ZZZ=              1.8463  XYY=            -32.7213
  XXY=             -1.3138  XXZ=             56.9379  XZZ=            -23.4923  YZZ=             10.4318
  YYZ=             -4.4362  XYZ=             42.3089
 Hexadecapole moment (field-independent basis, Debye-Ang**3):
 XXXX=          -7320.3848 YYYY=          -2773.1640 ZZZZ=           -818.8390 XXXY=             73.3782
 XXXZ=           -224.3823 YYYX=            -69.1511 YYYZ=            -59.3289 ZZZX=            -29.7687
 ZZZY=             -7.6106 XXYY=          -1750.8255 XXZZ=          -1493.2169 YYZZ=           -526.9730
 XXYZ=             37.1873 YYXZ=            -81.0662 ZZXY=             11.9245
 N-N= 1.972134979324D+03 E-N=-7.792956686432D+03  KE= 1.630819877961D+03
 Leave Link  601 at Tue Sep 15 10:23:21 2020, MaxMem=   262144000 cpu:               2.5 elap:               1.0
 (Enter /prod/apps/gaussian/g16b1/l9999.exe)
 1\1\GINC-PIRINEUS26\SP\RMP2-FC\Aug-CC-pVDZ\C13H20N2O3S2\UBAFAR01\15-Se
 p-2020\0\\#p mp2/aug-cc-pVDZ scf=(MaxCycle=2000,NoVarAcc,NoIncFock) ma
 xdisk=180GB geom=allcheck\\SM37_m0.n.5.pdb.xyz\\0,1\O,0,-3.5500044227,
 0.3121173257,-0.9590003622\S,0,-2.7543838402,-0.8961929666,-0.68995633
 15\N,0,-1.1105572609,-0.6339315846,-0.765342259\C,0,-0.4655709103,0.64
 6817724,-0.4178375602\C,0,-0.8569208762,1.2159495386,0.9678374197\S,0,
 -0.8532627948,2.9713129925,0.3272919467\O,0,0.5441513729,3.567739251,0
 .4911911131\C,0,-0.9025026565,1.9105757324,-1.2089498514\C,0,1.0572796
 01,0.449138972,-0.5530049536\C,0,1.6536823381,-0.651474635,0.341581102
 2\C,0,3.1559892514,-0.7483670545,0.1940892577\C,0,4.0055940833,0.09359
 61712,0.9253908103\C,0,5.3908025869,0.0261930894,0.768935189\C,0,5.951
 7108354,-0.8887524821,-0.1253006823\C,0,5.1172559312,-1.7343251588,-0.
 8587972839\C,0,3.7313373899,-1.6633040056,-0.6986052734\N,0,-2.9440416
 804,-1.2078993338,0.9459838827\C,0,-4.317189401,-1.0439543421,1.447676
 7601\C,0,-2.2920990347,-2.4383947641,1.4125025124\O,0,-2.9857690342,-2
 .0780992047,-1.5359816216\H,0,-0.7553538996,-1.0484556945,-1.626763435
 6\H,0,-0.1561209456,1.0623600812,1.7895599966\H,0,-1.8670230756,0.9476
 694456,1.2792209247\H,0,-0.2310160488,2.2664068166,-1.9916520568\H,0,-
 1.9323688798,1.8673825544,-1.5614739763\H,0,1.5185767447,1.4136154537,
 -0.3177792656\H,0,1.2871440838,0.236089961,-1.6043953838\H,0,1.1954225
 398,-1.6111189841,0.0875152638\H,0,1.4006913564,-0.4441833334,1.387407
 2267\H,0,3.5768375486,0.804784677,1.6260153341\H,0,6.0313634038,0.6840
 727216,1.3475323603\H,0,7.0288453658,-0.9444050135,-0.2461900268\H,0,5
 .5439396792,-2.4519477774,-1.5524945714\H,0,3.0865120119,-2.3270845115
 ,-1.2680010382\H,0,-4.7142971656,-0.0864060921,1.1180271449\H,0,-4.261
 1257733,-1.0523918694,2.5373355197\H,0,-4.9820284131,-1.8529494901,1.1
 218449861\H,0,-1.2684904596,-2.4688899305,1.0419629935\H,0,-2.82812002
 55,-3.3390146171,1.0916219509\H,0,-2.2728895256,-2.4032796624,2.503002
 2385\\Version=ES64L-G16RevB.01\State=1-A\HF=-1632.4063041\MP2=-1635.52
 29462\RMSD=4.184e-09\PG=C01 [X(C13H20N2O3S2)]\\@


 IT IS BY LOGIC THAT WE PROVE, BUT BY INTUITION THAT WE DISCOVER.
     -- J.H.POINCARE (1854-1912)
 Job cpu time:       0 days  4 hours 56 minutes  5.5 seconds.
 Elapsed time:       0 days  1 hours 18 minutes  8.3 seconds.
 File lengths (MBytes):  RWF= 152959 Int=      0 D2E=      0 Chk=     34 Scr=      1
 Normal termination of Gaussian 16 at Tue Sep 15 10:23:23 2020.
