 Entering Gaussian System, Link 0=g09
 Initial command:
 /prod/apps/gaussian/g09d1/l1.exe "/tmp/ubafar01/1449006/Gau-26382.inp" -scrdir="/tmp/ubafar01/1449006/"
 Entering Link 1 = /prod/apps/gaussian/g09d1/l1.exe PID=     26384.
  
 Copyright (c) 1988,1990,1992,1993,1995,1998,2003,2009,2013,
            Gaussian, Inc.  All Rights Reserved.
  
 This is part of the Gaussian(R) 09 program.  It is based on
 the Gaussian(R) 03 system (copyright 2003, Gaussian, Inc.),
 the Gaussian(R) 98 system (copyright 1998, Gaussian, Inc.),
 the Gaussian(R) 94 system (copyright 1995, Gaussian, Inc.),
 the Gaussian 92(TM) system (copyright 1992, Gaussian, Inc.),
 the Gaussian 90(TM) system (copyright 1990, Gaussian, Inc.),
 the Gaussian 88(TM) system (copyright 1988, Gaussian, Inc.),
 the Gaussian 86(TM) system (copyright 1986, Carnegie Mellon
 University), and the Gaussian 82(TM) system (copyright 1983,
 Carnegie Mellon University). Gaussian is a federally registered
 trademark of Gaussian, Inc.
  
 This software contains proprietary and confidential information,
 including trade secrets, belonging to Gaussian, Inc.
  
 This software is provided under written license and may be
 used, copied, transmitted, or stored only in accord with that
 written license.
  
 The following legend is applicable only to US Government
 contracts under FAR:
  
                    RESTRICTED RIGHTS LEGEND
  
 Use, reproduction and disclosure by the US Government is
 subject to restrictions as set forth in subparagraphs (a)
 and (c) of the Commercial Computer Software - Restricted
 Rights clause in FAR 52.227-19.
  
 Gaussian, Inc.
 340 Quinnipiac St., Bldg. 40, Wallingford CT 06492
  
  
 ---------------------------------------------------------------
 Warning -- This program may not be used in any manner that
 competes with the business of Gaussian, Inc. or will provide
 assistance to any competitor of Gaussian, Inc.  The licensee
 of this program is prohibited from giving any competitor of
 Gaussian, Inc. access to this program.  By using this program,
 the user acknowledges that Gaussian, Inc. is engaged in the
 business of creating and licensing software in the field of
 computational chemistry and represents and warrants to the
 licensee that it is not a competitor of Gaussian, Inc. and that
 it will not use this program in any manner prohibited above.
 ---------------------------------------------------------------
  

 Cite this work as:
 Gaussian 09, Revision D.01,
 M. J. Frisch, G. W. Trucks, H. B. Schlegel, G. E. Scuseria, 
 M. A. Robb, J. R. Cheeseman, G. Scalmani, V. Barone, B. Mennucci, 
 G. A. Petersson, H. Nakatsuji, M. Caricato, X. Li, H. P. Hratchian, 
 A. F. Izmaylov, J. Bloino, G. Zheng, J. L. Sonnenberg, M. Hada, 
 M. Ehara, K. Toyota, R. Fukuda, J. Hasegawa, M. Ishida, T. Nakajima, 
 Y. Honda, O. Kitao, H. Nakai, T. Vreven, J. A. Montgomery, Jr., 
 J. E. Peralta, F. Ogliaro, M. Bearpark, J. J. Heyd, E. Brothers, 
 K. N. Kudin, V. N. Staroverov, T. Keith, R. Kobayashi, J. Normand, 
 K. Raghavachari, A. Rendell, J. C. Burant, S. S. Iyengar, J. Tomasi, 
 M. Cossi, N. Rega, J. M. Millam, M. Klene, J. E. Knox, J. B. Cross, 
 V. Bakken, C. Adamo, J. Jaramillo, R. Gomperts, R. E. Stratmann, 
 O. Yazyev, A. J. Austin, R. Cammi, C. Pomelli, J. W. Ochterski, 
 R. L. Martin, K. Morokuma, V. G. Zakrzewski, G. A. Voth, 
 P. Salvador, J. J. Dannenberg, S. Dapprich, A. D. Daniels, 
 O. Farkas, J. B. Foresman, J. V. Ortiz, J. Cioslowski, 
 and D. J. Fox, Gaussian, Inc., Wallingford CT, 2013.
 
 ******************************************
 Gaussian 09:  AM64L-G09RevD.01 24-Apr-2013
                 7-Aug-2020 
 ******************************************
 %nproc=1
 Will use up to    1 processors via shared memory.
 %Chk=SM39.n.5.pdb.xyz.mst.n.w.chk
 -----------------
 #p b3lyp/6-31G(d)
 -----------------
 1/38=1/1;
 2/12=2,17=6,18=5,40=1/2;
 3/5=1,6=6,7=1,11=2,16=1,25=1,30=1,74=-5/1,2,3;
 4//1;
 5/5=2,38=5/2;
 6/7=2,8=2,9=2,10=2,28=1/1;
 99/5=1,9=1/99;
 Leave Link    1 at Fri Aug  7 23:53:17 2020, MaxMem=           0 cpu:         0.0
 (Enter /prod/apps/gaussian/g09d1/l101.exe)
 ----------------
 SM39.n.5.pdb.xyz
 ----------------
 Symbolic Z-matrix:
 Charge =  0 Multiplicity = 1
 O                     2.563     1.166     2.375 
 S                     1.714     1.641     1.273 
 N                     2.665     1.447    -0.089 
 C                     2.359     1.896    -1.453 
 C                     2.228     3.452    -1.564 
 S                     0.758     3.254    -2.621 
 C                     0.946     1.538    -2.042 
 O                    -0.449     3.933    -2.111 
 O                     1.085     3.391    -4.056 
 C                     3.49      1.409    -2.381 
 C                     3.606    -0.11     -2.615 
 C                     4.218    -0.927    -1.492 
 C                     3.514    -1.996    -0.921 
 C                     4.085    -2.777     0.088 
 C                     5.375    -2.499     0.54 
 C                     6.09     -1.437    -0.022 
 C                     5.516    -0.661    -1.029 
 C                     0.29      0.557     1.185 
 C                     0.469    -0.824     1.316 
 C                    -0.65     -1.652     1.248 
 C                    -1.921    -1.104     1.058 
 C                    -2.084     0.278     0.937 
 C                    -0.973     1.12      1. 
 O                     1.213     3.023     1.268 
 H                     3.132     0.54     -0.051 
 H                     3.056     3.968    -2.048 
 H                     1.947     3.929    -0.626 
 H                     0.928     0.8      -2.843 
 H                     0.184     1.311    -1.298 
 H                     4.434     1.808    -1.998 
 H                     3.317     1.888    -3.349 
 H                     4.221    -0.239    -3.513 
 H                     2.623    -0.524    -2.863 
 H                     2.511    -2.216    -1.273 
 H                     3.523    -3.602     0.514 
 H                     5.822    -3.103     1.323 
 H                     7.095    -1.216     0.322 
 H                     6.083     0.157    -1.463 
 H                     1.456    -1.242     1.469 
 H                    -0.529    -2.725     1.347 
 H                    -2.786    -1.756     1.008 
 H                    -3.072     0.702     0.796 
 H                    -1.074     2.194     0.914 
 
 NAtoms=     43 NQM=       43 NQMF=       0 NMMI=      0 NMMIF=      0
                NMic=       0 NMicF=      0.
                    Isotopes and Nuclear Properties:
 (Nuclear quadrupole moments (NQMom) in fm**2, nuclear magnetic moments (NMagM)
  in nuclear magnetons)

  Atom         1           2           3           4           5           6           7           8           9          10
 IAtWgt=          16          32          14          12          12          32          12          16          16          12
 AtmWgt=  15.9949146  31.9720718  14.0030740  12.0000000  12.0000000  31.9720718  12.0000000  15.9949146  15.9949146  12.0000000
 NucSpn=           0           0           2           0           0           0           0           0           0           0
 AtZEff=   0.0000000   0.0000000   0.0000000   0.0000000   0.0000000   0.0000000   0.0000000   0.0000000   0.0000000   0.0000000
 NQMom=    0.0000000   0.0000000   2.0440000   0.0000000   0.0000000   0.0000000   0.0000000   0.0000000   0.0000000   0.0000000
 NMagM=    0.0000000   0.0000000   0.4037610   0.0000000   0.0000000   0.0000000   0.0000000   0.0000000   0.0000000   0.0000000
 AtZNuc=   8.0000000  16.0000000   7.0000000   6.0000000   6.0000000  16.0000000   6.0000000   8.0000000   8.0000000   6.0000000

  Atom        11          12          13          14          15          16          17          18          19          20
 IAtWgt=          12          12          12          12          12          12          12          12          12          12
 AtmWgt=  12.0000000  12.0000000  12.0000000  12.0000000  12.0000000  12.0000000  12.0000000  12.0000000  12.0000000  12.0000000
 NucSpn=           0           0           0           0           0           0           0           0           0           0
 AtZEff=   0.0000000   0.0000000   0.0000000   0.0000000   0.0000000   0.0000000   0.0000000   0.0000000   0.0000000   0.0000000
 NQMom=    0.0000000   0.0000000   0.0000000   0.0000000   0.0000000   0.0000000   0.0000000   0.0000000   0.0000000   0.0000000
 NMagM=    0.0000000   0.0000000   0.0000000   0.0000000   0.0000000   0.0000000   0.0000000   0.0000000   0.0000000   0.0000000
 AtZNuc=   6.0000000   6.0000000   6.0000000   6.0000000   6.0000000   6.0000000   6.0000000   6.0000000   6.0000000   6.0000000

  Atom        21          22          23          24          25          26          27          28          29          30
 IAtWgt=          12          12          12          16           1           1           1           1           1           1
 AtmWgt=  12.0000000  12.0000000  12.0000000  15.9949146   1.0078250   1.0078250   1.0078250   1.0078250   1.0078250   1.0078250
 NucSpn=           0           0           0           0           1           1           1           1           1           1
 AtZEff=   0.0000000   0.0000000   0.0000000   0.0000000   0.0000000   0.0000000   0.0000000   0.0000000   0.0000000   0.0000000
 NQMom=    0.0000000   0.0000000   0.0000000   0.0000000   0.0000000   0.0000000   0.0000000   0.0000000   0.0000000   0.0000000
 NMagM=    0.0000000   0.0000000   0.0000000   0.0000000   2.7928460   2.7928460   2.7928460   2.7928460   2.7928460   2.7928460
 AtZNuc=   6.0000000   6.0000000   6.0000000   8.0000000   1.0000000   1.0000000   1.0000000   1.0000000   1.0000000   1.0000000

  Atom        31          32          33          34          35          36          37          38          39          40
 IAtWgt=           1           1           1           1           1           1           1           1           1           1
 AtmWgt=   1.0078250   1.0078250   1.0078250   1.0078250   1.0078250   1.0078250   1.0078250   1.0078250   1.0078250   1.0078250
 NucSpn=           1           1           1           1           1           1           1           1           1           1
 AtZEff=   0.0000000   0.0000000   0.0000000   0.0000000   0.0000000   0.0000000   0.0000000   0.0000000   0.0000000   0.0000000
 NQMom=    0.0000000   0.0000000   0.0000000   0.0000000   0.0000000   0.0000000   0.0000000   0.0000000   0.0000000   0.0000000
 NMagM=    2.7928460   2.7928460   2.7928460   2.7928460   2.7928460   2.7928460   2.7928460   2.7928460   2.7928460   2.7928460
 AtZNuc=   1.0000000   1.0000000   1.0000000   1.0000000   1.0000000   1.0000000   1.0000000   1.0000000   1.0000000   1.0000000

  Atom        41          42          43
 IAtWgt=           1           1           1
 AtmWgt=   1.0078250   1.0078250   1.0078250
 NucSpn=           1           1           1
 AtZEff=   0.0000000   0.0000000   0.0000000
 NQMom=    0.0000000   0.0000000   0.0000000
 NMagM=    2.7928460   2.7928460   2.7928460
 AtZNuc=   1.0000000   1.0000000   1.0000000
 Leave Link  101 at Fri Aug  7 23:53:17 2020, MaxMem=    33554432 cpu:         0.1
 (Enter /prod/apps/gaussian/g09d1/l202.exe)
                          Input orientation:                          
 ---------------------------------------------------------------------
 Center     Atomic      Atomic             Coordinates (Angstroms)
 Number     Number       Type             X           Y           Z
 ---------------------------------------------------------------------
      1          8           0        2.563000    1.166000    2.375000
      2         16           0        1.714000    1.641000    1.273000
      3          7           0        2.665000    1.447000   -0.089000
      4          6           0        2.359000    1.896000   -1.453000
      5          6           0        2.228000    3.452000   -1.564000
      6         16           0        0.758000    3.254000   -2.621000
      7          6           0        0.946000    1.538000   -2.042000
      8          8           0       -0.449000    3.933000   -2.111000
      9          8           0        1.085000    3.391000   -4.056000
     10          6           0        3.490000    1.409000   -2.381000
     11          6           0        3.606000   -0.110000   -2.615000
     12          6           0        4.218000   -0.927000   -1.492000
     13          6           0        3.514000   -1.996000   -0.921000
     14          6           0        4.085000   -2.777000    0.088000
     15          6           0        5.375000   -2.499000    0.540000
     16          6           0        6.090000   -1.437000   -0.022000
     17          6           0        5.516000   -0.661000   -1.029000
     18          6           0        0.290000    0.557000    1.185000
     19          6           0        0.469000   -0.824000    1.316000
     20          6           0       -0.650000   -1.652000    1.248000
     21          6           0       -1.921000   -1.104000    1.058000
     22          6           0       -2.084000    0.278000    0.937000
     23          6           0       -0.973000    1.120000    1.000000
     24          8           0        1.213000    3.023000    1.268000
     25          1           0        3.132000    0.540000   -0.051000
     26          1           0        3.056000    3.968000   -2.048000
     27          1           0        1.947000    3.929000   -0.626000
     28          1           0        0.928000    0.800000   -2.843000
     29          1           0        0.184000    1.311000   -1.298000
     30          1           0        4.434000    1.808000   -1.998000
     31          1           0        3.317000    1.888000   -3.349000
     32          1           0        4.221000   -0.239000   -3.513000
     33          1           0        2.623000   -0.524000   -2.863000
     34          1           0        2.511000   -2.216000   -1.273000
     35          1           0        3.523000   -3.602000    0.514000
     36          1           0        5.822000   -3.103000    1.323000
     37          1           0        7.095000   -1.216000    0.322000
     38          1           0        6.083000    0.157000   -1.463000
     39          1           0        1.456000   -1.242000    1.469000
     40          1           0       -0.529000   -2.725000    1.347000
     41          1           0       -2.786000   -1.756000    1.008000
     42          1           0       -3.072000    0.702000    0.796000
     43          1           0       -1.074000    2.194000    0.914000
 ---------------------------------------------------------------------
                    Distance matrix (angstroms):
                    1          2          3          4          5
     1  O    0.000000
     2  S    1.469976   0.000000
     3  N    2.482068   1.672448   0.000000
     4  C    3.902320   2.812850   1.468241   0.000000
     5  C    4.566590   3.404774   2.527176   1.565445   0.000000
     6  S    5.707695   4.321914   3.648688   2.402413   1.821360
     7  C    4.718364   3.404359   2.603354   1.572149   2.352744
     8  O    6.070637   4.624207   4.468297   3.530892   2.774329
     9  O    6.963682   5.644146   4.691761   3.260937   2.742305
    10  C    4.851589   4.069363   2.436254   1.541919   2.536530
    11  C    5.255105   4.664998   3.112942   2.632354   3.961228
    12  C    4.698230   4.528782   3.164821   3.380345   4.810502
    13  C    4.665433   4.613177   3.642427   4.094473   5.634532
    14  C    4.805632   5.152144   4.459810   5.214469   6.706564
    15  C    4.970593   5.574927   4.828111   5.690723   7.053001
    16  C    4.996093   5.504588   4.478010   5.203558   6.418343
    17  C    4.862649   5.005358   3.668169   4.084688   5.292819
    18  C    2.636951   1.791808   2.838274   3.610087   4.437778
    19  C    3.076754   2.761901   3.457439   4.317159   5.447261
    20  C    4.419799   4.053760   4.730813   5.379385   6.499311
    21  C    5.195541   4.560096   5.371648   5.798579   6.696732
    22  C    4.944795   4.049132   4.997223   5.298139   5.909536
    23  C    3.794211   2.750625   3.811547   4.209704   4.717915
    24  O    2.548803   1.470017   2.536440   3.160267   3.038830
    25  H    2.569263   2.230673   1.020873   2.098063   3.403840
    26  H    5.259010   4.271409   3.216520   2.265616   1.089080
    27  H    4.125485   2.982521   2.638980   2.233106   1.089190
    28  H    5.480393   4.273936   3.319683   2.276198   3.218531
    29  H    4.378538   3.009957   2.763248   2.257626   2.971965
    30  H    4.799576   4.257432   2.627539   2.147183   2.785234
    31  H    5.818417   4.898316   3.353682   2.124298   2.611176
    32  H    6.276267   5.720598   4.121590   3.502695   4.625379
    33  H    5.504211   4.756049   3.403187   2.813218   4.201429
    34  H    4.974790   4.689752   3.852680   4.118743   5.682517
    35  H    5.207566   5.598001   5.156760   5.954157   7.466862
    36  H    5.472855   6.275643   5.715146   6.684949   8.013715
    37  H    5.516136   6.166199   5.185112   5.938423   7.002493
    38  H    5.304595   5.364337   3.903165   4.110036   5.072302
    39  H    2.800848   2.901150   3.334631   4.381842   5.641694
    40  H    5.075148   4.909020   5.446955   6.126515   7.364122
    41  H    6.246485   5.644452   6.416854   6.772344   7.673242
    42  H    5.870414   4.900515   5.852471   5.998283   6.420444
    43  H    4.052046   2.864897   3.942606   4.180548   4.315814
                    6          7          8          9         10
     6  S    0.000000
     7  C    1.820780   0.000000
     8  O    1.475801   2.772510   0.000000
     9  O    1.478149   2.740278   2.535734   0.000000
    10  C    3.305367   2.569727   4.686064   3.538075   0.000000
    11  C    4.407679   3.181168   5.748295   4.548508   1.541289
    12  C    5.543194   4.133365   6.766362   5.919029   2.603306
    13  C    6.168309   4.510036   7.230111   6.689397   3.704889
    14  C    7.401390   5.745385   8.391475   8.013549   4.896180
    15  C    8.025311   6.525346   9.072894   8.615069   5.230481
    16  C    7.562440   6.276286   8.715466   8.039451   4.519358
    17  C    6.363981   5.171718   7.606365   6.724224   3.196479
    18  C    4.688120   3.436019   4.775679   6.010962   4.866442
    19  C    5.675700   4.133127   5.934316   6.855951   5.270725
    20  C    6.404722   4.852568   6.520392   7.521602   6.299124
    21  C    6.301131   4.980949   6.130311   7.442718   6.886277
    22  C    5.439936   4.432036   5.032152   6.683067   6.584661
    23  C    4.545543   3.620918   4.226803   5.912355   5.606519
    24  O    3.922334   3.637666   3.874014   5.338238   4.594010
    25  H    4.427931   3.120686   5.345990   5.325264   2.512414
    26  H    2.473647   3.218235   3.505741   2.872252   2.616816
    27  H    2.418547   2.953631   2.818875   3.577344   3.436753
    28  H    2.469879   1.089297   3.499663   2.865187   2.673606
    29  H    2.419722   1.088903   2.817187   3.569981   3.480248
    30  H    3.999003   3.498711   5.326545   4.237576   1.094087
    31  H    2.990722   2.729907   4.460653   2.782208   1.093798
    32  H    4.998908   4.005895   6.417171   4.827654   2.128776
    33  H    4.220198   2.781765   5.465120   4.372175   2.172672
    34  H    5.900086   4.139215   6.875612   6.420048   3.914937
    35  H    8.029831   6.292350   8.913116   8.702344   5.787248
    36  H    9.033863   7.525788  10.031106   9.671858   6.286174
    37  H    8.294560   7.140253   9.452176   8.747081   5.214677
    38  H    6.268014   5.350810   7.572655   6.493259   3.022230
    39  H    6.117951   4.507285   6.574652   7.219969   5.097789
    40  H    7.290393   5.642173   7.502875   8.318826   6.865879
    41  H    7.129493   5.837873   6.895974   8.192701   7.803251
    42  H    5.732146   4.989736   5.076430   6.932047   7.324822
    43  H    4.120200   3.639873   3.544767   5.549323   5.683603
                   11         12         13         14         15
    11  C    0.000000
    12  C    1.517617   0.000000
    13  C    2.536749   1.401577   0.000000
    14  C    3.827341   2.436512   1.397885   0.000000
    15  C    4.334825   2.817598   2.418853   1.394879   0.000000
    16  C    3.828163   2.434211   2.785042   2.414068   1.398182
    17  C    2.543049   1.403542   2.408712   2.787993   2.420720
    18  C    5.087312   4.979736   4.620305   5.169235   5.967611
    19  C    5.079697   4.685133   3.955980   4.289248   5.241816
    20  C    5.950972   5.632996   4.707631   5.003144   6.125300
    21  C    6.710193   6.649898   5.852464   6.309664   7.446205
    22  C    6.718880   6.860559   6.321459   6.936165   7.969066
    23  C    5.962245   6.111199   5.790757   6.449939   7.321603
    24  O    5.533519   5.678919   5.939418   6.578813   6.953036
    25  H    2.687242   2.325503   2.708158   3.453986   3.823068
    26  H    4.153802   5.061660   6.086804   7.149571   7.341498
    27  H    4.798117   5.430298   6.135808   7.074693   7.377664
    28  H    2.837564   3.953711   4.266040   5.599316   6.488752
    29  H    3.932406   4.617297   4.708214   5.818122   6.696329
    30  H    2.178301   2.789788   4.059156   5.049299   5.086961
    31  H    2.148088   3.490627   4.584697   5.845085   6.213329
    32  H    1.096025   2.134899   3.210197   4.407623   4.781854
    33  H    1.095075   2.141512   2.594615   3.990220   4.801514
    34  H    2.726761   2.150193   1.085501   2.155114   3.401405
    35  H    4.689520   3.415067   2.153727   1.085332   2.155734
    36  H    5.420014   3.902822   3.404093   2.156077   1.085225
    37  H    4.692795   3.413392   3.870014   3.398761   2.156853
    38  H    2.744799   2.157341   3.395428   3.873753   3.401119
    39  H    4.752155   4.061452   3.242835   3.342907   4.219200
    40  H    6.295546   5.816075   4.692666   4.782968   5.963182
    41  H    7.529483   7.482864   6.593075   7.007102   8.208105
    42  H    7.542543   7.812342   7.321386   7.989202   9.036800
    43  H    6.297988   6.598086   6.478663   7.211685   7.984593
                   16         17         18         19         20
    16  C    0.000000
    17  C    1.394884   0.000000
    18  C    6.250831   5.804860   0.000000
    19  C    5.810478   5.567567   1.398700   0.000000
    20  C    6.861977   6.647283   2.401510   1.393689   0.000000
    21  C    8.090328   7.736975   2.768316   2.420137   1.397084
    22  C    8.406853   7.906129   2.403169   2.806395   2.424454
    23  C    7.580811   7.028223   1.395121   2.440974   2.801752
    24  O    6.733560   6.112600   2.634383   3.918577   5.032573
    25  H    3.557968   2.842946   3.099185   3.289491   4.560240
    26  H    6.521032   5.340187   5.453253   6.400963   7.495495
    27  H    6.806116   5.828230   4.170822   5.342926   6.434582
    28  H    6.293525   5.145373   4.085447   4.488356   5.023810
    29  H    6.637810   5.691342   2.597122   3.387100   3.994627
    30  H    4.144507   2.864550   5.373009   5.799245   6.953788
    31  H    5.460227   4.088447   5.611724   6.101498   7.028591
    32  H    4.137082   2.832908   6.177182   6.143205   6.956316
    33  H    4.574379   3.428086   4.795597   4.711025   5.374498
    34  H    3.870540   3.392283   4.320201   3.579155   4.082335
    35  H    3.400590   3.873290   5.310349   4.205640   4.664245
    36  H    2.157870   3.404248   6.634581   5.817946   6.633085
    37  H    1.084989   2.150922   7.084936   6.711600   7.812336
    38  H    2.148806   1.085803   6.382065   6.340520   7.480327
    39  H    4.871864   4.802204   2.162548   1.082729   2.156891
    40  H    6.880717   6.815240   3.386522   2.147269   1.084330
    41  H    8.941255   8.618097   3.852671   3.399781   2.151955
    42  H    9.443870   8.884939   3.387535   3.890727   3.407595
    43  H    8.085985   7.440052   2.147954   3.413323   3.883690
                   21         22         23         24         25
    21  C    0.000000
    22  C    1.396830   0.000000
    23  C    2.418314   1.395440   0.000000
    24  O    5.186346   4.302882   2.910641   0.000000
    25  H    5.428207   5.315209   4.276918   3.404058   0.000000
    26  H    7.755189   6.996136   5.799504   3.909671   3.967993
    27  H    6.567219   5.658775   4.365863   2.224147   3.635955
    28  H    5.192284   4.861381   4.299401   4.682230   3.566578
    29  H    3.976680   3.347557   2.579910   3.251790   3.292439
    30  H    7.629214   7.310229   6.220691   4.745295   2.663426
    31  H    7.470633   7.080445   6.156925   5.199205   3.567651
    32  H    7.704961   7.734521   7.013678   6.522781   3.711901
    33  H    6.029807   6.102381   5.527813   5.624453   3.049348
    34  H    5.129593   5.676104   5.332324   5.965619   3.078061
    35  H    6.014406   6.831675   6.538157   7.056574   4.198603
    36  H    8.001267   8.607264   8.006877   7.666406   4.732380
    37  H    9.046684   9.320102   8.426696   7.311769   4.350636
    38  H    8.485846   8.513197   7.535308   6.276083   3.293757
    39  H    3.404716   3.889090   3.420387   4.276643   2.880087
    40  H    2.156114   3.406484   3.886074   6.006689   5.100740
    41  H    1.084356   2.152905   3.399766   6.236862   6.435512
    42  H    2.157564   1.084344   2.149917   4.896024   6.263647
    43  H    3.408071   2.166030   1.082161   2.458236   4.621404
                   26         27         28         29         30
    26  H    0.000000
    27  H    1.803742   0.000000
    28  H    3.898286   3.967882   0.000000
    29  H    3.983784   3.227023   1.789324   0.000000
    30  H    2.562613   3.544883   3.744613   4.335840   0.000000
    31  H    2.467209   3.668421   2.673406   3.788828   1.754791
    32  H    4.604595   5.556804   3.517424   4.858610   2.555544
    33  H    4.585824   5.028952   2.150907   3.430040   3.076714
    34  H    6.256157   6.204654   3.750606   4.225551   4.518421
    35  H    8.005425   7.778132   6.114007   6.210462   6.033918
    36  H    8.307433   8.262158   7.519322   7.624964   6.088802
    37  H    6.986006   7.339730   7.218959   7.534723   4.648430
    38  H    4.901905   5.659951   5.375116   6.013081   2.393998
    39  H    6.486400   5.600834   4.800197   3.973925   5.494640
    40  H    8.317121   7.368787   5.666090   4.877878   7.507895
    41  H    8.731110   7.575650   5.929345   4.852322   8.594564
    42  H    7.503831   6.134001   5.408505   3.918833   8.085154
    43  H    5.383068   3.808972   4.479541   2.693547   6.242340
                   31         32         33         34         35
    31  H    0.000000
    32  H    2.316946   0.000000
    33  H    2.556477   1.748522   0.000000
    34  H    4.669286   3.442416   2.324545   0.000000
    35  H    6.716048   5.292797   4.657061   2.477601   0.000000
    36  H    7.280981   5.844022   5.865785   4.299850   2.487747
    37  H    6.114274   4.890974   5.533703   4.955510   4.299889
    38  H    3.768834   2.797563   3.794122   4.292600   4.959053
    39  H    6.039317   5.785461   4.543527   3.095200   3.279347
    40  H    7.623903   7.236180   5.701193   4.045378   4.228679
    41  H    8.337193   8.475776   6.764595   5.785566   6.592058
    42  H    7.707590   8.522958   6.879272   6.630639   7.880226
    43  H    6.127617   7.318117   5.943153   6.089605   7.408510
                   36         37         38         39         40
    36  H    0.000000
    37  H    2.486624   0.000000
    38  H    4.296221   2.468906   0.000000
    39  H    4.748325   5.754529   5.653579   0.000000
    40  H    6.362284   7.839202   7.740838   2.480806   0.000000
    41  H    8.718446   9.919494   9.403434   4.297823   2.479502
    42  H    9.688085  10.357185   9.445323   4.973414   4.302880
    43  H    8.705188   8.871929   7.811667   4.302908   4.968005
                   41         42         43
    41  H    0.000000
    42  H    2.483647   0.000000
    43  H    4.306075   2.496396   0.000000
 Stoichiometry    C17H19NO4S2
 Framework group  C1[X(C17H19NO4S2)]
 Deg. of freedom   123
 Full point group                 C1      NOp   1
 Largest Abelian subgroup         C1      NOp   1
 Largest concise Abelian subgroup C1      NOp   1
                         Standard orientation:                         
 ---------------------------------------------------------------------
 Center     Atomic      Atomic             Coordinates (Angstroms)
 Number     Number       Type             X           Y           Z
 ---------------------------------------------------------------------
      1          8           0       -0.781326    1.494747    2.438763
      2         16           0        0.340909    0.992505    1.633052
      3          7           0       -0.232630   -0.435396    0.977894
      4          6           0        0.528949   -1.420668    0.200095
      5          6           0        1.692929   -2.071574    1.019906
      6         16           0        2.797766   -1.911143   -0.419173
      7          6           0        1.402852   -0.892569   -0.995338
      8          8           0        4.031596   -1.146894   -0.151632
      9          8           0        2.907601   -3.175524   -1.176933
     10          6           0       -0.447493   -2.519491   -0.265375
     11          6           0       -1.515250   -2.121301   -1.303119
     12          6           0       -2.702295   -1.328079   -0.788448
     13          6           0       -3.019847   -0.079258   -1.339834
     14          6           0       -4.133220    0.640975   -0.897400
     15          6           0       -4.948995    0.118031    0.105958
     16          6           0       -4.645630   -1.127693    0.663682
     17          6           0       -3.533834   -1.842728    0.218333
     18          6           0        0.644631    2.185196    0.330816
     19          6           0       -0.439081    2.750562   -0.349106
     20          6           0       -0.184528    3.678728   -1.357114
     21          6           0        1.129437    4.034746   -1.671108
     22          6           0        2.200607    3.467041   -0.977248
     23          6           0        1.962116    2.534025    0.032632
     24          8           0        1.633904    0.698635    2.267682
     25          1           0       -1.186316   -0.295956    0.641410
     26          1           0        1.532981   -3.098982    1.343860
     27          1           0        2.051872   -1.442240    1.833191
     28          1           0        1.057874   -1.146820   -1.996794
     29          1           0        1.665067    0.162815   -0.939508
     30          1           0       -0.921571   -2.946131    0.623587
     31          1           0        0.169619   -3.310258   -0.701556
     32          1           0       -1.885525   -3.055501   -1.740653
     33          1           0       -1.047030   -1.570176   -2.125445
     34          1           0       -2.388067    0.328539   -2.122693
     35          1           0       -4.362329    1.604869   -1.340528
     36          1           0       -5.814384    0.673882    0.452146
     37          1           0       -5.276765   -1.542737    1.442532
     38          1           0       -3.311632   -2.812245    0.653800
     39          1           0       -1.455303    2.474847   -0.096964
     40          1           0       -1.013102    4.126244   -1.894670
     41          1           0        1.317693    4.759015   -2.455851
     42          1           0        3.219493    3.749382   -1.217989
     43          1           0        2.774756    2.084046    0.587796
 ---------------------------------------------------------------------
 Rotational constants (GHZ):      0.2491707      0.1893894      0.1369771
 Leave Link  202 at Fri Aug  7 23:53:17 2020, MaxMem=    33554432 cpu:         0.0
 (Enter /prod/apps/gaussian/g09d1/l301.exe)
 Standard basis: 6-31G(d) (6D, 7F)
 Ernie: Thresh=  0.10000D-02 Tol=  0.10000D-05 Strict=F.
 There are   406 symmetry adapted cartesian basis functions of A   symmetry.
 There are   406 symmetry adapted basis functions of A   symmetry.
   406 basis functions,   796 primitive gaussians,   406 cartesian basis functions
    96 alpha electrons       96 beta electrons
       nuclear repulsion energy      2554.0164586407 Hartrees.
 IExCor=  402 DFT=T Ex+Corr=B3LYP ExCW=0 ScaHFX=  0.200000
 ScaDFX=  0.800000  0.720000  1.000000  0.810000 ScalE2=  1.000000  1.000000
 IRadAn=      0 IRanWt=     -1 IRanGd=            0 ICorTp=0 IEmpDi=  4
 NAtoms=   43 NActive=   43 NUniq=   43 SFac= 1.00D+00 NAtFMM=   60 NAOKFM=F Big=F
 Integral buffers will be    131072 words long.
 Raffenetti 2 integral format.
 Two-electron integral symmetry is turned on.
 Leave Link  301 at Fri Aug  7 23:53:17 2020, MaxMem=    33554432 cpu:         0.0
 (Enter /prod/apps/gaussian/g09d1/l302.exe)
 NPDir=0 NMtPBC=     1 NCelOv=     1 NCel=       1 NClECP=     1 NCelD=      1
         NCelK=      1 NCelE2=     1 NClLst=     1 CellRange=     0.0.
 One-electron integrals computed using PRISM.
 NBasis=   406 RedAO= T EigKep=  4.70D-04  NBF=   406
 NBsUse=   406 1.00D-06 EigRej= -1.00D+00 NBFU=   406
 Precomputing XC quadrature grid using
 IXCGrd= 4 IRadAn=           0 IRanWt=          -1 IRanGd=           0 AccXCQ= 0.00D+00.
 Generated NRdTot=       0 NPtTot=           0 NUsed=           0 NTot=          32
 NSgBfM=   399   399   399   399   399 MxSgAt=    43 MxSgA2=    43.
 Leave Link  302 at Fri Aug  7 23:53:19 2020, MaxMem=    33554432 cpu:         1.6
 (Enter /prod/apps/gaussian/g09d1/l303.exe)
 DipDrv:  MaxL=1.
 Leave Link  303 at Fri Aug  7 23:53:19 2020, MaxMem=    33554432 cpu:         0.1
 (Enter /prod/apps/gaussian/g09d1/l401.exe)
 ExpMin= 1.17D-01 ExpMax= 2.19D+04 ExpMxC= 3.30D+03 IAcc=1 IRadAn=         1 AccDes= 0.00D+00
 Harris functional with IExCor=  402 and IRadAn=       1 diagonalized for initial guess.
 HarFok:  IExCor=  402 AccDes= 0.00D+00 IRadAn=         1 IDoV= 1 UseB2=F ITyADJ=14
 ICtDFT=  3500011 ScaDFX=  1.000000  1.000000  1.000000  1.000000
 FoFCou: FMM=F IPFlag=           0 FMFlag=      100000 FMFlg1=           0
         NFxFlg=           0 DoJE=T BraDBF=F KetDBF=T FulRan=T
         wScrn=  0.000000 ICntrl=     500 IOpCl=  0 I1Cent=   200000004 NGrid=           0
         NMat0=    1 NMatS0=      1 NMatT0=    0 NMatD0=    1 NMtDS0=    0 NMtDT0=    0
 Petite list used in FoFCou.
 Harris En= -1811.22516765112    
 JPrj=0 DoOrth=F DoCkMO=F.
 Leave Link  401 at Fri Aug  7 23:53:26 2020, MaxMem=    33554432 cpu:         7.0
 (Enter /prod/apps/gaussian/g09d1/l502.exe)
 Closed shell SCF:
 Using DIIS extrapolation, IDIIS=  1040.
 Integral symmetry usage will be decided dynamically.
 IVT=      518558 IEndB=      518558 NGot=    33554432 MDV=    33217757
 LenX=    33217757 LenY=    33052480
 Requested convergence on RMS density matrix=1.00D-08 within 128 cycles.
 Requested convergence on MAX density matrix=1.00D-06.
 Requested convergence on             energy=1.00D-06.
 No special actions if energy rises.
 Fock matrices will be formed incrementally for  20 cycles.
 Integral accuracy reduced to 1.0D-05 until final iterations.

 Cycle   1  Pass 0  IDiag  1:
 FoFJK:  IHMeth= 1 ICntrl=       0 DoSepK=F KAlg= 0 I1Cent=   0 FoldK=F
 IRaf= 760000000 NMat=   1 IRICut=       1 DoRegI=T DoRafI=F ISym2E= 0.
 FoFCou: FMM=F IPFlag=           0 FMFlag=      100000 FMFlg1=           0
         NFxFlg=           0 DoJE=F BraDBF=F KetDBF=F FulRan=T
         wScrn=  0.000000 ICntrl=       0 IOpCl=  0 I1Cent=           0 NGrid=           0
         NMat0=    1 NMatS0=      1 NMatT0=    0 NMatD0=    1 NMtDS0=    0 NMtDT0=    0
 Symmetry not used in FoFCou.
 E= -1810.23663608289    
 DIIS: error= 2.83D-02 at cycle   1 NSaved=   1.
 NSaved= 1 IEnMin= 1 EnMin= -1810.23663608289     IErMin= 1 ErrMin= 2.83D-02
 ErrMax= 2.83D-02  0.00D+00 EMaxC= 1.00D-01 BMatC= 1.02D+00 BMatP= 1.02D+00
 IDIUse=3 WtCom= 7.17D-01 WtEn= 2.83D-01
 Coeff-Com:  0.100D+01
 Coeff-En:   0.100D+01
 Coeff:      0.100D+01
 Gap=     0.283 Goal=   None    Shift=    0.000
 GapD=    0.283 DampG=1.000 DampE=0.500 DampFc=0.5000 IDamp=-1.
 Damping current iteration by 5.00D-01
 RMSDP=6.64D-03 MaxDP=5.86D-01              OVMax= 2.51D-01

 Cycle   2  Pass 0  IDiag  1:
 RMSU=  3.32D-03    CP:  9.97D-01
 E= -1810.40078113582     Delta-E=       -0.164145052931 Rises=F Damp=T
 DIIS: error= 1.87D-02 at cycle   2 NSaved=   2.
 NSaved= 2 IEnMin= 2 EnMin= -1810.40078113582     IErMin= 2 ErrMin= 1.87D-02
 ErrMax= 1.87D-02  0.00D+00 EMaxC= 1.00D-01 BMatC= 1.97D-01 BMatP= 1.02D+00
 IDIUse=3 WtCom= 8.13D-01 WtEn= 1.87D-01
 Coeff-Com:  0.261D+00 0.739D+00
 Coeff-En:   0.409D+00 0.591D+00
 Coeff:      0.289D+00 0.711D+00
 Gap=     0.251 Goal=   None    Shift=    0.000
 RMSDP=2.07D-03 MaxDP=1.39D-01 DE=-1.64D-01 OVMax= 2.03D-01

 Cycle   3  Pass 0  IDiag  1:
 RMSU=  1.63D-03    CP:  9.86D-01  6.20D-01
 E= -1811.01059622127     Delta-E=       -0.609815085449 Rises=F Damp=F
 DIIS: error= 1.11D-02 at cycle   3 NSaved=   3.
 NSaved= 3 IEnMin= 3 EnMin= -1811.01059622127     IErMin= 3 ErrMin= 1.11D-02
 ErrMax= 1.11D-02  0.00D+00 EMaxC= 1.00D-01 BMatC= 1.11D-01 BMatP= 1.97D-01
 IDIUse=3 WtCom= 8.89D-01 WtEn= 1.11D-01
 Coeff-Com:  0.104D+00 0.431D+00 0.464D+00
 Coeff-En:   0.000D+00 0.000D+00 0.100D+01
 Coeff:      0.928D-01 0.383D+00 0.524D+00
 Gap=     0.234 Goal=   None    Shift=    0.000
 RMSDP=1.28D-03 MaxDP=4.61D-02 DE=-6.10D-01 OVMax= 8.03D-02

 Cycle   4  Pass 0  IDiag  1:
 RMSU=  7.62D-04    CP:  9.92D-01  7.17D-01  4.01D-01
 E= -1811.10183945758     Delta-E=       -0.091243236317 Rises=F Damp=F
 DIIS: error= 4.81D-03 at cycle   4 NSaved=   4.
 NSaved= 4 IEnMin= 4 EnMin= -1811.10183945758     IErMin= 4 ErrMin= 4.81D-03
 ErrMax= 4.81D-03  0.00D+00 EMaxC= 1.00D-01 BMatC= 1.77D-02 BMatP= 1.11D-01
 IDIUse=3 WtCom= 9.52D-01 WtEn= 4.81D-02
 Coeff-Com:  0.154D-01 0.824D-01 0.297D+00 0.605D+00
 Coeff-En:   0.000D+00 0.000D+00 0.150D+00 0.850D+00
 Coeff:      0.146D-01 0.785D-01 0.290D+00 0.617D+00
 Gap=     0.211 Goal=   None    Shift=    0.000
 RMSDP=4.49D-04 MaxDP=1.96D-02 DE=-9.12D-02 OVMax= 3.09D-02

 Cycle   5  Pass 0  IDiag  1:
 RMSU=  1.97D-04    CP:  9.91D-01  6.91D-01  5.61D-01  6.13D-01
 E= -1811.11732178330     Delta-E=       -0.015482325714 Rises=F Damp=F
 DIIS: error= 1.90D-03 at cycle   5 NSaved=   5.
 NSaved= 5 IEnMin= 5 EnMin= -1811.11732178330     IErMin= 5 ErrMin= 1.90D-03
 ErrMax= 1.90D-03  0.00D+00 EMaxC= 1.00D-01 BMatC= 1.48D-03 BMatP= 1.77D-02
 IDIUse=3 WtCom= 9.81D-01 WtEn= 1.90D-02
 Coeff-Com:  0.667D-03 0.165D-01 0.126D+00 0.348D+00 0.509D+00
 Coeff-En:   0.000D+00 0.000D+00 0.000D+00 0.143D-01 0.986D+00
 Coeff:      0.655D-03 0.162D-01 0.123D+00 0.342D+00 0.518D+00
 Gap=     0.212 Goal=   None    Shift=    0.000
 RMSDP=1.28D-04 MaxDP=4.73D-03 DE=-1.55D-02 OVMax= 1.14D-02

 Cycle   6  Pass 0  IDiag  1:
 RMSU=  6.32D-05    CP:  9.91D-01  6.96D-01  5.52D-01  6.83D-01  5.18D-01
 E= -1811.11867505035     Delta-E=       -0.001353267051 Rises=F Damp=F
 DIIS: error= 5.83D-04 at cycle   6 NSaved=   6.
 NSaved= 6 IEnMin= 6 EnMin= -1811.11867505035     IErMin= 6 ErrMin= 5.83D-04
 ErrMax= 5.83D-04  0.00D+00 EMaxC= 1.00D-01 BMatC= 1.60D-04 BMatP= 1.48D-03
 IDIUse=3 WtCom= 9.94D-01 WtEn= 5.83D-03
 Coeff-Com: -0.929D-03 0.205D-02 0.429D-01 0.134D+00 0.303D+00 0.518D+00
 Coeff-En:   0.000D+00 0.000D+00 0.000D+00 0.000D+00 0.566D-01 0.943D+00
 Coeff:     -0.923D-03 0.204D-02 0.426D-01 0.134D+00 0.302D+00 0.521D+00
 Gap=     0.212 Goal=   None    Shift=    0.000
 RMSDP=3.89D-05 MaxDP=1.33D-03 DE=-1.35D-03 OVMax= 3.19D-03

 Cycle   7  Pass 0  IDiag  1:
 RMSU=  2.35D-05    CP:  9.91D-01  6.95D-01  5.54D-01  6.82D-01  5.88D-01
                    CP:  5.67D-01
 E= -1811.11881590015     Delta-E=       -0.000140849798 Rises=F Damp=F
 DIIS: error= 1.44D-04 at cycle   7 NSaved=   7.
 NSaved= 7 IEnMin= 7 EnMin= -1811.11881590015     IErMin= 7 ErrMin= 1.44D-04
 ErrMax= 1.44D-04  0.00D+00 EMaxC= 1.00D-01 BMatC= 1.61D-05 BMatP= 1.60D-04
 IDIUse=3 WtCom= 9.99D-01 WtEn= 1.44D-03
 Coeff-Com: -0.599D-03-0.363D-03 0.137D-01 0.470D-01 0.135D+00 0.315D+00
 Coeff-Com:  0.491D+00
 Coeff-En:   0.000D+00 0.000D+00 0.000D+00 0.000D+00 0.000D+00 0.166D-01
 Coeff-En:   0.983D+00
 Coeff:     -0.598D-03-0.363D-03 0.137D-01 0.469D-01 0.134D+00 0.314D+00
 Coeff:      0.492D+00
 Gap=     0.212 Goal=   None    Shift=    0.000
 RMSDP=1.24D-05 MaxDP=6.35D-04 DE=-1.41D-04 OVMax= 6.96D-04

 Cycle   8  Pass 0  IDiag  1:
 RMSU=  6.33D-06    CP:  9.91D-01  6.95D-01  5.55D-01  6.82D-01  5.92D-01
                    CP:  6.18D-01  5.72D-01
 E= -1811.11882988960     Delta-E=       -0.000013989456 Rises=F Damp=F
 DIIS: error= 4.00D-05 at cycle   8 NSaved=   8.
 NSaved= 8 IEnMin= 8 EnMin= -1811.11882988960     IErMin= 8 ErrMin= 4.00D-05
 ErrMax= 4.00D-05  0.00D+00 EMaxC= 1.00D-01 BMatC= 1.20D-06 BMatP= 1.61D-05
 IDIUse=1 WtCom= 1.00D+00 WtEn= 0.00D+00
 Coeff-Com: -0.225D-03-0.447D-03 0.248D-02 0.101D-01 0.402D-01 0.115D+00
 Coeff-Com:  0.269D+00 0.564D+00
 Coeff:     -0.225D-03-0.447D-03 0.248D-02 0.101D-01 0.402D-01 0.115D+00
 Coeff:      0.269D+00 0.564D+00
 Gap=     0.212 Goal=   None    Shift=    0.000
 RMSDP=3.61D-06 MaxDP=1.85D-04 DE=-1.40D-05 OVMax= 2.06D-04

 Initial convergence to 1.0D-05 achieved.  Increase integral accuracy.
 Cycle   9  Pass 1  IDiag  1:
 E= -1811.11879013428     Delta-E=        0.000039755318 Rises=F Damp=F
 DIIS: error= 6.74D-05 at cycle   1 NSaved=   1.
 NSaved= 1 IEnMin= 1 EnMin= -1811.11879013428     IErMin= 1 ErrMin= 6.74D-05
 ErrMax= 6.74D-05  0.00D+00 EMaxC= 1.00D-01 BMatC= 1.45D-06 BMatP= 1.45D-06
 IDIUse=1 WtCom= 1.00D+00 WtEn= 0.00D+00
 Coeff-Com:  0.100D+01
 Coeff:      0.100D+01
 Gap=     0.212 Goal=   None    Shift=    0.000
 RMSDP=3.61D-06 MaxDP=1.85D-04 DE= 3.98D-05 OVMax= 2.92D-04

 Cycle  10  Pass 1  IDiag  1:
 RMSU=  3.83D-05    CP:  1.00D+00
 E= -1811.11879120475     Delta-E=       -0.000001070463 Rises=F Damp=F
 DIIS: error= 3.09D-05 at cycle   2 NSaved=   2.
 NSaved= 2 IEnMin= 2 EnMin= -1811.11879120475     IErMin= 2 ErrMin= 3.09D-05
 ErrMax= 3.09D-05  0.00D+00 EMaxC= 1.00D-01 BMatC= 5.33D-07 BMatP= 1.45D-06
 IDIUse=1 WtCom= 1.00D+00 WtEn= 0.00D+00
 Coeff-Com:  0.316D+00 0.684D+00
 Coeff:      0.316D+00 0.684D+00
 Gap=     0.212 Goal=   None    Shift=    0.000
 RMSDP=3.87D-06 MaxDP=1.33D-04 DE=-1.07D-06 OVMax= 3.15D-04

 Cycle  11  Pass 1  IDiag  1:
 RMSU=  3.87D-06    CP:  1.00D+00  1.00D+00
 E= -1811.11879108605     Delta-E=        0.000000118693 Rises=F Damp=F
 DIIS: error= 3.27D-05 at cycle   3 NSaved=   3.
 NSaved= 3 IEnMin= 2 EnMin= -1811.11879120475     IErMin= 2 ErrMin= 3.09D-05
 ErrMax= 3.27D-05  0.00D+00 EMaxC= 1.00D-01 BMatC= 6.85D-07 BMatP= 5.33D-07
 IDIUse=1 WtCom= 1.00D+00 WtEn= 0.00D+00
 Coeff-Com:  0.239D-02 0.531D+00 0.467D+00
 Coeff:      0.239D-02 0.531D+00 0.467D+00
 Gap=     0.212 Goal=   None    Shift=    0.000
 RMSDP=2.12D-06 MaxDP=8.51D-05 DE= 1.19D-07 OVMax= 1.57D-04

 Cycle  12  Pass 1  IDiag  1:
 RMSU=  6.00D-07    CP:  1.00D+00  1.01D+00  4.80D-01
 E= -1811.11879169165     Delta-E=       -0.000000605596 Rises=F Damp=F
 DIIS: error= 4.80D-06 at cycle   4 NSaved=   4.
 NSaved= 4 IEnMin= 4 EnMin= -1811.11879169165     IErMin= 4 ErrMin= 4.80D-06
 ErrMax= 4.80D-06  0.00D+00 EMaxC= 1.00D-01 BMatC= 1.65D-08 BMatP= 5.33D-07
 IDIUse=1 WtCom= 1.00D+00 WtEn= 0.00D+00
 Coeff-Com: -0.728D-02 0.305D+00 0.284D+00 0.418D+00
 Coeff:     -0.728D-02 0.305D+00 0.284D+00 0.418D+00
 Gap=     0.212 Goal=   None    Shift=    0.000
 RMSDP=3.55D-07 MaxDP=1.76D-05 DE=-6.06D-07 OVMax= 1.94D-05

 Cycle  13  Pass 1  IDiag  1:
 RMSU=  1.86D-07    CP:  1.00D+00  1.01D+00  4.82D-01  4.97D-01
 E= -1811.11879170543     Delta-E=       -0.000000013776 Rises=F Damp=F
 DIIS: error= 8.51D-07 at cycle   5 NSaved=   5.
 NSaved= 5 IEnMin= 5 EnMin= -1811.11879170543     IErMin= 5 ErrMin= 8.51D-07
 ErrMax= 8.51D-07  0.00D+00 EMaxC= 1.00D-01 BMatC= 5.14D-10 BMatP= 1.65D-08
 IDIUse=1 WtCom= 1.00D+00 WtEn= 0.00D+00
 Coeff-Com: -0.386D-02 0.130D+00 0.123D+00 0.221D+00 0.529D+00
 Coeff:     -0.386D-02 0.130D+00 0.123D+00 0.221D+00 0.529D+00
 Gap=     0.212 Goal=   None    Shift=    0.000
 RMSDP=7.37D-08 MaxDP=5.05D-06 DE=-1.38D-08 OVMax= 5.58D-06

 Cycle  14  Pass 1  IDiag  1:
 RMSU=  6.33D-08    CP:  1.00D+00  1.01D+00  4.85D-01  5.18D-01  8.20D-01
 E= -1811.11879170592     Delta-E=       -0.000000000494 Rises=F Damp=F
 DIIS: error= 2.82D-07 at cycle   6 NSaved=   6.
 NSaved= 6 IEnMin= 6 EnMin= -1811.11879170592     IErMin= 6 ErrMin= 2.82D-07
 ErrMax= 2.82D-07  0.00D+00 EMaxC= 1.00D-01 BMatC= 6.42D-11 BMatP= 5.14D-10
 IDIUse=1 WtCom= 1.00D+00 WtEn= 0.00D+00
 Coeff-Com: -0.111D-02 0.292D-01 0.284D-01 0.646D-01 0.292D+00 0.587D+00
 Coeff:     -0.111D-02 0.292D-01 0.284D-01 0.646D-01 0.292D+00 0.587D+00
 Gap=     0.212 Goal=   None    Shift=    0.000
 RMSDP=2.79D-08 MaxDP=1.19D-06 DE=-4.94D-10 OVMax= 2.26D-06

 Cycle  15  Pass 1  IDiag  1:
 RMSU=  1.95D-08    CP:  1.00D+00  1.01D+00  4.85D-01  5.24D-01  8.53D-01
                    CP:  7.07D-01
 E= -1811.11879170595     Delta-E=       -0.000000000035 Rises=F Damp=F
 DIIS: error= 1.53D-07 at cycle   7 NSaved=   7.
 NSaved= 7 IEnMin= 7 EnMin= -1811.11879170595     IErMin= 7 ErrMin= 1.53D-07
 ErrMax= 1.53D-07  0.00D+00 EMaxC= 1.00D-01 BMatC= 1.41D-11 BMatP= 6.42D-11
 IDIUse=1 WtCom= 1.00D+00 WtEn= 0.00D+00
 Coeff-Com: -0.204D-03 0.163D-02 0.202D-02 0.128D-01 0.118D+00 0.376D+00
 Coeff-Com:  0.489D+00
 Coeff:     -0.204D-03 0.163D-02 0.202D-02 0.128D-01 0.118D+00 0.376D+00
 Coeff:      0.489D+00
 Gap=     0.212 Goal=   None    Shift=    0.000
 RMSDP=1.14D-08 MaxDP=5.55D-07 DE=-3.46D-11 OVMax= 6.89D-07

 Cycle  16  Pass 1  IDiag  1:
 RMSU=  6.97D-09    CP:  1.00D+00  1.01D+00  4.85D-01  5.26D-01  8.60D-01
                    CP:  7.51D-01  5.80D-01
 E= -1811.11879170592     Delta-E=        0.000000000033 Rises=F Damp=F
 DIIS: error= 4.72D-08 at cycle   8 NSaved=   8.
 NSaved= 8 IEnMin= 7 EnMin= -1811.11879170595     IErMin= 8 ErrMin= 4.72D-08
 ErrMax= 4.72D-08  0.00D+00 EMaxC= 1.00D-01 BMatC= 1.38D-12 BMatP= 1.41D-11
 IDIUse=1 WtCom= 1.00D+00 WtEn= 0.00D+00
 Coeff-Com:  0.486D-05-0.241D-02-0.211D-02 0.230D-03 0.363D-01 0.158D+00
 Coeff-Com:  0.294D+00 0.516D+00
 Coeff:      0.486D-05-0.241D-02-0.211D-02 0.230D-03 0.363D-01 0.158D+00
 Coeff:      0.294D+00 0.516D+00
 Gap=     0.212 Goal=   None    Shift=    0.000
 RMSDP=3.61D-09 MaxDP=2.04D-07 DE= 3.27D-11 OVMax= 2.22D-07

 SCF Done:  E(RB3LYP) =  -1811.11879171     A.U. after   16 cycles
            NFock= 16  Conv=0.36D-08     -V/T= 2.0069
 KE= 1.798655864437D+03 PE=-9.357542715492D+03 EE= 3.193751600709D+03
 Leave Link  502 at Sat Aug  8 00:03:18 2020, MaxMem=    33554432 cpu:       592.4
 (Enter /prod/apps/gaussian/g09d1/l601.exe)
 Copying SCF densities to generalized density rwf, IOpCl= 0 IROHF=0.

 **********************************************************************

            Population analysis using the SCF density.

 **********************************************************************

 Orbital symmetries:
       Occupied  (A) (A) (A) (A) (A) (A) (A) (A) (A) (A) (A) (A)
                 (A) (A) (A) (A) (A) (A) (A) (A) (A) (A) (A) (A)
                 (A) (A) (A) (A) (A) (A) (A) (A) (A) (A) (A) (A)
                 (A) (A) (A) (A) (A) (A) (A) (A) (A) (A) (A) (A)
                 (A) (A) (A) (A) (A) (A) (A) (A) (A) (A) (A) (A)
                 (A) (A) (A) (A) (A) (A) (A) (A) (A) (A) (A) (A)
                 (A) (A) (A) (A) (A) (A) (A) (A) (A) (A) (A) (A)
                 (A) (A) (A) (A) (A) (A) (A) (A) (A) (A) (A) (A)
       Virtual   (A) (A) (A) (A) (A) (A) (A) (A) (A) (A) (A) (A)
                 (A) (A) (A) (A) (A) (A) (A) (A) (A) (A) (A) (A)
                 (A) (A) (A) (A) (A) (A) (A) (A) (A) (A) (A) (A)
                 (A) (A) (A) (A) (A) (A) (A) (A) (A) (A) (A) (A)
                 (A) (A) (A) (A) (A) (A) (A) (A) (A) (A) (A) (A)
                 (A) (A) (A) (A) (A) (A) (A) (A) (A) (A) (A) (A)
                 (A) (A) (A) (A) (A) (A) (A) (A) (A) (A) (A) (A)
                 (A) (A) (A) (A) (A) (A) (A) (A) (A) (A) (A) (A)
                 (A) (A) (A) (A) (A) (A) (A) (A) (A) (A) (A) (A)
                 (A) (A) (A) (A) (A) (A) (A) (A) (A) (A) (A) (A)
                 (A) (A) (A) (A) (A) (A) (A) (A) (A) (A) (A) (A)
                 (A) (A) (A) (A) (A) (A) (A) (A) (A) (A) (A) (A)
                 (A) (A) (A) (A) (A) (A) (A) (A) (A) (A) (A) (A)
                 (A) (A) (A) (A) (A) (A) (A) (A) (A) (A) (A) (A)
                 (A) (A) (A) (A) (A) (A) (A) (A) (A) (A) (A) (A)
                 (A) (A) (A) (A) (A) (A) (A) (A) (A) (A) (A) (A)
                 (A) (A) (A) (A) (A) (A) (A) (A) (A) (A) (A) (A)
                 (A) (A) (A) (A) (A) (A) (A) (A) (A) (A) (A) (A)
                 (A) (A) (A) (A) (A) (A) (A) (A) (A) (A) (A) (A)
                 (A) (A) (A) (A) (A) (A) (A) (A) (A) (A) (A) (A)
                 (A) (A) (A) (A) (A) (A) (A) (A) (A) (A) (A) (A)
                 (A) (A) (A) (A) (A) (A) (A) (A) (A) (A) (A) (A)
                 (A) (A) (A) (A) (A) (A) (A) (A) (A) (A) (A) (A)
                 (A) (A) (A) (A) (A) (A) (A) (A) (A) (A) (A) (A)
                 (A) (A) (A) (A) (A) (A) (A) (A) (A) (A) (A) (A)
                 (A) (A) (A) (A) (A) (A) (A) (A) (A) (A)
 The electronic state is 1-A.
 Alpha  occ. eigenvalues --  -89.12184 -89.08776 -19.14951 -19.14479 -19.13993
 Alpha  occ. eigenvalues --  -19.13923 -14.38110 -10.28420 -10.24087 -10.23234
 Alpha  occ. eigenvalues --  -10.22672 -10.22451 -10.22194 -10.22166 -10.22101
 Alpha  occ. eigenvalues --  -10.21918 -10.21914 -10.21878 -10.21727 -10.21100
 Alpha  occ. eigenvalues --  -10.21042 -10.20939 -10.20880 -10.20784  -8.14638
 Alpha  occ. eigenvalues --   -8.11823  -6.11151  -6.11051  -6.10952  -6.08238
 Alpha  occ. eigenvalues --   -6.08182  -6.08113  -1.11589  -1.09197  -1.00398
 Alpha  occ. eigenvalues --   -0.98753  -0.95162  -0.88752  -0.87663  -0.85994
 Alpha  occ. eigenvalues --   -0.81128  -0.78984  -0.77697  -0.76395  -0.75616
 Alpha  occ. eigenvalues --   -0.72734  -0.70091  -0.67164  -0.63867  -0.63414
 Alpha  occ. eigenvalues --   -0.62423  -0.61017  -0.59852  -0.57728  -0.56638
 Alpha  occ. eigenvalues --   -0.53471  -0.53256  -0.52394  -0.50299  -0.49482
 Alpha  occ. eigenvalues --   -0.48671  -0.48246  -0.47751  -0.47378  -0.46932
 Alpha  occ. eigenvalues --   -0.46120  -0.45232  -0.45197  -0.45139  -0.44306
 Alpha  occ. eigenvalues --   -0.43841  -0.43091  -0.42413  -0.41158  -0.40129
 Alpha  occ. eigenvalues --   -0.39988  -0.39333  -0.38962  -0.37633  -0.37541
 Alpha  occ. eigenvalues --   -0.36732  -0.35702  -0.35508  -0.33819  -0.32219
 Alpha  occ. eigenvalues --   -0.31858  -0.31376  -0.30806  -0.30710  -0.30553
 Alpha  occ. eigenvalues --   -0.29125  -0.28254  -0.28046  -0.27142  -0.26847
 Alpha  occ. eigenvalues --   -0.26196
 Alpha virt. eigenvalues --   -0.05026  -0.03253  -0.02560  -0.02035   0.03323
 Alpha virt. eigenvalues --    0.04620   0.05281   0.05963   0.06461   0.07073
 Alpha virt. eigenvalues --    0.07627   0.08420   0.08978   0.09478   0.10004
 Alpha virt. eigenvalues --    0.10578   0.11277   0.12106   0.12508   0.12992
 Alpha virt. eigenvalues --    0.13628   0.13862   0.14490   0.14928   0.15436
 Alpha virt. eigenvalues --    0.16152   0.16799   0.17283   0.18128   0.18627
 Alpha virt. eigenvalues --    0.19073   0.19494   0.19813   0.20282   0.22156
 Alpha virt. eigenvalues --    0.23145   0.25042   0.25701   0.26930   0.27720
 Alpha virt. eigenvalues --    0.28158   0.28865   0.29753   0.30332   0.30949
 Alpha virt. eigenvalues --    0.32415   0.34046   0.35190   0.35283   0.36324
 Alpha virt. eigenvalues --    0.36565   0.40332   0.42003   0.43039   0.44890
 Alpha virt. eigenvalues --    0.46381   0.47437   0.47981   0.48374   0.50532
 Alpha virt. eigenvalues --    0.50928   0.51904   0.52084   0.52599   0.53073
 Alpha virt. eigenvalues --    0.53904   0.54591   0.54825   0.56066   0.56523
 Alpha virt. eigenvalues --    0.56848   0.57121   0.57612   0.57868   0.58196
 Alpha virt. eigenvalues --    0.58530   0.58878   0.59244   0.59520   0.59989
 Alpha virt. eigenvalues --    0.60167   0.60974   0.61190   0.61660   0.62210
 Alpha virt. eigenvalues --    0.63970   0.65264   0.66490   0.67364   0.68498
 Alpha virt. eigenvalues --    0.70063   0.71789   0.72479   0.73597   0.74397
 Alpha virt. eigenvalues --    0.75613   0.76560   0.77149   0.78822   0.79726
 Alpha virt. eigenvalues --    0.79966   0.80608   0.81147   0.81910   0.82142
 Alpha virt. eigenvalues --    0.82639   0.82928   0.83261   0.84012   0.84097
 Alpha virt. eigenvalues --    0.85129   0.85360   0.86329   0.87549   0.87864
 Alpha virt. eigenvalues --    0.88522   0.89484   0.89677   0.90329   0.90469
 Alpha virt. eigenvalues --    0.90778   0.91958   0.93021   0.93341   0.94036
 Alpha virt. eigenvalues --    0.94721   0.95766   0.97140   0.97623   0.98392
 Alpha virt. eigenvalues --    0.99171   0.99661   1.01359   1.02629   1.03241
 Alpha virt. eigenvalues --    1.04734   1.05245   1.06789   1.07649   1.08001
 Alpha virt. eigenvalues --    1.08412   1.09035   1.10685   1.11819   1.12792
 Alpha virt. eigenvalues --    1.14276   1.14795   1.15044   1.16435   1.16989
 Alpha virt. eigenvalues --    1.17050   1.17947   1.19125   1.20967   1.21744
 Alpha virt. eigenvalues --    1.22913   1.23495   1.24206   1.25568   1.26905
 Alpha virt. eigenvalues --    1.28987   1.30279   1.33155   1.34879   1.36106
 Alpha virt. eigenvalues --    1.40243   1.40755   1.41737   1.42220   1.43603
 Alpha virt. eigenvalues --    1.44372   1.44705   1.45662   1.46343   1.46370
 Alpha virt. eigenvalues --    1.47634   1.47762   1.48185   1.49226   1.49869
 Alpha virt. eigenvalues --    1.51572   1.56223   1.60213   1.61712   1.65577
 Alpha virt. eigenvalues --    1.67196   1.70474   1.72838   1.73178   1.74801
 Alpha virt. eigenvalues --    1.75393   1.77045   1.77331   1.78028   1.79943
 Alpha virt. eigenvalues --    1.80279   1.81006   1.81480   1.81937   1.82407
 Alpha virt. eigenvalues --    1.83548   1.83700   1.84050   1.85279   1.86733
 Alpha virt. eigenvalues --    1.86844   1.87684   1.88893   1.89666   1.90049
 Alpha virt. eigenvalues --    1.90806   1.91928   1.93470   1.94842   1.95713
 Alpha virt. eigenvalues --    1.96854   1.97607   1.98112   2.00765   2.02920
 Alpha virt. eigenvalues --    2.03326   2.03534   2.04553   2.06516   2.08015
 Alpha virt. eigenvalues --    2.08967   2.09271   2.09604   2.11161   2.11860
 Alpha virt. eigenvalues --    2.12516   2.12956   2.13391   2.13731   2.14496
 Alpha virt. eigenvalues --    2.14834   2.15661   2.17290   2.18106   2.20639
 Alpha virt. eigenvalues --    2.22369   2.23149   2.25349   2.26780   2.27205
 Alpha virt. eigenvalues --    2.27388   2.28664   2.29548   2.29776   2.31807
 Alpha virt. eigenvalues --    2.33300   2.34682   2.36902   2.38199   2.42675
 Alpha virt. eigenvalues --    2.43533   2.49325   2.52128   2.55796   2.56573
 Alpha virt. eigenvalues --    2.57042   2.58574   2.61920   2.62378   2.64178
 Alpha virt. eigenvalues --    2.66797   2.68893   2.69031   2.70495   2.71950
 Alpha virt. eigenvalues --    2.72127   2.72762   2.73311   2.74018   2.74604
 Alpha virt. eigenvalues --    2.75661   2.76863   2.77743   2.82527   2.83183
 Alpha virt. eigenvalues --    2.87186   2.91582   3.01252   3.03689   3.35730
 Alpha virt. eigenvalues --    3.38797   3.75176   3.81191   3.94901   3.96962
 Alpha virt. eigenvalues --    4.01611   4.04359   4.06616   4.08131   4.09142
 Alpha virt. eigenvalues --    4.11205   4.11296   4.17066   4.17951   4.24390
 Alpha virt. eigenvalues --    4.26105   4.31292   4.32246   4.32621   4.36273
 Alpha virt. eigenvalues --    4.44590   4.51833   4.63996   4.68657   4.75240
          Condensed to atoms (all electrons):
               1          2          3          4          5          6
     1  O    8.229654   0.448730  -0.058430   0.002379  -0.000082   0.000010
     2  S    0.448730  13.727564   0.125201  -0.000807  -0.004590   0.001644
     3  N   -0.058430   0.125201   7.400851   0.235123  -0.047145   0.000411
     4  C    0.002379  -0.000807   0.235123   4.831685   0.351249  -0.095339
     5  C   -0.000082  -0.004590  -0.047145   0.351249   5.732217   0.141887
     6  S    0.000010   0.001644   0.000411  -0.095339   0.141887  13.883258
     7  C   -0.000071  -0.009669  -0.046583   0.345938  -0.201415   0.125689
     8  O    0.000000  -0.000016  -0.000099   0.001560  -0.044906   0.434829
     9  O    0.000000  -0.000005  -0.000038  -0.000124  -0.045796   0.409612
    10  C   -0.000076   0.000181  -0.044715   0.363098  -0.046152   0.004187
    11  C    0.000002   0.000062  -0.002668  -0.032226   0.004235  -0.000372
    12  C   -0.000027  -0.000224  -0.005868  -0.004375  -0.000026  -0.000020
    13  C   -0.000015   0.000019  -0.002414   0.001113  -0.000006   0.000002
    14  C    0.000003   0.000036  -0.000146  -0.000003   0.000000   0.000000
    15  C   -0.000003   0.000032   0.000092   0.000001   0.000000   0.000000
    16  C    0.000000   0.000024  -0.000027  -0.000024   0.000000   0.000000
    17  C    0.000006  -0.000047  -0.001097  -0.000912  -0.000021   0.000002
    18  C   -0.060958   0.159588  -0.057128  -0.002846  -0.000762  -0.000238
    19  C    0.002483  -0.018986  -0.001400  -0.000007  -0.000004   0.000044
    20  C    0.000307   0.002648  -0.000051  -0.000009   0.000000  -0.000003
    21  C   -0.000005  -0.000398   0.000001   0.000004   0.000000   0.000002
    22  C   -0.000050   0.003009  -0.000100   0.000040  -0.000002   0.000004
    23  C    0.000445  -0.027835  -0.000322   0.000234  -0.000016  -0.000134
    24  O   -0.042447   0.406488  -0.051749   0.001666  -0.010264   0.002217
    25  H    0.002542  -0.001195   0.273416  -0.029636   0.004075  -0.000197
    26  H    0.000001   0.000321   0.001571  -0.030242   0.343194  -0.011910
    27  H   -0.000055   0.000419  -0.003380  -0.020494   0.324643  -0.002471
    28  H    0.000000   0.000179   0.002154  -0.024854   0.009925  -0.009883
    29  H   -0.000011   0.001344  -0.006013  -0.022649   0.003349  -0.003318
    30  H   -0.000005  -0.000127  -0.001079  -0.034120  -0.006007   0.000008
    31  H    0.000000   0.000027   0.004251  -0.034311  -0.006798   0.009149
    32  H    0.000000   0.000009  -0.000057   0.004700  -0.000134   0.000004
    33  H    0.000000  -0.000015  -0.000198  -0.007630   0.000110   0.000164
    34  H    0.000000   0.000014   0.000037  -0.000054   0.000001   0.000003
    35  H    0.000000  -0.000006  -0.000003   0.000000   0.000000   0.000000
    36  H    0.000000   0.000000   0.000000   0.000000   0.000000   0.000000
    37  H    0.000000   0.000000  -0.000002   0.000000   0.000000   0.000000
    38  H    0.000000   0.000000  -0.000024   0.000157   0.000000   0.000000
    39  H    0.004200  -0.000188   0.000084   0.000062   0.000000   0.000001
    40  H    0.000001  -0.000039   0.000002   0.000000   0.000000   0.000000
    41  H    0.000000   0.000006   0.000000   0.000000   0.000000   0.000000
    42  H    0.000000  -0.000050   0.000001   0.000000   0.000000  -0.000002
    43  H    0.000057  -0.005468   0.000209   0.000044  -0.000077   0.001010
               7          8          9         10         11         12
     1  O   -0.000071   0.000000   0.000000  -0.000076   0.000002  -0.000027
     2  S   -0.009669  -0.000016  -0.000005   0.000181   0.000062  -0.000224
     3  N   -0.046583  -0.000099  -0.000038  -0.044715  -0.002668  -0.005868
     4  C    0.345938   0.001560  -0.000124   0.363098  -0.032226  -0.004375
     5  C   -0.201415  -0.044906  -0.045796  -0.046152   0.004235  -0.000026
     6  S    0.125689   0.434829   0.409612   0.004187  -0.000372  -0.000020
     7  C    5.784580  -0.044997  -0.044864  -0.055163  -0.009269  -0.000240
     8  O   -0.044997   8.209048  -0.046375  -0.000057   0.000000   0.000000
     9  O   -0.044864  -0.046375   8.253899  -0.002732   0.000005  -0.000001
    10  C   -0.055163  -0.000057  -0.002732   5.172339   0.332251  -0.033437
    11  C   -0.009269   0.000000   0.000005   0.332251   5.183070   0.349156
    12  C   -0.000240   0.000000  -0.000001  -0.033437   0.349156   4.710973
    13  C    0.000056   0.000000   0.000000  -0.000033  -0.051239   0.538046
    14  C    0.000002   0.000000   0.000000  -0.000171   0.006982  -0.023024
    15  C    0.000000   0.000000   0.000000   0.000006   0.000332  -0.035369
    16  C    0.000000   0.000000   0.000000   0.000157   0.005921  -0.017449
    17  C    0.000008   0.000000   0.000000  -0.003790  -0.066502   0.534543
    18  C   -0.000749  -0.000026   0.000000  -0.000174  -0.000002  -0.000008
    19  C    0.000520   0.000000   0.000000  -0.000021  -0.000001  -0.000064
    20  C    0.000147   0.000000   0.000000   0.000000   0.000000  -0.000001
    21  C    0.000039   0.000000   0.000000   0.000000   0.000000   0.000000
    22  C   -0.000581  -0.000003   0.000000   0.000000   0.000000   0.000000
    23  C   -0.005781  -0.000290   0.000000  -0.000001   0.000000   0.000000
    24  O   -0.001651  -0.000116   0.000000   0.000049  -0.000001   0.000000
    25  H    0.001222   0.000002   0.000001  -0.011386  -0.001089   0.023499
    26  H    0.010069   0.000779  -0.000240  -0.005299   0.000233  -0.000002
    27  H    0.004058   0.000090   0.001005   0.003141  -0.000096  -0.000001
    28  H    0.339423   0.000713   0.000140  -0.008016   0.001081   0.000169
    29  H    0.321007   0.000507   0.001155   0.003812  -0.000016  -0.000010
    30  H    0.005722   0.000001   0.000070   0.363043  -0.039305  -0.007082
    31  H   -0.004070   0.000027   0.007235   0.359700  -0.027426   0.003754
    32  H    0.000115   0.000000  -0.000003  -0.034629   0.364945  -0.030783
    33  H    0.003308   0.000001   0.000006  -0.039430   0.360090  -0.037199
    34  H    0.000111   0.000000   0.000000   0.000173  -0.011180  -0.044368
    35  H    0.000000   0.000000   0.000000   0.000002  -0.000175   0.003835
    36  H    0.000000   0.000000   0.000000   0.000000   0.000007   0.000707
    37  H    0.000000   0.000000   0.000000   0.000001  -0.000175   0.003616
    38  H    0.000000   0.000000   0.000000   0.000863  -0.008318  -0.048820
    39  H   -0.000021   0.000000   0.000000  -0.000008   0.000012  -0.000125
    40  H    0.000000   0.000000   0.000000   0.000000   0.000000   0.000000
    41  H    0.000000   0.000000   0.000000   0.000000   0.000000   0.000000
    42  H   -0.000008  -0.000001   0.000000   0.000000   0.000000   0.000000
    43  H   -0.000507   0.001056   0.000001   0.000001   0.000000   0.000000
              13         14         15         16         17         18
     1  O   -0.000015   0.000003  -0.000003   0.000000   0.000006  -0.060958
     2  S    0.000019   0.000036   0.000032   0.000024  -0.000047   0.159588
     3  N   -0.002414  -0.000146   0.000092  -0.000027  -0.001097  -0.057128
     4  C    0.001113  -0.000003   0.000001  -0.000024  -0.000912  -0.002846
     5  C   -0.000006   0.000000   0.000000   0.000000  -0.000021  -0.000762
     6  S    0.000002   0.000000   0.000000   0.000000   0.000002  -0.000238
     7  C    0.000056   0.000002   0.000000   0.000000   0.000008  -0.000749
     8  O    0.000000   0.000000   0.000000   0.000000   0.000000  -0.000026
     9  O    0.000000   0.000000   0.000000   0.000000   0.000000   0.000000
    10  C   -0.000033  -0.000171   0.000006   0.000157  -0.003790  -0.000174
    11  C   -0.051239   0.006982   0.000332   0.005921  -0.066502  -0.000002
    12  C    0.538046  -0.023024  -0.035369  -0.017449   0.534543  -0.000008
    13  C    4.993161   0.513423  -0.035102  -0.045491  -0.046386  -0.000067
    14  C    0.513423   4.870329   0.551478  -0.025794  -0.045956  -0.000009
    15  C   -0.035102   0.551478   4.845821   0.545636  -0.034539   0.000000
    16  C   -0.045491  -0.025794   0.545636   4.848807   0.529249   0.000000
    17  C   -0.046386  -0.045956  -0.034539   0.529249   4.967268   0.000000
    18  C   -0.000067  -0.000009   0.000000   0.000000   0.000000   5.376295
    19  C   -0.001102  -0.001043  -0.000028   0.000001   0.000016   0.467316
    20  C   -0.000111  -0.000002   0.000000   0.000000   0.000000  -0.025732
    21  C    0.000001   0.000000   0.000000   0.000000   0.000000  -0.038908
    22  C    0.000000   0.000000   0.000000   0.000000   0.000000  -0.031610
    23  C    0.000003   0.000000   0.000000   0.000000   0.000000   0.505618
    24  O    0.000000   0.000000   0.000000   0.000000   0.000000  -0.058419
    25  H    0.009005  -0.000173  -0.000394  -0.000532   0.003363  -0.001352
    26  H    0.000000   0.000000   0.000000   0.000000  -0.000003   0.000001
    27  H    0.000000   0.000000   0.000000   0.000000   0.000001   0.000087
    28  H   -0.000039  -0.000001   0.000000   0.000000   0.000001   0.000037
    29  H   -0.000003   0.000000   0.000000   0.000000   0.000000   0.005186
    30  H    0.000178   0.000004  -0.000001  -0.000084   0.003670   0.000007
    31  H   -0.000110   0.000002   0.000000   0.000002   0.000159   0.000003
    32  H    0.001437  -0.000225   0.000035  -0.000006  -0.004980   0.000000
    33  H   -0.004459   0.000246  -0.000001  -0.000166   0.004844  -0.000005
    34  H    0.353841  -0.045673   0.004799   0.000280   0.006412   0.000024
    35  H   -0.040743   0.357998  -0.041438   0.004557   0.000764   0.000004
    36  H    0.004642  -0.042429   0.360847  -0.041273   0.004648   0.000000
    37  H    0.000814   0.004551  -0.041449   0.359313  -0.039187   0.000000
    38  H    0.005939   0.000346   0.004740  -0.041752   0.357239   0.000000
    39  H    0.003166   0.003301   0.000125  -0.000022  -0.000051  -0.049755
    40  H   -0.000004  -0.000006   0.000000   0.000000   0.000000   0.005007
    41  H    0.000000   0.000000   0.000000   0.000000   0.000000   0.000435
    42  H    0.000000   0.000000   0.000000   0.000000   0.000000   0.004746
    43  H    0.000000   0.000000   0.000000   0.000000   0.000000  -0.042206
              19         20         21         22         23         24
     1  O    0.002483   0.000307  -0.000005  -0.000050   0.000445  -0.042447
     2  S   -0.018986   0.002648  -0.000398   0.003009  -0.027835   0.406488
     3  N   -0.001400  -0.000051   0.000001  -0.000100  -0.000322  -0.051749
     4  C   -0.000007  -0.000009   0.000004   0.000040   0.000234   0.001666
     5  C   -0.000004   0.000000   0.000000  -0.000002  -0.000016  -0.010264
     6  S    0.000044  -0.000003   0.000002   0.000004  -0.000134   0.002217
     7  C    0.000520   0.000147   0.000039  -0.000581  -0.005781  -0.001651
     8  O    0.000000   0.000000   0.000000  -0.000003  -0.000290  -0.000116
     9  O    0.000000   0.000000   0.000000   0.000000   0.000000   0.000000
    10  C   -0.000021   0.000000   0.000000   0.000000  -0.000001   0.000049
    11  C   -0.000001   0.000000   0.000000   0.000000   0.000000  -0.000001
    12  C   -0.000064  -0.000001   0.000000   0.000000   0.000000   0.000000
    13  C   -0.001102  -0.000111   0.000001   0.000000   0.000003   0.000000
    14  C   -0.001043  -0.000002   0.000000   0.000000   0.000000   0.000000
    15  C   -0.000028   0.000000   0.000000   0.000000   0.000000   0.000000
    16  C    0.000001   0.000000   0.000000   0.000000   0.000000   0.000000
    17  C    0.000016   0.000000   0.000000   0.000000   0.000000   0.000000
    18  C    0.467316  -0.025732  -0.038908  -0.031610   0.505618  -0.058419
    19  C    4.956711   0.515489  -0.029567  -0.037081  -0.038057   0.001910
    20  C    0.515489   4.875513   0.541744  -0.028695  -0.038835  -0.000041
    21  C   -0.029567   0.541744   4.844947   0.543156  -0.029677  -0.000007
    22  C   -0.037081  -0.028695   0.543156   4.887831   0.495023   0.000658
    23  C   -0.038057  -0.038835  -0.029677   0.495023   4.954777   0.002652
    24  O    0.001910  -0.000041  -0.000007   0.000658   0.002652   8.266689
    25  H    0.000657   0.000035   0.000000  -0.000003   0.000008   0.001408
    26  H    0.000000   0.000000   0.000000   0.000000   0.000000   0.000247
    27  H   -0.000006   0.000000   0.000000   0.000000  -0.000025   0.017567
    28  H   -0.000010  -0.000005   0.000000   0.000002   0.000033   0.000008
    29  H   -0.000934  -0.000320  -0.000038   0.001066   0.010446   0.000088
    30  H    0.000000   0.000000   0.000000   0.000000   0.000000  -0.000005
    31  H    0.000000   0.000000   0.000000   0.000000   0.000000   0.000001
    32  H    0.000000   0.000000   0.000000   0.000000   0.000000   0.000000
    33  H   -0.000001  -0.000001   0.000000   0.000000   0.000000   0.000000
    34  H    0.001079   0.000277   0.000001  -0.000001  -0.000004   0.000000
    35  H   -0.000042  -0.000004   0.000000   0.000000   0.000000   0.000000
    36  H    0.000000   0.000000   0.000000   0.000000   0.000000   0.000000
    37  H    0.000000   0.000000   0.000000   0.000000   0.000000   0.000000
    38  H    0.000000   0.000000   0.000000   0.000000   0.000000   0.000000
    39  H    0.355941  -0.036434   0.004278   0.000308   0.004489   0.000065
    40  H   -0.042828   0.363002  -0.041503   0.004474   0.000615   0.000000
    41  H    0.005054  -0.042748   0.362682  -0.041935   0.004889   0.000000
    42  H    0.000646   0.004398  -0.041951   0.364766  -0.040938   0.000003
    43  H    0.004719   0.000233   0.004042  -0.034911   0.360095   0.010970
              25         26         27         28         29         30
     1  O    0.002542   0.000001  -0.000055   0.000000  -0.000011  -0.000005
     2  S   -0.001195   0.000321   0.000419   0.000179   0.001344  -0.000127
     3  N    0.273416   0.001571  -0.003380   0.002154  -0.006013  -0.001079
     4  C   -0.029636  -0.030242  -0.020494  -0.024854  -0.022649  -0.034120
     5  C    0.004075   0.343194   0.324643   0.009925   0.003349  -0.006007
     6  S   -0.000197  -0.011910  -0.002471  -0.009883  -0.003318   0.000008
     7  C    0.001222   0.010069   0.004058   0.339423   0.321007   0.005722
     8  O    0.000002   0.000779   0.000090   0.000713   0.000507   0.000001
     9  O    0.000001  -0.000240   0.001005   0.000140   0.001155   0.000070
    10  C   -0.011386  -0.005299   0.003141  -0.008016   0.003812   0.363043
    11  C   -0.001089   0.000233  -0.000096   0.001081  -0.000016  -0.039305
    12  C    0.023499  -0.000002  -0.000001   0.000169  -0.000010  -0.007082
    13  C    0.009005   0.000000   0.000000  -0.000039  -0.000003   0.000178
    14  C   -0.000173   0.000000   0.000000  -0.000001   0.000000   0.000004
    15  C   -0.000394   0.000000   0.000000   0.000000   0.000000  -0.000001
    16  C   -0.000532   0.000000   0.000000   0.000000   0.000000  -0.000084
    17  C    0.003363  -0.000003   0.000001   0.000001   0.000000   0.003670
    18  C   -0.001352   0.000001   0.000087   0.000037   0.005186   0.000007
    19  C    0.000657   0.000000  -0.000006  -0.000010  -0.000934   0.000000
    20  C    0.000035   0.000000   0.000000  -0.000005  -0.000320   0.000000
    21  C    0.000000   0.000000   0.000000   0.000000  -0.000038   0.000000
    22  C   -0.000003   0.000000   0.000000   0.000002   0.001066   0.000000
    23  C    0.000008   0.000000  -0.000025   0.000033   0.010446   0.000000
    24  O    0.001408   0.000247   0.017567   0.000008   0.000088  -0.000005
    25  H    0.348100  -0.000035   0.000064   0.000126  -0.000023   0.000054
    26  H   -0.000035   0.498427  -0.015762  -0.000280  -0.000252   0.003458
    27  H    0.000064  -0.015762   0.428990  -0.000239   0.000014   0.000040
    28  H    0.000126  -0.000280  -0.000239   0.496033  -0.020081   0.000152
    29  H   -0.000023  -0.000252   0.000014  -0.020081   0.488516  -0.000111
    30  H    0.000054   0.003458   0.000040   0.000152  -0.000111   0.561234
    31  H    0.000291  -0.000068   0.000226  -0.000388   0.000129  -0.026761
    32  H    0.000197  -0.000019   0.000001  -0.000231   0.000002  -0.001078
    33  H    0.000015   0.000012  -0.000001   0.007153  -0.000247   0.004940
    34  H    0.000006   0.000000   0.000000   0.000036  -0.000004   0.000008
    35  H    0.000011   0.000000   0.000000   0.000000   0.000000   0.000000
    36  H   -0.000001   0.000000   0.000000   0.000000   0.000000   0.000000
    37  H    0.000003   0.000000   0.000000   0.000000   0.000000   0.000005
    38  H    0.000071   0.000000   0.000000   0.000000   0.000000   0.003658
    39  H    0.000688   0.000000   0.000000   0.000000   0.000006   0.000000
    40  H    0.000000   0.000000   0.000000   0.000000   0.000001   0.000000
    41  H    0.000000   0.000000   0.000000   0.000000  -0.000001   0.000000
    42  H    0.000000   0.000000   0.000000   0.000000   0.000038   0.000000
    43  H   -0.000010   0.000000   0.000024   0.000011  -0.000089   0.000000
              31         32         33         34         35         36
     1  O    0.000000   0.000000   0.000000   0.000000   0.000000   0.000000
     2  S    0.000027   0.000009  -0.000015   0.000014  -0.000006   0.000000
     3  N    0.004251  -0.000057  -0.000198   0.000037  -0.000003   0.000000
     4  C   -0.034311   0.004700  -0.007630  -0.000054   0.000000   0.000000
     5  C   -0.006798  -0.000134   0.000110   0.000001   0.000000   0.000000
     6  S    0.009149   0.000004   0.000164   0.000003   0.000000   0.000000
     7  C   -0.004070   0.000115   0.003308   0.000111   0.000000   0.000000
     8  O    0.000027   0.000000   0.000001   0.000000   0.000000   0.000000
     9  O    0.007235  -0.000003   0.000006   0.000000   0.000000   0.000000
    10  C    0.359700  -0.034629  -0.039430   0.000173   0.000002   0.000000
    11  C   -0.027426   0.364945   0.360090  -0.011180  -0.000175   0.000007
    12  C    0.003754  -0.030783  -0.037199  -0.044368   0.003835   0.000707
    13  C   -0.000110   0.001437  -0.004459   0.353841  -0.040743   0.004642
    14  C    0.000002  -0.000225   0.000246  -0.045673   0.357998  -0.042429
    15  C    0.000000   0.000035  -0.000001   0.004799  -0.041438   0.360847
    16  C    0.000002  -0.000006  -0.000166   0.000280   0.004557  -0.041273
    17  C    0.000159  -0.004980   0.004844   0.006412   0.000764   0.004648
    18  C    0.000003   0.000000  -0.000005   0.000024   0.000004   0.000000
    19  C    0.000000   0.000000  -0.000001   0.001079  -0.000042   0.000000
    20  C    0.000000   0.000000  -0.000001   0.000277  -0.000004   0.000000
    21  C    0.000000   0.000000   0.000000   0.000001   0.000000   0.000000
    22  C    0.000000   0.000000   0.000000  -0.000001   0.000000   0.000000
    23  C    0.000000   0.000000   0.000000  -0.000004   0.000000   0.000000
    24  O    0.000001   0.000000   0.000000   0.000000   0.000000   0.000000
    25  H    0.000291   0.000197   0.000015   0.000006   0.000011  -0.000001
    26  H   -0.000068  -0.000019   0.000012   0.000000   0.000000   0.000000
    27  H    0.000226   0.000001  -0.000001   0.000000   0.000000   0.000000
    28  H   -0.000388  -0.000231   0.007153   0.000036   0.000000   0.000000
    29  H    0.000129   0.000002  -0.000247  -0.000004   0.000000   0.000000
    30  H   -0.026761  -0.001078   0.004940   0.000008   0.000000   0.000000
    31  H    0.537597  -0.005973  -0.001239  -0.000010   0.000000   0.000000
    32  H   -0.005973   0.562544  -0.031283   0.000110   0.000003   0.000000
    33  H   -0.001239  -0.031283   0.584316   0.007686  -0.000010   0.000000
    34  H   -0.000010   0.000110   0.007686   0.601166  -0.005450  -0.000173
    35  H    0.000000   0.000003  -0.000010  -0.005450   0.589330  -0.005460
    36  H    0.000000   0.000000   0.000000  -0.000173  -0.005460   0.582396
    37  H    0.000000  -0.000001   0.000003   0.000017  -0.000181  -0.005295
    38  H   -0.000141   0.001810   0.000031  -0.000174   0.000017  -0.000176
    39  H    0.000000   0.000000   0.000001  -0.000039   0.000281   0.000000
    40  H    0.000000   0.000000   0.000000   0.000023   0.000020   0.000000
    41  H    0.000000   0.000000   0.000000   0.000000   0.000000   0.000000
    42  H    0.000000   0.000000   0.000000   0.000000   0.000000   0.000000
    43  H    0.000000   0.000000   0.000000   0.000000   0.000000   0.000000
              37         38         39         40         41         42
     1  O    0.000000   0.000000   0.004200   0.000001   0.000000   0.000000
     2  S    0.000000   0.000000  -0.000188  -0.000039   0.000006  -0.000050
     3  N   -0.000002  -0.000024   0.000084   0.000002   0.000000   0.000001
     4  C    0.000000   0.000157   0.000062   0.000000   0.000000   0.000000
     5  C    0.000000   0.000000   0.000000   0.000000   0.000000   0.000000
     6  S    0.000000   0.000000   0.000001   0.000000   0.000000  -0.000002
     7  C    0.000000   0.000000  -0.000021   0.000000   0.000000  -0.000008
     8  O    0.000000   0.000000   0.000000   0.000000   0.000000  -0.000001
     9  O    0.000000   0.000000   0.000000   0.000000   0.000000   0.000000
    10  C    0.000001   0.000863  -0.000008   0.000000   0.000000   0.000000
    11  C   -0.000175  -0.008318   0.000012   0.000000   0.000000   0.000000
    12  C    0.003616  -0.048820  -0.000125   0.000000   0.000000   0.000000
    13  C    0.000814   0.005939   0.003166  -0.000004   0.000000   0.000000
    14  C    0.004551   0.000346   0.003301  -0.000006   0.000000   0.000000
    15  C   -0.041449   0.004740   0.000125   0.000000   0.000000   0.000000
    16  C    0.359313  -0.041752  -0.000022   0.000000   0.000000   0.000000
    17  C   -0.039187   0.357239  -0.000051   0.000000   0.000000   0.000000
    18  C    0.000000   0.000000  -0.049755   0.005007   0.000435   0.004746
    19  C    0.000000   0.000000   0.355941  -0.042828   0.005054   0.000646
    20  C    0.000000   0.000000  -0.036434   0.363002  -0.042748   0.004398
    21  C    0.000000   0.000000   0.004278  -0.041503   0.362682  -0.041951
    22  C    0.000000   0.000000   0.000308   0.004474  -0.041935   0.364766
    23  C    0.000000   0.000000   0.004489   0.000615   0.004889  -0.040938
    24  O    0.000000   0.000000   0.000065   0.000000   0.000000   0.000003
    25  H    0.000003   0.000071   0.000688   0.000000   0.000000   0.000000
    26  H    0.000000   0.000000   0.000000   0.000000   0.000000   0.000000
    27  H    0.000000   0.000000   0.000000   0.000000   0.000000   0.000000
    28  H    0.000000   0.000000   0.000000   0.000000   0.000000   0.000000
    29  H    0.000000   0.000000   0.000006   0.000001  -0.000001   0.000038
    30  H    0.000005   0.003658   0.000000   0.000000   0.000000   0.000000
    31  H    0.000000  -0.000141   0.000000   0.000000   0.000000   0.000000
    32  H   -0.000001   0.001810   0.000000   0.000000   0.000000   0.000000
    33  H    0.000003   0.000031   0.000001   0.000000   0.000000   0.000000
    34  H    0.000017  -0.000174  -0.000039   0.000023   0.000000   0.000000
    35  H   -0.000181   0.000017   0.000281   0.000020   0.000000   0.000000
    36  H   -0.005295  -0.000176   0.000000   0.000000   0.000000   0.000000
    37  H    0.580265  -0.005421   0.000000   0.000000   0.000000   0.000000
    38  H   -0.005421   0.593821   0.000000   0.000000   0.000000   0.000000
    39  H    0.000000   0.000000   0.540533  -0.005341  -0.000148   0.000014
    40  H    0.000000   0.000000  -0.005341   0.575528  -0.005486  -0.000166
    41  H    0.000000   0.000000  -0.000148  -0.005486   0.573757  -0.005358
    42  H    0.000000   0.000000   0.000014  -0.000166  -0.005358   0.561609
    43  H    0.000000   0.000000  -0.000133   0.000013  -0.000136  -0.004734
              43
     1  O    0.000057
     2  S   -0.005468
     3  N    0.000209
     4  C    0.000044
     5  C   -0.000077
     6  S    0.001010
     7  C   -0.000507
     8  O    0.001056
     9  O    0.000001
    10  C    0.000001
    11  C    0.000000
    12  C    0.000000
    13  C    0.000000
    14  C    0.000000
    15  C    0.000000
    16  C    0.000000
    17  C    0.000000
    18  C   -0.042206
    19  C    0.004719
    20  C    0.000233
    21  C    0.004042
    22  C   -0.034911
    23  C    0.360095
    24  O    0.010970
    25  H   -0.000010
[...]
    38  H    0.005788   0.000264   0.004636  -0.040941   0.360891   0.000000
    39  H    0.003229   0.003361   0.000130  -0.000023  -0.000051  -0.054193
    40  H   -0.000004  -0.000007   0.000000   0.000000   0.000000   0.004899
    41  H    0.000000   0.000000   0.000000   0.000000   0.000000   0.000431
    42  H    0.000000   0.000000   0.000000   0.000000   0.000000   0.004779
    43  H    0.000000   0.000000   0.000000   0.000000   0.000000  -0.048284
              19         20         21         22         23         24
     1  O    0.002676   0.000301  -0.000005  -0.000048   0.000378  -0.041443
     2  S   -0.020480   0.002577  -0.000402   0.002881  -0.028324   0.408696
     3  N   -0.001367  -0.000036   0.000001  -0.000096  -0.000310  -0.052241
     4  C   -0.000019  -0.000009   0.000005   0.000039   0.000236   0.001976
     5  C   -0.000004   0.000000   0.000000  -0.000002  -0.000020  -0.010453
     6  S    0.000040  -0.000003   0.000003   0.000003  -0.000079   0.002260
     7  C    0.000533   0.000145   0.000034  -0.000564  -0.005751  -0.001713
     8  O    0.000000   0.000000   0.000000  -0.000003  -0.000294  -0.000115
     9  O    0.000000   0.000000   0.000000   0.000000   0.000000   0.000000
    10  C   -0.000021   0.000000   0.000000   0.000000  -0.000001   0.000045
    11  C    0.000001   0.000000   0.000000   0.000000   0.000000  -0.000001
    12  C   -0.000069  -0.000001   0.000000   0.000000   0.000000  -0.000001
    13  C   -0.001078  -0.000097   0.000001   0.000000   0.000003   0.000000
    14  C   -0.001055   0.000000   0.000001   0.000000   0.000000   0.000000
    15  C   -0.000030   0.000000   0.000000   0.000000   0.000000   0.000000
    16  C    0.000001   0.000000   0.000000   0.000000   0.000000   0.000000
    17  C    0.000016   0.000000   0.000000   0.000000   0.000000   0.000000
    18  C    0.462544  -0.026619  -0.039251  -0.031812   0.499726  -0.059262
    19  C    4.957423   0.519927  -0.030835  -0.037661  -0.034397   0.001774
    20  C    0.519927   4.870222   0.537828  -0.029466  -0.038796  -0.000041
    21  C   -0.030835   0.537828   4.852805   0.539444  -0.031112  -0.000006
    22  C   -0.037661  -0.029466   0.539444   4.885058   0.502050   0.000614
    23  C   -0.034397  -0.038796  -0.031112   0.502050   4.950617   0.002176
    24  O    0.001774  -0.000041  -0.000006   0.000614   0.002176   8.291790
    25  H    0.000689   0.000032   0.000000  -0.000002   0.000002   0.001331
    26  H    0.000000   0.000000   0.000000   0.000000   0.000000   0.000221
    27  H   -0.000005   0.000000   0.000000   0.000000  -0.000030   0.016814
    28  H   -0.000012  -0.000005  -0.000001   0.000002   0.000029   0.000007
    29  H   -0.001038  -0.000312  -0.000030   0.001073   0.010420   0.000069
    30  H    0.000000   0.000000   0.000000   0.000000   0.000000  -0.000005
    31  H    0.000000   0.000000   0.000000   0.000000   0.000000   0.000001
    32  H    0.000000   0.000000   0.000000   0.000000   0.000000   0.000000
    33  H   -0.000001  -0.000001   0.000000   0.000000   0.000000   0.000000
    34  H    0.000994   0.000246   0.000001  -0.000001  -0.000004   0.000000
    35  H   -0.000045  -0.000003   0.000000   0.000000   0.000000   0.000000
    36  H    0.000000   0.000000   0.000000   0.000000   0.000000   0.000000
    37  H    0.000000   0.000000   0.000000   0.000000   0.000000   0.000000
    38  H    0.000000   0.000000   0.000000   0.000000   0.000000   0.000000
    39  H    0.357941  -0.031921   0.004254   0.000302   0.004103   0.000058
    40  H   -0.040795   0.366805  -0.038888   0.004261   0.000593   0.000000
    41  H    0.004952  -0.040512   0.365862  -0.040470   0.004800   0.000000
    42  H    0.000586   0.004278  -0.039634   0.367425  -0.040717   0.000002
    43  H    0.004592   0.000195   0.004214  -0.033044   0.362100   0.010560
              25         26         27         28         29         30
     1  O    0.002437   0.000001  -0.000058   0.000000  -0.000011  -0.000005
     2  S   -0.002121   0.000254   0.000799   0.000139   0.001985  -0.000075
     3  N    0.270996   0.001465  -0.003803   0.001910  -0.006198  -0.001418
     4  C   -0.028214  -0.028535  -0.021985  -0.025143  -0.023679  -0.034843
     5  C    0.003867   0.347415   0.325282   0.009130   0.003581  -0.005720
     6  S   -0.000213  -0.011522  -0.002882  -0.010171  -0.004432  -0.000129
     7  C    0.001077   0.009140   0.004280   0.345190   0.323610   0.005534
     8  O    0.000001   0.000733   0.000093   0.000674   0.000382   0.000001
     9  O    0.000001  -0.000389   0.001030  -0.000004   0.001135   0.000065
    10  C   -0.011288  -0.004751   0.003199  -0.007028   0.003635   0.366902
    11  C   -0.001099   0.000208  -0.000097   0.001721  -0.000040  -0.037672
    12  C    0.025819  -0.000002   0.000000   0.000112  -0.000010  -0.006780
    13  C    0.009960   0.000000   0.000000  -0.000030  -0.000003   0.000176
    14  C   -0.000128   0.000000   0.000000   0.000000   0.000000   0.000005
    15  C   -0.000457   0.000000   0.000000   0.000000   0.000000  -0.000001
    16  C   -0.000526   0.000000   0.000000   0.000000   0.000000  -0.000084
    17  C    0.004047  -0.000002   0.000001   0.000002   0.000000   0.003972
    18  C   -0.001512   0.000001   0.000081   0.000035   0.004645   0.000007
    19  C    0.000689   0.000000  -0.000005  -0.000012  -0.001038   0.000000
    20  C    0.000032   0.000000   0.000000  -0.000005  -0.000312   0.000000
    21  C    0.000000   0.000000   0.000000  -0.000001  -0.000030   0.000000
    22  C   -0.000002   0.000000   0.000000   0.000002   0.001073   0.000000
    23  C    0.000002   0.000000  -0.000030   0.000029   0.010420   0.000000
    24  O    0.001331   0.000221   0.016814   0.000007   0.000069  -0.000005
    25  H    0.341123  -0.000030   0.000063   0.000118  -0.000026   0.000032
    26  H   -0.000030   0.461232  -0.013552  -0.000247  -0.000233   0.003138
    27  H    0.000063  -0.013552   0.438852  -0.000226  -0.000028   0.000030
    28  H    0.000118  -0.000247  -0.000226   0.453662  -0.015820   0.000154
    29  H   -0.000026  -0.000233  -0.000028  -0.015820   0.475350  -0.000105
    30  H    0.000032   0.003138   0.000030   0.000154  -0.000105   0.538907
    31  H    0.000310  -0.000040   0.000226  -0.000371   0.000114  -0.025183
    32  H    0.000198  -0.000018   0.000001  -0.000233   0.000002  -0.001107
    33  H    0.000003   0.000012  -0.000001   0.006588  -0.000226   0.004623
    34  H    0.000001   0.000000   0.000000   0.000029  -0.000006   0.000007
    35  H    0.000011   0.000000   0.000000   0.000000   0.000000   0.000000
    36  H   -0.000001   0.000000   0.000000   0.000000   0.000000   0.000000
    37  H    0.000003   0.000000   0.000000   0.000000   0.000000   0.000006
    38  H    0.000062   0.000000   0.000000   0.000000   0.000000   0.003398
    39  H    0.000697   0.000000   0.000000   0.000000   0.000005   0.000000
    40  H    0.000000   0.000000   0.000000   0.000000   0.000001   0.000000
    41  H    0.000000   0.000000   0.000000   0.000000  -0.000001   0.000000
    42  H    0.000000   0.000000   0.000000   0.000000   0.000037   0.000000
    43  H   -0.000009   0.000000   0.000023   0.000009  -0.000090   0.000000
              31         32         33         34         35         36
     1  O    0.000000   0.000000   0.000000   0.000000   0.000000   0.000000
     2  S    0.000011   0.000009  -0.000014   0.000014  -0.000006   0.000000
     3  N    0.004291  -0.000062  -0.000198   0.000031  -0.000003   0.000000
     4  C   -0.035504   0.004670  -0.007821  -0.000046   0.000000   0.000000
     5  C   -0.007142  -0.000131   0.000085   0.000001   0.000000   0.000000
     6  S    0.009217  -0.000002   0.000117   0.000003   0.000000   0.000000
     7  C   -0.004588   0.000111   0.003444   0.000100   0.000000   0.000000
     8  O    0.000021   0.000000   0.000001   0.000000   0.000000   0.000000
     9  O    0.006240  -0.000003   0.000005   0.000000   0.000000   0.000000
    10  C    0.362438  -0.032684  -0.039049   0.000179   0.000001   0.000000
    11  C   -0.026842   0.366956   0.364387  -0.010273  -0.000165   0.000007
    12  C    0.003572  -0.029864  -0.037772  -0.043435   0.003741   0.000618
    13  C   -0.000114   0.001481  -0.003887   0.358779  -0.038992   0.004617
    14  C    0.000002  -0.000221   0.000280  -0.043553   0.361717  -0.041729
    15  C    0.000000   0.000035  -0.000004   0.004644  -0.040795   0.363850
    16  C    0.000002  -0.000008  -0.000157   0.000236   0.004468  -0.041320
    17  C    0.000170  -0.004893   0.004725   0.006127   0.000678   0.004619
    18  C    0.000003   0.000000  -0.000006   0.000020   0.000004   0.000000
    19  C    0.000000   0.000000  -0.000001   0.000994  -0.000045   0.000000
    20  C    0.000000   0.000000  -0.000001   0.000246  -0.000003   0.000000
    21  C    0.000000   0.000000   0.000000   0.000001   0.000000   0.000000
    22  C    0.000000   0.000000   0.000000  -0.000001   0.000000   0.000000
    23  C    0.000000   0.000000   0.000000  -0.000004   0.000000   0.000000
    24  O    0.000001   0.000000   0.000000   0.000000   0.000000   0.000000
    25  H    0.000310   0.000198   0.000003   0.000001   0.000011  -0.000001
    26  H   -0.000040  -0.000018   0.000012   0.000000   0.000000   0.000000
    27  H    0.000226   0.000001  -0.000001   0.000000   0.000000   0.000000
    28  H   -0.000371  -0.000233   0.006588   0.000029   0.000000   0.000000
    29  H    0.000114   0.000002  -0.000226  -0.000006   0.000000   0.000000
    30  H   -0.025183  -0.001107   0.004623   0.000007   0.000000   0.000000
    31  H    0.536790  -0.006180  -0.001108  -0.000011   0.000000   0.000000
    32  H   -0.006180   0.542973  -0.029226   0.000115   0.000003   0.000000
    33  H   -0.001108  -0.029226   0.562895   0.006930  -0.000009   0.000000
    34  H   -0.000011   0.000115   0.006930   0.570594  -0.005069  -0.000160
    35  H    0.000000   0.000003  -0.000009  -0.005069   0.563022  -0.005188
    36  H    0.000000   0.000000   0.000000  -0.000160  -0.005188   0.565067
    37  H    0.000000  -0.000001   0.000003   0.000015  -0.000168  -0.005108
    38  H   -0.000138   0.001683   0.000024  -0.000159   0.000016  -0.000163
    39  H    0.000000   0.000000   0.000001  -0.000037   0.000269   0.000000
    40  H    0.000000   0.000000   0.000000   0.000021   0.000017   0.000000
    41  H    0.000000   0.000000   0.000000   0.000000   0.000000   0.000000
    42  H    0.000000   0.000000   0.000000   0.000000   0.000000   0.000000
    43  H    0.000000   0.000000   0.000000   0.000000   0.000000   0.000000
              37         38         39         40         41         42
     1  O    0.000000   0.000000   0.003734   0.000001   0.000000   0.000000
     2  S    0.000000   0.000000  -0.000038  -0.000051   0.000006  -0.000059
     3  N   -0.000002  -0.000023  -0.000028   0.000002   0.000000   0.000001
     4  C    0.000000   0.000149   0.000058   0.000000   0.000000   0.000000
     5  C    0.000000   0.000001   0.000000   0.000000   0.000000   0.000000
     6  S    0.000000   0.000000   0.000001   0.000000   0.000000  -0.000002
     7  C    0.000000   0.000000  -0.000019   0.000000   0.000000  -0.000007
     8  O    0.000000   0.000000   0.000000   0.000000   0.000000  -0.000001
     9  O    0.000000   0.000000   0.000000   0.000000   0.000000   0.000000
    10  C    0.000001   0.000890  -0.000008   0.000000   0.000000   0.000000
    11  C   -0.000168  -0.007892   0.000011   0.000000   0.000000   0.000000
    12  C    0.003614  -0.046791  -0.000115   0.000000   0.000000   0.000000
    13  C    0.000716   0.005788   0.003229  -0.000004   0.000000   0.000000
    14  C    0.004515   0.000264   0.003361  -0.000007   0.000000   0.000000
    15  C   -0.041342   0.004636   0.000130   0.000000   0.000000   0.000000
    16  C    0.362298  -0.040941  -0.000023   0.000000   0.000000   0.000000
    17  C   -0.038796   0.360891  -0.000051   0.000000   0.000000   0.000000
    18  C    0.000000   0.000000  -0.054193   0.004899   0.000431   0.004779
    19  C    0.000000   0.000000   0.357941  -0.040795   0.004952   0.000586
    20  C    0.000000   0.000000  -0.031921   0.366805  -0.040512   0.004278
    21  C    0.000000   0.000000   0.004254  -0.038888   0.365862  -0.039634
    22  C    0.000000   0.000000   0.000302   0.004261  -0.040470   0.367425
    23  C    0.000000   0.000000   0.004103   0.000593   0.004800  -0.040717
    24  O    0.000000   0.000000   0.000058   0.000000   0.000000   0.000002
    25  H    0.000003   0.000062   0.000697   0.000000   0.000000   0.000000
    26  H    0.000000   0.000000   0.000000   0.000000   0.000000   0.000000
    27  H    0.000000   0.000000   0.000000   0.000000   0.000000   0.000000
    28  H    0.000000   0.000000   0.000000   0.000000   0.000000   0.000000
    29  H    0.000000   0.000000   0.000005   0.000001  -0.000001   0.000037
    30  H    0.000006   0.003398   0.000000   0.000000   0.000000   0.000000
    31  H    0.000000  -0.000138   0.000000   0.000000   0.000000   0.000000
    32  H   -0.000001   0.001683   0.000000   0.000000   0.000000   0.000000
    33  H    0.000003   0.000024   0.000001   0.000000   0.000000   0.000000
    34  H    0.000015  -0.000159  -0.000037   0.000021   0.000000   0.000000
    35  H   -0.000168   0.000016   0.000269   0.000017   0.000000   0.000000
    36  H   -0.005108  -0.000163   0.000000   0.000000   0.000000   0.000000
    37  H    0.563444  -0.005139   0.000000   0.000000   0.000000   0.000000
    38  H   -0.005139   0.567639   0.000000   0.000000   0.000000   0.000000
    39  H    0.000000   0.000000   0.532458  -0.005212  -0.000140   0.000014
    40  H    0.000000   0.000000  -0.005212   0.539010  -0.005064  -0.000152
    41  H    0.000000   0.000000  -0.000140  -0.005064   0.541908  -0.005050
    42  H    0.000000   0.000000   0.000014  -0.000152  -0.005050   0.538342
    43  H    0.000000   0.000000  -0.000133   0.000013  -0.000133  -0.004914
              43
     1  O    0.000054
     2  S   -0.005683
     3  N    0.000184
     4  C    0.000048
     5  C   -0.000084
     6  S    0.001000
     7  C   -0.000536
     8  O    0.001040
     9  O    0.000001
    10  C    0.000001
    11  C    0.000000
    12  C    0.000000
    13  C    0.000000
    14  C    0.000000
    15  C    0.000000
    16  C    0.000000
    17  C    0.000000
    18  C   -0.048284
    19  C    0.004592
    20  C    0.000195
    21  C    0.004214
    22  C   -0.033044
    23  C    0.362100
    24  O    0.010560
    25  H   -0.000009
    26  H    0.000000
    27  H    0.000023
    28  H    0.000009
    29  H   -0.000090
    30  H    0.000000
    31  H    0.000000
    32  H    0.000000
    33  H    0.000000
    34  H    0.000000
    35  H    0.000000
    36  H    0.000000
    37  H    0.000000
    38  H    0.000000
    39  H   -0.000133
    40  H    0.000013
    41  H   -0.000133
    42  H   -0.004914
    43  H    0.515301
 Mulliken charges:
               1
     1  O   -0.566998
     2  S    1.183832
     3  N   -0.717432
     4  C    0.194047
     5  C   -0.492348
     6  S    1.109670
     7  C   -0.510724
     8  O   -0.556315
     9  O   -0.570663
    10  C   -0.314310
    11  C   -0.359271
    12  C    0.108687
    13  C   -0.212292
    14  C   -0.138605
    15  C   -0.145706
    16  C   -0.141834
    17  C   -0.183189
    18  C   -0.154024
    19  C   -0.145776
    20  C   -0.134734
    21  C   -0.124289
    22  C   -0.129984
    23  C   -0.157399
    24  O   -0.573114
    25  H    0.382748
    26  H    0.235502
    27  H    0.251896
    28  H    0.239780
    29  H    0.226242
    30  H    0.186171
    31  H    0.183811
    32  H    0.186395
    33  H    0.165356
    34  H    0.153667
    35  H    0.156493
    36  H    0.154890
    37  H    0.156108
    38  H    0.155805
    39  H    0.181294
    40  H    0.174550
    41  H    0.173410
    42  H    0.175074
    43  H    0.193579
 Sum of Mulliken charges =   0.00000
 Mulliken charges with hydrogens summed into heavy atoms:
               1
     1  O   -0.566998
     2  S    1.183832
     3  N   -0.334684
     4  C    0.194047
     5  C   -0.004950
     6  S    1.109670
     7  C   -0.044702
     8  O   -0.556315
     9  O   -0.570663
    10  C    0.055672
    11  C   -0.007520
    12  C    0.108687
    13  C   -0.058625
    14  C    0.017888
    15  C    0.009185
    16  C    0.014273
    17  C   -0.027384
    18  C   -0.154024
    19  C    0.035518
    20  C    0.039816
    21  C    0.049121
    22  C    0.045090
    23  C    0.036180
    24  O   -0.573114
 Electronic spatial extent (au):  <R**2>=           8370.9545
 Charge=              0.0000 electrons
 Dipole moment (field-independent basis, Debye):
    X=             -6.9904    Y=              2.2343    Z=             -5.7378  Tot=              9.3156
 Quadrupole moment (field-independent basis, Debye-Ang):
   XX=           -169.5102   YY=           -140.9933   ZZ=           -161.9213
   XY=             17.6666   XZ=              1.7726   YZ=            -23.6788
 Traceless Quadrupole moment (field-independent basis, Debye-Ang):
   XX=            -12.0352   YY=             16.4816   ZZ=             -4.4464
   XY=             17.6666   XZ=              1.7726   YZ=            -23.6788
 Octapole moment (field-independent basis, Debye-Ang**2):
  XXX=           -124.8123  YYY=             50.8344  ZZZ=            -35.3714  XYY=            -23.0859
  XXY=             77.6333  XXZ=             30.3734  XZZ=              8.9227  YZZ=             -6.9225
  YYZ=            -15.9758  XYZ=            -17.9087
 Hexadecapole moment (field-independent basis, Debye-Ang**3):
 XXXX=          -5808.9383 YYYY=          -3921.2141 ZZZZ=          -1457.9554 XXXY=            136.3650
 XXXZ=           -110.7451 YYYX=            164.9399 YYYZ=           -264.7376 ZZZX=            -15.5887
 ZZZY=            -65.2214 XXYY=          -1622.0647 XXZZ=          -1187.3356 YYZZ=           -851.6460
 XXYZ=           -152.0425 YYXZ=             46.9635 ZZXY=             11.6295
 N-N= 2.554019591202D+03 E-N=-9.357978382240D+03  KE= 1.798684754037D+03
 No NMR shielding tensors so no spin-rotation constants.
 Leave Link  601 at Sat Aug  8 00:10:53 2020, MaxMem=    33554432 cpu:         0.4
 (Enter /prod/apps/gaussian/g09d1/l9999.exe)
 1\1\GINC-PIRINEUS28\SP\RB3LYP\6-31G(d)\C17H19N1O4S2\UBAFAR01\08-Aug-20
 20\0\\#p b3lyp/6-31G(d) scrf=(iefpcm,read,solvent=Water) geom=allcheck
  guess=read\\SM39.n.5.pdb.xyz\\0,1\O,0,2.563,1.166,2.375\S,0,1.714,1.6
 41,1.273\N,0,2.665,1.447,-0.089\C,0,2.359,1.896,-1.453\C,0,2.228,3.452
 ,-1.564\S,0,0.758,3.254,-2.621\C,0,0.946,1.538,-2.042\O,0,-0.449,3.933
 ,-2.111\O,0,1.085,3.391,-4.056\C,0,3.49,1.409,-2.381\C,0,3.606,-0.11,-
 2.615\C,0,4.218,-0.927,-1.492\C,0,3.514,-1.996,-0.921\C,0,4.085,-2.777
 ,0.088\C,0,5.375,-2.499,0.54\C,0,6.09,-1.437,-0.022\C,0,5.516,-0.661,-
 1.029\C,0,0.29,0.557,1.185\C,0,0.469,-0.824,1.316\C,0,-0.65,-1.652,1.2
 48\C,0,-1.921,-1.104,1.058\C,0,-2.084,0.278,0.937\C,0,-0.973,1.12,1.\O
 ,0,1.213,3.023,1.268\H,0,3.132,0.54,-0.051\H,0,3.056,3.968,-2.048\H,0,
 1.947,3.929,-0.626\H,0,0.928,0.8,-2.843\H,0,0.184,1.311,-1.298\H,0,4.4
 34,1.808,-1.998\H,0,3.317,1.888,-3.349\H,0,4.221,-0.239,-3.513\H,0,2.6
 23,-0.524,-2.863\H,0,2.511,-2.216,-1.273\H,0,3.523,-3.602,0.514\H,0,5.
 822,-3.103,1.323\H,0,7.095,-1.216,0.322\H,0,6.083,0.157,-1.463\H,0,1.4
 56,-1.242,1.469\H,0,-0.529,-2.725,1.347\H,0,-2.786,-1.756,1.008\H,0,-3
 .072,0.702,0.796\H,0,-1.074,2.194,0.914\\Version=AM64L-G09RevD.01\Stat
 e=1-A\HF=-1811.1428093\RMSD=6.698e-09\Dipole=0.5513743,-3.5983287,-0.4
 248938\Quadrupole=16.7823966,-0.5638416,-16.218555,14.1158063,-11.4776
 238,1.1206575\PG=C01 [X(C17H19N1O4S2)]\\@


 THE HURRIEDER I GO, THE BEHINDER I GET.
 Job cpu time:       0 days  0 hours  7 minutes 34.0 seconds.
 File lengths (MBytes):  RWF=    476 Int=      0 D2E=      0 Chk=      9 Scr=      1
 Normal termination of Gaussian 09 at Sat Aug  8 00:10:53 2020.
