 Entering Gaussian System, Link 0=g09
 Initial command:
 /prod/apps/gaussian/g09d1/l1.exe "/tmp/ubafar01/1449032/Gau-152380.inp" -scrdir="/tmp/ubafar01/1449032/"
 Entering Link 1 = /prod/apps/gaussian/g09d1/l1.exe PID=    152381.
  
 Copyright (c) 1988,1990,1992,1993,1995,1998,2003,2009,2013,
            Gaussian, Inc.  All Rights Reserved.
  
 This is part of the Gaussian(R) 09 program.  It is based on
 the Gaussian(R) 03 system (copyright 2003, Gaussian, Inc.),
 the Gaussian(R) 98 system (copyright 1998, Gaussian, Inc.),
 the Gaussian(R) 94 system (copyright 1995, Gaussian, Inc.),
 the Gaussian 92(TM) system (copyright 1992, Gaussian, Inc.),
 the Gaussian 90(TM) system (copyright 1990, Gaussian, Inc.),
 the Gaussian 88(TM) system (copyright 1988, Gaussian, Inc.),
 the Gaussian 86(TM) system (copyright 1986, Carnegie Mellon
 University), and the Gaussian 82(TM) system (copyright 1983,
 Carnegie Mellon University). Gaussian is a federally registered
 trademark of Gaussian, Inc.
  
 This software contains proprietary and confidential information,
 including trade secrets, belonging to Gaussian, Inc.
  
 This software is provided under written license and may be
 used, copied, transmitted, or stored only in accord with that
 written license.
  
 The following legend is applicable only to US Government
 contracts under FAR:
  
                    RESTRICTED RIGHTS LEGEND
  
 Use, reproduction and disclosure by the US Government is
 subject to restrictions as set forth in subparagraphs (a)
 and (c) of the Commercial Computer Software - Restricted
 Rights clause in FAR 52.227-19.
  
 Gaussian, Inc.
 340 Quinnipiac St., Bldg. 40, Wallingford CT 06492
  
  
 ---------------------------------------------------------------
 Warning -- This program may not be used in any manner that
 competes with the business of Gaussian, Inc. or will provide
 assistance to any competitor of Gaussian, Inc.  The licensee
 of this program is prohibited from giving any competitor of
 Gaussian, Inc. access to this program.  By using this program,
 the user acknowledges that Gaussian, Inc. is engaged in the
 business of creating and licensing software in the field of
 computational chemistry and represents and warrants to the
 licensee that it is not a competitor of Gaussian, Inc. and that
 it will not use this program in any manner prohibited above.
 ---------------------------------------------------------------
  

 Cite this work as:
 Gaussian 09, Revision D.01,
 M. J. Frisch, G. W. Trucks, H. B. Schlegel, G. E. Scuseria, 
 M. A. Robb, J. R. Cheeseman, G. Scalmani, V. Barone, B. Mennucci, 
 G. A. Petersson, H. Nakatsuji, M. Caricato, X. Li, H. P. Hratchian, 
 A. F. Izmaylov, J. Bloino, G. Zheng, J. L. Sonnenberg, M. Hada, 
 M. Ehara, K. Toyota, R. Fukuda, J. Hasegawa, M. Ishida, T. Nakajima, 
 Y. Honda, O. Kitao, H. Nakai, T. Vreven, J. A. Montgomery, Jr., 
 J. E. Peralta, F. Ogliaro, M. Bearpark, J. J. Heyd, E. Brothers, 
 K. N. Kudin, V. N. Staroverov, T. Keith, R. Kobayashi, J. Normand, 
 K. Raghavachari, A. Rendell, J. C. Burant, S. S. Iyengar, J. Tomasi, 
 M. Cossi, N. Rega, J. M. Millam, M. Klene, J. E. Knox, J. B. Cross, 
 V. Bakken, C. Adamo, J. Jaramillo, R. Gomperts, R. E. Stratmann, 
 O. Yazyev, A. J. Austin, R. Cammi, C. Pomelli, J. W. Ochterski, 
 R. L. Martin, K. Morokuma, V. G. Zakrzewski, G. A. Voth, 
 P. Salvador, J. J. Dannenberg, S. Dapprich, A. D. Daniels, 
 O. Farkas, J. B. Foresman, J. V. Ortiz, J. Cioslowski, 
 and D. J. Fox, Gaussian, Inc., Wallingford CT, 2013.
 
 ******************************************
 Gaussian 09:  AM64L-G09RevD.01 24-Apr-2013
                 8-Aug-2020 
 ******************************************
 %nproc=1
 Will use up to    1 processors via shared memory.
 %Chk=SM39.n.3.pdb.xyz.mst.n.o.chk
 -----------------
 #p b3lyp/6-31G(d)
 -----------------
 1/38=1/1;
 2/12=2,17=6,18=5,40=1/2;
 3/5=1,6=6,7=1,11=2,16=1,25=1,30=1,74=-5/1,2,3;
 4//1;
 5/5=2,38=5/2;
 6/7=2,8=2,9=2,10=2,28=1/1;
 99/5=1,9=1/99;
 Leave Link    1 at Sat Aug  8 00:24:58 2020, MaxMem=           0 cpu:         0.0
 (Enter /prod/apps/gaussian/g09d1/l101.exe)
 ----------------
 SM39.n.3.pdb.xyz
 ----------------
 Symbolic Z-matrix:
 Charge =  0 Multiplicity = 1
 O                     2.843     0.162     1.832 
 S                     2.84     -0.034     0.38 
 N                     2.841     1.525    -0.236 
 C                     2.699     1.911    -1.647 
 C                     2.229     3.41     -1.689 
 S                     0.883     2.957    -2.834 
 C                     1.407     1.299    -2.291 
 O                    -0.458     3.349    -2.376 
 O                     1.272     3.211    -4.234 
 C                     3.933     1.639    -2.533 
 C                     5.278     2.214    -2.053 
 C                     5.426     3.72     -2.124 
 C                     5.78      4.453    -0.986 
 C                     5.935     5.84     -1.043 
 C                     5.737     6.515    -2.247 
 C                     5.388     5.795    -3.393 
 C                     5.238     4.41     -3.33 
 C                     4.362    -0.878    -0.045 
 C                     5.523    -0.607     0.683 
 C                     6.699    -1.272     0.341 
 C                     6.705    -2.196    -0.707 
 C                     5.533    -2.468    -1.415 
 C                     4.349    -1.808    -1.085 
 O                     1.753    -0.748    -0.299 
 H                     3.432     2.136     0.323 
 H                     2.937     4.129    -2.097 
 H                     1.81      3.747    -0.739 
 H                     1.559     0.595    -3.107 
 H                     0.718     0.897    -1.552 
 H                     3.71      2.016    -3.537 
 H                     4.04      0.555    -2.632 
 H                     6.055     1.751    -2.673 
 H                     5.482     1.883    -1.03 
 H                     5.941     3.929    -0.049 
 H                     6.209     6.389    -0.149 
 H                     5.853     7.593    -2.295 
 H                     5.236     6.311    -4.335 
 H                     4.967     3.858    -4.226 
 H                     5.5       0.092     1.51 
 H                     7.608    -1.074     0.898 
 H                     7.624    -2.711    -0.965 
 H                     5.536    -3.197    -2.218 
 H                     3.421    -2.015    -1.604 
 
 NAtoms=     43 NQM=       43 NQMF=       0 NMMI=      0 NMMIF=      0
                NMic=       0 NMicF=      0.
                    Isotopes and Nuclear Properties:
 (Nuclear quadrupole moments (NQMom) in fm**2, nuclear magnetic moments (NMagM)
  in nuclear magnetons)

  Atom         1           2           3           4           5           6           7           8           9          10
 IAtWgt=          16          32          14          12          12          32          12          16          16          12
 AtmWgt=  15.9949146  31.9720718  14.0030740  12.0000000  12.0000000  31.9720718  12.0000000  15.9949146  15.9949146  12.0000000
 NucSpn=           0           0           2           0           0           0           0           0           0           0
 AtZEff=   0.0000000   0.0000000   0.0000000   0.0000000   0.0000000   0.0000000   0.0000000   0.0000000   0.0000000   0.0000000
 NQMom=    0.0000000   0.0000000   2.0440000   0.0000000   0.0000000   0.0000000   0.0000000   0.0000000   0.0000000   0.0000000
 NMagM=    0.0000000   0.0000000   0.4037610   0.0000000   0.0000000   0.0000000   0.0000000   0.0000000   0.0000000   0.0000000
 AtZNuc=   8.0000000  16.0000000   7.0000000   6.0000000   6.0000000  16.0000000   6.0000000   8.0000000   8.0000000   6.0000000

  Atom        11          12          13          14          15          16          17          18          19          20
 IAtWgt=          12          12          12          12          12          12          12          12          12          12
 AtmWgt=  12.0000000  12.0000000  12.0000000  12.0000000  12.0000000  12.0000000  12.0000000  12.0000000  12.0000000  12.0000000
 NucSpn=           0           0           0           0           0           0           0           0           0           0
 AtZEff=   0.0000000   0.0000000   0.0000000   0.0000000   0.0000000   0.0000000   0.0000000   0.0000000   0.0000000   0.0000000
 NQMom=    0.0000000   0.0000000   0.0000000   0.0000000   0.0000000   0.0000000   0.0000000   0.0000000   0.0000000   0.0000000
 NMagM=    0.0000000   0.0000000   0.0000000   0.0000000   0.0000000   0.0000000   0.0000000   0.0000000   0.0000000   0.0000000
 AtZNuc=   6.0000000   6.0000000   6.0000000   6.0000000   6.0000000   6.0000000   6.0000000   6.0000000   6.0000000   6.0000000

  Atom        21          22          23          24          25          26          27          28          29          30
 IAtWgt=          12          12          12          16           1           1           1           1           1           1
 AtmWgt=  12.0000000  12.0000000  12.0000000  15.9949146   1.0078250   1.0078250   1.0078250   1.0078250   1.0078250   1.0078250
 NucSpn=           0           0           0           0           1           1           1           1           1           1
 AtZEff=   0.0000000   0.0000000   0.0000000   0.0000000   0.0000000   0.0000000   0.0000000   0.0000000   0.0000000   0.0000000
 NQMom=    0.0000000   0.0000000   0.0000000   0.0000000   0.0000000   0.0000000   0.0000000   0.0000000   0.0000000   0.0000000
 NMagM=    0.0000000   0.0000000   0.0000000   0.0000000   2.7928460   2.7928460   2.7928460   2.7928460   2.7928460   2.7928460
 AtZNuc=   6.0000000   6.0000000   6.0000000   8.0000000   1.0000000   1.0000000   1.0000000   1.0000000   1.0000000   1.0000000

  Atom        31          32          33          34          35          36          37          38          39          40
 IAtWgt=           1           1           1           1           1           1           1           1           1           1
 AtmWgt=   1.0078250   1.0078250   1.0078250   1.0078250   1.0078250   1.0078250   1.0078250   1.0078250   1.0078250   1.0078250
 NucSpn=           1           1           1           1           1           1           1           1           1           1
 AtZEff=   0.0000000   0.0000000   0.0000000   0.0000000   0.0000000   0.0000000   0.0000000   0.0000000   0.0000000   0.0000000
 NQMom=    0.0000000   0.0000000   0.0000000   0.0000000   0.0000000   0.0000000   0.0000000   0.0000000   0.0000000   0.0000000
 NMagM=    2.7928460   2.7928460   2.7928460   2.7928460   2.7928460   2.7928460   2.7928460   2.7928460   2.7928460   2.7928460
 AtZNuc=   1.0000000   1.0000000   1.0000000   1.0000000   1.0000000   1.0000000   1.0000000   1.0000000   1.0000000   1.0000000

  Atom        41          42          43
 IAtWgt=           1           1           1
 AtmWgt=   1.0078250   1.0078250   1.0078250
 NucSpn=           1           1           1
 AtZEff=   0.0000000   0.0000000   0.0000000
 NQMom=    0.0000000   0.0000000   0.0000000
 NMagM=    2.7928460   2.7928460   2.7928460
 AtZNuc=   1.0000000   1.0000000   1.0000000
 Leave Link  101 at Sat Aug  8 00:24:58 2020, MaxMem=    33554432 cpu:         0.1
 (Enter /prod/apps/gaussian/g09d1/l202.exe)
                          Input orientation:                          
 ---------------------------------------------------------------------
 Center     Atomic      Atomic             Coordinates (Angstroms)
 Number     Number       Type             X           Y           Z
 ---------------------------------------------------------------------
      1          8           0        2.843000    0.162000    1.832000
      2         16           0        2.840000   -0.034000    0.380000
      3          7           0        2.841000    1.525000   -0.236000
      4          6           0        2.699000    1.911000   -1.647000
      5          6           0        2.229000    3.410000   -1.689000
      6         16           0        0.883000    2.957000   -2.834000
      7          6           0        1.407000    1.299000   -2.291000
      8          8           0       -0.458000    3.349000   -2.376000
      9          8           0        1.272000    3.211000   -4.234000
     10          6           0        3.933000    1.639000   -2.533000
     11          6           0        5.278000    2.214000   -2.053000
     12          6           0        5.426000    3.720000   -2.124000
     13          6           0        5.780000    4.453000   -0.986000
     14          6           0        5.935000    5.840000   -1.043000
     15          6           0        5.737000    6.515000   -2.247000
     16          6           0        5.388000    5.795000   -3.393000
     17          6           0        5.238000    4.410000   -3.330000
     18          6           0        4.362000   -0.878000   -0.045000
     19          6           0        5.523000   -0.607000    0.683000
     20          6           0        6.699000   -1.272000    0.341000
     21          6           0        6.705000   -2.196000   -0.707000
     22          6           0        5.533000   -2.468000   -1.415000
     23          6           0        4.349000   -1.808000   -1.085000
     24          8           0        1.753000   -0.748000   -0.299000
     25          1           0        3.432000    2.136000    0.323000
     26          1           0        2.937000    4.129000   -2.097000
     27          1           0        1.810000    3.747000   -0.739000
     28          1           0        1.559000    0.595000   -3.107000
     29          1           0        0.718000    0.897000   -1.552000
     30          1           0        3.710000    2.016000   -3.537000
     31          1           0        4.040000    0.555000   -2.632000
     32          1           0        6.055000    1.751000   -2.673000
     33          1           0        5.482000    1.883000   -1.030000
     34          1           0        5.941000    3.929000   -0.049000
     35          1           0        6.209000    6.389000   -0.149000
     36          1           0        5.853000    7.593000   -2.295000
     37          1           0        5.236000    6.311000   -4.335000
     38          1           0        4.967000    3.858000   -4.226000
     39          1           0        5.500000    0.092000    1.510000
     40          1           0        7.608000   -1.074000    0.898000
     41          1           0        7.624000   -2.711000   -0.965000
     42          1           0        5.536000   -3.197000   -2.218000
     43          1           0        3.421000   -2.015000   -1.604000
 ---------------------------------------------------------------------
                    Distance matrix (angstroms):
                    1          2          3          4          5
     1  O    0.000000
     2  S    1.465172   0.000000
     3  N    2.476771   1.676287   0.000000
     4  C    3.896560   2.812763   1.469721   0.000000
     5  C    4.829487   4.063892   2.457433   1.571517   0.000000
     6  S    5.781451   4.806842   3.554433   2.408514   1.824267
     7  C    4.511540   3.311287   2.516040   1.567974   2.344016
     8  O    6.225820   5.469646   4.334741   3.544846   2.774105
     9  O    6.968558   5.854711   4.613931   3.227832   2.726257
    10  C    4.735278   3.532584   2.545912   1.543287   2.598537
    11  C    5.023261   4.113008   3.116918   2.628286   3.295347
    12  C    5.914490   5.200955   3.881339   3.307044   3.241317
    13  C    5.914370   5.535587   4.215852   4.048610   3.767182
    14  C    7.075717   6.790275   5.370597   5.125773   4.478465
    15  C    8.085424   7.627787   6.109913   5.548537   4.717886
    16  C    8.093722   7.396288   5.889547   5.036337   4.309422
    17  C    7.101252   6.266071   4.862270   3.940052   3.570289
    18  C    2.629085   1.791492   2.850321   3.620842   5.063533
    19  C    3.015620   2.760186   3.547268   4.443445   5.710789
    20  C    4.375863   4.052906   4.800031   5.484855   6.784020
    21  C    5.188615   4.560048   5.384996   5.813698   7.240589
    22  C    4.969508   4.049522   4.957918   5.221209   6.748509
    23  C    3.828554   2.751433   3.755497   4.107226   5.664516
    24  O    2.560734   1.467108   2.520762   3.127667   4.409948
    25  H    2.553562   2.250025   1.017390   2.113957   2.668038
    26  H    5.584171   4.845153   3.202086   2.275669   1.088434
    27  H    4.530933   4.075417   2.500651   2.232864   1.091618
    28  H    5.121510   3.767728   3.278882   2.272236   3.222398
    29  H    4.062918   3.016997   2.575533   2.227461   2.935483
    30  H    5.745883   4.505806   3.448600   2.145984   2.748036
    31  H    4.638378   3.295310   2.849442   2.146449   3.509985
    32  H    5.756465   4.779462   4.039782   3.512978   4.284719
    33  H    4.256431   3.555721   2.780914   2.850713   3.653494
    34  H    5.227433   5.050308   3.927364   4.139625   4.091198
    35  H    7.350500   7.272203   5.916882   5.883586   5.204464
    36  H    9.017316   8.625829   7.080413   6.530907   5.567594
    37  H    9.031530   8.260210   6.741188   5.746452   4.945621
    38  H    7.407507   6.394297   5.087521   3.947895   3.759484
    39  H    2.677356   2.892815   3.488880   4.595760   5.651740
    40  H    5.010517   4.907520   5.546625   6.283751   7.465418
    41  H    6.239816   5.644644   6.430570   6.788493   8.191266
    42  H    5.910806   4.901284   5.786936   5.870798   7.407330
    43  H    4.108468   2.863246   3.839196   3.992068   5.555062
                    6          7          8          9         10
     6  S    0.000000
     7  C    1.821645   0.000000
     8  O    1.470275   2.772715   0.000000
     9  O    1.475072   2.729326   2.542461   0.000000
    10  C    3.336199   2.560242   4.714831   3.527819   0.000000
    11  C    4.525266   3.984785   5.856129   4.668919   1.539497
    12  C    4.661021   4.694837   5.901068   4.686886   2.593625
    13  C    5.443687   5.547420   6.485643   5.693341   3.704486
    14  C    6.086220   6.533067   6.989451   6.231989   4.886359
    15  C    6.046921   6.779196   6.958320   5.899221   5.206879
    16  C    5.353667   6.105471   6.418171   4.932119   4.486531
    17  C    4.617710   5.043253   5.871989   4.240751   3.164913
    18  C    5.881257   4.303007   6.821546   6.619346   3.565035
    19  C    6.826491   5.423926   7.796139   7.538237   4.232644
    20  C    7.860720   6.445365   8.941945   8.395251   4.938072
    21  C    8.060597   6.541627   9.210926   8.437587   5.072030
    22  C    7.284688   5.655222   8.405539   7.638974   4.547238
    23  C    6.146331   4.445588   7.167188   6.676413   3.761857
    24  O    4.572762   2.877149   5.097829   5.602613   3.929494
    25  H    4.139818   3.410893   4.887542   5.156304   2.941895
    26  H    2.477028   3.222955   3.494605   2.860370   2.717023
    27  H    2.423315   2.926400   2.825243   3.576558   3.488442
    28  H    2.471952   1.088382   3.491012   2.862858   2.656179
    29  H    2.431943   1.087403   2.841524   3.585336   3.442259
    30  H    3.061310   2.714851   4.527365   2.803155   1.095388
    31  H    3.972034   2.757264   5.301318   4.157230   1.093758
    32  H    5.313186   4.685524   6.712748   5.238837   2.129561
    33  H    5.055561   4.305439   6.264541   5.454659   2.172083
    34  H    5.855286   5.700932   6.833632   6.311047   3.930193
    35  H    6.881433   7.318160   7.658330   7.152683   5.781534
    36  H    6.817911   7.705931   7.605710   6.629269   6.260444
    37  H    5.696571   6.630183   6.710645   5.033239   5.174224
    38  H    4.407780   4.792317   5.754321   3.751226   2.976469
    39  H    6.956669   5.714639   7.823478   7.784451   4.603754
    40  H    8.683456   7.365681   9.764341   9.211056   5.712946
    41  H    9.003359   7.515947  10.199669   9.279243   5.916469
    42  H    7.739611   6.104751   8.877112   7.956659   5.104481
    43  H    5.716216   3.938370   6.664467   6.232670   3.804852
                   11         12         13         14         15
    11  C    0.000000
    12  C    1.514919   0.000000
    13  C    2.530536   1.399160   0.000000
    14  C    3.820946   2.433525   1.396797   0.000000
    15  C    4.329771   2.814938   2.417398   1.394434   0.000000
    16  C    3.825083   2.432577   2.783573   2.413241   1.397683
    17  C    2.540619   1.402098   2.406231   2.785871   2.419280
    18  C    3.798892   5.157125   5.596049   6.971503   7.835552
    19  C    3.937482   5.158642   5.334343   6.686750   7.704127
    20  C    4.461241   5.711114   5.948203   7.285581   8.261995
    21  C    4.826608   6.216332   6.718829   8.079795   8.898884
    22  C    4.732145   6.229404   6.938681   8.326035   9.023754
    23  C    4.239876   5.726974   6.423214   7.810830   8.517577
    24  O    4.927026   6.065029   6.613554   7.838648   8.509884
    25  H    3.009847   3.531699   3.548954   4.674461   5.576161
    26  H    3.024804   2.522525   3.069519   3.609216   3.681779
    27  H    4.012943   3.872262   4.039845   4.635589   5.035595
    28  H    4.190828   5.068097   6.099151   7.135790   7.296690
    29  H    4.772744   5.519219   6.212032   7.204819   7.565402
    30  H    2.167968   2.800864   4.090412   5.078744   5.100375
    31  H    2.149457   3.492318   4.575076   5.834995   6.208835
    32  H    1.096585   2.138692   3.197249   4.403546   4.793568
    33  H    1.094398   2.138818   2.587593   3.982867   4.795992
    34  H    2.719708   2.148146   1.085572   2.154064   3.400032
    35  H    4.682158   3.411345   2.152372   1.084303   2.154127
    36  H    5.415056   3.900218   3.402706   2.155745   1.085285
    37  H    4.689850   3.411437   3.868320   3.398192   2.156933
    38  H    2.742515   2.155952   3.393021   3.872575   3.401322
    39  H    4.152967   5.135544   5.032568   6.304486   7.444874
    40  H    4.994822   6.072565   6.118723   7.373588   8.425235
    41  H    5.562651   6.894363   7.397545   8.716559   9.503861
    42  H    5.419660   6.918513   7.752410   9.121798   9.714123
    43  H    4.640527   6.097594   6.912440   8.266556   8.862178
                   16         17         18         19         20
    16  C    0.000000
    17  C    1.394523   0.000000
    18  C    7.535961   6.286616   0.000000
    19  C    7.590626   6.430838   1.396906   0.000000
    20  C    8.099628   6.920685   2.401208   1.393616   0.000000
    21  C    8.532594   7.257510   2.768577   2.419534   1.397181
    22  C    8.497687   7.145707   2.403381   2.804465   2.423532
    23  C    8.013239   6.670373   1.395231   2.438545   2.800584
    24  O    8.099192   6.923666   2.624557   3.898346   5.014688
    25  H    5.569818   4.666596   3.175613   3.467842   4.721025
    26  H    3.234590   2.625614   5.595657   6.070049   7.019066
    27  H    4.903071   4.347877   5.327754   5.896250   7.089364
    28  H    6.463980   5.304620   4.404814   5.614463   6.464827
    29  H    7.013457   5.994402   4.324397   5.508654   6.637799
    30  H    4.137301   2.847608   4.581965   5.289187   5.897792
    31  H    5.463865   4.096759   2.974852   3.812972   4.387133
    32  H    4.161397   2.858220   4.084639   4.135931   4.317113
    33  H    4.571252   3.425677   3.138112   3.022606   3.648939
    34  H    3.869121   3.389769   5.059694   4.613658   5.270395
    35  H    3.398590   3.870148   7.498767   7.078618   7.692277
    36  H    2.157460   3.403078   8.890637   8.730257   9.287219
    37  H    1.084769   2.150309   8.417226   8.551106   9.028136
    38  H    2.150139   1.086720   6.346376   6.659102   7.083376
    39  H    7.521713   6.491484   2.157306   1.083078   2.159782
    40  H    8.397871   7.318958   3.385880   2.147449   1.084313
    41  H    9.123975   7.873682   3.853172   3.399547   2.152204
    42  H    9.069652   7.693621   3.387915   3.888968   3.406857
    43  H    8.250195   6.896462   2.146796   3.410460   3.883344
                   21         22         23         24         25
    21  C    0.000000
    22  C    1.396006   0.000000
    23  C    2.417471   1.395119   0.000000
    24  O    5.175468   4.300262   2.912149   0.000000
    25  H    5.526269   5.350856   4.287014   3.394611   0.000000
    26  H    7.492366   7.122131   6.185940   5.331021   3.173874
    27  H    7.699435   7.276258   6.117537   4.516843   2.520724
    28  H    6.327005   5.295046   4.200832   3.118677   4.200918
    29  H    6.791527   5.875902   4.551843   2.312414   3.523711
    30  H    5.892357   5.285118   4.587330   4.685530   3.871858
    31  H    4.286706   3.584504   2.841207   3.517253   3.406061
    32  H    4.457181   4.433397   4.254252   5.512539   4.000546
    33  H    4.270632   4.368298   3.861372   4.621900   2.469234
    34  H    6.207438   6.553932   6.043255   6.283007   3.106174
    35  H    8.617401   8.972524   8.457334   8.415177   5.101227
    36  H    9.953500  10.104480   9.597131   9.506119   6.518743
    37  H    9.364262   9.256644   8.790189   8.845907   6.510146
    38  H    7.214910   6.945528   6.507792   6.853201   5.100481
    39  H    3.406179   3.887199   3.415966   4.244772   3.140626
    40  H    2.156460   3.405706   3.884859   5.984990   5.298462
    41  H    1.084597   2.152633   3.399328   6.226200   6.536453
    42  H    2.156776   1.084555   2.149879   4.898086   6.270916
    43  H    3.409109   2.168288   1.083233   2.467902   4.576489
                   26         27         28         29         30
    26  H    0.000000
    27  H    1.805607   0.000000
    28  H    3.925320   3.950383   0.000000
    29  H    3.958132   3.158470   1.793463   0.000000
    30  H    2.671310   3.799364   2.613607   3.760911   0.000000
    31  H    3.778400   4.329574   2.526378   3.509850   1.749985
    32  H    3.963406   5.073894   4.662479   5.519921   2.513115
    33  H    3.558094   4.128288   4.621991   4.892890   3.072901
    34  H    3.641198   4.192181   6.298321   6.223485   4.561039
    35  H    4.428125   5.165217   7.996418   7.891866   6.070146
    36  H    4.532279   5.792987   8.250441   8.470932   6.102290
    37  H    3.880099   5.589525   6.906589   7.580818   4.627365
    38  H    2.954147   4.705118   4.849102   5.828533   2.334038
    39  H    5.989723   5.659781   6.091074   5.735102   5.690174
    40  H    7.606542   7.716127   7.444191   7.573602   6.664213
    41  H    8.368691   8.692493   7.232014   7.813774   6.654255
    42  H    7.774299   8.018083   5.566517   6.357477   5.678856
    43  H    6.182721   6.045179   3.540925   3.973494   4.479841
                   31         32         33         34         35
    31  H    0.000000
    32  H    2.343570   0.000000
    33  H    2.531670   1.745051   0.000000
    34  H    4.655058   3.412046   2.314986   0.000000
    35  H    6.701150   5.282550   4.648519   2.476575   0.000000
    36  H    7.275574   5.857700   5.860202   4.298506   2.486296
    37  H    6.120634   4.922053   5.530888   4.953862   4.298303
    38  H    3.782853   2.834608   3.792132   4.289644   4.956859
    39  H    4.416122   4.534070   3.107991   4.165037   6.550357
    40  H    5.276852   4.810871   4.120790   5.357771   7.664840
    41  H    5.127446   5.028764   5.069243   6.910944   9.245436
    42  H    4.060408   4.995907   5.217342   7.459790   9.829806
    43  H    2.836344   4.718418   4.446527   6.640750   8.973137
                   36         37         38         39         40
    36  H    0.000000
    37  H    2.487129   0.000000
    38  H    4.296974   2.470112   0.000000
    39  H    8.418292   8.538717   6.882481   0.000000
    40  H    9.401711   9.356757   7.586493   2.485511   0.000000
    41  H   10.539343   9.922496   7.800355   4.300443   2.480079
    42  H   10.794930   9.745448   7.357231   4.971599   4.302298
    43  H    9.935078   8.948456   6.614917   4.296357   4.967540
                   41         42         43
    41  H    0.000000
    42  H    2.483133   0.000000
    43  H    4.307893   2.499469   0.000000
 Stoichiometry    C17H19NO4S2
 Framework group  C1[X(C17H19NO4S2)]
 Deg. of freedom   123
 Full point group                 C1      NOp   1
 Largest Abelian subgroup         C1      NOp   1
 Largest concise Abelian subgroup C1      NOp   1
                         Standard orientation:                         
 ---------------------------------------------------------------------
 Center     Atomic      Atomic             Coordinates (Angstroms)
 Number     Number       Type             X           Y           Z
 ---------------------------------------------------------------------
      1          8           0       -2.577794    0.848740    2.475956
      2         16           0       -2.169163    1.028982    1.080513
      3          7           0       -0.517879    0.741575    1.104949
      4          6           0        0.421231    0.924827   -0.010656
      5          6           0        1.865530    1.054967    0.594925
      6         16           0        2.141963    2.567578   -0.386677
      7          6           0        0.343868    2.373728   -0.605001
      8          8           0        2.532883    3.741117    0.408116
      9          8           0        2.869740    2.263253   -1.633097
     10          6           0        0.328398   -0.131690   -1.131766
     11          6           0        0.429689   -1.608755   -0.709781
     12          6           0        1.789461   -2.077592   -0.234183
     13          6           0        1.932447   -2.687932    1.016692
     14          6           0        3.178295   -3.138652    1.459137
     15          6           0        4.303519   -2.983796    0.650227
     16          6           0        4.174627   -2.380435   -0.603910
     17          6           0        2.927335   -1.935566   -1.040999
     18          6           0       -3.010291   -0.223819    0.114886
     19          6           0       -3.251994   -1.478171    0.680154
     20          6           0       -3.908010   -2.442078   -0.083189
     21          6           0       -4.318884   -2.147569   -1.385711
     22          6           0       -4.084309   -0.884164   -1.931250
     23          6           0       -3.426636    0.089721   -1.179339
     24          8           0       -2.358260    2.304514    0.380750
     25          1           0       -0.290923   -0.018538    1.741974
     26          1           0        2.559619    0.246803    0.371765
     27          1           0        1.855931    1.299842    1.658680
     28          1           0        0.013423    2.456572   -1.638693
     29          1           0       -0.201263    3.063042    0.035408
     30          1           0        1.108982    0.094594   -1.866176
     31          1           0       -0.625333    0.012293   -1.647490
     32          1           0        0.133622   -2.204010   -1.581855
     33          1           0       -0.313983   -1.828475    0.062476
     34          1           0        1.056788   -2.815444    1.645523
     35          1           0        3.267144   -3.608238    2.432434
     36          1           0        5.274043   -3.329422    0.991502
     37          1           0        5.043604   -2.259438   -1.241846
     38          1           0        2.836092   -1.468047   -2.017760
     39          1           0       -2.951875   -1.686197    1.699817
     40          1           0       -4.104786   -3.419844    0.342235
     41          1           0       -4.831057   -2.902711   -1.972046
     42          1           0       -4.417779   -0.652327   -2.936888
     43          1           0       -3.250109    1.084409   -1.570272
 ---------------------------------------------------------------------
 Rotational constants (GHZ):      0.2601581      0.1628051      0.1211009
 Leave Link  202 at Sat Aug  8 00:24:58 2020, MaxMem=    33554432 cpu:         0.0
 (Enter /prod/apps/gaussian/g09d1/l301.exe)
 Standard basis: 6-31G(d) (6D, 7F)
 Ernie: Thresh=  0.10000D-02 Tol=  0.10000D-05 Strict=F.
 There are   406 symmetry adapted cartesian basis functions of A   symmetry.
 There are   406 symmetry adapted basis functions of A   symmetry.
   406 basis functions,   796 primitive gaussians,   406 cartesian basis functions
    96 alpha electrons       96 beta electrons
       nuclear repulsion energy      2512.1920619118 Hartrees.
 IExCor=  402 DFT=T Ex+Corr=B3LYP ExCW=0 ScaHFX=  0.200000
 ScaDFX=  0.800000  0.720000  1.000000  0.810000 ScalE2=  1.000000  1.000000
 IRadAn=      0 IRanWt=     -1 IRanGd=            0 ICorTp=0 IEmpDi=  4
 NAtoms=   43 NActive=   43 NUniq=   43 SFac= 1.00D+00 NAtFMM=   60 NAOKFM=F Big=F
 Integral buffers will be    131072 words long.
 Raffenetti 2 integral format.
 Two-electron integral symmetry is turned on.
 Leave Link  301 at Sat Aug  8 00:24:59 2020, MaxMem=    33554432 cpu:         0.0
 (Enter /prod/apps/gaussian/g09d1/l302.exe)
 NPDir=0 NMtPBC=     1 NCelOv=     1 NCel=       1 NClECP=     1 NCelD=      1
         NCelK=      1 NCelE2=     1 NClLst=     1 CellRange=     0.0.
 One-electron integrals computed using PRISM.
 NBasis=   406 RedAO= T EigKep=  4.67D-04  NBF=   406
 NBsUse=   406 1.00D-06 EigRej= -1.00D+00 NBFU=   406
 Precomputing XC quadrature grid using
 IXCGrd= 4 IRadAn=           0 IRanWt=          -1 IRanGd=           0 AccXCQ= 0.00D+00.
 Generated NRdTot=       0 NPtTot=           0 NUsed=           0 NTot=          32
 NSgBfM=   399   399   399   399   399 MxSgAt=    43 MxSgA2=    43.
 Leave Link  302 at Sat Aug  8 00:25:00 2020, MaxMem=    33554432 cpu:         1.5
 (Enter /prod/apps/gaussian/g09d1/l303.exe)
 DipDrv:  MaxL=1.
 Leave Link  303 at Sat Aug  8 00:25:00 2020, MaxMem=    33554432 cpu:         0.1
 (Enter /prod/apps/gaussian/g09d1/l401.exe)
 ExpMin= 1.17D-01 ExpMax= 2.19D+04 ExpMxC= 3.30D+03 IAcc=1 IRadAn=         1 AccDes= 0.00D+00
 Harris functional with IExCor=  402 and IRadAn=       1 diagonalized for initial guess.
 HarFok:  IExCor=  402 AccDes= 0.00D+00 IRadAn=         1 IDoV= 1 UseB2=F ITyADJ=14
 ICtDFT=  3500011 ScaDFX=  1.000000  1.000000  1.000000  1.000000
 FoFCou: FMM=F IPFlag=           0 FMFlag=      100000 FMFlg1=           0
         NFxFlg=           0 DoJE=T BraDBF=F KetDBF=T FulRan=T
         wScrn=  0.000000 ICntrl=     500 IOpCl=  0 I1Cent=   200000004 NGrid=           0
         NMat0=    1 NMatS0=      1 NMatT0=    0 NMatD0=    1 NMtDS0=    0 NMtDT0=    0
 Petite list used in FoFCou.
 Harris En= -1811.22739184149    
 JPrj=0 DoOrth=F DoCkMO=F.
 Leave Link  401 at Sat Aug  8 00:25:07 2020, MaxMem=    33554432 cpu:         6.4
 (Enter /prod/apps/gaussian/g09d1/l502.exe)
 Closed shell SCF:
 Using DIIS extrapolation, IDIIS=  1040.
 Integral symmetry usage will be decided dynamically.
 IVT=      518558 IEndB=      518558 NGot=    33554432 MDV=    33217757
 LenX=    33217757 LenY=    33052480
 Requested convergence on RMS density matrix=1.00D-08 within 128 cycles.
 Requested convergence on MAX density matrix=1.00D-06.
 Requested convergence on             energy=1.00D-06.
 No special actions if energy rises.
 Fock matrices will be formed incrementally for  20 cycles.
 Integral accuracy reduced to 1.0D-05 until final iterations.

 Cycle   1  Pass 0  IDiag  1:
 FoFJK:  IHMeth= 1 ICntrl=       0 DoSepK=F KAlg= 0 I1Cent=   0 FoldK=F
 IRaf= 750000000 NMat=   1 IRICut=       1 DoRegI=T DoRafI=F ISym2E= 0.
 FoFCou: FMM=F IPFlag=           0 FMFlag=      100000 FMFlg1=           0
         NFxFlg=           0 DoJE=F BraDBF=F KetDBF=F FulRan=T
         wScrn=  0.000000 ICntrl=       0 IOpCl=  0 I1Cent=           0 NGrid=           0
         NMat0=    1 NMatS0=      1 NMatT0=    0 NMatD0=    1 NMtDS0=    0 NMtDT0=    0
 Symmetry not used in FoFCou.
 E= -1810.23724496428    
 DIIS: error= 2.95D-02 at cycle   1 NSaved=   1.
 NSaved= 1 IEnMin= 1 EnMin= -1810.23724496428     IErMin= 1 ErrMin= 2.95D-02
 ErrMax= 2.95D-02  0.00D+00 EMaxC= 1.00D-01 BMatC= 1.02D+00 BMatP= 1.02D+00
 IDIUse=3 WtCom= 7.05D-01 WtEn= 2.95D-01
 Coeff-Com:  0.100D+01
 Coeff-En:   0.100D+01
 Coeff:      0.100D+01
 Gap=     0.285 Goal=   None    Shift=    0.000
 GapD=    0.285 DampG=1.000 DampE=0.500 DampFc=0.5000 IDamp=-1.
 Damping current iteration by 5.00D-01
 RMSDP=6.56D-03 MaxDP=5.80D-01              OVMax= 2.44D-01

 Cycle   2  Pass 0  IDiag  1:
 RMSU=  3.28D-03    CP:  9.97D-01
 E= -1810.41950449918     Delta-E=       -0.182259534899 Rises=F Damp=T
 DIIS: error= 1.66D-02 at cycle   2 NSaved=   2.
 NSaved= 2 IEnMin= 2 EnMin= -1810.41950449918     IErMin= 2 ErrMin= 1.66D-02
 ErrMax= 1.66D-02  0.00D+00 EMaxC= 1.00D-01 BMatC= 1.82D-01 BMatP= 1.02D+00
 IDIUse=3 WtCom= 8.34D-01 WtEn= 1.66D-01
 Coeff-Com:  0.252D+00 0.748D+00
 Coeff-En:   0.396D+00 0.604D+00
 Coeff:      0.276D+00 0.724D+00
 Gap=     0.241 Goal=   None    Shift=    0.000
 RMSDP=2.01D-03 MaxDP=1.39D-01 DE=-1.82D-01 OVMax= 2.07D-01

 Cycle   3  Pass 0  IDiag  1:
 RMSU=  1.59D-03    CP:  9.86D-01  6.33D-01
 E= -1811.01782555027     Delta-E=       -0.598321051082 Rises=F Damp=F
 DIIS: error= 1.05D-02 at cycle   3 NSaved=   3.
 NSaved= 3 IEnMin= 3 EnMin= -1811.01782555027     IErMin= 3 ErrMin= 1.05D-02
 ErrMax= 1.05D-02  0.00D+00 EMaxC= 1.00D-01 BMatC= 1.05D-01 BMatP= 1.82D-01
 IDIUse=3 WtCom= 8.95D-01 WtEn= 1.05D-01
 Coeff-Com:  0.981D-01 0.436D+00 0.466D+00
 Coeff-En:   0.000D+00 0.000D+00 0.100D+01
 Coeff:      0.877D-01 0.390D+00 0.522D+00
 Gap=     0.209 Goal=   None    Shift=    0.000
 RMSDP=1.23D-03 MaxDP=4.41D-02 DE=-5.98D-01 OVMax= 6.89D-02

 Cycle   4  Pass 0  IDiag  1:
 RMSU=  7.48D-04    CP:  9.92D-01  7.23D-01  4.16D-01
 E= -1811.10312065968     Delta-E=       -0.085295109413 Rises=F Damp=F
 DIIS: error= 3.69D-03 at cycle   4 NSaved=   4.
 NSaved= 4 IEnMin= 4 EnMin= -1811.10312065968     IErMin= 4 ErrMin= 3.69D-03
 ErrMax= 3.69D-03  0.00D+00 EMaxC= 1.00D-01 BMatC= 1.66D-02 BMatP= 1.05D-01
 IDIUse=3 WtCom= 9.63D-01 WtEn= 3.69D-02
 Coeff-Com:  0.128D-01 0.844D-01 0.297D+00 0.606D+00
 Coeff-En:   0.000D+00 0.000D+00 0.149D+00 0.851D+00
 Coeff:      0.123D-01 0.813D-01 0.291D+00 0.615D+00
 Gap=     0.201 Goal=   None    Shift=    0.000
 RMSDP=4.28D-04 MaxDP=1.78D-02 DE=-8.53D-02 OVMax= 3.18D-02

 Cycle   5  Pass 0  IDiag  1:
 RMSU=  1.88D-04    CP:  9.91D-01  7.01D-01  5.70D-01  6.17D-01
 E= -1811.11764728496     Delta-E=       -0.014526625286 Rises=F Damp=F
 DIIS: error= 1.26D-03 at cycle   5 NSaved=   5.
 NSaved= 5 IEnMin= 5 EnMin= -1811.11764728496     IErMin= 5 ErrMin= 1.26D-03
 ErrMax= 1.26D-03  0.00D+00 EMaxC= 1.00D-01 BMatC= 1.29D-03 BMatP= 1.66D-02
 IDIUse=3 WtCom= 9.87D-01 WtEn= 1.26D-02
 Coeff-Com: -0.982D-04 0.175D-01 0.125D+00 0.342D+00 0.516D+00
 Coeff-En:   0.000D+00 0.000D+00 0.000D+00 0.130D-02 0.999D+00
 Coeff:     -0.969D-04 0.173D-01 0.124D+00 0.337D+00 0.522D+00
 Gap=     0.201 Goal=   None    Shift=    0.000
 RMSDP=1.20D-04 MaxDP=4.89D-03 DE=-1.45D-02 OVMax= 1.15D-02

 Cycle   6  Pass 0  IDiag  1:
 RMSU=  6.04D-05    CP:  9.91D-01  7.06D-01  5.62D-01  6.85D-01  5.30D-01
 E= -1811.11883718260     Delta-E=       -0.001189897637 Rises=F Damp=F
 DIIS: error= 4.82D-04 at cycle   6 NSaved=   6.
 NSaved= 6 IEnMin= 6 EnMin= -1811.11883718260     IErMin= 6 ErrMin= 4.82D-04
 ErrMax= 4.82D-04  0.00D+00 EMaxC= 1.00D-01 BMatC= 1.39D-04 BMatP= 1.29D-03
 IDIUse=3 WtCom= 9.95D-01 WtEn= 4.82D-03
 Coeff-Com: -0.113D-02 0.246D-02 0.429D-01 0.132D+00 0.303D+00 0.521D+00
 Coeff-En:   0.000D+00 0.000D+00 0.000D+00 0.000D+00 0.524D-01 0.948D+00
 Coeff:     -0.112D-02 0.245D-02 0.427D-01 0.131D+00 0.301D+00 0.523D+00
 Gap=     0.201 Goal=   None    Shift=    0.000
 RMSDP=3.68D-05 MaxDP=1.41D-03 DE=-1.19D-03 OVMax= 3.16D-03

 Cycle   7  Pass 0  IDiag  1:
 RMSU=  2.27D-05    CP:  9.91D-01  7.05D-01  5.65D-01  6.83D-01  5.95D-01
                    CP:  5.74D-01
 E= -1811.11896081935     Delta-E=       -0.000123636746 Rises=F Damp=F
 DIIS: error= 1.19D-04 at cycle   7 NSaved=   7.
 NSaved= 7 IEnMin= 7 EnMin= -1811.11896081935     IErMin= 7 ErrMin= 1.19D-04
 ErrMax= 1.19D-04  0.00D+00 EMaxC= 1.00D-01 BMatC= 1.54D-05 BMatP= 1.39D-04
 IDIUse=3 WtCom= 9.99D-01 WtEn= 1.19D-03
 Coeff-Com: -0.662D-03-0.125D-03 0.143D-01 0.476D-01 0.136D+00 0.321D+00
 Coeff-Com:  0.482D+00
 Coeff-En:   0.000D+00 0.000D+00 0.000D+00 0.000D+00 0.000D+00 0.308D-01
 Coeff-En:   0.969D+00
 Coeff:     -0.661D-03-0.125D-03 0.143D-01 0.475D-01 0.136D+00 0.320D+00
 Coeff:      0.483D+00
 Gap=     0.201 Goal=   None    Shift=    0.000
 RMSDP=1.21D-05 MaxDP=5.92D-04 DE=-1.24D-04 OVMax= 7.07D-04

 Cycle   8  Pass 0  IDiag  1:
 RMSU=  6.37D-06    CP:  9.91D-01  7.05D-01  5.65D-01  6.82D-01  5.99D-01
                    CP:  6.18D-01  5.67D-01
 E= -1811.11897429492     Delta-E=       -0.000013475576 Rises=F Damp=F
 DIIS: error= 3.66D-05 at cycle   8 NSaved=   8.
 NSaved= 8 IEnMin= 8 EnMin= -1811.11897429492     IErMin= 8 ErrMin= 3.66D-05
 ErrMax= 3.66D-05  0.00D+00 EMaxC= 1.00D-01 BMatC= 1.23D-06 BMatP= 1.54D-05
 IDIUse=1 WtCom= 1.00D+00 WtEn= 0.00D+00
 Coeff-Com: -0.243D-03-0.398D-03 0.283D-02 0.110D-01 0.422D-01 0.121D+00
 Coeff-Com:  0.272D+00 0.551D+00
 Coeff:     -0.243D-03-0.398D-03 0.283D-02 0.110D-01 0.422D-01 0.121D+00
 Coeff:      0.272D+00 0.551D+00
 Gap=     0.201 Goal=   None    Shift=    0.000
 RMSDP=3.68D-06 MaxDP=1.61D-04 DE=-1.35D-05 OVMax= 2.40D-04

 Initial convergence to 1.0D-05 achieved.  Increase integral accuracy.
 Cycle   9  Pass 1  IDiag  1:
 E= -1811.11888988236     Delta-E=        0.000084412561 Rises=F Damp=F
 DIIS: error= 4.83D-05 at cycle   1 NSaved=   1.
 NSaved= 1 IEnMin= 1 EnMin= -1811.11888988236     IErMin= 1 ErrMin= 4.83D-05
 ErrMax= 4.83D-05  0.00D+00 EMaxC= 1.00D-01 BMatC= 1.07D-06 BMatP= 1.07D-06
 IDIUse=1 WtCom= 1.00D+00 WtEn= 0.00D+00
 Coeff-Com:  0.100D+01
 Coeff:      0.100D+01
 Gap=     0.201 Goal=   None    Shift=    0.000
 RMSDP=3.68D-06 MaxDP=1.61D-04 DE= 8.44D-05 OVMax= 2.61D-04

 Cycle  10  Pass 1  IDiag  1:
 RMSU=  2.49D-05    CP:  1.00D+00
 E= -1811.11889028087     Delta-E=       -0.000000398504 Rises=F Damp=F
 DIIS: error= 4.44D-05 at cycle   2 NSaved=   2.
 NSaved= 2 IEnMin= 2 EnMin= -1811.11889028087     IErMin= 2 ErrMin= 4.44D-05
 ErrMax= 4.44D-05  0.00D+00 EMaxC= 1.00D-01 BMatC= 7.94D-07 BMatP= 1.07D-06
 IDIUse=1 WtCom= 1.00D+00 WtEn= 0.00D+00
 Coeff-Com:  0.446D+00 0.554D+00
 Coeff:      0.446D+00 0.554D+00
 Gap=     0.201 Goal=   None    Shift=    0.000
 RMSDP=3.78D-06 MaxDP=1.92D-04 DE=-3.99D-07 OVMax= 3.38D-04

 Cycle  11  Pass 1  IDiag  1:
 RMSU=  3.76D-06    CP:  1.00D+00  9.85D-01
 E= -1811.11889054144     Delta-E=       -0.000000260576 Rises=F Damp=F
 DIIS: error= 3.81D-05 at cycle   3 NSaved=   3.
 NSaved= 3 IEnMin= 3 EnMin= -1811.11889054144     IErMin= 3 ErrMin= 3.81D-05
 ErrMax= 3.81D-05  0.00D+00 EMaxC= 1.00D-01 BMatC= 5.18D-07 BMatP= 7.94D-07
 IDIUse=1 WtCom= 1.00D+00 WtEn= 0.00D+00
 Coeff-Com:  0.568D-02 0.445D+00 0.549D+00
 Coeff:      0.568D-02 0.445D+00 0.549D+00
 Gap=     0.201 Goal=   None    Shift=    0.000
 RMSDP=1.78D-06 MaxDP=9.82D-05 DE=-2.61D-07 OVMax= 1.71D-04

 Cycle  12  Pass 1  IDiag  1:
 RMSU=  5.82D-07    CP:  1.00D+00  1.00D+00  5.67D-01
 E= -1811.11889096786     Delta-E=       -0.000000426418 Rises=F Damp=F
 DIIS: error= 3.90D-06 at cycle   4 NSaved=   4.
 NSaved= 4 IEnMin= 4 EnMin= -1811.11889096786     IErMin= 4 ErrMin= 3.90D-06
 ErrMax= 3.90D-06  0.00D+00 EMaxC= 1.00D-01 BMatC= 1.42D-08 BMatP= 5.18D-07
 IDIUse=1 WtCom= 1.00D+00 WtEn= 0.00D+00
 Coeff-Com: -0.683D-02 0.257D+00 0.333D+00 0.416D+00
 Coeff:     -0.683D-02 0.257D+00 0.333D+00 0.416D+00
 Gap=     0.201 Goal=   None    Shift=    0.000
 RMSDP=3.36D-07 MaxDP=1.20D-05 DE=-4.26D-07 OVMax= 2.64D-05

 Cycle  13  Pass 1  IDiag  1:
 RMSU=  1.60D-07    CP:  1.00D+00  1.00D+00  5.64D-01  4.92D-01
 E= -1811.11889098066     Delta-E=       -0.000000012798 Rises=F Damp=F
 DIIS: error= 1.38D-06 at cycle   5 NSaved=   5.
 NSaved= 5 IEnMin= 5 EnMin= -1811.11889098066     IErMin= 5 ErrMin= 1.38D-06
 ErrMax= 1.38D-06  0.00D+00 EMaxC= 1.00D-01 BMatC= 4.85D-10 BMatP= 1.42D-08
 IDIUse=1 WtCom= 1.00D+00 WtEn= 0.00D+00
 Coeff-Com: -0.404D-02 0.122D+00 0.160D+00 0.234D+00 0.489D+00
 Coeff:     -0.404D-02 0.122D+00 0.160D+00 0.234D+00 0.489D+00
 Gap=     0.201 Goal=   None    Shift=    0.000
 RMSDP=7.32D-08 MaxDP=4.12D-06 DE=-1.28D-08 OVMax= 8.64D-06

 Cycle  14  Pass 1  IDiag  1:
 RMSU=  5.92D-08    CP:  1.00D+00  1.00D+00  5.67D-01  5.14D-01  7.52D-01
 E= -1811.11889098119     Delta-E=       -0.000000000529 Rises=F Damp=F
 DIIS: error= 4.38D-07 at cycle   6 NSaved=   6.
 NSaved= 6 IEnMin= 6 EnMin= -1811.11889098119     IErMin= 6 ErrMin= 4.38D-07
 ErrMax= 4.38D-07  0.00D+00 EMaxC= 1.00D-01 BMatC= 4.50D-11 BMatP= 4.85D-10
 IDIUse=1 WtCom= 1.00D+00 WtEn= 0.00D+00
 Coeff-Com: -0.114D-02 0.262D-01 0.348D-01 0.630D-01 0.260D+00 0.618D+00
 Coeff:     -0.114D-02 0.262D-01 0.348D-01 0.630D-01 0.260D+00 0.618D+00
 Gap=     0.201 Goal=   None    Shift=    0.000
 RMSDP=2.43D-08 MaxDP=9.80D-07 DE=-5.29D-10 OVMax= 2.46D-06

 Cycle  15  Pass 1  IDiag  1:
 RMSU=  1.82D-08    CP:  1.00D+00  1.00D+00  5.66D-01  5.16D-01  8.13D-01
                    CP:  7.88D-01
 E= -1811.11889098111     Delta-E=        0.000000000079 Rises=F Damp=F
 DIIS: error= 9.74D-08 at cycle   7 NSaved=   7.
 NSaved= 7 IEnMin= 6 EnMin= -1811.11889098119     IErMin= 7 ErrMin= 9.74D-08
 ErrMax= 9.74D-08  0.00D+00 EMaxC= 1.00D-01 BMatC= 9.42D-12 BMatP= 4.50D-11
 IDIUse=1 WtCom= 1.00D+00 WtEn= 0.00D+00
 Coeff-Com: -0.153D-03-0.288D-03-0.150D-03 0.750D-02 0.943D-01 0.378D+00
 Coeff-Com:  0.521D+00
 Coeff:     -0.153D-03-0.288D-03-0.150D-03 0.750D-02 0.943D-01 0.378D+00
 Coeff:      0.521D+00
 Gap=     0.201 Goal=   None    Shift=    0.000
 RMSDP=9.86D-09 MaxDP=7.57D-07 DE= 7.91D-11 OVMax= 5.52D-07

 SCF Done:  E(RB3LYP) =  -1811.11889098     A.U. after   15 cycles
            NFock= 15  Conv=0.99D-08     -V/T= 2.0069
 KE= 1.798679354360D+03 PE=-9.273861733676D+03 EE= 3.151871426423D+03
 Leave Link  502 at Sat Aug  8 00:33:27 2020, MaxMem=    33554432 cpu:       500.0
 (Enter /prod/apps/gaussian/g09d1/l601.exe)
 Copying SCF densities to generalized density rwf, IOpCl= 0 IROHF=0.

 **********************************************************************

            Population analysis using the SCF density.

 **********************************************************************

 Orbital symmetries:
       Occupied  (A) (A) (A) (A) (A) (A) (A) (A) (A) (A) (A) (A)
                 (A) (A) (A) (A) (A) (A) (A) (A) (A) (A) (A) (A)
                 (A) (A) (A) (A) (A) (A) (A) (A) (A) (A) (A) (A)
                 (A) (A) (A) (A) (A) (A) (A) (A) (A) (A) (A) (A)
                 (A) (A) (A) (A) (A) (A) (A) (A) (A) (A) (A) (A)
                 (A) (A) (A) (A) (A) (A) (A) (A) (A) (A) (A) (A)
                 (A) (A) (A) (A) (A) (A) (A) (A) (A) (A) (A) (A)
                 (A) (A) (A) (A) (A) (A) (A) (A) (A) (A) (A) (A)
       Virtual   (A) (A) (A) (A) (A) (A) (A) (A) (A) (A) (A) (A)
                 (A) (A) (A) (A) (A) (A) (A) (A) (A) (A) (A) (A)
                 (A) (A) (A) (A) (A) (A) (A) (A) (A) (A) (A) (A)
                 (A) (A) (A) (A) (A) (A) (A) (A) (A) (A) (A) (A)
                 (A) (A) (A) (A) (A) (A) (A) (A) (A) (A) (A) (A)
                 (A) (A) (A) (A) (A) (A) (A) (A) (A) (A) (A) (A)
                 (A) (A) (A) (A) (A) (A) (A) (A) (A) (A) (A) (A)
                 (A) (A) (A) (A) (A) (A) (A) (A) (A) (A) (A) (A)
                 (A) (A) (A) (A) (A) (A) (A) (A) (A) (A) (A) (A)
                 (A) (A) (A) (A) (A) (A) (A) (A) (A) (A) (A) (A)
                 (A) (A) (A) (A) (A) (A) (A) (A) (A) (A) (A) (A)
                 (A) (A) (A) (A) (A) (A) (A) (A) (A) (A) (A) (A)
                 (A) (A) (A) (A) (A) (A) (A) (A) (A) (A) (A) (A)
                 (A) (A) (A) (A) (A) (A) (A) (A) (A) (A) (A) (A)
                 (A) (A) (A) (A) (A) (A) (A) (A) (A) (A) (A) (A)
                 (A) (A) (A) (A) (A) (A) (A) (A) (A) (A) (A) (A)
                 (A) (A) (A) (A) (A) (A) (A) (A) (A) (A) (A) (A)
                 (A) (A) (A) (A) (A) (A) (A) (A) (A) (A) (A) (A)
                 (A) (A) (A) (A) (A) (A) (A) (A) (A) (A) (A) (A)
                 (A) (A) (A) (A) (A) (A) (A) (A) (A) (A) (A) (A)
                 (A) (A) (A) (A) (A) (A) (A) (A) (A) (A) (A) (A)
                 (A) (A) (A) (A) (A) (A) (A) (A) (A) (A) (A) (A)
                 (A) (A) (A) (A) (A) (A) (A) (A) (A) (A) (A) (A)
                 (A) (A) (A) (A) (A) (A) (A) (A) (A) (A) (A) (A)
                 (A) (A) (A) (A) (A) (A) (A) (A) (A) (A) (A) (A)
                 (A) (A) (A) (A) (A) (A) (A) (A) (A) (A)
 The electronic state is 1-A.
 Alpha  occ. eigenvalues --  -89.12791 -89.08671 -19.15548 -19.15256 -19.14062
 Alpha  occ. eigenvalues --  -19.13909 -14.38755 -10.28299 -10.24479 -10.23020
 Alpha  occ. eigenvalues --  -10.22932 -10.22780 -10.22583 -10.22548 -10.22448
 Alpha  occ. eigenvalues --  -10.22392 -10.21276 -10.21198 -10.21108 -10.20415
 Alpha  occ. eigenvalues --  -10.20353 -10.20343 -10.20168 -10.20104  -8.15230
 Alpha  occ. eigenvalues --   -8.11716  -6.11745  -6.11648  -6.11543  -6.08135
 Alpha  occ. eigenvalues --   -6.08072  -6.08007  -1.12370  -1.09365  -1.01347
 Alpha  occ. eigenvalues --   -0.99015  -0.95384  -0.89164  -0.87157  -0.85675
 Alpha  occ. eigenvalues --   -0.80592  -0.79335  -0.78123  -0.75773  -0.75038
 Alpha  occ. eigenvalues --   -0.72473  -0.69911  -0.67595  -0.64087  -0.63828
 Alpha  occ. eigenvalues --   -0.61869  -0.60956  -0.59048  -0.57841  -0.57086
 Alpha  occ. eigenvalues --   -0.53799  -0.52888  -0.51808  -0.50740  -0.49602
 Alpha  occ. eigenvalues --   -0.48804  -0.48399  -0.47701  -0.47416  -0.46709
 Alpha  occ. eigenvalues --   -0.46124  -0.45673  -0.45440  -0.44819  -0.44312
 Alpha  occ. eigenvalues --   -0.43291  -0.43098  -0.42433  -0.40888  -0.40311
 Alpha  occ. eigenvalues --   -0.39876  -0.39254  -0.38280  -0.38002  -0.37557
 Alpha  occ. eigenvalues --   -0.36095  -0.35187  -0.34984  -0.34486  -0.32880
 Alpha  occ. eigenvalues --   -0.32414  -0.31860  -0.31560  -0.30907  -0.29923
 Alpha  occ. eigenvalues --   -0.29333  -0.28553  -0.28365  -0.27467  -0.26443
 Alpha  occ. eigenvalues --   -0.25503
 Alpha virt. eigenvalues --   -0.05391  -0.03616  -0.01970  -0.01435   0.02543
 Alpha virt. eigenvalues --    0.04087   0.05361   0.05714   0.06618   0.06750
 Alpha virt. eigenvalues --    0.07899   0.08741   0.09183   0.09759   0.09963
 Alpha virt. eigenvalues --    0.10958   0.11190   0.11894   0.12815   0.13313
 Alpha virt. eigenvalues --    0.13625   0.14271   0.14625   0.15239   0.15454
 Alpha virt. eigenvalues --    0.15729   0.16141   0.17011   0.17479   0.17835
 Alpha virt. eigenvalues --    0.18323   0.19098   0.20587   0.20825   0.21977
 Alpha virt. eigenvalues --    0.22689   0.22853   0.25668   0.26279   0.27326
 Alpha virt. eigenvalues --    0.27994   0.28880   0.29380   0.30362   0.30958
 Alpha virt. eigenvalues --    0.33102   0.33309   0.33955   0.35019   0.35911
 Alpha virt. eigenvalues --    0.37471   0.40558   0.41269   0.43809   0.44695
 Alpha virt. eigenvalues --    0.45590   0.47618   0.47928   0.48418   0.50130
 Alpha virt. eigenvalues --    0.50581   0.52112   0.52564   0.53215   0.53991
 Alpha virt. eigenvalues --    0.54310   0.54854   0.55074   0.56111   0.56621
 Alpha virt. eigenvalues --    0.56811   0.57340   0.57941   0.57992   0.58466
 Alpha virt. eigenvalues --    0.58613   0.58875   0.59788   0.59803   0.60117
 Alpha virt. eigenvalues --    0.60521   0.60683   0.61334   0.62956   0.63166
 Alpha virt. eigenvalues --    0.63203   0.63822   0.65453   0.66331   0.69424
 Alpha virt. eigenvalues --    0.70081   0.70378   0.70985   0.72437   0.74040
 Alpha virt. eigenvalues --    0.76403   0.77200   0.77551   0.78658   0.79199
 Alpha virt. eigenvalues --    0.79921   0.80111   0.81229   0.81886   0.82105
 Alpha virt. eigenvalues --    0.82409   0.82887   0.83170   0.84015   0.84076
 Alpha virt. eigenvalues --    0.85022   0.85232   0.85866   0.86632   0.87673
 Alpha virt. eigenvalues --    0.88288   0.88541   0.89053   0.89656   0.90029
 Alpha virt. eigenvalues --    0.91034   0.92084   0.92213   0.92878   0.93459
 Alpha virt. eigenvalues --    0.94342   0.95223   0.95904   0.97440   0.98840
 Alpha virt. eigenvalues --    0.99099   1.00228   1.01702   1.03076   1.04483
 Alpha virt. eigenvalues --    1.05015   1.05971   1.07221   1.07567   1.07887
 Alpha virt. eigenvalues --    1.09206   1.09605   1.10951   1.11541   1.13237
 Alpha virt. eigenvalues --    1.13571   1.14793   1.14955   1.16418   1.16896
 Alpha virt. eigenvalues --    1.17065   1.17998   1.18350   1.19987   1.20480
 Alpha virt. eigenvalues --    1.21909   1.22695   1.23244   1.24749   1.25718
 Alpha virt. eigenvalues --    1.26790   1.29313   1.29721   1.34990   1.35846
 Alpha virt. eigenvalues --    1.37624   1.40293   1.40449   1.41738   1.42499
 Alpha virt. eigenvalues --    1.43377   1.44423   1.45209   1.45925   1.46644
 Alpha virt. eigenvalues --    1.46882   1.47495   1.49072   1.50012   1.50764
 Alpha virt. eigenvalues --    1.54916   1.57673   1.59082   1.60052   1.63780
 Alpha virt. eigenvalues --    1.67559   1.70688   1.71375   1.73606   1.74333
 Alpha virt. eigenvalues --    1.75294   1.76122   1.77005   1.78564   1.79703
 Alpha virt. eigenvalues --    1.80302   1.80488   1.80960   1.81572   1.82362
 Alpha virt. eigenvalues --    1.83006   1.83378   1.83824   1.85330   1.85901
 Alpha virt. eigenvalues --    1.86796   1.88520   1.89128   1.89483   1.90031
 Alpha virt. eigenvalues --    1.90856   1.91687   1.93723   1.95028   1.95701
 Alpha virt. eigenvalues --    1.96273   1.96581   1.97915   1.99206   2.01480
 Alpha virt. eigenvalues --    2.03531   2.04154   2.04876   2.05652   2.07919
 Alpha virt. eigenvalues --    2.08192   2.09516   2.09830   2.11127   2.11759
 Alpha virt. eigenvalues --    2.12222   2.12645   2.12793   2.13545   2.14094
 Alpha virt. eigenvalues --    2.15117   2.16099   2.17629   2.19662   2.21644
 Alpha virt. eigenvalues --    2.22642   2.25319   2.26384   2.27060   2.27458
 Alpha virt. eigenvalues --    2.29077   2.29569   2.29821   2.30000   2.30745
 Alpha virt. eigenvalues --    2.31607   2.36885   2.38784   2.39259   2.41090
 Alpha virt. eigenvalues --    2.48184   2.49803   2.52350   2.54710   2.56257
 Alpha virt. eigenvalues --    2.57370   2.58182   2.61562   2.63060   2.64067
 Alpha virt. eigenvalues --    2.66408   2.68712   2.69934   2.70968   2.71479
 Alpha virt. eigenvalues --    2.71846   2.73237   2.73696   2.74600   2.74900
 Alpha virt. eigenvalues --    2.75343   2.77297   2.78242   2.80791   2.83273
 Alpha virt. eigenvalues --    2.87979   2.88630   3.00656   3.04682   3.35428
 Alpha virt. eigenvalues --    3.39690   3.74596   3.81329   3.92662   3.95629
 Alpha virt. eigenvalues --    3.98734   4.03227   4.06283   4.08631   4.09478
 Alpha virt. eigenvalues --    4.10068   4.11782   4.16357   4.17619   4.21196
 Alpha virt. eigenvalues --    4.24775   4.30944   4.32403   4.32909   4.35551
 Alpha virt. eigenvalues --    4.40723   4.53265   4.64052   4.69208   4.74998
          Condensed to atoms (all electrons):
               1          2          3          4          5          6
     1  O    8.220024   0.450684  -0.058189   0.002287  -0.000079   0.000006
     2  S    0.450684  13.710541   0.129277  -0.008105   0.001068   0.000164
     3  N   -0.058189   0.129277   7.372051   0.234931  -0.045634   0.004304
     4  C    0.002287  -0.008105   0.234931   4.854758   0.341474  -0.095706
     5  C   -0.000079   0.001068  -0.045634   0.341474   5.772196   0.117215
     6  S    0.000006   0.000164   0.004304  -0.095706   0.117215  13.891681
     7  C   -0.000015  -0.004254  -0.049167   0.358139  -0.182416   0.133693
     8  O    0.000000  -0.000024  -0.000154   0.002598  -0.045501   0.440165
     9  O    0.000000  -0.000004  -0.000028   0.001319  -0.045720   0.408202
    10  C   -0.000084  -0.008064  -0.064793   0.358991  -0.056767   0.006664
    11  C    0.000013  -0.000439  -0.004520  -0.034171  -0.003092  -0.000171
    12  C    0.000000  -0.000067  -0.001091  -0.002466  -0.001908   0.000102
    13  C    0.000000  -0.000021  -0.000149   0.001021   0.000129   0.000100
    14  C    0.000000   0.000000   0.000000   0.000003   0.000278   0.000002
    15  C    0.000000   0.000000   0.000000   0.000005   0.000055  -0.000001
    16  C    0.000000   0.000000   0.000001  -0.000013  -0.000772  -0.000041
    17  C    0.000000  -0.000002   0.000021  -0.001252  -0.005162   0.000020
    18  C   -0.061768   0.166785  -0.058672  -0.001187  -0.000125   0.000002
    19  C    0.002972  -0.020385  -0.002084   0.000218  -0.000009   0.000001
    20  C    0.000421   0.002699  -0.000072  -0.000004   0.000000   0.000000
    21  C   -0.000005  -0.000359   0.000001   0.000004   0.000000   0.000000
    22  C   -0.000046   0.002862  -0.000092   0.000050   0.000000   0.000000
    23  C    0.000984  -0.024882  -0.001007   0.000277  -0.000005   0.000002
    24  O   -0.039861   0.412939  -0.052833  -0.000026  -0.000072   0.000420
    25  H    0.002367  -0.004850   0.290661  -0.026309  -0.006050   0.000108
    26  H    0.000000  -0.000051   0.001090  -0.024137   0.334850  -0.008827
    27  H   -0.000023  -0.000033   0.000371  -0.028005   0.328052   0.000221
    28  H    0.000000  -0.000099   0.001489  -0.028981   0.009956  -0.012533
    29  H   -0.000187  -0.002346  -0.000585  -0.021597   0.003250  -0.001289
    30  H    0.000000   0.000254   0.004817  -0.027967  -0.005191   0.005987
    31  H   -0.000004   0.003017  -0.003188  -0.033952   0.005346  -0.000284
    32  H    0.000000  -0.000048   0.000136   0.004831  -0.000018   0.000026
    33  H   -0.000075   0.000557   0.008061  -0.011094  -0.000090  -0.000058
    34  H    0.000000   0.000003  -0.000035  -0.000042  -0.000019   0.000000
    35  H    0.000000   0.000000   0.000000   0.000000  -0.000002   0.000000
    36  H    0.000000   0.000000   0.000000   0.000000   0.000000   0.000000
    37  H    0.000000   0.000000   0.000000   0.000000  -0.000009   0.000000
    38  H    0.000000   0.000000   0.000001   0.000146  -0.000030   0.000107
    39  H    0.006506  -0.000168   0.000090   0.000016   0.000000   0.000000
    40  H    0.000001  -0.000044   0.000002   0.000000   0.000000   0.000000
    41  H    0.000000   0.000007   0.000000   0.000000   0.000000   0.000000
    42  H    0.000000  -0.000048   0.000001   0.000000   0.000000   0.000000
    43  H    0.000074  -0.005082   0.000205   0.000060   0.000003   0.000007
               7          8          9         10         11         12
     1  O   -0.000015   0.000000   0.000000  -0.000084   0.000013   0.000000
     2  S   -0.004254  -0.000024  -0.000004  -0.008064  -0.000439  -0.000067
     3  N   -0.049167  -0.000154  -0.000028  -0.064793  -0.004520  -0.001091
     4  C    0.358139   0.002598   0.001319   0.358991  -0.034171  -0.002466
     5  C   -0.182416  -0.045501  -0.045720  -0.056767  -0.003092  -0.001908
     6  S    0.133693   0.440165   0.408202   0.006664  -0.000171   0.000102
     7  C    5.693693  -0.045382  -0.046418  -0.055076   0.003891  -0.000043
     8  O   -0.045382   8.194223  -0.044116  -0.000068   0.000000   0.000000
     9  O   -0.046418  -0.044116   8.255515  -0.002950   0.000073  -0.000050
    10  C   -0.055076  -0.000068  -0.002950   5.189243   0.330823  -0.034082
    11  C    0.003891   0.000000   0.000073   0.330823   5.194446   0.346673
    12  C   -0.000043   0.000000  -0.000050  -0.034082   0.346673   4.674537
    13  C   -0.000004   0.000000   0.000000   0.000125  -0.049247   0.549689
    14  C    0.000000   0.000000   0.000000  -0.000191   0.007340  -0.021276
    15  C    0.000000   0.000000   0.000000   0.000006   0.000332  -0.035257
    16  C    0.000000   0.000000  -0.000013   0.000215   0.006154  -0.019875
    17  C   -0.000034   0.000000   0.000018  -0.003157  -0.067394   0.532489
    18  C   -0.000921   0.000000   0.000000   0.001725  -0.001573   0.000072
    19  C    0.000000   0.000000   0.000000   0.000117  -0.001030   0.000087
    20  C    0.000000   0.000000   0.000000   0.000046  -0.000217   0.000011
    21  C    0.000000   0.000000   0.000000   0.000008   0.000017   0.000000
    22  C    0.000001   0.000000   0.000000  -0.000401   0.000110   0.000000
    23  C   -0.000057   0.000000   0.000000  -0.002712   0.000388   0.000003
    24  O   -0.001222   0.000000   0.000000  -0.001143   0.000017   0.000000
    25  H    0.004653   0.000002   0.000001  -0.001814   0.001978   0.000369
    26  H    0.008489   0.000550  -0.000272  -0.004160  -0.002195   0.006521
    27  H    0.003379  -0.000124   0.001143   0.004259  -0.000046  -0.000059
    28  H    0.345408   0.000771  -0.000194  -0.003358   0.000197   0.000008
    29  H    0.329110  -0.000086   0.001070   0.003869  -0.000099   0.000001
    30  H   -0.003446   0.000022   0.006925   0.354435  -0.033028  -0.007945
    31  H   -0.006190   0.000001   0.000068   0.352757  -0.030819   0.004187
    32  H   -0.000135   0.000000   0.000000  -0.034315   0.362408  -0.029212
    33  H    0.000118   0.000000   0.000000  -0.036104   0.353511  -0.038254
    34  H    0.000000   0.000000   0.000000   0.000191  -0.011921  -0.046638
    35  H    0.000000   0.000000   0.000000   0.000002  -0.000178   0.003854
    36  H    0.000000   0.000000   0.000000   0.000000   0.000007   0.000727
    37  H    0.000000   0.000000  -0.000001   0.000002  -0.000179   0.003555
    38  H   -0.000004   0.000000   0.000178   0.000777  -0.008355  -0.048893
    39  H    0.000000   0.000000   0.000000   0.000002  -0.000043   0.000003
    40  H    0.000000   0.000000   0.000000   0.000000  -0.000005   0.000000
    41  H    0.000000   0.000000   0.000000   0.000000   0.000001   0.000000
    42  H    0.000000   0.000000   0.000000  -0.000003   0.000000   0.000000
    43  H    0.000140   0.000000   0.000000  -0.000249   0.000009   0.000000
              13         14         15         16         17         18
     1  O    0.000000   0.000000   0.000000   0.000000   0.000000  -0.061768
     2  S   -0.000021   0.000000   0.000000   0.000000  -0.000002   0.166785
     3  N   -0.000149   0.000000   0.000000   0.000001   0.000021  -0.058672
     4  C    0.001021   0.000003   0.000005  -0.000013  -0.001252  -0.001187
     5  C    0.000129   0.000278   0.000055  -0.000772  -0.005162  -0.000125
     6  S    0.000100   0.000002  -0.000001  -0.000041   0.000020   0.000002
     7  C   -0.000004   0.000000   0.000000   0.000000  -0.000034  -0.000921
     8  O    0.000000   0.000000   0.000000   0.000000   0.000000   0.000000
     9  O    0.000000   0.000000   0.000000  -0.000013   0.000018   0.000000
    10  C    0.000125  -0.000191   0.000006   0.000215  -0.003157   0.001725
    11  C   -0.049247   0.007340   0.000332   0.006154  -0.067394  -0.001573
    12  C    0.549689  -0.021276  -0.035257  -0.019875   0.532489   0.000072
    13  C    4.983188   0.518181  -0.036055  -0.045604  -0.043625  -0.000007
    14  C    0.518181   4.865445   0.552762  -0.026010  -0.047058   0.000000
    15  C   -0.036055   0.552762   4.854600   0.545134  -0.035557   0.000000
    16  C   -0.045604  -0.026010   0.545134   4.856861   0.525921   0.000000
    17  C   -0.043625  -0.047058  -0.035557   0.525921   4.991349   0.000000
    18  C   -0.000007   0.000000   0.000000   0.000000   0.000000   5.345224
    19  C   -0.000028   0.000000   0.000000   0.000000   0.000000   0.472736
    20  C   -0.000002   0.000000   0.000000   0.000000   0.000000  -0.027557
    21  C    0.000000   0.000000   0.000000   0.000000   0.000000  -0.038037
    22  C    0.000000   0.000000   0.000000   0.000000   0.000000  -0.030696
    23  C    0.000000   0.000000   0.000000   0.000000   0.000000   0.507727
    24  O    0.000000   0.000000   0.000000   0.000000   0.000000  -0.059198
    25  H    0.001119   0.000012   0.000000  -0.000002   0.000009  -0.000580
    26  H   -0.000504  -0.000344   0.000206   0.001870   0.008401   0.000002
    27  H    0.000030  -0.000034  -0.000007   0.000006   0.000103   0.000007
    28  H    0.000000   0.000000   0.000000   0.000000   0.000002  -0.000001
    29  H    0.000000   0.000000   0.000000   0.000000   0.000000   0.000222
    30  H    0.000114   0.000006   0.000000  -0.000067   0.003561   0.000053
    31  H   -0.000094   0.000002   0.000000   0.000000   0.000109   0.000153
    32  H    0.001294  -0.000229   0.000035  -0.000048  -0.004875  -0.000042
    33  H   -0.005902   0.000230   0.000000  -0.000166   0.005130   0.002112
    34  H    0.352336  -0.045645   0.004902   0.000307   0.006585  -0.000002
    35  H   -0.039542   0.357826  -0.042314   0.004571   0.000771   0.000000
    36  H    0.004671  -0.042730   0.360391  -0.042088   0.004721   0.000000
    37  H    0.000849   0.004516  -0.042160   0.359366  -0.038914   0.000000
    38  H    0.005782   0.000377   0.004663  -0.040633   0.358546   0.000000
    39  H   -0.000004   0.000000   0.000000   0.000000   0.000000  -0.049691
    40  H    0.000000   0.000000   0.000000   0.000000   0.000000   0.004860
    41  H    0.000000   0.000000   0.000000   0.000000   0.000000   0.000472
    42  H    0.000000   0.000000   0.000000   0.000000   0.000000   0.004745
    43  H    0.000000   0.000000   0.000000   0.000000   0.000000  -0.042622
              19         20         21         22         23         24
     1  O    0.002972   0.000421  -0.000005  -0.000046   0.000984  -0.039861
     2  S   -0.020385   0.002699  -0.000359   0.002862  -0.024882   0.412939
     3  N   -0.002084  -0.000072   0.000001  -0.000092  -0.001007  -0.052833
     4  C    0.000218  -0.000004   0.000004   0.000050   0.000277  -0.000026
     5  C   -0.000009   0.000000   0.000000   0.000000  -0.000005  -0.000072
     6  S    0.000001   0.000000   0.000000   0.000000   0.000002   0.000420
     7  C    0.000000   0.000000   0.000000   0.000001  -0.000057  -0.001222
     8  O    0.000000   0.000000   0.000000   0.000000   0.000000   0.000000
     9  O    0.000000   0.000000   0.000000   0.000000   0.000000   0.000000
    10  C    0.000117   0.000046   0.000008  -0.000401  -0.002712  -0.001143
    11  C   -0.001030  -0.000217   0.000017   0.000110   0.000388   0.000017
    12  C    0.000087   0.000011   0.000000   0.000000   0.000003   0.000000
    13  C   -0.000028  -0.000002   0.000000   0.000000   0.000000   0.000000
    14  C    0.000000   0.000000   0.000000   0.000000   0.000000   0.000000
    15  C    0.000000   0.000000   0.000000   0.000000   0.000000   0.000000
    16  C    0.000000   0.000000   0.000000   0.000000   0.000000   0.000000
    17  C    0.000000   0.000000   0.000000   0.000000   0.000000   0.000000
    18  C    0.472736  -0.027557  -0.038037  -0.030696   0.507727  -0.059198
    19  C    4.950887   0.511441  -0.030008  -0.036718  -0.039339   0.001958
    20  C    0.511441   4.874025   0.543587  -0.029799  -0.037942  -0.000043
    21  C   -0.030008   0.543587   4.840863   0.544783  -0.030272  -0.000006
    22  C   -0.036718  -0.029799   0.544783   4.885953   0.499740   0.000647
    23  C   -0.039339  -0.037942  -0.030272   0.499740   4.941141   0.001984
    24  O    0.001958  -0.000043  -0.000006   0.000647   0.001984   8.262785
    25  H    0.000183   0.000022   0.000000   0.000001   0.000012   0.001835
    26  H    0.000000   0.000000   0.000000   0.000000   0.000000   0.000000
    27  H    0.000000   0.000000   0.000000   0.000000   0.000000  -0.000011
    28  H    0.000001   0.000000   0.000000   0.000000  -0.000020  -0.000276
    29  H   -0.000002   0.000000   0.000000   0.000000  -0.000017   0.007279
    30  H   -0.000005  -0.000001  -0.000001   0.000002   0.000018  -0.000013
    31  H   -0.000385  -0.000111   0.000015   0.000617   0.006209   0.000015
    32  H    0.000015   0.000042   0.000049   0.000039   0.000019   0.000000
    33  H    0.004289   0.000542  -0.000047  -0.000140  -0.000349  -0.000018
    34  H    0.000014   0.000001   0.000000   0.000000   0.000000   0.000000
    35  H    0.000000   0.000000   0.000000   0.000000   0.000000   0.000000
    36  H    0.000000   0.000000   0.000000   0.000000   0.000000   0.000000
    37  H    0.000000   0.000000   0.000000   0.000000   0.000000   0.000000
    38  H    0.000000   0.000000   0.000000   0.000000   0.000000   0.000000
    39  H    0.361502  -0.036201   0.004166   0.000378   0.004495   0.000079
    40  H   -0.042096   0.363452  -0.041149   0.004436   0.000650   0.000000
    41  H    0.004939  -0.042026   0.362564  -0.041983   0.004827   0.000000
    42  H    0.000662   0.004403  -0.041440   0.363956  -0.041877   0.000002
    43  H    0.004857   0.000280   0.004076  -0.036464   0.358800   0.011647
              25         26         27         28         29         30
     1  O    0.002367   0.000000  -0.000023   0.000000  -0.000187   0.000000
     2  S   -0.004850  -0.000051  -0.000033  -0.000099  -0.002346   0.000254
     3  N    0.290661   0.001090   0.000371   0.001489  -0.000585   0.004817
     4  C   -0.026309  -0.024137  -0.028005  -0.028981  -0.021597  -0.027967
     5  C   -0.006050   0.334850   0.328052   0.009956   0.003250  -0.005191
     6  S    0.000108  -0.008827   0.000221  -0.012533  -0.001289   0.005987
     7  C    0.004653   0.008489   0.003379   0.345408   0.329110  -0.003446
     8  O    0.000002   0.000550  -0.000124   0.000771  -0.000086   0.000022
     9  O    0.000001  -0.000272   0.001143  -0.000194   0.001070   0.006925
    10  C   -0.001814  -0.004160   0.004259  -0.003358   0.003869   0.354435
    11  C    0.001978  -0.002195  -0.000046   0.000197  -0.000099  -0.033028
    12  C    0.000369   0.006521  -0.000059   0.000008   0.000001  -0.007945
    13  C    0.001119  -0.000504   0.000030   0.000000   0.000000   0.000114
    14  C    0.000012  -0.000344  -0.000034   0.000000   0.000000   0.000006
    15  C    0.000000   0.000206  -0.000007   0.000000   0.000000   0.000000
    16  C   -0.000002   0.001870   0.000006   0.000000   0.000000  -0.000067
    17  C    0.000009   0.008401   0.000103   0.000002   0.000000   0.003561
    18  C   -0.000580   0.000002   0.000007  -0.000001   0.000222   0.000053
    19  C    0.000183   0.000000   0.000000   0.000001  -0.000002  -0.000005
    20  C    0.000022   0.000000   0.000000   0.000000   0.000000  -0.000001
    21  C    0.000000   0.000000   0.000000   0.000000   0.000000  -0.000001
    22  C    0.000001   0.000000   0.000000   0.000000   0.000000   0.000002
    23  C    0.000012   0.000000   0.000000  -0.000020  -0.000017   0.000018
    24  O    0.001835   0.000000  -0.000011  -0.000276   0.007279  -0.000013
    25  H    0.375668   0.000326   0.001149  -0.000103   0.000073  -0.000051
    26  H    0.000326   0.462819  -0.017554  -0.000280  -0.000203  -0.000597
    27  H    0.001149  -0.017554   0.493507  -0.000258   0.000129   0.000043
    28  H   -0.000103  -0.000280  -0.000258   0.497119  -0.017070  -0.000313
    29  H    0.000073  -0.000203   0.000129  -0.017070   0.448617   0.000087
    30  H   -0.000051  -0.000597   0.000043  -0.000313   0.000087   0.545484
    31  H   -0.000182   0.000173  -0.000120   0.003607   0.000024  -0.029531
    32  H    0.000004   0.000009   0.000003  -0.000013   0.000002  -0.002043
    33  H    0.001418   0.000028  -0.000026   0.000002   0.000002   0.005084
    34  H    0.000767   0.000035   0.000005   0.000000   0.000000   0.000007
    35  H   -0.000001   0.000003   0.000000   0.000000   0.000000   0.000000
    36  H    0.000000   0.000000   0.000000   0.000000   0.000000   0.000000
    37  H    0.000000   0.000026   0.000000   0.000000   0.000000   0.000005
    38  H   -0.000001   0.000012   0.000003   0.000000   0.000000   0.003707
    39  H    0.000197   0.000000   0.000000   0.000000   0.000000   0.000000
    40  H    0.000000   0.000000   0.000000   0.000000   0.000000   0.000000
    41  H    0.000000   0.000000   0.000000   0.000000   0.000000   0.000000
    42  H    0.000000   0.000000   0.000000   0.000000   0.000000   0.000000
    43  H   -0.000014   0.000000   0.000000   0.000209  -0.000017  -0.000006
              31         32         33         34         35         36
     1  O   -0.000004   0.000000  -0.000075   0.000000   0.000000   0.000000
     2  S    0.003017  -0.000048   0.000557   0.000003   0.000000   0.000000
     3  N   -0.003188   0.000136   0.008061  -0.000035   0.000000   0.000000
     4  C   -0.033952   0.004831  -0.011094  -0.000042   0.000000   0.000000
     5  C    0.005346  -0.000018  -0.000090  -0.000019  -0.000002   0.000000
     6  S   -0.000284   0.000026  -0.000058   0.000000   0.000000   0.000000
     7  C   -0.006190  -0.000135   0.000118   0.000000   0.000000   0.000000
     8  O    0.000001   0.000000   0.000000   0.000000   0.000000   0.000000
     9  O    0.000068   0.000000   0.000000   0.000000   0.000000   0.000000
    10  C    0.352757  -0.034315  -0.036104   0.000191   0.000002   0.000000
    11  C   -0.030819   0.362408   0.353511  -0.011921  -0.000178   0.000007
    12  C    0.004187  -0.029212  -0.038254  -0.046638   0.003854   0.000727
    13  C   -0.000094   0.001294  -0.005902   0.352336  -0.039542   0.004671
    14  C    0.000002  -0.000229   0.000230  -0.045645   0.357826  -0.042730
    15  C    0.000000   0.000035   0.000000   0.004902  -0.042314   0.360391
    16  C    0.000000  -0.000048  -0.000166   0.000307   0.004571  -0.042088
    17  C    0.000109  -0.004875   0.005130   0.006585   0.000771   0.004721
    18  C    0.000153  -0.000042   0.002112  -0.000002   0.000000   0.000000
    19  C   -0.000385   0.000015   0.004289   0.000014   0.000000   0.000000
    20  C   -0.000111   0.000042   0.000542   0.000001   0.000000   0.000000
    21  C    0.000015   0.000049  -0.000047   0.000000   0.000000   0.000000
    22  C    0.000617   0.000039  -0.000140   0.000000   0.000000   0.000000
    23  C    0.006209   0.000019  -0.000349   0.000000   0.000000   0.000000
    24  O    0.000015   0.000000  -0.000018   0.000000   0.000000   0.000000
    25  H   -0.000182   0.000004   0.001418   0.000767  -0.000001   0.000000
    26  H    0.000173   0.000009   0.000028   0.000035   0.000003   0.000000
    27  H   -0.000120   0.000003  -0.000026   0.000005   0.000000   0.000000
    28  H    0.003607  -0.000013   0.000002   0.000000   0.000000   0.000000
    29  H    0.000024   0.000002   0.000002   0.000000   0.000000   0.000000
    30  H   -0.029531  -0.002043   0.005084   0.000007   0.000000   0.000000
    31  H    0.581176  -0.004387  -0.002757  -0.000012   0.000000   0.000000
    32  H   -0.004387   0.571830  -0.033387   0.000163   0.000003   0.000000
    33  H   -0.002757  -0.033387   0.602137   0.008092  -0.000011   0.000000
    34  H   -0.000012   0.000163   0.008092   0.618358  -0.005633  -0.000180
    35  H    0.000000   0.000003  -0.000011  -0.005633   0.590263  -0.005518
    36  H    0.000000   0.000000   0.000000  -0.000180  -0.005518   0.587949
    37  H    0.000000  -0.000001   0.000003   0.000017  -0.000182  -0.005321
    38  H   -0.000143   0.001689   0.000025  -0.000179   0.000017  -0.000176
    39  H   -0.000002   0.000000   0.000222   0.000041   0.000000   0.000000
    40  H    0.000000   0.000000   0.000016   0.000000   0.000000   0.000000
    41  H   -0.000001   0.000000  -0.000001   0.000000   0.000000   0.000000
    42  H    0.000013   0.000000   0.000000   0.000000   0.000000   0.000000
    43  H    0.000685   0.000000  -0.000004   0.000000   0.000000   0.000000
              37         38         39         40         41         42
     1  O    0.000000   0.000000   0.006506   0.000001   0.000000   0.000000
     2  S    0.000000   0.000000  -0.000168  -0.000044   0.000007  -0.000048
     3  N    0.000000   0.000001   0.000090   0.000002   0.000000   0.000001
     4  C    0.000000   0.000146   0.000016   0.000000   0.000000   0.000000
     5  C   -0.000009  -0.000030   0.000000   0.000000   0.000000   0.000000
     6  S    0.000000   0.000107   0.000000   0.000000   0.000000   0.000000
     7  C    0.000000  -0.000004   0.000000   0.000000   0.000000   0.000000
     8  O    0.000000   0.000000   0.000000   0.000000   0.000000   0.000000
     9  O   -0.000001   0.000178   0.000000   0.000000   0.000000   0.000000
    10  C    0.000002   0.000777   0.000002   0.000000   0.000000  -0.000003
    11  C   -0.000179  -0.008355  -0.000043  -0.000005   0.000001   0.000000
    12  C    0.003555  -0.048893   0.000003   0.000000   0.000000   0.000000
    13  C    0.000849   0.005782  -0.000004   0.000000   0.000000   0.000000
    14  C    0.004516   0.000377   0.000000   0.000000   0.000000   0.000000
    15  C   -0.042160   0.004663   0.000000   0.000000   0.000000   0.000000
    16  C    0.359366  -0.040633   0.000000   0.000000   0.000000   0.000000
    17  C   -0.038914   0.358546   0.000000   0.000000   0.000000   0.000000
    18  C    0.000000   0.000000  -0.049691   0.004860   0.000472   0.004745
    19  C    0.000000   0.000000   0.361502  -0.042096   0.004939   0.000662
    20  C    0.000000   0.000000  -0.036201   0.363452  -0.042026   0.004403
    21  C    0.000000   0.000000   0.004166  -0.041149   0.362564  -0.041440
    22  C    0.000000   0.000000   0.000378   0.004436  -0.041983   0.363956
    23  C    0.000000   0.000000   0.004495   0.000650   0.004827  -0.041877
    24  O    0.000000   0.000000   0.000079   0.000000   0.000000   0.000002
    25  H    0.000000  -0.000001   0.000197   0.000000   0.000000   0.000000
    26  H    0.000026   0.000012   0.000000   0.000000   0.000000   0.000000
    27  H    0.000000   0.000003   0.000000   0.000000   0.000000   0.000000
    28  H    0.000000   0.000000   0.000000   0.000000   0.000000   0.000000
    29  H    0.000000   0.000000   0.000000   0.000000   0.000000   0.000000
    30  H    0.000005   0.003707   0.000000   0.000000   0.000000   0.000000
    31  H    0.000000  -0.000143  -0.000002   0.000000  -0.000001   0.000013
    32  H   -0.000001   0.001689   0.000000   0.000000   0.000000   0.000000
    33  H    0.000003   0.000025   0.000222   0.000016  -0.000001   0.000000
    34  H    0.000017  -0.000179   0.000041   0.000000   0.000000   0.000000
    35  H   -0.000182   0.000017   0.000000   0.000000   0.000000   0.000000
    36  H   -0.005321  -0.000176   0.000000   0.000000   0.000000   0.000000
    37  H    0.580982  -0.005332   0.000000   0.000000   0.000000   0.000000
    38  H   -0.005332   0.585323   0.000000   0.000000   0.000000   0.000000
    39  H    0.000000   0.000000   0.540654  -0.005253  -0.000151   0.000015
    40  H    0.000000   0.000000  -0.005253   0.569658  -0.005394  -0.000167
    41  H    0.000000   0.000000  -0.000151  -0.005394   0.572170  -0.005380
    42  H    0.000000   0.000000   0.000015  -0.000167  -0.005380   0.567721
    43  H    0.000000   0.000000  -0.000152   0.000014  -0.000143  -0.004897
              43
     1  O    0.000074
     2  S   -0.005082
     3  N    0.000205
     4  C    0.000060
     5  C    0.000003
     6  S    0.000007
     7  C    0.000140
     8  O    0.000000
     9  O    0.000000
    10  C   -0.000249
    11  C    0.000009
    12  C    0.000000
    13  C    0.000000
    14  C    0.000000
    15  C    0.000000
    16  C    0.000000
    17  C    0.000000
    18  C   -0.042622
    19  C    0.004857
    20  C    0.000280
    21  C    0.004076
    22  C   -0.036464
    23  C    0.358800
    24  O    0.011647
    25  H   -0.000014
    26  H    0.000000
    27  H    0.000000
    28  H    0.000209
    29  H   -0.000017
    30  H   -0.000006
    31  H    0.000685
    32  H    0.000000
    33  H   -0.000004
    34  H    0.000000
    35  H    0.000000
    36  H    0.000000
    37  H    0.000000
    38  H    0.000000
    39  H   -0.000152
    40  H    0.000014
    41  H   -0.000143
    42  H   -0.004897
    43  H    0.523696
 Mulliken charges:
               1
     1  O   -0.526005
     2  S    1.198518
     3  N   -0.705218
     4  C    0.183888
     5  C   -0.515199
     6  S    1.109707
     7  C   -0.485930
     8  O   -0.502878
     9  O   -0.534745
    10  C   -0.294765
    11  C   -0.359665
    12  C    0.164228
    13  C   -0.197841
    14  C   -0.123464
    15  C   -0.131739
    16  C   -0.125073
[...]
    39  H   -0.000004   0.000000   0.000000   0.000000   0.000000  -0.051857
    40  H    0.000000   0.000000   0.000000   0.000000   0.000000   0.004806
    41  H    0.000000   0.000000   0.000000   0.000000   0.000000   0.000467
    42  H    0.000000   0.000000   0.000000   0.000000   0.000000   0.004724
    43  H    0.000000   0.000000   0.000000   0.000000   0.000000  -0.045753
              19         20         21         22         23         24
     1  O    0.003032   0.000408  -0.000005  -0.000045   0.000920  -0.039197
     2  S   -0.021468   0.002630  -0.000369   0.002792  -0.025836   0.414154
     3  N   -0.001977  -0.000063   0.000001  -0.000089  -0.000993  -0.053322
     4  C    0.000197  -0.000003   0.000004   0.000047   0.000279   0.000062
     5  C   -0.000009   0.000000   0.000000   0.000000  -0.000005  -0.000073
     6  S    0.000001   0.000000   0.000000   0.000000   0.000002   0.000412
     7  C    0.000001   0.000000   0.000000   0.000001  -0.000057  -0.001324
     8  O    0.000000   0.000000   0.000000   0.000000   0.000000   0.000000
     9  O    0.000000   0.000000   0.000000   0.000000   0.000000   0.000000
    10  C    0.000125   0.000045   0.000006  -0.000395  -0.002666  -0.001159
    11  C   -0.001012  -0.000211   0.000017   0.000107   0.000381   0.000017
    12  C    0.000084   0.000011   0.000000   0.000000   0.000003   0.000000
    13  C   -0.000027  -0.000002   0.000000   0.000000   0.000000   0.000000
    14  C    0.000000   0.000000   0.000000   0.000000   0.000000   0.000000
    15  C    0.000000   0.000000   0.000000   0.000000   0.000000   0.000000
    16  C    0.000000   0.000000   0.000000   0.000000   0.000000   0.000000
    17  C    0.000000   0.000000   0.000000   0.000000   0.000000   0.000000
    18  C    0.470088  -0.028550  -0.038161  -0.031234   0.504013  -0.059879
    19  C    4.953025   0.515051  -0.030828  -0.036993  -0.037155   0.001869
    20  C    0.515051   4.871202   0.541177  -0.030054  -0.037923  -0.000043
    21  C   -0.030828   0.541177   4.845688   0.542481  -0.031152  -0.000006
    22  C   -0.036993  -0.030054   0.542481   4.881959   0.504678   0.000617
    23  C   -0.037155  -0.037923  -0.031152   0.504678   4.940092   0.001857
    24  O    0.001869  -0.000043  -0.000006   0.000617   0.001857   8.274914
    25  H    0.000192   0.000020   0.000000   0.000001   0.000008   0.001718
    26  H    0.000000   0.000000   0.000000   0.000000   0.000000   0.000000
    27  H    0.000000   0.000000   0.000000   0.000000   0.000000  -0.000011
    28  H    0.000000   0.000000   0.000000   0.000000  -0.000013  -0.000290
    29  H   -0.000002   0.000000   0.000000   0.000000  -0.000019   0.007588
    30  H   -0.000005  -0.000001  -0.000001   0.000002   0.000020  -0.000012
    31  H   -0.000404  -0.000108   0.000018   0.000619   0.006157   0.000000
    32  H    0.000018   0.000041   0.000048   0.000039   0.000020   0.000000
    33  H    0.004184   0.000537  -0.000043  -0.000134  -0.000356  -0.000017
    34  H    0.000014   0.000001   0.000000   0.000000   0.000000   0.000000
    35  H    0.000000   0.000000   0.000000   0.000000   0.000000   0.000000
    36  H    0.000000   0.000000   0.000000   0.000000   0.000000   0.000000
    37  H    0.000000   0.000000   0.000000   0.000000   0.000000   0.000000
    38  H    0.000000   0.000000   0.000000   0.000000   0.000000   0.000000
    39  H    0.363403  -0.033539   0.004137   0.000359   0.004251   0.000073
    40  H   -0.041102   0.365645  -0.039771   0.004309   0.000625   0.000000
    41  H    0.004875  -0.040880   0.364513  -0.040884   0.004769   0.000000
    42  H    0.000626   0.004295  -0.040102   0.365979  -0.041063   0.000002
    43  H    0.004677   0.000260   0.004110  -0.034308   0.360780   0.010964
              25         26         27         28         29         30
     1  O    0.002061   0.000000  -0.000023   0.000000  -0.000191   0.000000
     2  S   -0.004946  -0.000046  -0.000001  -0.000071  -0.001898   0.000249
     3  N    0.292832   0.001054   0.000508   0.001443  -0.000647   0.004840
     4  C   -0.024908  -0.024261  -0.027380  -0.028064  -0.022133  -0.029017
     5  C   -0.005870   0.335075   0.329188   0.009505   0.003295  -0.005343
     6  S    0.000075  -0.009324   0.000060  -0.012242  -0.001189   0.005874
     7  C    0.004438   0.008365   0.003287   0.347310   0.328050  -0.003625
     8  O    0.000002   0.000550  -0.000203   0.000741  -0.000117   0.000020
     9  O    0.000001  -0.000346   0.001121  -0.000334   0.001078   0.006311
    10  C   -0.001749  -0.004102   0.004141  -0.003091   0.003911   0.355241
    11  C    0.001944  -0.002140  -0.000068   0.000178  -0.000098  -0.032897
    12  C    0.000362   0.006874  -0.000039   0.000009   0.000001  -0.007977
    13  C    0.001096  -0.000479   0.000018   0.000000   0.000000   0.000108
    14  C    0.000013  -0.000384  -0.000034   0.000000   0.000000   0.000006
    15  C    0.000000   0.000188  -0.000007   0.000000   0.000000   0.000000
    16  C   -0.000002   0.001987   0.000006   0.000000   0.000000  -0.000072
    17  C    0.000008   0.009305   0.000102   0.000002   0.000000   0.003775
    18  C   -0.000707   0.000002   0.000007  -0.000001   0.000229   0.000051
    19  C    0.000192   0.000000   0.000000   0.000000  -0.000002  -0.000005
    20  C    0.000020   0.000000   0.000000   0.000000   0.000000  -0.000001
    21  C    0.000000   0.000000   0.000000   0.000000   0.000000  -0.000001
    22  C    0.000001   0.000000   0.000000   0.000000   0.000000   0.000002
    23  C    0.000008   0.000000   0.000000  -0.000013  -0.000019   0.000020
    24  O    0.001718   0.000000  -0.000011  -0.000290   0.007588  -0.000012
    25  H    0.355155   0.000306   0.001017  -0.000092   0.000073  -0.000045
    26  H    0.000306   0.454735  -0.015845  -0.000270  -0.000201  -0.000557
    27  H    0.001017  -0.015845   0.479572  -0.000244   0.000130   0.000035
    28  H   -0.000092  -0.000270  -0.000244   0.477609  -0.016243  -0.000255
    29  H    0.000073  -0.000201   0.000130  -0.016243   0.453829   0.000080
    30  H   -0.000045  -0.000557   0.000035  -0.000255   0.000080   0.547482
    31  H   -0.000177   0.000174  -0.000113   0.003450   0.000017  -0.028735
    32  H    0.000004   0.000011   0.000003  -0.000013   0.000002  -0.002070
    33  H    0.001410   0.000029  -0.000023   0.000002   0.000002   0.005051
    34  H    0.000701   0.000035   0.000005   0.000000   0.000000   0.000007
    35  H   -0.000001   0.000003   0.000000   0.000000   0.000000   0.000000
    36  H    0.000000   0.000000   0.000000   0.000000   0.000000   0.000000
    37  H    0.000000   0.000026   0.000000   0.000000   0.000000   0.000005
    38  H   -0.000001   0.000012   0.000003   0.000000   0.000000   0.003718
    39  H    0.000179   0.000000   0.000000   0.000000   0.000000   0.000000
    40  H    0.000000   0.000000   0.000000   0.000000   0.000000   0.000000
    41  H    0.000000   0.000000   0.000000   0.000000   0.000000   0.000000
    42  H    0.000000   0.000000   0.000000   0.000000   0.000000   0.000000
    43  H   -0.000012   0.000000   0.000000   0.000195  -0.000016  -0.000006
              31         32         33         34         35         36
     1  O   -0.000004   0.000000  -0.000073   0.000000   0.000000   0.000000
     2  S    0.003142  -0.000050   0.000536   0.000002   0.000000   0.000000
     3  N   -0.003255   0.000129   0.007710  -0.000027   0.000000   0.000000
     4  C   -0.034069   0.004809  -0.011242  -0.000039   0.000000   0.000000
     5  C    0.005297  -0.000021  -0.000094  -0.000020  -0.000002   0.000000
     6  S   -0.000355   0.000026  -0.000050   0.000001   0.000000   0.000000
     7  C   -0.006138  -0.000132   0.000110   0.000000   0.000000   0.000000
     8  O    0.000001   0.000000   0.000000   0.000000   0.000000   0.000000
     9  O    0.000065   0.000000   0.000000   0.000000   0.000000   0.000000
    10  C    0.355716  -0.033626  -0.036118   0.000197   0.000002   0.000000
    11  C   -0.030021   0.364369   0.355320  -0.011445  -0.000174   0.000007
    12  C    0.004049  -0.028735  -0.038170  -0.045870   0.003781   0.000691
    13  C   -0.000094   0.001274  -0.005614   0.355422  -0.038541   0.004640
    14  C    0.000002  -0.000224   0.000239  -0.043651   0.359671  -0.042173
    15  C    0.000000   0.000035  -0.000001   0.004778  -0.042060   0.361935
    16  C    0.000001  -0.000046  -0.000163   0.000298   0.004517  -0.041939
    17  C    0.000118  -0.004763   0.005102   0.006378   0.000747   0.004679
    18  C    0.000102  -0.000043   0.002011  -0.000002   0.000000   0.000000
    19  C   -0.000404   0.000018   0.004184   0.000014   0.000000   0.000000
    20  C   -0.000108   0.000041   0.000537   0.000001   0.000000   0.000000
    21  C    0.000018   0.000048  -0.000043   0.000000   0.000000   0.000000
    22  C    0.000619   0.000039  -0.000134   0.000000   0.000000   0.000000
    23  C    0.006157   0.000020  -0.000356   0.000000   0.000000   0.000000
    24  O    0.000000   0.000000  -0.000017   0.000000   0.000000   0.000000
    25  H   -0.000177   0.000004   0.001410   0.000701  -0.000001   0.000000
    26  H    0.000174   0.000011   0.000029   0.000035   0.000003   0.000000
    27  H   -0.000113   0.000003  -0.000023   0.000005   0.000000   0.000000
    28  H    0.003450  -0.000013   0.000002   0.000000   0.000000   0.000000
    29  H    0.000017   0.000002   0.000002   0.000000   0.000000   0.000000
    30  H   -0.028735  -0.002070   0.005051   0.000007   0.000000   0.000000
    31  H    0.567711  -0.004385  -0.002649  -0.000011   0.000000   0.000000
    32  H   -0.004385   0.557974  -0.032329   0.000165   0.000003   0.000000
    33  H   -0.002649  -0.032329   0.594925   0.007747  -0.000010   0.000000
    34  H   -0.000011   0.000165   0.007747   0.597386  -0.005379  -0.000173
    35  H    0.000000   0.000003  -0.000010  -0.005379   0.577234  -0.005355
    36  H    0.000000   0.000000   0.000000  -0.000173  -0.005355   0.577973
    37  H    0.000000  -0.000001   0.000003   0.000017  -0.000176  -0.005216
    38  H   -0.000137   0.001645   0.000019  -0.000172   0.000017  -0.000171
    39  H   -0.000002   0.000000   0.000209   0.000038   0.000000   0.000000
    40  H    0.000000   0.000000   0.000015   0.000000   0.000000   0.000000
    41  H   -0.000001   0.000000  -0.000001   0.000000   0.000000   0.000000
    42  H    0.000012   0.000000   0.000000   0.000000   0.000000   0.000000
    43  H    0.000635   0.000000  -0.000004   0.000000   0.000000   0.000000
              37         38         39         40         41         42
     1  O    0.000000   0.000000   0.006065   0.000001   0.000000   0.000000
     2  S    0.000000   0.000000  -0.000396  -0.000050   0.000007  -0.000053
     3  N    0.000000   0.000001   0.000051   0.000002   0.000000   0.000001
     4  C    0.000000   0.000140   0.000016   0.000000   0.000000   0.000000
     5  C   -0.000009  -0.000028   0.000000   0.000000   0.000000   0.000000
     6  S    0.000000   0.000113   0.000000   0.000000   0.000000   0.000000
     7  C    0.000000  -0.000005   0.000000   0.000000   0.000000   0.000000
     8  O    0.000000   0.000000   0.000000   0.000000   0.000000   0.000000
     9  O   -0.000001   0.000170   0.000000   0.000000   0.000000   0.000000
    10  C    0.000002   0.000737   0.000002   0.000000   0.000000  -0.000003
    11  C   -0.000176  -0.008298  -0.000043  -0.000004   0.000000   0.000000
    12  C    0.003555  -0.048534   0.000002   0.000000   0.000000   0.000000
    13  C    0.000801   0.005775  -0.000004   0.000000   0.000000   0.000000
    14  C    0.004494   0.000334   0.000000   0.000000   0.000000   0.000000
    15  C   -0.041667   0.004663   0.000000   0.000000   0.000000   0.000000
    16  C    0.360561  -0.041101   0.000000   0.000000   0.000000   0.000000
    17  C   -0.039270   0.359335   0.000000   0.000000   0.000000   0.000000
    18  C    0.000000   0.000000  -0.051857   0.004806   0.000467   0.004724
    19  C    0.000000   0.000000   0.363403  -0.041102   0.004875   0.000626
    20  C    0.000000   0.000000  -0.033539   0.365645  -0.040880   0.004295
    21  C    0.000000   0.000000   0.004137  -0.039771   0.364513  -0.040102
    22  C    0.000000   0.000000   0.000359   0.004309  -0.040884   0.365979
    23  C    0.000000   0.000000   0.004251   0.000625   0.004769  -0.041063
    24  O    0.000000   0.000000   0.000073   0.000000   0.000000   0.000002
    25  H    0.000000  -0.000001   0.000179   0.000000   0.000000   0.000000
    26  H    0.000026   0.000012   0.000000   0.000000   0.000000   0.000000
    27  H    0.000000   0.000003   0.000000   0.000000   0.000000   0.000000
    28  H    0.000000   0.000000   0.000000   0.000000   0.000000   0.000000
    29  H    0.000000   0.000000   0.000000   0.000000   0.000000   0.000000
    30  H    0.000005   0.003718   0.000000   0.000000   0.000000   0.000000
    31  H    0.000000  -0.000137  -0.000002   0.000000  -0.000001   0.000012
    32  H   -0.000001   0.001645   0.000000   0.000000   0.000000   0.000000
    33  H    0.000003   0.000019   0.000209   0.000015  -0.000001   0.000000
    34  H    0.000017  -0.000172   0.000038   0.000000   0.000000   0.000000
    35  H   -0.000176   0.000017   0.000000   0.000000   0.000000   0.000000
    36  H   -0.005216  -0.000171   0.000000   0.000000   0.000000   0.000000
    37  H    0.574579  -0.005257   0.000000   0.000000   0.000000   0.000000
    38  H   -0.005257   0.582104   0.000000   0.000000   0.000000   0.000000
    39  H    0.000000   0.000000   0.532674  -0.005156  -0.000146   0.000014
    40  H    0.000000   0.000000  -0.005156   0.550190  -0.005149  -0.000159
    41  H    0.000000   0.000000  -0.000146  -0.005149   0.553100  -0.005149
    42  H    0.000000   0.000000   0.000014  -0.000159  -0.005149   0.549964
    43  H    0.000000   0.000000  -0.000148   0.000013  -0.000139  -0.004897
              43
     1  O    0.000068
     2  S   -0.005269
     3  N    0.000185
     4  C    0.000056
     5  C    0.000002
     6  S    0.000007
     7  C    0.000128
     8  O    0.000000
     9  O    0.000000
    10  C   -0.000235
    11  C    0.000008
    12  C    0.000000
    13  C    0.000000
    14  C    0.000000
    15  C    0.000000
    16  C    0.000000
    17  C    0.000000
    18  C   -0.045753
    19  C    0.004677
    20  C    0.000260
    21  C    0.004110
    22  C   -0.034308
    23  C    0.360780
    24  O    0.010964
    25  H   -0.000012
    26  H    0.000000
    27  H    0.000000
    28  H    0.000195
    29  H   -0.000016
    30  H   -0.000006
    31  H    0.000635
    32  H    0.000000
    33  H   -0.000004
    34  H    0.000000
    35  H    0.000000
    36  H    0.000000
    37  H    0.000000
    38  H    0.000000
    39  H   -0.000148
    40  H    0.000013
    41  H   -0.000139
    42  H   -0.004897
    43  H    0.522696
 Mulliken charges:
               1
     1  O   -0.544321
     2  S    1.190150
     3  N   -0.711731
     4  C    0.182500
     5  C   -0.512761
     6  S    1.101808
     7  C   -0.486989
     8  O   -0.527559
     9  O   -0.550011
    10  C   -0.293961
    11  C   -0.361335
    12  C    0.158363
    13  C   -0.202503
    14  C   -0.131543
    15  C   -0.140326
    16  C   -0.133301
    17  C   -0.197415
    18  C   -0.138608
    19  C   -0.150480
    20  C   -0.129944
    21  C   -0.121765
    22  C   -0.129855
    23  C   -0.151616
    24  O   -0.558914
    25  H    0.374894
    26  H    0.239222
    27  H    0.224787
    28  H    0.220779
    29  H    0.244470
    30  H    0.177743
    31  H    0.163371
    32  H    0.175825
    33  H    0.141930
    34  H    0.133596
    35  H    0.145725
    36  H    0.145101
    37  H    0.147729
    38  H    0.144917
    39  H    0.179817
    40  H    0.165785
    41  H    0.164615
    42  H    0.165809
    43  H    0.186001
 Sum of Mulliken charges =   0.00000
 Mulliken charges with hydrogens summed into heavy atoms:
               1
     1  O   -0.544321
     2  S    1.190150
     3  N   -0.336838
     4  C    0.182500
     5  C   -0.048751
     6  S    1.101808
     7  C   -0.021740
     8  O   -0.527559
     9  O   -0.550011
    10  C    0.047153
    11  C   -0.043579
    12  C    0.158363
    13  C   -0.068907
    14  C    0.014182
    15  C    0.004775
    16  C    0.014429
    17  C   -0.052498
    18  C   -0.138608
    19  C    0.029337
    20  C    0.035840
    21  C    0.042850
    22  C    0.035954
    23  C    0.034385
    24  O   -0.558914
 Electronic spatial extent (au):  <R**2>=           9127.8593
 Charge=              0.0000 electrons
 Dipole moment (field-independent basis, Debye):
    X=             -2.9640    Y=             -9.4704    Z=             -2.2506  Tot=             10.1754
 Quadrupole moment (field-independent basis, Debye-Ang):
   XX=           -156.6553   YY=           -169.2162   ZZ=           -152.1874
   XY=             -3.4117   XZ=             20.7564   YZ=             -6.3362
 Traceless Quadrupole moment (field-independent basis, Debye-Ang):
   XX=              2.6977   YY=             -9.8633   ZZ=              7.1656
   XY=             -3.4117   XZ=             20.7564   YZ=             -6.3362
 Octapole moment (field-independent basis, Debye-Ang**2):
  XXX=            -17.9797  YYY=            -52.0386  ZZZ=            -16.0768  XYY=            -71.1933
  XXY=           -121.8182  XXZ=            -32.2816  XZZ=             -3.0823  YZZ=            -17.6918
  YYZ=              3.5807  XYZ=              8.7490
 Hexadecapole moment (field-independent basis, Debye-Ang**3):
 XXXX=          -6697.7884 YYYY=          -4183.6932 ZZZZ=          -1269.0364 XXXY=            -54.0566
 XXXZ=            218.7840 YYYX=            -37.4203 YYYZ=            -86.9560 ZZZX=            109.7378
 ZZZY=            -19.6846 XXYY=          -1838.4633 XXZZ=          -1328.5867 YYZZ=           -831.1023
 XXYZ=             20.3195 YYXZ=             64.5896 ZZXY=              3.8035
 N-N= 2.512172519495D+03 E-N=-9.274042321989D+03  KE= 1.798694140886D+03
 No NMR shielding tensors so no spin-rotation constants.
 Leave Link  601 at Sat Aug  8 00:40:16 2020, MaxMem=    33554432 cpu:         0.4
 (Enter /prod/apps/gaussian/g09d1/l9999.exe)
 1\1\GINC-PIRINEUS12\SP\RB3LYP\6-31G(d)\C17H19N1O4S2\UBAFAR01\08-Aug-20
 20\0\\#p b3lyp/6-31G(d) scrf=(iefpcm,read,solvent=n-Octanol) geom=allc
 heck guess=read\\SM39.n.3.pdb.xyz\\0,1\O,0,2.843,0.162,1.832\S,0,2.84,
 -0.034,0.38\N,0,2.841,1.525,-0.236\C,0,2.699,1.911,-1.647\C,0,2.229,3.
 41,-1.689\S,0,0.883,2.957,-2.834\C,0,1.407,1.299,-2.291\O,0,-0.458,3.3
 49,-2.376\O,0,1.272,3.211,-4.234\C,0,3.933,1.639,-2.533\C,0,5.278,2.21
 4,-2.053\C,0,5.426,3.72,-2.124\C,0,5.78,4.453,-0.986\C,0,5.935,5.84,-1
 .043\C,0,5.737,6.515,-2.247\C,0,5.388,5.795,-3.393\C,0,5.238,4.41,-3.3
 3\C,0,4.362,-0.878,-0.045\C,0,5.523,-0.607,0.683\C,0,6.699,-1.272,0.34
 1\C,0,6.705,-2.196,-0.707\C,0,5.533,-2.468,-1.415\C,0,4.349,-1.808,-1.
 085\O,0,1.753,-0.748,-0.299\H,0,3.432,2.136,0.323\H,0,2.937,4.129,-2.0
 97\H,0,1.81,3.747,-0.739\H,0,1.559,0.595,-3.107\H,0,0.718,0.897,-1.552
 \H,0,3.71,2.016,-3.537\H,0,4.04,0.555,-2.632\H,0,6.055,1.751,-2.673\H,
 0,5.482,1.883,-1.03\H,0,5.941,3.929,-0.049\H,0,6.209,6.389,-0.149\H,0,
 5.853,7.593,-2.295\H,0,5.236,6.311,-4.335\H,0,4.967,3.858,-4.226\H,0,5
 .5,0.092,1.51\H,0,7.608,-1.074,0.898\H,0,7.624,-2.711,-0.965\H,0,5.536
 ,-3.197,-2.218\H,0,3.421,-2.015,-1.604\\Version=AM64L-G09RevD.01\State
 =1-A\HF=-1811.1525485\RMSD=5.551e-09\Dipole=3.9637008,-0.5617732,0.007
 3603\Quadrupole=-8.2118789,14.2430611,-6.0311822,-1.895748,0.4395151,1
 2.3585745\PG=C01 [X(C17H19N1O4S2)]\\@


 A MAN BEGINS CUTTING HIS WISDOM TEETH THE 1ST
 TIME HE BITES OFF MORE THAN HE CAN CHEW.
 Job cpu time:       0 days  0 hours  6 minutes 45.2 seconds.
 File lengths (MBytes):  RWF=    285 Int=      0 D2E=      0 Chk=      9 Scr=      1
 Normal termination of Gaussian 09 at Sat Aug  8 00:40:16 2020.
