 Entering Gaussian System, Link 0=g09
 Initial command:
 /prod/apps/gaussian/g09d1/l1.exe "/tmp/ubafar01/1448996/Gau-76162.inp" -scrdir="/tmp/ubafar01/1448996/"
 Entering Link 1 = /prod/apps/gaussian/g09d1/l1.exe PID=     76163.
  
 Copyright (c) 1988,1990,1992,1993,1995,1998,2003,2009,2013,
            Gaussian, Inc.  All Rights Reserved.
  
 This is part of the Gaussian(R) 09 program.  It is based on
 the Gaussian(R) 03 system (copyright 2003, Gaussian, Inc.),
 the Gaussian(R) 98 system (copyright 1998, Gaussian, Inc.),
 the Gaussian(R) 94 system (copyright 1995, Gaussian, Inc.),
 the Gaussian 92(TM) system (copyright 1992, Gaussian, Inc.),
 the Gaussian 90(TM) system (copyright 1990, Gaussian, Inc.),
 the Gaussian 88(TM) system (copyright 1988, Gaussian, Inc.),
 the Gaussian 86(TM) system (copyright 1986, Carnegie Mellon
 University), and the Gaussian 82(TM) system (copyright 1983,
 Carnegie Mellon University). Gaussian is a federally registered
 trademark of Gaussian, Inc.
  
 This software contains proprietary and confidential information,
 including trade secrets, belonging to Gaussian, Inc.
  
 This software is provided under written license and may be
 used, copied, transmitted, or stored only in accord with that
 written license.
  
 The following legend is applicable only to US Government
 contracts under FAR:
  
                    RESTRICTED RIGHTS LEGEND
  
 Use, reproduction and disclosure by the US Government is
 subject to restrictions as set forth in subparagraphs (a)
 and (c) of the Commercial Computer Software - Restricted
 Rights clause in FAR 52.227-19.
  
 Gaussian, Inc.
 340 Quinnipiac St., Bldg. 40, Wallingford CT 06492
  
  
 ---------------------------------------------------------------
 Warning -- This program may not be used in any manner that
 competes with the business of Gaussian, Inc. or will provide
 assistance to any competitor of Gaussian, Inc.  The licensee
 of this program is prohibited from giving any competitor of
 Gaussian, Inc. access to this program.  By using this program,
 the user acknowledges that Gaussian, Inc. is engaged in the
 business of creating and licensing software in the field of
 computational chemistry and represents and warrants to the
 licensee that it is not a competitor of Gaussian, Inc. and that
 it will not use this program in any manner prohibited above.
 ---------------------------------------------------------------
  

 Cite this work as:
 Gaussian 09, Revision D.01,
 M. J. Frisch, G. W. Trucks, H. B. Schlegel, G. E. Scuseria, 
 M. A. Robb, J. R. Cheeseman, G. Scalmani, V. Barone, B. Mennucci, 
 G. A. Petersson, H. Nakatsuji, M. Caricato, X. Li, H. P. Hratchian, 
 A. F. Izmaylov, J. Bloino, G. Zheng, J. L. Sonnenberg, M. Hada, 
 M. Ehara, K. Toyota, R. Fukuda, J. Hasegawa, M. Ishida, T. Nakajima, 
 Y. Honda, O. Kitao, H. Nakai, T. Vreven, J. A. Montgomery, Jr., 
 J. E. Peralta, F. Ogliaro, M. Bearpark, J. J. Heyd, E. Brothers, 
 K. N. Kudin, V. N. Staroverov, T. Keith, R. Kobayashi, J. Normand, 
 K. Raghavachari, A. Rendell, J. C. Burant, S. S. Iyengar, J. Tomasi, 
 M. Cossi, N. Rega, J. M. Millam, M. Klene, J. E. Knox, J. B. Cross, 
 V. Bakken, C. Adamo, J. Jaramillo, R. Gomperts, R. E. Stratmann, 
 O. Yazyev, A. J. Austin, R. Cammi, C. Pomelli, J. W. Ochterski, 
 R. L. Martin, K. Morokuma, V. G. Zakrzewski, G. A. Voth, 
 P. Salvador, J. J. Dannenberg, S. Dapprich, A. D. Daniels, 
 O. Farkas, J. B. Foresman, J. V. Ortiz, J. Cioslowski, 
 and D. J. Fox, Gaussian, Inc., Wallingford CT, 2013.
 
 ******************************************
 Gaussian 09:  AM64L-G09RevD.01 24-Apr-2013
                 7-Aug-2020 
 ******************************************
 %nproc=1
 Will use up to    1 processors via shared memory.
 %Chk=SM39.n.10.pdb.xyz.mst.n.w.chk
 -----------------
 #p b3lyp/6-31G(d)
 -----------------
 1/38=1/1;
 2/12=2,17=6,18=5,40=1/2;
 3/5=1,6=6,7=1,11=2,16=1,25=1,30=1,74=-5/1,2,3;
 4//1;
 5/5=2,38=5/2;
 6/7=2,8=2,9=2,10=2,28=1/1;
 99/5=1,9=1/99;
 Leave Link    1 at Fri Aug  7 23:40:59 2020, MaxMem=           0 cpu:         0.0
 (Enter /prod/apps/gaussian/g09d1/l101.exe)
 -----------------
 SM39.n.10.pdb.xyz
 -----------------
 Symbolic Z-matrix:
 Charge =  0 Multiplicity = 1
 O                     5.084     2.842    -0.241 
 S                     4.451     1.734     0.494 
 N                     2.909     1.425    -0.122 
 C                     2.504     1.974    -1.425 
 C                     2.5       3.546    -1.521 
 S                     0.802     3.496    -2.173 
 C                     0.96      1.776    -1.594 
 O                    -0.172     4.306    -1.417 
 O                     0.778     3.57     -3.649 
 C                     3.325     1.364    -2.574 
 C                     3.241    -0.166    -2.733 
 C                     2.027    -0.691    -3.474 
 C                     1.701    -0.223    -4.756 
 C                     0.604    -0.735    -5.449 
 C                    -0.189    -1.731    -4.873 
 C                     0.126    -2.209    -3.601 
 C                     1.225    -1.692    -2.911 
 C                     5.394     0.256     0.164 
 C                     6.555     0.356    -0.6 
 C                     7.319    -0.793    -0.812 
 C                     6.919    -2.011    -0.262 
 C                     5.754    -2.092     0.509 
 C                     4.983    -0.954     0.731 
 O                     4.258     1.843     1.949 
 H                     2.246     1.629     0.628 
 H                     3.222     4.001    -2.197 
 H                     2.505     4.044    -0.552 
 H                     0.641     1.029    -2.317 
 H                     0.425     1.657    -0.652 
 H                     4.366     1.655    -2.407 
 H                     3.019     1.852    -3.504 
 H                     3.294    -0.639    -1.749 
 H                     4.141    -0.481    -3.274 
 H                     2.312     0.55     -5.214 
 H                     0.369    -0.358    -6.441 
 H                    -1.043    -2.129    -5.412 
 H                    -0.483    -2.982    -3.143 
 H                     1.466    -2.066    -1.92 
 H                     6.846     1.313    -1.013 
 H                     8.225    -0.733    -1.405 
 H                     7.515    -2.901    -0.431 
 H                     5.447    -3.04      0.937 
 H                     4.08     -1.004     1.327 
 
 NAtoms=     43 NQM=       43 NQMF=       0 NMMI=      0 NMMIF=      0
                NMic=       0 NMicF=      0.
                    Isotopes and Nuclear Properties:
 (Nuclear quadrupole moments (NQMom) in fm**2, nuclear magnetic moments (NMagM)
  in nuclear magnetons)

  Atom         1           2           3           4           5           6           7           8           9          10
 IAtWgt=          16          32          14          12          12          32          12          16          16          12
 AtmWgt=  15.9949146  31.9720718  14.0030740  12.0000000  12.0000000  31.9720718  12.0000000  15.9949146  15.9949146  12.0000000
 NucSpn=           0           0           2           0           0           0           0           0           0           0
 AtZEff=   0.0000000   0.0000000   0.0000000   0.0000000   0.0000000   0.0000000   0.0000000   0.0000000   0.0000000   0.0000000
 NQMom=    0.0000000   0.0000000   2.0440000   0.0000000   0.0000000   0.0000000   0.0000000   0.0000000   0.0000000   0.0000000
 NMagM=    0.0000000   0.0000000   0.4037610   0.0000000   0.0000000   0.0000000   0.0000000   0.0000000   0.0000000   0.0000000
 AtZNuc=   8.0000000  16.0000000   7.0000000   6.0000000   6.0000000  16.0000000   6.0000000   8.0000000   8.0000000   6.0000000

  Atom        11          12          13          14          15          16          17          18          19          20
 IAtWgt=          12          12          12          12          12          12          12          12          12          12
 AtmWgt=  12.0000000  12.0000000  12.0000000  12.0000000  12.0000000  12.0000000  12.0000000  12.0000000  12.0000000  12.0000000
 NucSpn=           0           0           0           0           0           0           0           0           0           0
 AtZEff=   0.0000000   0.0000000   0.0000000   0.0000000   0.0000000   0.0000000   0.0000000   0.0000000   0.0000000   0.0000000
 NQMom=    0.0000000   0.0000000   0.0000000   0.0000000   0.0000000   0.0000000   0.0000000   0.0000000   0.0000000   0.0000000
 NMagM=    0.0000000   0.0000000   0.0000000   0.0000000   0.0000000   0.0000000   0.0000000   0.0000000   0.0000000   0.0000000
 AtZNuc=   6.0000000   6.0000000   6.0000000   6.0000000   6.0000000   6.0000000   6.0000000   6.0000000   6.0000000   6.0000000

  Atom        21          22          23          24          25          26          27          28          29          30
 IAtWgt=          12          12          12          16           1           1           1           1           1           1
 AtmWgt=  12.0000000  12.0000000  12.0000000  15.9949146   1.0078250   1.0078250   1.0078250   1.0078250   1.0078250   1.0078250
 NucSpn=           0           0           0           0           1           1           1           1           1           1
 AtZEff=   0.0000000   0.0000000   0.0000000   0.0000000   0.0000000   0.0000000   0.0000000   0.0000000   0.0000000   0.0000000
 NQMom=    0.0000000   0.0000000   0.0000000   0.0000000   0.0000000   0.0000000   0.0000000   0.0000000   0.0000000   0.0000000
 NMagM=    0.0000000   0.0000000   0.0000000   0.0000000   2.7928460   2.7928460   2.7928460   2.7928460   2.7928460   2.7928460
 AtZNuc=   6.0000000   6.0000000   6.0000000   8.0000000   1.0000000   1.0000000   1.0000000   1.0000000   1.0000000   1.0000000

  Atom        31          32          33          34          35          36          37          38          39          40
 IAtWgt=           1           1           1           1           1           1           1           1           1           1
 AtmWgt=   1.0078250   1.0078250   1.0078250   1.0078250   1.0078250   1.0078250   1.0078250   1.0078250   1.0078250   1.0078250
 NucSpn=           1           1           1           1           1           1           1           1           1           1
 AtZEff=   0.0000000   0.0000000   0.0000000   0.0000000   0.0000000   0.0000000   0.0000000   0.0000000   0.0000000   0.0000000
 NQMom=    0.0000000   0.0000000   0.0000000   0.0000000   0.0000000   0.0000000   0.0000000   0.0000000   0.0000000   0.0000000
 NMagM=    2.7928460   2.7928460   2.7928460   2.7928460   2.7928460   2.7928460   2.7928460   2.7928460   2.7928460   2.7928460
 AtZNuc=   1.0000000   1.0000000   1.0000000   1.0000000   1.0000000   1.0000000   1.0000000   1.0000000   1.0000000   1.0000000

  Atom        41          42          43
 IAtWgt=           1           1           1
 AtmWgt=   1.0078250   1.0078250   1.0078250
 NucSpn=           1           1           1
 AtZEff=   0.0000000   0.0000000   0.0000000
 NQMom=    0.0000000   0.0000000   0.0000000
 NMagM=    2.7928460   2.7928460   2.7928460
 AtZNuc=   1.0000000   1.0000000   1.0000000
 Leave Link  101 at Fri Aug  7 23:40:59 2020, MaxMem=    33554432 cpu:         0.1
 (Enter /prod/apps/gaussian/g09d1/l202.exe)
                          Input orientation:                          
 ---------------------------------------------------------------------
 Center     Atomic      Atomic             Coordinates (Angstroms)
 Number     Number       Type             X           Y           Z
 ---------------------------------------------------------------------
      1          8           0        5.084000    2.842000   -0.241000
      2         16           0        4.451000    1.734000    0.494000
      3          7           0        2.909000    1.425000   -0.122000
      4          6           0        2.504000    1.974000   -1.425000
      5          6           0        2.500000    3.546000   -1.521000
      6         16           0        0.802000    3.496000   -2.173000
      7          6           0        0.960000    1.776000   -1.594000
      8          8           0       -0.172000    4.306000   -1.417000
      9          8           0        0.778000    3.570000   -3.649000
     10          6           0        3.325000    1.364000   -2.574000
     11          6           0        3.241000   -0.166000   -2.733000
     12          6           0        2.027000   -0.691000   -3.474000
     13          6           0        1.701000   -0.223000   -4.756000
     14          6           0        0.604000   -0.735000   -5.449000
     15          6           0       -0.189000   -1.731000   -4.873000
     16          6           0        0.126000   -2.209000   -3.601000
     17          6           0        1.225000   -1.692000   -2.911000
     18          6           0        5.394000    0.256000    0.164000
     19          6           0        6.555000    0.356000   -0.600000
     20          6           0        7.319000   -0.793000   -0.812000
     21          6           0        6.919000   -2.011000   -0.262000
     22          6           0        5.754000   -2.092000    0.509000
     23          6           0        4.983000   -0.954000    0.731000
     24          8           0        4.258000    1.843000    1.949000
     25          1           0        2.246000    1.629000    0.628000
     26          1           0        3.222000    4.001000   -2.197000
     27          1           0        2.505000    4.044000   -0.552000
     28          1           0        0.641000    1.029000   -2.317000
     29          1           0        0.425000    1.657000   -0.652000
     30          1           0        4.366000    1.655000   -2.407000
     31          1           0        3.019000    1.852000   -3.504000
     32          1           0        3.294000   -0.639000   -1.749000
     33          1           0        4.141000   -0.481000   -3.274000
     34          1           0        2.312000    0.550000   -5.214000
     35          1           0        0.369000   -0.358000   -6.441000
     36          1           0       -1.043000   -2.129000   -5.412000
     37          1           0       -0.483000   -2.982000   -3.143000
     38          1           0        1.466000   -2.066000   -1.920000
     39          1           0        6.846000    1.313000   -1.013000
     40          1           0        8.225000   -0.733000   -1.405000
     41          1           0        7.515000   -2.901000   -0.431000
     42          1           0        5.447000   -3.040000    0.937000
     43          1           0        4.080000   -1.004000    1.327000
 ---------------------------------------------------------------------
                    Distance matrix (angstroms):
                    1          2          3          4          5
     1  O    0.000000
     2  S    1.472609   0.000000
     3  N    2.598591   1.688994   0.000000
     4  C    2.968447   2.744261   1.470794   0.000000
     5  C    2.968345   3.339157   2.573543   1.574934   0.000000
     6  S    4.742980   4.851055   3.596539   2.402664   1.819563
     7  C    4.469266   4.067996   2.467506   1.565791   2.347302
     8  O    5.581380   5.624876   4.412454   3.549544   2.779928
     9  O    5.539502   5.833204   4.645634   3.236119   2.737562
    10  C    3.274363   3.288982   2.487786   1.538292   2.559406
    11  C    4.319118   3.935433   3.075520   2.614122   3.974540
    12  C    5.681516   5.244180   4.060946   3.395314   4.689361
    13  C    6.420603   6.241382   5.064496   4.070280   5.030804
    14  C    7.745230   7.497641   6.193186   5.209727   6.111543
    15  C    8.376890   7.895601   6.490758   5.733060   6.805392
    16  C    7.834792   7.142962   5.749303   5.280847   6.563711
    17  C    6.525177   5.808492   4.508887   4.157354   5.567259
    18  C    2.635815   1.783994   2.761083   3.718675   4.694525
    19  C    2.910828   2.742724   3.829434   4.439499   5.240932
    20  C    4.305170   4.039405   4.984348   5.587153   6.523217
    21  C    5.188379   4.548361   5.282594   6.060117   7.210610
    22  C    5.035450   4.041820   4.567436   5.552946   6.818831
    23  C    3.919771   2.750370   3.269362   4.400791   5.611309
    24  O    2.544873   1.471786   2.506704   3.804938   4.246372
    25  H    3.206365   2.211562   1.021609   2.097713   2.890952
    26  H    2.938752   3.727091   3.322555   2.284784   1.088708
    27  H    2.862301   3.196425   2.684637   2.246560   1.089491
    28  H    5.228479   4.786945   3.180985   2.271444   3.228744
    29  H    4.824876   4.186636   2.550486   2.240593   2.937534
    30  H    2.572168   2.903320   2.719738   2.129115   2.800506
    31  H    3.986414   4.248359   3.410624   2.145309   2.659189
    32  H    4.194702   3.464221   2.656210   2.748972   4.265753
    33  H    4.596811   4.381797   3.884040   3.482183   4.688563
    34  H    6.137424   6.209544   5.201009   4.052303   4.759161
    35  H    8.420880   8.314651   7.039918   5.929309   6.632404
    36  H    9.433462   8.943581   7.498888   6.731418   7.739403
    37  H    8.563415   7.733872   6.328804   6.036193   7.358258
    38  H    6.324352   5.401631   4.183555   4.200484   5.720393
    39  H    2.457330   2.860824   4.038118   4.411307   4.912440
    40  H    4.899123   4.892378   5.879023   6.329146   7.148351
    41  H    6.239224   5.632668   6.326531   7.061429   8.240275
    42  H    6.009773   4.896871   5.243963   6.275388   7.622465
    43  H    4.272980   2.885858   3.061190   4.350375   5.595534
                    6          7          8          9         10
     6  S    0.000000
     7  C    1.821704   0.000000
     8  O    1.475233   2.777346   0.000000
     9  O    1.478049   2.733969   2.534960   0.000000
    10  C    3.327425   2.592946   4.714130   3.536845   0.000000
    11  C    4.435377   3.204941   5.777474   4.567617   1.540531
    12  C    4.552383   3.280088   5.834112   4.443731   2.591878
    13  C    4.616389   3.813571   5.930336   4.057613   3.149138
    14  C    5.354693   4.614421   6.501606   4.669400   4.480543
    15  C    5.966038   4.936709   6.956263   5.525746   5.216572
    16  C    5.919728   4.539144   6.877782   5.815862   4.904555
    17  C    5.257273   3.719104   6.337164   5.332269   3.723265
    18  C    6.086512   5.006128   7.062749   6.843173   3.606254
    19  C    6.740248   5.857342   7.843629   7.280105   3.917351
    20  C    7.919541   6.902765   9.081900   8.358769   4.869223
    21  C    8.449654   7.185073   9.566650   8.962768   5.445439
    22  C    7.933547   6.508953   8.930921   8.608588   5.229614
    23  C    6.761396   5.389161   7.671736   7.571856   4.364071
    24  O    5.627364   4.840882   6.084507   6.813995   4.643001
    25  H    3.662844   2.571515   4.146695   4.920898   3.389288
    26  H    2.472246   3.229687   3.495806   2.875274   2.665803
    27  H    2.414157   2.935407   2.825455   3.577515   3.455906
    28  H    2.476438   1.087428   3.494238   2.872225   2.717008
    29  H    2.416090   1.089839   2.821141   3.572980   3.491408
    30  H    4.018225   3.503776   5.348023   4.252474   1.093733
    31  H    3.064211   2.809512   4.534332   2.827478   1.093929
    32  H    4.846449   3.362113   6.047843   5.258891   2.166471
    33  H    5.308263   4.246788   6.705653   5.278352   2.135388
    34  H    4.495186   4.054057   5.890246   3.731324   2.942510
    35  H    5.766856   5.328850   6.876493   4.836500   5.163033
    36  H    6.748020   5.817058   7.624165   6.237212   6.271740
    37  H    6.675074   5.207707   7.496048   6.691402   5.806233
    38  H    5.607205   3.888866   6.598366   5.935257   3.955818
    39  H    6.530010   5.932700   7.640261   6.990220   3.851852
    40  H    8.577598   7.688370   9.792920   8.888709   5.456553
    41  H    9.435070   8.136026  10.583148   9.880108   6.351281
    42  H    8.600431   7.052162   9.543490   9.301777   6.018739
    43  H    6.576115   5.098533   7.335199   7.522317   4.625500
                   11         12         13         14         15
    11  C    0.000000
    12  C    1.516081   0.000000
    13  C    2.543104   1.403148   0.000000
    14  C    3.828079   2.434644   1.394920   0.000000
    15  C    4.335173   2.819478   2.420713   1.397369   0.000000
    16  C    3.824983   2.436032   2.785471   2.411693   1.394881
    17  C    2.534683   1.400776   2.405943   2.782613   2.418752
    18  C    3.634020   5.046637   6.170421   7.445264   7.777495
    19  C    3.975521   5.464327   6.416299   7.753546   8.252008
    20  C    4.551204   5.924687   6.887812   8.160659   8.587295
    21  C    4.799745   5.999251   7.114809   8.271177   8.477227
    22  C    4.531579   5.631840   6.902188   7.991352   8.025926
    23  C    3.956615   5.146759   6.435298   7.577335   7.665385
    24  O    5.195334   6.388071   7.467505   8.644548   8.893198
    25  H    3.938067   4.717708   5.719649   6.724179   6.890561
    26  H    4.201374   5.007356   5.167601   6.313408   7.186913
    27  H    4.798183   5.584514   6.043784   7.101637   7.699305
    28  H    2.891553   2.493601   2.939358   3.594786   3.852225
    29  H    3.947625   4.005395   4.690991   5.363293   5.447236
    30  H    2.165166   3.480392   4.018322   5.396157   6.188229
    31  H    2.171647   2.729801   2.758669   4.038294   5.000331
    32  H    1.093066   2.140939   3.428229   4.575513   4.804491
    33  H    1.096315   2.133798   2.866442   4.159989   4.782071
    34  H    2.744277   2.156132   1.086561   2.150282   3.402094
    35  H    4.694093   3.415105   2.152132   1.086931   2.157572
    36  H    5.420615   3.904944   3.404807   2.158058   1.085468
    37  H    4.686804   3.414431   3.870879   3.398266   2.155072
    38  H    2.724260   2.149479   3.390394   3.868908   3.401685
    39  H    4.259327   5.770208   6.545256   7.926851   8.582352
    40  H    5.188962   6.534350   7.351998   8.627490   9.155240
    41  H    5.571939   6.652976   7.725277   8.811005   8.969497
    42  H    5.157055   6.055669   7.374161   8.339585   8.199639
    43  H    4.229629   5.230906   6.578183   7.620309   7.562598
                   16         17         18         19         20
    16  C    0.000000
    17  C    1.396850   0.000000
    18  C    6.928440   5.534518   0.000000
    19  C    7.544353   6.159864   1.393419   0.000000
    20  C    7.843649   6.507752   2.399709   1.396009   0.000000
    21  C    7.571854   6.288132   2.765211   2.418559   1.395000
    22  C    6.969948   5.689309   2.400360   2.804316   2.425215
    23  C    6.628099   5.285014   1.398038   2.441075   2.804223
    24  O    8.018393   6.731635   2.644861   3.739623   4.892989
    25  H    6.091723   4.959436   3.465592   4.657896   5.803018
    26  H    7.079586   6.075200   4.931220   5.190888   6.456475
    27  H    7.352282   6.332849   4.817460   5.477787   6.829258
    28  H    3.521154   2.845652   5.417001   6.194870   7.083812
    29  H    4.871546   4.118116   5.226817   6.266754   7.318151
    30  H    5.859499   4.617608   3.102261   3.121598   4.154147
    31  H    4.987041   4.016220   4.652103   4.813993   5.721266
    32  H    3.991369   2.596115   2.978354   3.597825   4.135494
    33  H    4.383279   3.178261   3.732696   3.698411   4.032180
    34  H    3.872008   3.392925   6.205485   6.271338   6.800831
    35  H    3.398654   3.869521   8.321878   8.537779   8.954181
    36  H    2.157008   3.404379   8.843923   9.330604   9.636801
    37  H    1.085437   2.152949   7.480643   8.194055   8.431873
    38  H    2.154486   1.086296   5.016366   5.788472   6.091453
    39  H    8.016273   6.650419   2.147296   1.082173   2.167802
    40  H    8.520258   7.224107   3.384441   2.150080   1.084475
    41  H    8.070011   6.868492   3.849586   3.399737   2.151102
    42  H    7.042517   5.869369   3.385846   3.888811   3.407696
    43  H    6.432054   5.156066   2.160270   3.418853   3.887282
                   21         22         23         24         25
    21  C    0.000000
    22  C    1.399367   0.000000
    23  C    2.418965   1.392397   0.000000
    24  O    5.179069   4.449252   3.135659   0.000000
    25  H    5.989877   5.115278   3.764793   2.416398   0.000000
    26  H    7.318209   7.131487   6.018831   4.787439   3.815702
    27  H    7.498701   7.023690   5.724210   3.764626   2.700316
    28  H    7.271720   6.623420   5.663529   5.651906   3.407206
    29  H    7.468491   6.618245   5.431885   4.635913   2.226033
    30  H    4.955642   4.946677   4.127301   4.361392   3.702202
    31  H    6.375212   6.256159   5.446665   5.591995   4.209594
    32  H    4.151407   3.641617   3.017009   4.556844   3.448515
    33  H    4.373823   4.416806   4.119796   5.717901   4.823767
    34  H    7.232252   7.181940   6.688743   7.534410   5.941175
    35  H    9.155051   8.961444   8.548789   9.505831   7.579054
    36  H    9.483136   9.014367   8.685030   9.902611   7.837199
    37  H    8.002038   7.282127   6.999844   8.466769   6.552038
    38  H    5.699754   4.928251   4.542426   6.168039   4.555626
    39  H    3.408564   3.886254   3.413443   3.968890   4.894153
    40  H    2.155312   3.408243   3.888689   5.798464   6.742446
    41  H    1.084379   2.153881   3.398835   6.227197   7.028851
    42  H    2.159450   1.084499   2.146888   5.126554   5.669342
    43  H    3.405714   2.157578   1.083109   2.919585   3.284029
                   26         27         28         29         30
    26  H    0.000000
    27  H    1.794983   0.000000
    28  H    3.938114   3.959791   0.000000
    29  H    3.962899   3.167676   1.792558   0.000000
    30  H    2.618502   3.551291   3.778307   4.314106   0.000000
    31  H    2.523422   3.712595   2.782298   3.860151   1.748321
    32  H    4.662133   4.897532   3.184848   3.834865   2.616216
    33  H    4.700299   5.528237   3.930133   5.025394   2.316206
    34  H    4.673306   5.829196   3.378504   5.059453   3.649547
    35  H    6.719526   7.656397   4.359487   6.129917   6.025059
    36  H    8.130397   8.620547   4.731580   6.256710   7.252997
    37  H    7.961421   8.062636   4.246619   5.343207   6.749538
    38  H    6.322085   6.346893   3.227578   4.068444   4.742680
    39  H    4.664823   5.149288   6.346897   6.440334   2.865414
    40  H    6.933111   7.501049   7.839225   8.192625   4.647411
    41  H    8.317825   8.564331   8.139642   8.431625   5.880299
    42  H    8.021737   7.813805   7.088224   7.057423   5.864633
    43  H    6.181000   5.611913   5.407268   4.935219   4.592911
                   31         32         33         34         35
    31  H    0.000000
    32  H    3.059531   0.000000
    33  H    2.598975   1.751570   0.000000
    34  H    2.262555   3.792660   2.858636   0.000000
    35  H    4.531288   5.536195   4.926764   2.470879   0.000000
    36  H    5.999056   5.869177   5.844724   4.297938   2.487775
    37  H    5.980124   4.658177   5.258663   4.957428   4.299777
    38  H    4.502398   2.325329   3.391337   4.290642   4.955816
    39  H    4.597992   4.119309   3.955702   6.227979   8.614346
    40  H    6.179843   4.943878   4.498413   7.149695   9.339093
    41  H    7.228302   4.966952   5.032189   7.864967   9.677410
    42  H    7.039128   4.197000   5.097709   7.781460   9.349550
    43  H    5.711481   3.195747   4.631031   6.951649   8.633114
                   36         37         38         39         40
    36  H    0.000000
    37  H    2.487885   0.000000
    38  H    4.300362   2.476567   0.000000
    39  H    9.666172   8.757749   6.417530   0.000000
    40  H   10.193169   9.160126   6.908415   2.498284   0.000000
    41  H    9.932055   8.445680   6.285280   4.306284   2.480524
    42  H    9.124682   7.198240   4.995947   4.970745   4.304009
    43  H    8.539606   6.686879   4.301610   4.300563   4.971749
                   41         42         43
    41  H    0.000000
    42  H    2.483419   0.000000
    43  H    4.299814   2.483160   0.000000
 Stoichiometry    C17H19NO4S2
 Framework group  C1[X(C17H19NO4S2)]
 Deg. of freedom   123
 Full point group                 C1      NOp   1
 Largest Abelian subgroup         C1      NOp   1
 Largest concise Abelian subgroup C1      NOp   1
                         Standard orientation:                         
 ---------------------------------------------------------------------
 Center     Atomic      Atomic             Coordinates (Angstroms)
 Number     Number       Type             X           Y           Z
 ---------------------------------------------------------------------
      1          8           0        2.123430   -2.135540    0.980960
      2         16           0        2.231805   -1.452957   -0.319391
      3          7           0        0.697788   -1.059212   -0.906296
      4          6           0       -0.471993   -1.095073   -0.015476
      5          6           0       -0.798615   -2.503100    0.609979
      6         16           0       -2.522091   -2.346419    0.047940
      7          6           0       -1.768221   -0.975789   -0.885686
      8          8           0       -3.000676   -3.462837   -0.789246
      9          8           0       -3.406788   -1.847527    1.121739
     10          6           0       -0.376715   -0.023653    1.084216
     11          6           0       -0.274844    1.436774    0.604619
     12          6           0       -1.582488    2.104358    0.226597
     13          6           0       -2.663274    2.141385    1.120663
     14          6           0       -3.852015    2.788207    0.782553
     15          6           0       -3.982313    3.415897   -0.459087
     16          6           0       -2.914380    3.391004   -1.356078
     17          6           0       -1.726629    2.740909   -1.012839
     18          6           0        3.045681    0.110607   -0.044611
     19          6           0        3.513780    0.409282    1.233393
     20          6           0        4.196899    1.610191    1.433410
     21          6           0        4.403084    2.484458    0.366092
     22          6           0        3.932599    2.165293   -0.912581
     23          6           0        3.251547    0.970059   -1.127880
     24          8           0        2.899979   -2.129901   -1.442532
     25          1           0        0.567251   -1.590647   -1.768980
     26          1           0       -0.690555   -2.600936    1.688884
     27          1           0       -0.319559   -3.333833    0.092894
     28          1           0       -2.313293   -0.037028   -0.821464
     29          1           0       -1.630590   -1.273785   -1.924919
     30          1           0        0.501044   -0.269275    1.688750
     31          1           0       -1.241540   -0.139020    1.744101
     32          1           0        0.416701    1.496599   -0.239763
     33          1           0        0.184545    2.009285    1.418928
     34          1           0       -2.572038    1.658089    2.089536
     35          1           0       -4.677079    2.804624    1.489954
     36          1           0       -4.907548    3.918712   -0.722447
     37          1           0       -3.004020    3.874465   -2.323757
     38          1           0       -0.897865    2.722617   -1.714874
     39          1           0        3.344255   -0.286948    2.044333
     40          1           0        4.567108    1.858610    2.422005
     41          1           0        4.932817    3.416861    0.526982
     42          1           0        4.096488    2.846146   -1.740661
     43          1           0        2.883762    0.711543   -2.113287
 ---------------------------------------------------------------------
 Rotational constants (GHZ):      0.2619047      0.1653139      0.1156099
 Leave Link  202 at Fri Aug  7 23:40:59 2020, MaxMem=    33554432 cpu:         0.0
 (Enter /prod/apps/gaussian/g09d1/l301.exe)
 Standard basis: 6-31G(d) (6D, 7F)
 Ernie: Thresh=  0.10000D-02 Tol=  0.10000D-05 Strict=F.
 There are   406 symmetry adapted cartesian basis functions of A   symmetry.
 There are   406 symmetry adapted basis functions of A   symmetry.
   406 basis functions,   796 primitive gaussians,   406 cartesian basis functions
    96 alpha electrons       96 beta electrons
       nuclear repulsion energy      2507.7501024461 Hartrees.
 IExCor=  402 DFT=T Ex+Corr=B3LYP ExCW=0 ScaHFX=  0.200000
 ScaDFX=  0.800000  0.720000  1.000000  0.810000 ScalE2=  1.000000  1.000000
 IRadAn=      0 IRanWt=     -1 IRanGd=            0 ICorTp=0 IEmpDi=  4
 NAtoms=   43 NActive=   43 NUniq=   43 SFac= 1.00D+00 NAtFMM=   60 NAOKFM=F Big=F
 Integral buffers will be    131072 words long.
 Raffenetti 2 integral format.
 Two-electron integral symmetry is turned on.
 Leave Link  301 at Fri Aug  7 23:40:59 2020, MaxMem=    33554432 cpu:         0.0
 (Enter /prod/apps/gaussian/g09d1/l302.exe)
 NPDir=0 NMtPBC=     1 NCelOv=     1 NCel=       1 NClECP=     1 NCelD=      1
         NCelK=      1 NCelE2=     1 NClLst=     1 CellRange=     0.0.
 One-electron integrals computed using PRISM.
 NBasis=   406 RedAO= T EigKep=  4.68D-04  NBF=   406
 NBsUse=   406 1.00D-06 EigRej= -1.00D+00 NBFU=   406
 Precomputing XC quadrature grid using
 IXCGrd= 4 IRadAn=           0 IRanWt=          -1 IRanGd=           0 AccXCQ= 0.00D+00.
 Generated NRdTot=       0 NPtTot=           0 NUsed=           0 NTot=          32
 NSgBfM=   398   398   398   398   398 MxSgAt=    43 MxSgA2=    43.
 Leave Link  302 at Fri Aug  7 23:41:01 2020, MaxMem=    33554432 cpu:         1.5
 (Enter /prod/apps/gaussian/g09d1/l303.exe)
 DipDrv:  MaxL=1.
 Leave Link  303 at Fri Aug  7 23:41:01 2020, MaxMem=    33554432 cpu:         0.1
 (Enter /prod/apps/gaussian/g09d1/l401.exe)
 ExpMin= 1.17D-01 ExpMax= 2.19D+04 ExpMxC= 3.30D+03 IAcc=1 IRadAn=         1 AccDes= 0.00D+00
 Harris functional with IExCor=  402 and IRadAn=       1 diagonalized for initial guess.
 HarFok:  IExCor=  402 AccDes= 0.00D+00 IRadAn=         1 IDoV= 1 UseB2=F ITyADJ=14
 ICtDFT=  3500011 ScaDFX=  1.000000  1.000000  1.000000  1.000000
 FoFCou: FMM=F IPFlag=           0 FMFlag=      100000 FMFlg1=           0
         NFxFlg=           0 DoJE=T BraDBF=F KetDBF=T FulRan=T
         wScrn=  0.000000 ICntrl=     500 IOpCl=  0 I1Cent=   200000004 NGrid=           0
         NMat0=    1 NMatS0=      1 NMatT0=    0 NMatD0=    1 NMtDS0=    0 NMtDT0=    0
 Petite list used in FoFCou.
 Harris En= -1811.22819764874    
 JPrj=0 DoOrth=F DoCkMO=F.
 Leave Link  401 at Fri Aug  7 23:41:07 2020, MaxMem=    33554432 cpu:         6.1
 (Enter /prod/apps/gaussian/g09d1/l502.exe)
 Closed shell SCF:
 Using DIIS extrapolation, IDIIS=  1040.
 Integral symmetry usage will be decided dynamically.
 IVT=      518558 IEndB=      518558 NGot=    33554432 MDV=    33217757
 LenX=    33217757 LenY=    33052480
 Requested convergence on RMS density matrix=1.00D-08 within 128 cycles.
 Requested convergence on MAX density matrix=1.00D-06.
 Requested convergence on             energy=1.00D-06.
 No special actions if energy rises.
 Fock matrices will be formed incrementally for  20 cycles.
 Integral accuracy reduced to 1.0D-05 until final iterations.

 Cycle   1  Pass 0  IDiag  1:
 FoFJK:  IHMeth= 1 ICntrl=       0 DoSepK=F KAlg= 0 I1Cent=   0 FoldK=F
 IRaf= 750000000 NMat=   1 IRICut=       1 DoRegI=T DoRafI=F ISym2E= 0.
 FoFCou: FMM=F IPFlag=           0 FMFlag=      100000 FMFlg1=           0
         NFxFlg=           0 DoJE=F BraDBF=F KetDBF=F FulRan=T
         wScrn=  0.000000 ICntrl=       0 IOpCl=  0 I1Cent=           0 NGrid=           0
         NMat0=    1 NMatS0=      1 NMatT0=    0 NMatD0=    1 NMtDS0=    0 NMtDT0=    0
 Symmetry not used in FoFCou.
 E= -1810.23320599569    
 DIIS: error= 3.49D-02 at cycle   1 NSaved=   1.
 NSaved= 1 IEnMin= 1 EnMin= -1810.23320599569     IErMin= 1 ErrMin= 3.49D-02
 ErrMax= 3.49D-02  0.00D+00 EMaxC= 1.00D-01 BMatC= 1.02D+00 BMatP= 1.02D+00
 IDIUse=3 WtCom= 6.51D-01 WtEn= 3.49D-01
 Coeff-Com:  0.100D+01
 Coeff-En:   0.100D+01
 Coeff:      0.100D+01
 Gap=     0.284 Goal=   None    Shift=    0.000
 GapD=    0.284 DampG=1.000 DampE=0.500 DampFc=0.5000 IDamp=-1.
 Damping current iteration by 5.00D-01
 RMSDP=6.59D-03 MaxDP=5.81D-01              OVMax= 2.46D-01

 Cycle   2  Pass 0  IDiag  1:
 RMSU=  3.29D-03    CP:  9.97D-01
 E= -1810.41211695899     Delta-E=       -0.178910963303 Rises=F Damp=T
 DIIS: error= 1.49D-02 at cycle   2 NSaved=   2.
 NSaved= 2 IEnMin= 2 EnMin= -1810.41211695899     IErMin= 2 ErrMin= 1.49D-02
 ErrMax= 1.49D-02  0.00D+00 EMaxC= 1.00D-01 BMatC= 1.86D-01 BMatP= 1.02D+00
 IDIUse=3 WtCom= 8.51D-01 WtEn= 1.49D-01
 Coeff-Com:  0.254D+00 0.746D+00
 Coeff-En:   0.400D+00 0.600D+00
 Coeff:      0.275D+00 0.725D+00
 Gap=     0.241 Goal=   None    Shift=    0.000
 RMSDP=2.02D-03 MaxDP=1.33D-01 DE=-1.79D-01 OVMax= 2.02D-01

 Cycle   3  Pass 0  IDiag  1:
 RMSU=  1.60D-03    CP:  9.86D-01  6.28D-01
 E= -1811.01378875133     Delta-E=       -0.601671792346 Rises=F Damp=F
 DIIS: error= 9.66D-03 at cycle   3 NSaved=   3.
 NSaved= 3 IEnMin= 3 EnMin= -1811.01378875133     IErMin= 3 ErrMin= 9.66D-03
 ErrMax= 9.66D-03  0.00D+00 EMaxC= 1.00D-01 BMatC= 1.11D-01 BMatP= 1.86D-01
 IDIUse=3 WtCom= 9.03D-01 WtEn= 9.66D-02
 Coeff-Com:  0.991D-01 0.440D+00 0.461D+00
 Coeff-En:   0.000D+00 0.000D+00 0.100D+01
 Coeff:      0.895D-01 0.398D+00 0.513D+00
 Gap=     0.198 Goal=   None    Shift=    0.000
 RMSDP=1.25D-03 MaxDP=4.20D-02 DE=-6.02D-01 OVMax= 8.11D-02

 Cycle   4  Pass 0  IDiag  1:
 RMSU=  7.50D-04    CP:  9.91D-01  7.22D-01  4.11D-01
 E= -1811.10454470482     Delta-E=       -0.090755953484 Rises=F Damp=F
 DIIS: error= 5.04D-03 at cycle   4 NSaved=   4.
 NSaved= 4 IEnMin= 4 EnMin= -1811.10454470482     IErMin= 4 ErrMin= 5.04D-03
 ErrMax= 5.04D-03  0.00D+00 EMaxC= 1.00D-01 BMatC= 1.61D-02 BMatP= 1.11D-01
 IDIUse=3 WtCom= 9.50D-01 WtEn= 5.04D-02
 Coeff-Com:  0.118D-01 0.870D-01 0.290D+00 0.611D+00
 Coeff-En:   0.000D+00 0.000D+00 0.137D+00 0.863D+00
 Coeff:      0.112D-01 0.826D-01 0.282D+00 0.624D+00
 Gap=     0.196 Goal=   None    Shift=    0.000
 RMSDP=4.24D-04 MaxDP=1.71D-02 DE=-9.08D-02 OVMax= 2.98D-02

 Cycle   5  Pass 0  IDiag  1:
 RMSU=  1.89D-04    CP:  9.91D-01  7.01D-01  5.65D-01  6.25D-01
 E= -1811.11844427751     Delta-E=       -0.013899572694 Rises=F Damp=F
 DIIS: error= 1.96D-03 at cycle   5 NSaved=   5.
 NSaved= 5 IEnMin= 5 EnMin= -1811.11844427751     IErMin= 5 ErrMin= 1.96D-03
 ErrMax= 1.96D-03  0.00D+00 EMaxC= 1.00D-01 BMatC= 1.37D-03 BMatP= 1.61D-02
 IDIUse=3 WtCom= 9.80D-01 WtEn= 1.96D-02
 Coeff-Com: -0.764D-03 0.184D-01 0.120D+00 0.347D+00 0.515D+00
 Coeff-En:   0.000D+00 0.000D+00 0.000D+00 0.193D-01 0.981D+00
 Coeff:     -0.749D-03 0.181D-01 0.118D+00 0.341D+00 0.524D+00
 Gap=     0.195 Goal=   None    Shift=    0.000
 RMSDP=1.24D-04 MaxDP=4.84D-03 DE=-1.39D-02 OVMax= 1.26D-02

 Cycle   6  Pass 0  IDiag  1:
 RMSU=  6.24D-05    CP:  9.91D-01  7.06D-01  5.54D-01  6.96D-01  5.24D-01
 E= -1811.11969914142     Delta-E=       -0.001254863912 Rises=F Damp=F
 DIIS: error= 6.55D-04 at cycle   6 NSaved=   6.
 NSaved= 6 IEnMin= 6 EnMin= -1811.11969914142     IErMin= 6 ErrMin= 6.55D-04
 ErrMax= 6.55D-04  0.00D+00 EMaxC= 1.00D-01 BMatC= 1.50D-04 BMatP= 1.37D-03
 IDIUse=3 WtCom= 9.93D-01 WtEn= 6.55D-03
 Coeff-Com: -0.142D-02 0.283D-02 0.410D-01 0.135D+00 0.306D+00 0.517D+00
 Coeff-En:   0.000D+00 0.000D+00 0.000D+00 0.000D+00 0.648D-01 0.935D+00
 Coeff:     -0.141D-02 0.281D-02 0.408D-01 0.134D+00 0.304D+00 0.520D+00
 Gap=     0.195 Goal=   None    Shift=    0.000
 RMSDP=3.90D-05 MaxDP=1.40D-03 DE=-1.25D-03 OVMax= 4.00D-03

 Cycle   7  Pass 0  IDiag  1:
 RMSU=  2.33D-05    CP:  9.91D-01  7.05D-01  5.57D-01  6.93D-01  5.96D-01
                    CP:  5.56D-01
 E= -1811.11983946014     Delta-E=       -0.000140318714 Rises=F Damp=F
 DIIS: error= 1.14D-04 at cycle   7 NSaved=   7.
 NSaved= 7 IEnMin= 7 EnMin= -1811.11983946014     IErMin= 7 ErrMin= 1.14D-04
 ErrMax= 1.14D-04  0.00D+00 EMaxC= 1.00D-01 BMatC= 1.44D-05 BMatP= 1.50D-04
 IDIUse=3 WtCom= 9.99D-01 WtEn= 1.14D-03
 Coeff-Com: -0.753D-03-0.310D-04 0.128D-01 0.461D-01 0.133D+00 0.311D+00
 Coeff-Com:  0.498D+00
 Coeff-En:   0.000D+00 0.000D+00 0.000D+00 0.000D+00 0.000D+00 0.235D-01
 Coeff-En:   0.977D+00
 Coeff:     -0.752D-03-0.310D-04 0.127D-01 0.460D-01 0.133D+00 0.311D+00
 Coeff:      0.498D+00
 Gap=     0.195 Goal=   None    Shift=    0.000
 RMSDP=1.19D-05 MaxDP=8.00D-04 DE=-1.40D-04 OVMax= 8.16D-04

 Cycle   8  Pass 0  IDiag  1:
 RMSU=  5.84D-06    CP:  9.91D-01  7.05D-01  5.57D-01  6.93D-01  5.98D-01
                    CP:  6.10D-01  5.77D-01
 E= -1811.11985328906     Delta-E=       -0.000013828926 Rises=F Damp=F
 DIIS: error= 2.57D-05 at cycle   8 NSaved=   8.
 NSaved= 8 IEnMin= 8 EnMin= -1811.11985328906     IErMin= 8 ErrMin= 2.57D-05
 ErrMax= 2.57D-05  0.00D+00 EMaxC= 1.00D-01 BMatC= 8.96D-07 BMatP= 1.44D-05
 IDIUse=1 WtCom= 1.00D+00 WtEn= 0.00D+00
 Coeff-Com: -0.245D-03-0.354D-03 0.201D-02 0.904D-02 0.369D-01 0.107D+00
 Coeff-Com:  0.257D+00 0.589D+00
 Coeff:     -0.245D-03-0.354D-03 0.201D-02 0.904D-02 0.369D-01 0.107D+00
 Coeff:      0.257D+00 0.589D+00
 Gap=     0.195 Goal=   None    Shift=    0.000
 RMSDP=3.06D-06 MaxDP=2.18D-04 DE=-1.38D-05 OVMax= 1.70D-04

 Initial convergence to 1.0D-05 achieved.  Increase integral accuracy.
 Cycle   9  Pass 1  IDiag  1:
 E= -1811.11975826229     Delta-E=        0.000095026778 Rises=F Damp=F
 DIIS: error= 7.28D-05 at cycle   1 NSaved=   1.
 NSaved= 1 IEnMin= 1 EnMin= -1811.11975826229     IErMin= 1 ErrMin= 7.28D-05
 ErrMax= 7.28D-05  0.00D+00 EMaxC= 1.00D-01 BMatC= 1.19D-06 BMatP= 1.19D-06
 IDIUse=1 WtCom= 1.00D+00 WtEn= 0.00D+00
 Coeff-Com:  0.100D+01
 Coeff:      0.100D+01
 Gap=     0.195 Goal=   None    Shift=    0.000
 RMSDP=3.06D-06 MaxDP=2.18D-04 DE= 9.50D-05 OVMax= 1.87D-04

 Cycle  10  Pass 1  IDiag  1:
 RMSU=  3.01D-05    CP:  1.00D+00
 E= -1811.11975921161     Delta-E=       -0.000000949325 Rises=F Damp=F
 DIIS: error= 1.66D-05 at cycle   2 NSaved=   2.
 NSaved= 2 IEnMin= 2 EnMin= -1811.11975921161     IErMin= 2 ErrMin= 1.66D-05
 ErrMax= 1.66D-05  0.00D+00 EMaxC= 1.00D-01 BMatC= 3.44D-07 BMatP= 1.19D-06
 IDIUse=1 WtCom= 1.00D+00 WtEn= 0.00D+00
 Coeff-Com:  0.275D+00 0.725D+00
 Coeff:      0.275D+00 0.725D+00
 Gap=     0.195 Goal=   None    Shift=    0.000
 RMSDP=3.07D-06 MaxDP=1.82D-04 DE=-9.49D-07 OVMax= 1.93D-04

 Cycle  11  Pass 1  IDiag  1:
 RMSU=  3.07D-06    CP:  1.00D+00  1.00D+00
 E= -1811.11975913931     Delta-E=        0.000000072303 Rises=F Damp=F
 DIIS: error= 1.91D-05 at cycle   3 NSaved=   3.
 NSaved= 3 IEnMin= 2 EnMin= -1811.11975921161     IErMin= 2 ErrMin= 1.66D-05
 ErrMax= 1.91D-05  0.00D+00 EMaxC= 1.00D-01 BMatC= 4.43D-07 BMatP= 3.44D-07
 IDIUse=1 WtCom= 1.00D+00 WtEn= 0.00D+00
 Coeff-Com:  0.403D-03 0.532D+00 0.468D+00
 Coeff:      0.403D-03 0.532D+00 0.468D+00
 Gap=     0.195 Goal=   None    Shift=    0.000
 RMSDP=1.72D-06 MaxDP=1.03D-04 DE= 7.23D-08 OVMax= 1.07D-04

 Cycle  12  Pass 1  IDiag  1:
 RMSU=  5.55D-07    CP:  1.00D+00  1.01D+00  4.74D-01
 E= -1811.11975949188     Delta-E=       -0.000000352573 Rises=F Damp=F
 DIIS: error= 3.99D-06 at cycle   4 NSaved=   4.
 NSaved= 4 IEnMin= 4 EnMin= -1811.11975949188     IErMin= 4 ErrMin= 3.99D-06
 ErrMax= 3.99D-06  0.00D+00 EMaxC= 1.00D-01 BMatC= 1.16D-08 BMatP= 3.44D-07
 IDIUse=1 WtCom= 1.00D+00 WtEn= 0.00D+00
 Coeff-Com: -0.736D-02 0.295D+00 0.279D+00 0.433D+00
 Coeff:     -0.736D-02 0.295D+00 0.279D+00 0.433D+00
 Gap=     0.195 Goal=   None    Shift=    0.000
 RMSDP=3.18D-07 MaxDP=1.41D-05 DE=-3.53D-07 OVMax= 2.49D-05

 Cycle  13  Pass 1  IDiag  1:
 RMSU=  1.90D-07    CP:  1.00D+00  1.01D+00  4.84D-01  5.46D-01
 E= -1811.11975950178     Delta-E=       -0.000000009901 Rises=F Damp=F
 DIIS: error= 9.39D-07 at cycle   5 NSaved=   5.
 NSaved= 5 IEnMin= 5 EnMin= -1811.11975950178     IErMin= 5 ErrMin= 9.39D-07
 ErrMax= 9.39D-07  0.00D+00 EMaxC= 1.00D-01 BMatC= 5.81D-10 BMatP= 1.16D-08
 IDIUse=1 WtCom= 1.00D+00 WtEn= 0.00D+00
 Coeff-Com: -0.404D-02 0.129D+00 0.125D+00 0.246D+00 0.504D+00
 Coeff:     -0.404D-02 0.129D+00 0.125D+00 0.246D+00 0.504D+00
 Gap=     0.195 Goal=   None    Shift=    0.000
 RMSDP=8.28D-08 MaxDP=4.51D-06 DE=-9.90D-09 OVMax= 6.49D-06

 Cycle  14  Pass 1  IDiag  1:
 RMSU=  6.88D-08    CP:  1.00D+00  1.01D+00  4.84D-01  5.68D-01  7.69D-01
 E= -1811.11975950224     Delta-E=       -0.000000000459 Rises=F Damp=F
 DIIS: error= 3.07D-07 at cycle   6 NSaved=   6.
 NSaved= 6 IEnMin= 6 EnMin= -1811.11975950224     IErMin= 6 ErrMin= 3.07D-07
 ErrMax= 3.07D-07  0.00D+00 EMaxC= 1.00D-01 BMatC= 7.94D-11 BMatP= 5.81D-10
 IDIUse=1 WtCom= 1.00D+00 WtEn= 0.00D+00
 Coeff-Com: -0.127D-02 0.313D-01 0.318D-01 0.794D-01 0.298D+00 0.560D+00
 Coeff:     -0.127D-02 0.313D-01 0.318D-01 0.794D-01 0.298D+00 0.560D+00
 Gap=     0.195 Goal=   None    Shift=    0.000
 RMSDP=2.88D-08 MaxDP=1.80D-06 DE=-4.59D-10 OVMax= 1.95D-06

 Cycle  15  Pass 1  IDiag  1:
 RMSU=  2.03D-08    CP:  1.00D+00  1.01D+00  4.84D-01  5.75D-01  8.12D-01
                    CP:  7.36D-01
 E= -1811.11975950242     Delta-E=       -0.000000000174 Rises=F Damp=F
 DIIS: error= 1.16D-07 at cycle   7 NSaved=   7.
 NSaved= 7 IEnMin= 7 EnMin= -1811.11975950242     IErMin= 7 ErrMin= 1.16D-07
 ErrMax= 1.16D-07  0.00D+00 EMaxC= 1.00D-01 BMatC= 1.20D-11 BMatP= 7.94D-11
 IDIUse=1 WtCom= 1.00D+00 WtEn= 0.00D+00
 Coeff-Com: -0.212D-03 0.782D-03 0.185D-02 0.139D-01 0.111D+00 0.338D+00
 Coeff-Com:  0.535D+00
 Coeff:     -0.212D-03 0.782D-03 0.185D-02 0.139D-01 0.111D+00 0.338D+00
 Coeff:      0.535D+00
 Gap=     0.195 Goal=   None    Shift=    0.000
 RMSDP=1.01D-08 MaxDP=4.70D-07 DE=-1.74D-10 OVMax= 8.60D-07

 Cycle  16  Pass 1  IDiag  1:
 RMSU=  6.77D-09    CP:  1.00D+00  1.01D+00  4.85D-01  5.77D-01  8.17D-01
                    CP:  7.73D-01  6.67D-01
 E= -1811.11975950248     Delta-E=       -0.000000000065 Rises=F Damp=F
 DIIS: error= 4.76D-08 at cycle   8 NSaved=   8.
 NSaved= 8 IEnMin= 8 EnMin= -1811.11975950248     IErMin= 8 ErrMin= 4.76D-08
 ErrMax= 4.76D-08  0.00D+00 EMaxC= 1.00D-01 BMatC= 1.08D-12 BMatP= 1.20D-11
 IDIUse=1 WtCom= 1.00D+00 WtEn= 0.00D+00
 Coeff-Com: -0.133D-05-0.241D-02-0.185D-02 0.320D-03 0.325D-01 0.131D+00
 Coeff-Com:  0.300D+00 0.541D+00
 Coeff:     -0.133D-05-0.241D-02-0.185D-02 0.320D-03 0.325D-01 0.131D+00
 Coeff:      0.300D+00 0.541D+00
 Gap=     0.195 Goal=   None    Shift=    0.000
 RMSDP=3.27D-09 MaxDP=2.43D-07 DE=-6.55D-11 OVMax= 2.66D-07

 SCF Done:  E(RB3LYP) =  -1811.11975950     A.U. after   16 cycles
            NFock= 16  Conv=0.33D-08     -V/T= 2.0069
 KE= 1.798676346925D+03 PE=-9.265245639829D+03 EE= 3.147699430955D+03
 Leave Link  502 at Fri Aug  7 23:49:43 2020, MaxMem=    33554432 cpu:       516.5
 (Enter /prod/apps/gaussian/g09d1/l601.exe)
 Copying SCF densities to generalized density rwf, IOpCl= 0 IROHF=0.

 **********************************************************************

            Population analysis using the SCF density.

 **********************************************************************

 Orbital symmetries:
       Occupied  (A) (A) (A) (A) (A) (A) (A) (A) (A) (A) (A) (A)
                 (A) (A) (A) (A) (A) (A) (A) (A) (A) (A) (A) (A)
                 (A) (A) (A) (A) (A) (A) (A) (A) (A) (A) (A) (A)
                 (A) (A) (A) (A) (A) (A) (A) (A) (A) (A) (A) (A)
                 (A) (A) (A) (A) (A) (A) (A) (A) (A) (A) (A) (A)
                 (A) (A) (A) (A) (A) (A) (A) (A) (A) (A) (A) (A)
                 (A) (A) (A) (A) (A) (A) (A) (A) (A) (A) (A) (A)
                 (A) (A) (A) (A) (A) (A) (A) (A) (A) (A) (A) (A)
       Virtual   (A) (A) (A) (A) (A) (A) (A) (A) (A) (A) (A) (A)
                 (A) (A) (A) (A) (A) (A) (A) (A) (A) (A) (A) (A)
                 (A) (A) (A) (A) (A) (A) (A) (A) (A) (A) (A) (A)
                 (A) (A) (A) (A) (A) (A) (A) (A) (A) (A) (A) (A)
                 (A) (A) (A) (A) (A) (A) (A) (A) (A) (A) (A) (A)
                 (A) (A) (A) (A) (A) (A) (A) (A) (A) (A) (A) (A)
                 (A) (A) (A) (A) (A) (A) (A) (A) (A) (A) (A) (A)
                 (A) (A) (A) (A) (A) (A) (A) (A) (A) (A) (A) (A)
                 (A) (A) (A) (A) (A) (A) (A) (A) (A) (A) (A) (A)
                 (A) (A) (A) (A) (A) (A) (A) (A) (A) (A) (A) (A)
                 (A) (A) (A) (A) (A) (A) (A) (A) (A) (A) (A) (A)
                 (A) (A) (A) (A) (A) (A) (A) (A) (A) (A) (A) (A)
                 (A) (A) (A) (A) (A) (A) (A) (A) (A) (A) (A) (A)
                 (A) (A) (A) (A) (A) (A) (A) (A) (A) (A) (A) (A)
                 (A) (A) (A) (A) (A) (A) (A) (A) (A) (A) (A) (A)
                 (A) (A) (A) (A) (A) (A) (A) (A) (A) (A) (A) (A)
                 (A) (A) (A) (A) (A) (A) (A) (A) (A) (A) (A) (A)
                 (A) (A) (A) (A) (A) (A) (A) (A) (A) (A) (A) (A)
                 (A) (A) (A) (A) (A) (A) (A) (A) (A) (A) (A) (A)
                 (A) (A) (A) (A) (A) (A) (A) (A) (A) (A) (A) (A)
                 (A) (A) (A) (A) (A) (A) (A) (A) (A) (A) (A) (A)
                 (A) (A) (A) (A) (A) (A) (A) (A) (A) (A) (A) (A)
                 (A) (A) (A) (A) (A) (A) (A) (A) (A) (A) (A) (A)
                 (A) (A) (A) (A) (A) (A) (A) (A) (A) (A) (A) (A)
                 (A) (A) (A) (A) (A) (A) (A) (A) (A) (A) (A) (A)
                 (A) (A) (A) (A) (A) (A) (A) (A) (A) (A)
 The electronic state is 1-A.
 Alpha  occ. eigenvalues --  -89.12828 -89.08844 -19.15882 -19.15465 -19.14204
 Alpha  occ. eigenvalues --  -19.13963 -14.38974 -10.28359 -10.24497 -10.23453
 Alpha  occ. eigenvalues --  -10.22970 -10.22952 -10.22740 -10.22441 -10.22326
 Alpha  occ. eigenvalues --  -10.22240 -10.20881 -10.20438 -10.20166 -10.19708
 Alpha  occ. eigenvalues --  -10.19630 -10.19576 -10.19486 -10.19430  -8.15368
 Alpha  occ. eigenvalues --   -8.11908  -6.11881  -6.11780  -6.11656  -6.08323
 Alpha  occ. eigenvalues --   -6.08263  -6.08197  -1.12417  -1.09348  -1.01240
 Alpha  occ. eigenvalues --   -0.98892  -0.95791  -0.89116  -0.86540  -0.85760
 Alpha  occ. eigenvalues --   -0.80050  -0.79432  -0.78026  -0.75026  -0.74649
 Alpha  occ. eigenvalues --   -0.72845  -0.70047  -0.67480  -0.64051  -0.63321
 Alpha  occ. eigenvalues --   -0.61211  -0.60329  -0.58546  -0.58148  -0.56226
 Alpha  occ. eigenvalues --   -0.53925  -0.52667  -0.51683  -0.50838  -0.49786
 Alpha  occ. eigenvalues --   -0.48683  -0.48375  -0.47376  -0.46968  -0.46297
 Alpha  occ. eigenvalues --   -0.46015  -0.45632  -0.45483  -0.44801  -0.43848
 Alpha  occ. eigenvalues --   -0.43287  -0.42451  -0.42244  -0.40810  -0.40144
 Alpha  occ. eigenvalues --   -0.39655  -0.39022  -0.38153  -0.37935  -0.36929
 Alpha  occ. eigenvalues --   -0.36068  -0.35484  -0.34329  -0.34033  -0.33389
 Alpha  occ. eigenvalues --   -0.32803  -0.31426  -0.31161  -0.30941  -0.30540
 Alpha  occ. eigenvalues --   -0.29335  -0.28525  -0.28408  -0.27357  -0.25651
 Alpha  occ. eigenvalues --   -0.24827
 Alpha virt. eigenvalues --   -0.05300  -0.03354  -0.01090  -0.00702   0.03170
 Alpha virt. eigenvalues --    0.03288   0.05039   0.05351   0.06101   0.07044
 Alpha virt. eigenvalues --    0.08334   0.08845   0.09158   0.09352   0.10295
 Alpha virt. eigenvalues --    0.10859   0.11022   0.11834   0.12546   0.13085
 Alpha virt. eigenvalues --    0.13732   0.14327   0.15124   0.15260   0.15633
 Alpha virt. eigenvalues --    0.15943   0.16486   0.16726   0.17148   0.17775
 Alpha virt. eigenvalues --    0.18815   0.19343   0.20116   0.21015   0.22707
 Alpha virt. eigenvalues --    0.23206   0.24138   0.25862   0.26729   0.27427
 Alpha virt. eigenvalues --    0.28493   0.29395   0.30003   0.30376   0.31853
 Alpha virt. eigenvalues --    0.33906   0.34214   0.34394   0.35418   0.36121
 Alpha virt. eigenvalues --    0.38159   0.40303   0.42989   0.44112   0.44692
 Alpha virt. eigenvalues --    0.45765   0.47239   0.48209   0.49600   0.50688
 Alpha virt. eigenvalues --    0.50985   0.52207   0.53162   0.53554   0.53830
 Alpha virt. eigenvalues --    0.54130   0.54853   0.55167   0.55582   0.56125
 Alpha virt. eigenvalues --    0.56749   0.57331   0.58062   0.58148   0.58667
 Alpha virt. eigenvalues --    0.58989   0.59585   0.59816   0.60076   0.60462
 Alpha virt. eigenvalues --    0.60547   0.61149   0.61369   0.62732   0.63221
 Alpha virt. eigenvalues --    0.64135   0.64629   0.65684   0.66635   0.68991
 Alpha virt. eigenvalues --    0.70194   0.70258   0.70965   0.72378   0.75400
 Alpha virt. eigenvalues --    0.75869   0.77317   0.78700   0.79185   0.79995
 Alpha virt. eigenvalues --    0.80328   0.80675   0.80950   0.81504   0.82286
 Alpha virt. eigenvalues --    0.82782   0.83296   0.83701   0.84010   0.84312
 Alpha virt. eigenvalues --    0.84561   0.85317   0.85719   0.86604   0.87472
 Alpha virt. eigenvalues --    0.87880   0.88222   0.88828   0.89914   0.90157
 Alpha virt. eigenvalues --    0.91027   0.92074   0.92810   0.93179   0.93443
 Alpha virt. eigenvalues --    0.94066   0.94983   0.95873   0.96662   0.97628
 Alpha virt. eigenvalues --    0.98405   1.00460   1.00619   1.02817   1.03583
 Alpha virt. eigenvalues --    1.04247   1.05769   1.07230   1.07690   1.07906
 Alpha virt. eigenvalues --    1.08847   1.09428   1.09739   1.10463   1.12056
 Alpha virt. eigenvalues --    1.12760   1.14596   1.14906   1.15275   1.16735
 Alpha virt. eigenvalues --    1.17213   1.17628   1.18220   1.19954   1.20576
 Alpha virt. eigenvalues --    1.22147   1.22808   1.24115   1.24517   1.26315
 Alpha virt. eigenvalues --    1.29111   1.30065   1.31608   1.34726   1.38144
 Alpha virt. eigenvalues --    1.38957   1.39552   1.40744   1.42901   1.43192
 Alpha virt. eigenvalues --    1.43910   1.44285   1.45120   1.45920   1.47270
 Alpha virt. eigenvalues --    1.47521   1.47803   1.48337   1.50732   1.50882
 Alpha virt. eigenvalues --    1.52721   1.54869   1.61829   1.62607   1.64690
 Alpha virt. eigenvalues --    1.69937   1.70910   1.73093   1.73355   1.74678
 Alpha virt. eigenvalues --    1.76067   1.76887   1.78213   1.78990   1.79731
 Alpha virt. eigenvalues --    1.80265   1.80812   1.81235   1.81522   1.81811
 Alpha virt. eigenvalues --    1.82984   1.83069   1.84677   1.85004   1.86089
 Alpha virt. eigenvalues --    1.87027   1.87492   1.88798   1.90103   1.90817
 Alpha virt. eigenvalues --    1.91098   1.92456   1.92755   1.94245   1.96405
 Alpha virt. eigenvalues --    1.96867   1.97630   1.98756   2.00531   2.01051
 Alpha virt. eigenvalues --    2.03964   2.04642   2.05303   2.06898   2.07954
 Alpha virt. eigenvalues --    2.08754   2.09174   2.10694   2.11895   2.12348
 Alpha virt. eigenvalues --    2.12576   2.13261   2.13645   2.13686   2.14135
 Alpha virt. eigenvalues --    2.16060   2.17025   2.18253   2.20404   2.22631
 Alpha virt. eigenvalues --    2.23078   2.24437   2.25930   2.26775   2.26901
 Alpha virt. eigenvalues --    2.28667   2.29063   2.30670   2.30816   2.31449
 Alpha virt. eigenvalues --    2.33788   2.36933   2.38693   2.39963   2.41662
 Alpha virt. eigenvalues --    2.47516   2.48895   2.52697   2.55686   2.56682
 Alpha virt. eigenvalues --    2.57723   2.58984   2.61731   2.63360   2.64285
 Alpha virt. eigenvalues --    2.67023   2.68707   2.69965   2.71222   2.72097
 Alpha virt. eigenvalues --    2.72594   2.72867   2.73194   2.74446   2.74642
 Alpha virt. eigenvalues --    2.76370   2.77038   2.78929   2.82868   2.83002
 Alpha virt. eigenvalues --    2.84723   2.89342   3.01069   3.05431   3.35495
 Alpha virt. eigenvalues --    3.40267   3.74790   3.81095   3.95125   3.97929
 Alpha virt. eigenvalues --    4.01316   4.05492   4.07192   4.08866   4.09177
 Alpha virt. eigenvalues --    4.10347   4.12024   4.16342   4.18085   4.19921
 Alpha virt. eigenvalues --    4.25604   4.31261   4.32761   4.34107   4.35903
 Alpha virt. eigenvalues --    4.43731   4.54250   4.64139   4.69239   4.75092
          Condensed to atoms (all electrons):
               1          2          3          4          5          6
     1  O    8.290241   0.385739  -0.052141   0.007875   0.005238   0.000344
     2  S    0.385739  13.722665   0.099832  -0.004382  -0.006124   0.000022
     3  N   -0.052141   0.099832   7.404496   0.244396  -0.061722   0.002459
     4  C    0.007875  -0.004382   0.244396   4.853040   0.360224  -0.094886
     5  C    0.005238  -0.006124  -0.061722   0.360224   5.701954   0.130920
     6  S    0.000344   0.000022   0.002459  -0.094886   0.130920  13.913238
     7  C    0.000121   0.001088  -0.036565   0.327808  -0.195617   0.113883
     8  O    0.000000  -0.000019  -0.000121   0.002423  -0.044964   0.435400
     9  O    0.000000  -0.000001  -0.000027   0.000328  -0.045178   0.409862
    10  C   -0.008372  -0.004049  -0.057301   0.355148  -0.055013   0.004243
    11  C    0.000007  -0.000419  -0.003275  -0.033430   0.004305  -0.000273
    12  C   -0.000003  -0.000053  -0.000417  -0.003273  -0.000095  -0.000005
    13  C    0.000000   0.000000   0.000004  -0.000878  -0.000035   0.000212
    14  C    0.000000   0.000000   0.000000  -0.000020   0.000001  -0.000016
    15  C    0.000000   0.000000   0.000000   0.000002   0.000000   0.000000
    16  C    0.000000   0.000000   0.000000   0.000005   0.000000  -0.000002
    17  C    0.000000   0.000007   0.000070   0.000683  -0.000007   0.000093
    18  C   -0.057757   0.176157  -0.052690  -0.004404  -0.000256   0.000008
    19  C    0.001580  -0.031121   0.000458   0.000089  -0.000002   0.000000
    20  C    0.000643   0.003249  -0.000097   0.000004   0.000000   0.000000
    21  C   -0.000005  -0.000344   0.000008   0.000001   0.000000   0.000000
    22  C   -0.000046   0.002296   0.000032   0.000004   0.000000   0.000000
    23  C    0.001813  -0.018272   0.000215   0.000234   0.000001   0.000000
    24  O   -0.042438   0.459167  -0.056023   0.001910  -0.000055  -0.000004
    25  H    0.000192  -0.011969   0.293309  -0.025308  -0.000712   0.000634
    26  H    0.000091   0.000206   0.002073  -0.024562   0.346878  -0.013454
    27  H   -0.000166   0.001128  -0.002911  -0.023127   0.329974  -0.002695
    28  H    0.000001   0.000013   0.001337  -0.020125   0.008241  -0.008574
    29  H    0.000003  -0.000106  -0.005444  -0.029019   0.003981  -0.002511
    30  H    0.007378   0.011009  -0.005872  -0.034030  -0.006069  -0.000334
    31  H    0.000095  -0.000076   0.004013  -0.030664  -0.004185   0.007445
    32  H    0.000006  -0.001020   0.007138  -0.010554   0.000268  -0.000011
    33  H   -0.000002  -0.000089   0.000172   0.004733  -0.000140   0.000023
    34  H    0.000000   0.000000   0.000001   0.000184  -0.000002   0.000000
    35  H    0.000000   0.000000   0.000000   0.000000   0.000000   0.000001
    36  H    0.000000   0.000000   0.000000   0.000000   0.000000   0.000000
    37  H    0.000000   0.000000   0.000000   0.000000   0.000000   0.000000
    38  H    0.000000   0.000002   0.000056  -0.000031   0.000001   0.000006
    39  H    0.012417  -0.008019   0.000269  -0.000019  -0.000005   0.000000
    40  H    0.000003  -0.000071   0.000001   0.000000   0.000000   0.000000
    41  H    0.000000   0.000008   0.000000   0.000000   0.000000   0.000000
    42  H    0.000000  -0.000063   0.000001   0.000000   0.000000   0.000000
    43  H    0.000056  -0.000359   0.003035   0.000059   0.000002   0.000000
               7          8          9         10         11         12
     1  O    0.000121   0.000000   0.000000  -0.008372   0.000007  -0.000003
     2  S    0.001088  -0.000019  -0.000001  -0.004049  -0.000419  -0.000053
     3  N   -0.036565  -0.000121  -0.000027  -0.057301  -0.003275  -0.000417
     4  C    0.327808   0.002423   0.000328   0.355148  -0.033430  -0.003273
     5  C   -0.195617  -0.044964  -0.045178  -0.055013   0.004305  -0.000095
     6  S    0.113883   0.435400   0.409862   0.004243  -0.000273  -0.000005
     7  C    5.778098  -0.046077  -0.044848  -0.046803  -0.003818  -0.003769
     8  O   -0.046077   8.208064  -0.046729  -0.000060   0.000000   0.000000
     9  O   -0.044848  -0.046729   8.250156  -0.002443   0.000061  -0.000128
    10  C   -0.046803  -0.000060  -0.002443   5.187859   0.323524  -0.029933
    11  C   -0.003818   0.000000   0.000061   0.323524   5.193537   0.346619
    12  C   -0.003769   0.000000  -0.000128  -0.029933   0.346619   4.676219
    13  C   -0.001674   0.000000   0.000323  -0.004400  -0.067702   0.534752
    14  C   -0.000025   0.000000  -0.000043   0.000243   0.006123  -0.017539
    15  C    0.000070   0.000000   0.000000   0.000001   0.000344  -0.035131
    16  C   -0.000035   0.000000   0.000000  -0.000187   0.007276  -0.021909
    17  C   -0.002810   0.000000   0.000000   0.000661  -0.049751   0.546294
    18  C   -0.000176   0.000000   0.000000   0.002681  -0.001080   0.000151
    19  C   -0.000001   0.000000   0.000000  -0.000959   0.000657   0.000035
    20  C    0.000000   0.000000   0.000000  -0.000054   0.000099   0.000000
    21  C    0.000000   0.000000   0.000000   0.000002  -0.000018  -0.000002
    22  C    0.000000   0.000000   0.000000   0.000011  -0.000241   0.000000
    23  C   -0.000020   0.000000   0.000000  -0.000030  -0.001096   0.000047
    24  O   -0.000089   0.000000   0.000000  -0.000105   0.000004   0.000000
    25  H   -0.006988  -0.000064  -0.000001   0.005306  -0.000098  -0.000004
    26  H    0.009778   0.000703  -0.000270  -0.003408   0.000154   0.000008
    27  H    0.004515   0.000192   0.001218   0.003637  -0.000101   0.000001
    28  H    0.338284   0.000514   0.000058  -0.007273  -0.002093   0.011479
    29  H    0.327110   0.000516   0.001264   0.003858  -0.000040   0.000027
    30  H    0.005517   0.000001   0.000071   0.352934  -0.030461   0.003490
    31  H   -0.004465   0.000018   0.006036   0.363677  -0.036039  -0.007281
    32  H   -0.000205   0.000000  -0.000001  -0.036693   0.362673  -0.033947
    33  H   -0.000037   0.000000  -0.000001  -0.035575   0.361300  -0.030566
    34  H   -0.000062   0.000000   0.000031   0.000819  -0.008850  -0.048466
    35  H   -0.000002   0.000000  -0.000001   0.000002  -0.000181   0.003531
    36  H    0.000000   0.000000   0.000000   0.000000   0.000007   0.000723
    37  H   -0.000005   0.000000   0.000000   0.000002  -0.000178   0.003832
    38  H    0.000103   0.000000   0.000000   0.000173  -0.011646  -0.044098
    39  H    0.000001   0.000000   0.000000  -0.000280   0.000008   0.000000
    40  H    0.000000   0.000000   0.000000  -0.000001   0.000000   0.000000
    41  H    0.000000   0.000000   0.000000   0.000000   0.000000   0.000000
    42  H    0.000000   0.000000   0.000000   0.000000  -0.000003   0.000000
    43  H    0.000000   0.000000   0.000000  -0.000028  -0.000029   0.000002
              13         14         15         16         17         18
     1  O    0.000000   0.000000   0.000000   0.000000   0.000000  -0.057757
     2  S    0.000000   0.000000   0.000000   0.000000   0.000007   0.176157
     3  N    0.000004   0.000000   0.000000   0.000000   0.000070  -0.052690
     4  C   -0.000878  -0.000020   0.000002   0.000005   0.000683  -0.004404
     5  C   -0.000035   0.000001   0.000000   0.000000  -0.000007  -0.000256
     6  S    0.000212  -0.000016   0.000000  -0.000002   0.000093   0.000008
     7  C   -0.001674  -0.000025   0.000070  -0.000035  -0.002810  -0.000176
     8  O    0.000000   0.000000   0.000000   0.000000   0.000000   0.000000
     9  O    0.000323  -0.000043   0.000000   0.000000   0.000000   0.000000
    10  C   -0.004400   0.000243   0.000001  -0.000187   0.000661   0.002681
    11  C   -0.067702   0.006123   0.000344   0.007276  -0.049751  -0.001080
    12  C    0.534752  -0.017539  -0.035131  -0.021909   0.546294   0.000151
    13  C    4.975810   0.528580  -0.035501  -0.046891  -0.044184   0.000000
    14  C    0.528580   4.853581   0.546665  -0.026345  -0.045621   0.000000
    15  C   -0.035501   0.546665   4.855540   0.551365  -0.035731   0.000000
    16  C   -0.046891  -0.026345   0.551365   4.872559   0.517259   0.000000
    17  C   -0.044184  -0.045621  -0.035731   0.517259   4.981607  -0.000010
    18  C    0.000000   0.000000   0.000000   0.000000  -0.000010   5.322419
    19  C    0.000000   0.000000   0.000000   0.000000   0.000000   0.523830
    20  C    0.000000   0.000000   0.000000   0.000000   0.000000  -0.030800
    21  C    0.000000   0.000000   0.000000   0.000000   0.000000  -0.038650
    22  C    0.000000   0.000000   0.000000   0.000000  -0.000004  -0.024893
    23  C    0.000000   0.000000   0.000000   0.000000  -0.000027   0.466096
    24  O    0.000000   0.000000   0.000000   0.000000   0.000000  -0.063537
    25  H    0.000000   0.000000   0.000000   0.000000   0.000002   0.002689
    26  H    0.000000   0.000000   0.000000   0.000000   0.000000   0.000008
    27  H    0.000000   0.000000   0.000000   0.000000   0.000000   0.000028
    28  H    0.002833   0.000041  -0.000062   0.000082   0.004453   0.000002
    29  H    0.000063   0.000001  -0.000002  -0.000020   0.000056   0.000000
    30  H    0.000176   0.000001   0.000000   0.000002  -0.000100  -0.002468
    31  H    0.003739  -0.000131  -0.000001   0.000001   0.000242   0.000046
    32  H    0.004788  -0.000162   0.000002   0.000212  -0.004848   0.001520
    33  H   -0.004879  -0.000037   0.000037  -0.000233   0.000899  -0.000003
    34  H    0.355854  -0.040925   0.004699   0.000389   0.005940   0.000000
    35  H   -0.038639   0.358323  -0.042584   0.004550   0.000850   0.000000
    36  H    0.004719  -0.042096   0.359780  -0.043150   0.004624   0.000000
    37  H    0.000783   0.004612  -0.042862   0.357160  -0.039968   0.000000
    38  H    0.006629   0.000304   0.004879  -0.047145   0.353378  -0.000002
    39  H    0.000000   0.000000   0.000000   0.000000   0.000000  -0.040387
    40  H    0.000000   0.000000   0.000000   0.000000   0.000000   0.004877
    41  H    0.000000   0.000000   0.000000   0.000000   0.000000   0.000497
    42  H    0.000000   0.000000   0.000000   0.000000   0.000000   0.004771
    43  H    0.000000   0.000000   0.000000   0.000000  -0.000003  -0.049768
              19         20         21         22         23         24
     1  O    0.001580   0.000643  -0.000005  -0.000046   0.001813  -0.042438
     2  S   -0.031121   0.003249  -0.000344   0.002296  -0.018272   0.459167
     3  N    0.000458  -0.000097   0.000008   0.000032   0.000215  -0.056023
     4  C    0.000089   0.000004   0.000001   0.000004   0.000234   0.001910
     5  C   -0.000002   0.000000   0.000000   0.000000   0.000001  -0.000055
     6  S    0.000000   0.000000   0.000000   0.000000   0.000000  -0.000004
     7  C   -0.000001   0.000000   0.000000   0.000000  -0.000020  -0.000089
     8  O    0.000000   0.000000   0.000000   0.000000   0.000000   0.000000
     9  O    0.000000   0.000000   0.000000   0.000000   0.000000   0.000000
    10  C   -0.000959  -0.000054   0.000002   0.000011  -0.000030  -0.000105
    11  C    0.000657   0.000099  -0.000018  -0.000241  -0.001096   0.000004
    12  C    0.000035   0.000000  -0.000002   0.000000   0.000047   0.000000
    13  C    0.000000   0.000000   0.000000   0.000000   0.000000   0.000000
    14  C    0.000000   0.000000   0.000000   0.000000   0.000000   0.000000
    15  C    0.000000   0.000000   0.000000   0.000000   0.000000   0.000000
    16  C    0.000000   0.000000   0.000000   0.000000   0.000000   0.000000
    17  C    0.000000   0.000000   0.000000  -0.000004  -0.000027   0.000000
    18  C    0.523830  -0.030800  -0.038650  -0.024893   0.466096  -0.063537
    19  C    4.924725   0.498993  -0.029515  -0.039502  -0.035428  -0.000626
    20  C    0.498993   4.884584   0.546508  -0.028825  -0.037077  -0.000054
    21  C   -0.029515   0.546508   4.840662   0.540180  -0.030449  -0.000004
    22  C   -0.039502  -0.028825   0.540180   4.873421   0.518771   0.000189
    23  C   -0.035428  -0.037077  -0.030449   0.518771   4.923568   0.001348
    24  O   -0.000626  -0.000054  -0.000004   0.000189   0.001348   8.226771
    25  H   -0.000040   0.000002   0.000000   0.000002  -0.000096   0.006623
    26  H   -0.000003   0.000000   0.000000   0.000000   0.000000   0.000000
    27  H    0.000000   0.000000   0.000000   0.000000   0.000000  -0.000157
    28  H    0.000000   0.000000   0.000000   0.000000   0.000000   0.000000
    29  H    0.000000   0.000000   0.000000   0.000000   0.000000  -0.000021
    30  H    0.001720  -0.000007   0.000003  -0.000023  -0.000069   0.000029
    31  H    0.000010   0.000001   0.000000   0.000000   0.000000   0.000000
    32  H   -0.000554  -0.000232   0.000005   0.000605   0.003843  -0.000007
    33  H    0.000546   0.000264   0.000053  -0.000019  -0.000087   0.000000
    34  H    0.000000   0.000000   0.000000   0.000000   0.000000   0.000000
    35  H    0.000000   0.000000   0.000000   0.000000   0.000000   0.000000
    36  H    0.000000   0.000000   0.000000   0.000000   0.000000   0.000000
    37  H    0.000000   0.000000   0.000000   0.000000   0.000000   0.000000
    38  H    0.000000   0.000000   0.000000   0.000009   0.000035   0.000000
    39  H    0.358852  -0.036778   0.004126   0.000236   0.005056   0.000027
    40  H   -0.042282   0.364151  -0.041493   0.004343   0.000723   0.000000
    41  H    0.004811  -0.041880   0.362442  -0.041925   0.004880   0.000000
    42  H    0.000655   0.004389  -0.041005   0.363042  -0.041471   0.000001
    43  H    0.004525   0.000361   0.004285  -0.037498   0.363570   0.002018
              25         26         27         28         29         30
     1  O    0.000192   0.000091  -0.000166   0.000001   0.000003   0.007378
     2  S   -0.011969   0.000206   0.001128   0.000013  -0.000106   0.011009
     3  N    0.293309   0.002073  -0.002911   0.001337  -0.005444  -0.005872
     4  C   -0.025308  -0.024562  -0.023127  -0.020125  -0.029019  -0.034030
     5  C   -0.000712   0.346878   0.329974   0.008241   0.003981  -0.006069
     6  S    0.000634  -0.013454  -0.002695  -0.008574  -0.002511  -0.000334
     7  C   -0.006988   0.009778   0.004515   0.338284   0.327110   0.005517
     8  O   -0.000064   0.000703   0.000192   0.000514   0.000516   0.000001
     9  O   -0.000001  -0.000270   0.001218   0.000058   0.001264   0.000071
    10  C    0.005306  -0.003408   0.003637  -0.007273   0.003858   0.352934
    11  C   -0.000098   0.000154  -0.000101  -0.002093  -0.000040  -0.030461
    12  C   -0.000004   0.000008   0.000001   0.011479   0.000027   0.003490
    13  C    0.000000   0.000000   0.000000   0.002833   0.000063   0.000176
    14  C    0.000000   0.000000   0.000000   0.000041   0.000001   0.000001
    15  C    0.000000   0.000000   0.000000  -0.000062  -0.000002   0.000000
    16  C    0.000000   0.000000   0.000000   0.000082  -0.000020   0.000002
    17  C    0.000002   0.000000   0.000000   0.004453   0.000056  -0.000100
    18  C    0.002689   0.000008   0.000028   0.000002   0.000000  -0.002468
    19  C   -0.000040  -0.000003   0.000000   0.000000   0.000000   0.001720
    20  C    0.000002   0.000000   0.000000   0.000000   0.000000  -0.000007
    21  C    0.000000   0.000000   0.000000   0.000000   0.000000   0.000003
    22  C    0.000002   0.000000   0.000000   0.000000   0.000000  -0.000023
    23  C   -0.000096   0.000000   0.000000   0.000000   0.000000  -0.000069
    24  O    0.006623   0.000000  -0.000157   0.000000  -0.000021   0.000029
    25  H    0.371154  -0.000166   0.001464  -0.000096   0.006290  -0.000057
    26  H   -0.000166   0.475899  -0.016950  -0.000236  -0.000265   0.002912
    27  H    0.001464  -0.016950   0.489417  -0.000232   0.000013  -0.000007
    28  H   -0.000096  -0.000236  -0.000232   0.445428  -0.017167   0.000192
    29  H    0.006290  -0.000265   0.000013  -0.017167   0.516937  -0.000116
    30  H   -0.000057   0.002912  -0.000007   0.000192  -0.000116   0.552009
    31  H   -0.000118  -0.000142   0.000204  -0.000254   0.000047  -0.026198
    32  H   -0.000116   0.000000   0.000003   0.000105  -0.000045  -0.000714
    33  H    0.000006  -0.000012   0.000002   0.000102   0.000004  -0.005617
    34  H    0.000000   0.000001   0.000000   0.000115   0.000000  -0.000191
    35  H    0.000000   0.000000   0.000000   0.000004   0.000000   0.000000
    36  H    0.000000   0.000000   0.000000   0.000000   0.000000   0.000000
    37  H    0.000000   0.000000   0.000000   0.000012   0.000000   0.000000
    38  H   -0.000002   0.000000   0.000000   0.000002   0.000012  -0.000008
    39  H   -0.000005   0.000004   0.000001   0.000000   0.000000   0.001082
    40  H    0.000000   0.000000   0.000000   0.000000   0.000000   0.000000
    41  H    0.000000   0.000000   0.000000   0.000000   0.000000   0.000000
    42  H    0.000000   0.000000   0.000000   0.000000   0.000000   0.000000
    43  H   -0.000220   0.000000   0.000000   0.000000   0.000000  -0.000004
              31         32         33         34         35         36
     1  O    0.000095   0.000006  -0.000002   0.000000   0.000000   0.000000
     2  S   -0.000076  -0.001020  -0.000089   0.000000   0.000000   0.000000
     3  N    0.004013   0.007138   0.000172   0.000001   0.000000   0.000000
     4  C   -0.030664  -0.010554   0.004733   0.000184   0.000000   0.000000
     5  C   -0.004185   0.000268  -0.000140  -0.000002   0.000000   0.000000
     6  S    0.007445  -0.000011   0.000023   0.000000   0.000001   0.000000
     7  C   -0.004465  -0.000205  -0.000037  -0.000062  -0.000002   0.000000
     8  O    0.000018   0.000000   0.000000   0.000000   0.000000   0.000000
     9  O    0.006036  -0.000001  -0.000001   0.000031  -0.000001   0.000000
    10  C    0.363677  -0.036693  -0.035575   0.000819   0.000002   0.000000
    11  C   -0.036039   0.362673   0.361300  -0.008850  -0.000181   0.000007
    12  C   -0.007281  -0.033947  -0.030566  -0.048466   0.003531   0.000723
    13  C    0.003739   0.004788  -0.004879   0.355854  -0.038639   0.004719
    14  C   -0.000131  -0.000162  -0.000037  -0.040925   0.358323  -0.042096
    15  C   -0.000001   0.000002   0.000037   0.004699  -0.042584   0.359780
    16  C    0.000001   0.000212  -0.000233   0.000389   0.004550  -0.043150
    17  C    0.000242  -0.004848   0.000899   0.005940   0.000850   0.004624
    18  C    0.000046   0.001520  -0.000003   0.000000   0.000000   0.000000
    19  C    0.000010  -0.000554   0.000546   0.000000   0.000000   0.000000
    20  C    0.000001  -0.000232   0.000264   0.000000   0.000000   0.000000
    21  C    0.000000   0.000005   0.000053   0.000000   0.000000   0.000000
    22  C    0.000000   0.000605  -0.000019   0.000000   0.000000   0.000000
    23  C    0.000000   0.003843  -0.000087   0.000000   0.000000   0.000000
    24  O    0.000000  -0.000007   0.000000   0.000000   0.000000   0.000000
    25  H   -0.000118  -0.000116   0.000006   0.000000   0.000000   0.000000
    26  H   -0.000142   0.000000  -0.000012   0.000001   0.000000   0.000000
    27  H    0.000204   0.000003   0.000002   0.000000   0.000000   0.000000
    28  H   -0.000254   0.000105   0.000102   0.000115   0.000004   0.000000
    29  H    0.000047  -0.000045   0.000004   0.000000   0.000000   0.000000
    30  H   -0.026198  -0.000714  -0.005617  -0.000191   0.000000   0.000000
    31  H    0.534115   0.004397  -0.000237   0.004534   0.000008   0.000000
    32  H    0.004397   0.564325  -0.032945   0.000029   0.000003   0.000000
    33  H   -0.000237  -0.032945   0.579645   0.001533  -0.000001   0.000000
    34  H    0.004534   0.000029   0.001533   0.594323  -0.005441  -0.000178
    35  H    0.000008   0.000003  -0.000001  -0.005441   0.586648  -0.005380
    36  H    0.000000   0.000000   0.000000  -0.000178  -0.005380   0.592694
    37  H    0.000000  -0.000010   0.000004   0.000017  -0.000185  -0.005549
    38  H    0.000011   0.008058   0.000150  -0.000180   0.000017  -0.000178
    39  H    0.000002   0.000004  -0.000009   0.000000   0.000000   0.000000
    40  H    0.000000   0.000001   0.000001   0.000000   0.000000   0.000000
    41  H    0.000000  -0.000001   0.000000   0.000000   0.000000   0.000000
    42  H    0.000000   0.000010   0.000000   0.000000   0.000000   0.000000
    43  H    0.000000   0.000157   0.000000   0.000000   0.000000   0.000000
              37         38         39         40         41         42
     1  O    0.000000   0.000000   0.012417   0.000003   0.000000   0.000000
     2  S    0.000000   0.000002  -0.008019  -0.000071   0.000008  -0.000063
     3  N    0.000000   0.000056   0.000269   0.000001   0.000000   0.000001
     4  C    0.000000  -0.000031  -0.000019   0.000000   0.000000   0.000000
     5  C    0.000000   0.000001  -0.000005   0.000000   0.000000   0.000000
     6  S    0.000000   0.000006   0.000000   0.000000   0.000000   0.000000
     7  C   -0.000005   0.000103   0.000001   0.000000   0.000000   0.000000
     8  O    0.000000   0.000000   0.000000   0.000000   0.000000   0.000000
     9  O    0.000000   0.000000   0.000000   0.000000   0.000000   0.000000
    10  C    0.000002   0.000173  -0.000280  -0.000001   0.000000   0.000000
    11  C   -0.000178  -0.011646   0.000008   0.000000   0.000000  -0.000003
    12  C    0.003832  -0.044098   0.000000   0.000000   0.000000   0.000000
    13  C    0.000783   0.006629   0.000000   0.000000   0.000000   0.000000
    14  C    0.004612   0.000304   0.000000   0.000000   0.000000   0.000000
    15  C   -0.042862   0.004879   0.000000   0.000000   0.000000   0.000000
    16  C    0.357160  -0.047145   0.000000   0.000000   0.000000   0.000000
    17  C   -0.039968   0.353378   0.000000   0.000000   0.000000   0.000000
    18  C    0.000000  -0.000002  -0.040387   0.004877   0.000497   0.004771
    19  C    0.000000   0.000000   0.358852  -0.042282   0.004811   0.000655
    20  C    0.000000   0.000000  -0.036778   0.364151  -0.041880   0.004389
    21  C    0.000000   0.000000   0.004126  -0.041493   0.362442  -0.041005
    22  C    0.000000   0.000009   0.000236   0.004343  -0.041925   0.363042
    23  C    0.000000   0.000035   0.005056   0.000723   0.004880  -0.041471
    24  O    0.000000   0.000000   0.000027   0.000000   0.000000   0.000001
    25  H    0.000000  -0.000002  -0.000005   0.000000   0.000000   0.000000
    26  H    0.000000   0.000000   0.000004   0.000000   0.000000   0.000000
    27  H    0.000000   0.000000   0.000001   0.000000   0.000000   0.000000
    28  H    0.000012   0.000002   0.000000   0.000000   0.000000   0.000000
    29  H    0.000000   0.000012   0.000000   0.000000   0.000000   0.000000
    30  H    0.000000  -0.000008   0.001082   0.000000   0.000000   0.000000
    31  H    0.000000   0.000011   0.000002   0.000000   0.000000   0.000000
    32  H   -0.000010   0.008058   0.000004   0.000001  -0.000001   0.000010
    33  H    0.000004   0.000150  -0.000009   0.000001   0.000000   0.000000
    34  H    0.000017  -0.000180   0.000000   0.000000   0.000000   0.000000
    35  H   -0.000185   0.000017   0.000000   0.000000   0.000000   0.000000
    36  H   -0.005549  -0.000178   0.000000   0.000000   0.000000   0.000000
    37  H    0.596331  -0.005650   0.000000   0.000000   0.000000   0.000000
    38  H   -0.005650   0.612476   0.000000   0.000000   0.000000   0.000000
    39  H    0.000000   0.000000   0.522296  -0.004884  -0.000142   0.000014
    40  H    0.000000   0.000000  -0.004884   0.568462  -0.005432  -0.000168
    41  H    0.000000   0.000000  -0.000142  -0.005432   0.572201  -0.005296
    42  H    0.000000   0.000000   0.000014  -0.000168  -0.005296   0.569507
    43  H    0.000000   0.000021  -0.000143   0.000015  -0.000153  -0.005382
              43
     1  O    0.000056
     2  S   -0.000359
     3  N    0.003035
     4  C    0.000059
     5  C    0.000002
     6  S    0.000000
     7  C    0.000000
     8  O    0.000000
     9  O    0.000000
    10  C   -0.000028
    11  C   -0.000029
    12  C    0.000002
    13  C    0.000000
    14  C    0.000000
    15  C    0.000000
    16  C    0.000000
    17  C   -0.000003
    18  C   -0.049768
    19  C    0.004525
    20  C    0.000361
    21  C    0.004285
    22  C   -0.037498
    23  C    0.363570
    24  O    0.002018
    25  H   -0.000220
[...]
    39  H    0.000000   0.000000   0.000000   0.000000   0.000000  -0.045468
    40  H    0.000000   0.000000   0.000000   0.000000   0.000000   0.004872
    41  H    0.000000   0.000000   0.000000   0.000000   0.000000   0.000464
    42  H    0.000000   0.000000   0.000000   0.000000   0.000000   0.004713
    43  H    0.000000   0.000000   0.000000   0.000000  -0.000002  -0.052177
              19         20         21         22         23         24
     1  O    0.001352   0.000602  -0.000005  -0.000046   0.001705  -0.041319
     2  S   -0.031519   0.003233  -0.000338   0.002210  -0.018569   0.457502
     3  N    0.000524  -0.000101   0.000008   0.000045  -0.000109  -0.056041
     4  C    0.000067   0.000004   0.000001   0.000005   0.000216   0.001895
     5  C   -0.000002   0.000000   0.000000   0.000000   0.000001  -0.000047
     6  S    0.000000   0.000000   0.000000   0.000000   0.000000  -0.000004
     7  C   -0.000001   0.000000   0.000000   0.000000  -0.000018  -0.000089
     8  O    0.000000   0.000000   0.000000   0.000000   0.000000   0.000000
     9  O    0.000000   0.000000   0.000000   0.000000   0.000000   0.000000
    10  C   -0.000943  -0.000057   0.000001   0.000010  -0.000037  -0.000106
    11  C    0.000654   0.000096  -0.000020  -0.000237  -0.001067   0.000004
    12  C    0.000033   0.000000  -0.000001   0.000000   0.000042   0.000000
    13  C    0.000000   0.000000   0.000000   0.000000   0.000000   0.000000
    14  C    0.000000   0.000000   0.000000   0.000000   0.000000   0.000000
    15  C    0.000000   0.000000   0.000000   0.000000   0.000000   0.000000
    16  C    0.000000   0.000000   0.000000   0.000000   0.000000   0.000000
    17  C    0.000000   0.000000   0.000000  -0.000004  -0.000025   0.000000
    18  C    0.514739  -0.031082  -0.038827  -0.027279   0.461887  -0.064607
    19  C    4.924090   0.504419  -0.031357  -0.039226  -0.032473  -0.000680
    20  C    0.504419   4.888447   0.541692  -0.029857  -0.037745  -0.000050
    21  C   -0.031357   0.541692   4.856620   0.535831  -0.032110  -0.000004
    22  C   -0.039226  -0.029857   0.535831   4.878850   0.521050   0.000187
    23  C   -0.032473  -0.037745  -0.032110   0.521050   4.934856   0.001664
    24  O   -0.000680  -0.000050  -0.000004   0.000187   0.001664   8.269610
    25  H   -0.000033   0.000002   0.000000   0.000002  -0.000099   0.005286
    26  H   -0.000003   0.000000   0.000000   0.000000   0.000000   0.000000
    27  H    0.000000   0.000000   0.000000   0.000000   0.000000  -0.000156
    28  H    0.000000   0.000000   0.000000   0.000000   0.000000   0.000000
    29  H    0.000000   0.000000   0.000000   0.000000   0.000000  -0.000020
    30  H    0.001709   0.000004   0.000003  -0.000022  -0.000082   0.000026
    31  H    0.000011   0.000001   0.000000   0.000000   0.000000   0.000000
    32  H   -0.000590  -0.000223   0.000011   0.000610   0.003727  -0.000007
    33  H    0.000536   0.000266   0.000055  -0.000018  -0.000085   0.000000
    34  H    0.000000   0.000000   0.000000   0.000000   0.000000   0.000000
    35  H    0.000000   0.000000   0.000000   0.000000   0.000000   0.000000
    36  H    0.000000   0.000000   0.000000   0.000000   0.000000   0.000000
    37  H    0.000000   0.000000   0.000000   0.000000   0.000000   0.000000
    38  H    0.000000   0.000000   0.000000   0.000009   0.000035   0.000000
    39  H    0.361628  -0.033865   0.004221   0.000196   0.004829   0.000025
    40  H   -0.041087   0.367213  -0.040112   0.004232   0.000645   0.000000
    41  H    0.004767  -0.040615   0.365472  -0.040643   0.004834   0.000000
    42  H    0.000613   0.004241  -0.039549   0.366387  -0.040147   0.000001
    43  H    0.004159   0.000325   0.004187  -0.033346   0.366024   0.001778
              25         26         27         28         29         30
     1  O    0.000088   0.000125  -0.000091   0.000001   0.000003   0.006776
     2  S   -0.009856   0.000314   0.001319   0.000007  -0.000061   0.011146
     3  N    0.293980   0.002016  -0.002807   0.001307  -0.004475  -0.005932
     4  C   -0.021692  -0.024978  -0.022413  -0.022315  -0.026019  -0.034618
     5  C   -0.000519   0.346548   0.332817   0.008288   0.003524  -0.005963
     6  S    0.000545  -0.012363  -0.002389  -0.009600  -0.002911  -0.000447
     7  C   -0.006179   0.009264   0.004057   0.338885   0.333821   0.005448
     8  O   -0.000059   0.000681   0.000046   0.000547   0.000321   0.000001
     9  O   -0.000001  -0.000477   0.001153  -0.000026   0.001170   0.000067
    10  C    0.004466  -0.003278   0.003509  -0.006983   0.003549   0.356247
    11  C   -0.000080   0.000138  -0.000096  -0.002158  -0.000065  -0.029621
    12  C   -0.000004   0.000008   0.000000   0.011485   0.000040   0.003369
    13  C    0.000000   0.000000   0.000000   0.003091   0.000057   0.000188
    14  C    0.000000   0.000000   0.000000   0.000088   0.000001   0.000001
    15  C    0.000000   0.000000   0.000000  -0.000057  -0.000002   0.000000
    16  C    0.000000   0.000000   0.000000   0.000090  -0.000019   0.000002
    17  C    0.000001   0.000000   0.000000   0.004195   0.000038  -0.000099
    18  C    0.002113   0.000007   0.000025   0.000002   0.000000  -0.002461
    19  C   -0.000033  -0.000003   0.000000   0.000000   0.000000   0.001709
    20  C    0.000002   0.000000   0.000000   0.000000   0.000000   0.000004
    21  C    0.000000   0.000000   0.000000   0.000000   0.000000   0.000003
    22  C    0.000002   0.000000   0.000000   0.000000   0.000000  -0.000022
    23  C   -0.000099   0.000000   0.000000   0.000000   0.000000  -0.000082
    24  O    0.005286   0.000000  -0.000156   0.000000  -0.000020   0.000026
    25  H    0.318219  -0.000135   0.001172  -0.000066   0.004800  -0.000050
    26  H   -0.000135   0.460678  -0.015667  -0.000244  -0.000233   0.002870
    27  H    0.001172  -0.015667   0.468353  -0.000213  -0.000005  -0.000022
    28  H   -0.000066  -0.000244  -0.000213   0.444863  -0.014350   0.000188
    29  H    0.004800  -0.000233  -0.000005  -0.014350   0.469484  -0.000104
    30  H   -0.000050   0.002870  -0.000022   0.000188  -0.000104   0.542479
    31  H   -0.000103  -0.000138   0.000190  -0.000240   0.000034  -0.025311
    32  H   -0.000079   0.000000   0.000003   0.000107  -0.000038  -0.000589
    33  H    0.000004  -0.000012   0.000002   0.000092   0.000004  -0.005751
    34  H    0.000000   0.000001   0.000000   0.000111   0.000000  -0.000182
    35  H    0.000000   0.000000   0.000000   0.000004   0.000000   0.000000
    36  H    0.000000   0.000000   0.000000   0.000000   0.000000   0.000000
    37  H    0.000000   0.000000   0.000000   0.000012   0.000000   0.000000
    38  H   -0.000002   0.000000   0.000000   0.000005   0.000011  -0.000008
    39  H   -0.000004   0.000004   0.000001   0.000000   0.000000   0.000991
    40  H    0.000000   0.000000   0.000000   0.000000   0.000000   0.000000
    41  H    0.000000   0.000000   0.000000   0.000000   0.000000   0.000000
    42  H    0.000000   0.000000   0.000000   0.000000   0.000000   0.000000
    43  H   -0.000177   0.000000   0.000000   0.000000   0.000000  -0.000004
              31         32         33         34         35         36
     1  O    0.000092   0.000009  -0.000002   0.000000   0.000000   0.000000
     2  S   -0.000130  -0.000994  -0.000100   0.000000   0.000000   0.000000
     3  N    0.004094   0.007169   0.000168   0.000001   0.000000   0.000000
     4  C   -0.031598  -0.010567   0.004608   0.000167   0.000000   0.000000
     5  C   -0.004441   0.000260  -0.000136  -0.000002   0.000000   0.000000
     6  S    0.007371   0.000000   0.000023   0.000014   0.000001   0.000000
     7  C   -0.004703  -0.000193  -0.000047  -0.000059  -0.000002   0.000000
     8  O    0.000014   0.000000   0.000000   0.000000   0.000000   0.000000
     9  O    0.005331  -0.000001  -0.000001   0.000036  -0.000001   0.000000
    10  C    0.364238  -0.036826  -0.033936   0.000739   0.000003   0.000000
    11  C   -0.036131   0.363410   0.363566  -0.008592  -0.000174   0.000007
    12  C   -0.007559  -0.034074  -0.029596  -0.046301   0.003495   0.000638
    13  C    0.004135   0.004821  -0.004937   0.358464  -0.038935   0.004650
    14  C   -0.000129  -0.000162  -0.000036  -0.041791   0.361107  -0.041844
    15  C   -0.000001   0.000002   0.000036   0.004634  -0.041877   0.363086
    16  C    0.000002   0.000232  -0.000230   0.000307   0.004516  -0.042125
    17  C    0.000233  -0.004705   0.000965   0.005877   0.000759   0.004571
    18  C    0.000046   0.001372  -0.000007   0.000000   0.000000   0.000000
    19  C    0.000011  -0.000590   0.000536   0.000000   0.000000   0.000000
    20  C    0.000001  -0.000223   0.000266   0.000000   0.000000   0.000000
    21  C    0.000000   0.000011   0.000055   0.000000   0.000000   0.000000
    22  C    0.000000   0.000610  -0.000018   0.000000   0.000000   0.000000
    23  C    0.000000   0.003727  -0.000085   0.000000   0.000000   0.000000
    24  O    0.000000  -0.000007   0.000000   0.000000   0.000000   0.000000
    25  H   -0.000103  -0.000079   0.000004   0.000000   0.000000   0.000000
    26  H   -0.000138   0.000000  -0.000012   0.000001   0.000000   0.000000
    27  H    0.000190   0.000003   0.000002   0.000000   0.000000   0.000000
    28  H   -0.000240   0.000107   0.000092   0.000111   0.000004   0.000000
    29  H    0.000034  -0.000038   0.000004   0.000000   0.000000   0.000000
    30  H   -0.025311  -0.000589  -0.005751  -0.000182   0.000000   0.000000
    31  H    0.538268   0.004411  -0.000272   0.004513   0.000008   0.000000
    32  H    0.004411   0.558426  -0.032035   0.000026   0.000003   0.000000
    33  H   -0.000272  -0.032035   0.562255   0.001453   0.000000   0.000000
    34  H    0.004513   0.000026   0.001453   0.577605  -0.005176  -0.000167
    35  H    0.000008   0.000003   0.000000  -0.005176   0.571185  -0.005162
    36  H    0.000000   0.000000   0.000000  -0.000167  -0.005162   0.572429
    37  H    0.000000  -0.000010   0.000003   0.000016  -0.000174  -0.005256
    38  H    0.000011   0.007576   0.000151  -0.000167   0.000016  -0.000165
    39  H    0.000002   0.000004  -0.000008   0.000000   0.000000   0.000000
    40  H    0.000000   0.000001   0.000001   0.000000   0.000000   0.000000
    41  H    0.000000  -0.000001   0.000000   0.000000   0.000000   0.000000
    42  H    0.000000   0.000009   0.000000   0.000000   0.000000   0.000000
    43  H    0.000000   0.000159   0.000000   0.000000   0.000000   0.000000
              37         38         39         40         41         42
     1  O    0.000000   0.000000   0.011799   0.000003   0.000000   0.000000
     2  S    0.000000   0.000002  -0.007708  -0.000077   0.000008  -0.000071
     3  N    0.000000   0.000053   0.000247   0.000001   0.000000   0.000001
     4  C    0.000000  -0.000028  -0.000017   0.000000   0.000000   0.000000
     5  C    0.000000   0.000001  -0.000006   0.000000   0.000000   0.000000
     6  S    0.000000   0.000005   0.000000   0.000000   0.000000   0.000000
     7  C   -0.000004   0.000089   0.000001   0.000000   0.000000   0.000000
     8  O    0.000000   0.000000   0.000000   0.000000   0.000000   0.000000
     9  O    0.000000   0.000000   0.000000   0.000000   0.000000   0.000000
    10  C    0.000002   0.000182  -0.000275  -0.000001   0.000000   0.000000
    11  C   -0.000169  -0.010978   0.000009   0.000000   0.000000  -0.000003
    12  C    0.003723  -0.042769   0.000000   0.000000   0.000000   0.000000
    13  C    0.000709   0.006416   0.000000   0.000000   0.000000   0.000000
    14  C    0.004547   0.000257   0.000000   0.000000   0.000000   0.000000
    15  C   -0.042306   0.004746   0.000000   0.000000   0.000000   0.000000
    16  C    0.360831  -0.045099   0.000000   0.000000   0.000000   0.000000
    17  C   -0.038473   0.357893   0.000000   0.000000   0.000000   0.000000
    18  C    0.000000  -0.000002  -0.045468   0.004872   0.000464   0.004713
    19  C    0.000000   0.000000   0.361628  -0.041087   0.004767   0.000613
    20  C    0.000000   0.000000  -0.033865   0.367213  -0.040615   0.004241
    21  C    0.000000   0.000000   0.004221  -0.040112   0.365472  -0.039549
    22  C    0.000000   0.000009   0.000196   0.004232  -0.040643   0.366387
    23  C    0.000000   0.000035   0.004829   0.000645   0.004834  -0.040147
    24  O    0.000000   0.000000   0.000025   0.000000   0.000000   0.000001
    25  H    0.000000  -0.000002  -0.000004   0.000000   0.000000   0.000000
    26  H    0.000000   0.000000   0.000004   0.000000   0.000000   0.000000
    27  H    0.000000   0.000000   0.000001   0.000000   0.000000   0.000000
    28  H    0.000012   0.000005   0.000000   0.000000   0.000000   0.000000
    29  H    0.000000   0.000011   0.000000   0.000000   0.000000   0.000000
    30  H    0.000000  -0.000008   0.000991   0.000000   0.000000   0.000000
    31  H    0.000000   0.000011   0.000002   0.000000   0.000000   0.000000
    32  H   -0.000010   0.007576   0.000004   0.000001  -0.000001   0.000009
    33  H    0.000003   0.000151  -0.000008   0.000001   0.000000   0.000000
    34  H    0.000016  -0.000167   0.000000   0.000000   0.000000   0.000000
    35  H   -0.000174   0.000016   0.000000   0.000000   0.000000   0.000000
    36  H   -0.005256  -0.000165   0.000000   0.000000   0.000000   0.000000
    37  H    0.571778  -0.005268   0.000000   0.000000   0.000000   0.000000
    38  H   -0.005268   0.582471   0.000000   0.000000   0.000000   0.000000
    39  H    0.000000   0.000000   0.521350  -0.004924  -0.000135   0.000013
    40  H    0.000000   0.000000  -0.004924   0.543465  -0.005137  -0.000155
    41  H    0.000000   0.000000  -0.000135  -0.005137   0.545821  -0.005001
    42  H    0.000000   0.000000   0.000013  -0.000155  -0.005001   0.542197
    43  H    0.000000   0.000019  -0.000137   0.000014  -0.000142  -0.005167
              43
     1  O    0.000051
     2  S   -0.000038
     3  N    0.002733
     4  C    0.000045
     5  C    0.000002
     6  S    0.000000
     7  C    0.000000
     8  O    0.000000
     9  O    0.000000
    10  C   -0.000026
    11  C   -0.000032
    12  C    0.000002
    13  C    0.000000
    14  C    0.000000
    15  C    0.000000
    16  C    0.000000
    17  C   -0.000002
    18  C   -0.052177
    19  C    0.004159
    20  C    0.000325
    21  C    0.004187
    22  C   -0.033346
    23  C    0.366024
    24  O    0.001778
    25  H   -0.000177
    26  H    0.000000
    27  H    0.000000
    28  H    0.000000
    29  H    0.000000
    30  H   -0.000004
    31  H    0.000000
    32  H    0.000159
    33  H    0.000000
    34  H    0.000000
    35  H    0.000000
    36  H    0.000000
    37  H    0.000000
    38  H    0.000019
    39  H   -0.000137
    40  H    0.000014
    41  H   -0.000142
    42  H   -0.005167
    43  H    0.526357
 Mulliken charges:
               1
     1  O   -0.579513
     2  S    1.222754
     3  N   -0.734449
     4  C    0.175271
     5  C   -0.476241
     6  S    1.105422
     7  C   -0.505062
     8  O   -0.556264
     9  O   -0.570840
    10  C   -0.307138
    11  C   -0.354898
    12  C    0.143151
    13  C   -0.191322
    14  C   -0.147643
    15  C   -0.151946
    16  C   -0.143915
    17  C   -0.204149
    18  C   -0.143199
    19  C   -0.141388
    20  C   -0.136950
    21  C   -0.125779
    22  C   -0.138946
    23  C   -0.138948
    24  O   -0.574849
    25  H    0.408459
    26  H    0.234876
    27  H    0.231211
    28  H    0.242886
    29  H    0.231446
    30  H    0.179755
    31  H    0.177750
    32  H    0.168747
    33  H    0.173020
    34  H    0.148474
    35  H    0.150405
    36  H    0.149338
    37  H    0.150036
    38  H    0.144541
    39  H    0.187230
    40  H    0.171046
    41  H    0.170308
    42  H    0.171919
    43  H    0.185393
 Sum of Mulliken charges =   0.00000
 Mulliken charges with hydrogens summed into heavy atoms:
               1
     1  O   -0.579513
     2  S    1.222754
     3  N   -0.325991
     4  C    0.175271
     5  C   -0.010155
     6  S    1.105422
     7  C   -0.030730
     8  O   -0.556264
     9  O   -0.570840
    10  C    0.050368
    11  C   -0.013130
    12  C    0.143151
    13  C   -0.042848
    14  C    0.002762
    15  C   -0.002608
    16  C    0.006121
    17  C   -0.059608
    18  C   -0.143199
    19  C    0.045842
    20  C    0.034096
    21  C    0.044529
    22  C    0.032973
    23  C    0.046445
    24  O   -0.574849
 Electronic spatial extent (au):  <R**2>=           9258.8128
 Charge=              0.0000 electrons
 Dipole moment (field-independent basis, Debye):
    X=              4.4911    Y=              8.2423    Z=             -0.8863  Tot=              9.4282
 Quadrupole moment (field-independent basis, Debye-Ang):
   XX=           -170.1642   YY=           -166.7482   ZZ=           -143.6406
   XY=              2.0336   XZ=              8.5478   YZ=             -3.7159
 Traceless Quadrupole moment (field-independent basis, Debye-Ang):
   XX=             -9.9799   YY=             -6.5638   ZZ=             16.5437
   XY=              2.0336   XZ=              8.5478   YZ=             -3.7159
 Octapole moment (field-independent basis, Debye-Ang**2):
  XXX=             76.1629  YYY=             31.5214  ZZZ=             -5.0835  XYY=             50.8385
  XXY=            168.5179  XXZ=             17.0529  XZZ=              8.5187  YZZ=             10.6369
  YYZ=             -0.7729  XYZ=              1.6435
 Hexadecapole moment (field-independent basis, Debye-Ang**3):
 XXXX=          -7144.6393 YYYY=          -4421.4650 ZZZZ=           -899.2478 XXXY=            -37.8956
 XXXZ=            149.1868 YYYX=            -12.4435 YYYZ=           -125.3047 ZZZX=             26.0257
 ZZZY=             -3.9739 XXYY=          -1934.7142 XXZZ=          -1289.1818 YYZZ=           -835.4764
 XXYZ=            -24.8932 YYXZ=              6.7096 ZZXY=             31.1502
 N-N= 2.507753292056D+03 E-N=-9.265347258503D+03  KE= 1.798696176943D+03
 No NMR shielding tensors so no spin-rotation constants.
 Leave Link  601 at Fri Aug  7 23:56:09 2020, MaxMem=    33554432 cpu:         0.4
 (Enter /prod/apps/gaussian/g09d1/l9999.exe)
 1\1\GINC-PIRINEUS8\SP\RB3LYP\6-31G(d)\C17H19N1O4S2\UBAFAR01\07-Aug-202
 0\0\\#p b3lyp/6-31G(d) scrf=(iefpcm,read,solvent=Water) geom=allcheck 
 guess=read\\SM39.n.10.pdb.xyz\\0,1\O,0,5.084,2.842,-0.241\S,0,4.451,1.
 734,0.494\N,0,2.909,1.425,-0.122\C,0,2.504,1.974,-1.425\C,0,2.5,3.546,
 -1.521\S,0,0.802,3.496,-2.173\C,0,0.96,1.776,-1.594\O,0,-0.172,4.306,-
 1.417\O,0,0.778,3.57,-3.649\C,0,3.325,1.364,-2.574\C,0,3.241,-0.166,-2
 .733\C,0,2.027,-0.691,-3.474\C,0,1.701,-0.223,-4.756\C,0,0.604,-0.735,
 -5.449\C,0,-0.189,-1.731,-4.873\C,0,0.126,-2.209,-3.601\C,0,1.225,-1.6
 92,-2.911\C,0,5.394,0.256,0.164\C,0,6.555,0.356,-0.6\C,0,7.319,-0.793,
 -0.812\C,0,6.919,-2.011,-0.262\C,0,5.754,-2.092,0.509\C,0,4.983,-0.954
 ,0.731\O,0,4.258,1.843,1.949\H,0,2.246,1.629,0.628\H,0,3.222,4.001,-2.
 197\H,0,2.505,4.044,-0.552\H,0,0.641,1.029,-2.317\H,0,0.425,1.657,-0.6
 52\H,0,4.366,1.655,-2.407\H,0,3.019,1.852,-3.504\H,0,3.294,-0.639,-1.7
 49\H,0,4.141,-0.481,-3.274\H,0,2.312,0.55,-5.214\H,0,0.369,-0.358,-6.4
 41\H,0,-1.043,-2.129,-5.412\H,0,-0.483,-2.982,-3.143\H,0,1.466,-2.066,
 -1.92\H,0,6.846,1.313,-1.013\H,0,8.225,-0.733,-1.405\H,0,7.515,-2.901,
 -0.431\H,0,5.447,-3.04,0.937\H,0,4.08,-1.004,1.327\\Version=AM64L-G09R
 evD.01\State=1-A\HF=-1811.1463857\RMSD=6.505e-09\Dipole=1.4706035,-3.4
 053103,0.0220524\Quadrupole=5.6009767,-1.2745488,-4.326428,5.4498494,-
 9.596925,-4.2099366\PG=C01 [X(C17H19N1O4S2)]\\@


 STEINBACH'S GUIDELINES FOR SYSTEMS PROGRAMMING:
 NEVER TEST FOR AN ERROR CONDITION YOU DON'T KNOW HOW
 TO HANDLE.
 Job cpu time:       0 days  0 hours  6 minutes 25.1 seconds.
 File lengths (MBytes):  RWF=    472 Int=      0 D2E=      0 Chk=      9 Scr=      1
 Normal termination of Gaussian 09 at Fri Aug  7 23:56:09 2020.
