 Entering Gaussian System, Link 0=g09
 Initial command:
 /prod/apps/gaussian/g09d1/l1.exe "/tmp/ubafar01/1449029/Gau-152270.inp" -scrdir="/tmp/ubafar01/1449029/"
 Entering Link 1 = /prod/apps/gaussian/g09d1/l1.exe PID=    152272.
  
 Copyright (c) 1988,1990,1992,1993,1995,1998,2003,2009,2013,
            Gaussian, Inc.  All Rights Reserved.
  
 This is part of the Gaussian(R) 09 program.  It is based on
 the Gaussian(R) 03 system (copyright 2003, Gaussian, Inc.),
 the Gaussian(R) 98 system (copyright 1998, Gaussian, Inc.),
 the Gaussian(R) 94 system (copyright 1995, Gaussian, Inc.),
 the Gaussian 92(TM) system (copyright 1992, Gaussian, Inc.),
 the Gaussian 90(TM) system (copyright 1990, Gaussian, Inc.),
 the Gaussian 88(TM) system (copyright 1988, Gaussian, Inc.),
 the Gaussian 86(TM) system (copyright 1986, Carnegie Mellon
 University), and the Gaussian 82(TM) system (copyright 1983,
 Carnegie Mellon University). Gaussian is a federally registered
 trademark of Gaussian, Inc.
  
 This software contains proprietary and confidential information,
 including trade secrets, belonging to Gaussian, Inc.
  
 This software is provided under written license and may be
 used, copied, transmitted, or stored only in accord with that
 written license.
  
 The following legend is applicable only to US Government
 contracts under FAR:
  
                    RESTRICTED RIGHTS LEGEND
  
 Use, reproduction and disclosure by the US Government is
 subject to restrictions as set forth in subparagraphs (a)
 and (c) of the Commercial Computer Software - Restricted
 Rights clause in FAR 52.227-19.
  
 Gaussian, Inc.
 340 Quinnipiac St., Bldg. 40, Wallingford CT 06492
  
  
 ---------------------------------------------------------------
 Warning -- This program may not be used in any manner that
 competes with the business of Gaussian, Inc. or will provide
 assistance to any competitor of Gaussian, Inc.  The licensee
 of this program is prohibited from giving any competitor of
 Gaussian, Inc. access to this program.  By using this program,
 the user acknowledges that Gaussian, Inc. is engaged in the
 business of creating and licensing software in the field of
 computational chemistry and represents and warrants to the
 licensee that it is not a competitor of Gaussian, Inc. and that
 it will not use this program in any manner prohibited above.
 ---------------------------------------------------------------
  

 Cite this work as:
 Gaussian 09, Revision D.01,
 M. J. Frisch, G. W. Trucks, H. B. Schlegel, G. E. Scuseria, 
 M. A. Robb, J. R. Cheeseman, G. Scalmani, V. Barone, B. Mennucci, 
 G. A. Petersson, H. Nakatsuji, M. Caricato, X. Li, H. P. Hratchian, 
 A. F. Izmaylov, J. Bloino, G. Zheng, J. L. Sonnenberg, M. Hada, 
 M. Ehara, K. Toyota, R. Fukuda, J. Hasegawa, M. Ishida, T. Nakajima, 
 Y. Honda, O. Kitao, H. Nakai, T. Vreven, J. A. Montgomery, Jr., 
 J. E. Peralta, F. Ogliaro, M. Bearpark, J. J. Heyd, E. Brothers, 
 K. N. Kudin, V. N. Staroverov, T. Keith, R. Kobayashi, J. Normand, 
 K. Raghavachari, A. Rendell, J. C. Burant, S. S. Iyengar, J. Tomasi, 
 M. Cossi, N. Rega, J. M. Millam, M. Klene, J. E. Knox, J. B. Cross, 
 V. Bakken, C. Adamo, J. Jaramillo, R. Gomperts, R. E. Stratmann, 
 O. Yazyev, A. J. Austin, R. Cammi, C. Pomelli, J. W. Ochterski, 
 R. L. Martin, K. Morokuma, V. G. Zakrzewski, G. A. Voth, 
 P. Salvador, J. J. Dannenberg, S. Dapprich, A. D. Daniels, 
 O. Farkas, J. B. Foresman, J. V. Ortiz, J. Cioslowski, 
 and D. J. Fox, Gaussian, Inc., Wallingford CT, 2013.
 
 ******************************************
 Gaussian 09:  AM64L-G09RevD.01 24-Apr-2013
                 8-Aug-2020 
 ******************************************
 %nproc=1
 Will use up to    1 processors via shared memory.
 %Chk=SM39.n.15.pdb.xyz.mst.n.o.chk
 -----------------
 #p b3lyp/6-31G(d)
 -----------------
 1/38=1/1;
 2/12=2,17=6,18=5,40=1/2;
 3/5=1,6=6,7=1,11=2,16=1,25=1,30=1,74=-5/1,2,3;
 4//1;
 5/5=2,38=5/2;
 6/7=2,8=2,9=2,10=2,28=1/1;
 99/5=1,9=1/99;
 Leave Link    1 at Sat Aug  8 00:22:58 2020, MaxMem=           0 cpu:         0.0
 (Enter /prod/apps/gaussian/g09d1/l101.exe)
 -----------------
 SM39.n.15.pdb.xyz
 -----------------
 Symbolic Z-matrix:
 Charge =  0 Multiplicity = 1
 O                     2.82     -1.346    -1.859 
 S                     2.5      -0.546    -0.667 
 N                     2.439     1.103    -1.05 
 C                     2.363     1.56     -2.451 
 C                     1.893     3.055    -2.437 
 S                     0.375     2.607    -3.351 
 C                     1.116     0.947    -3.17 
 O                    -0.848     2.777    -2.552 
 O                     0.406     3.084    -4.743 
 C                     3.694     1.349    -3.196 
 C                     3.733     1.828    -4.659 
 C                     5.092     1.604    -5.283 
 C                     5.45      0.352    -5.798 
 C                     6.715     0.14     -6.347 
 C                     7.643     1.182    -6.392 
 C                     7.297     2.435    -5.884 
 C                     6.031     2.641    -5.336 
 C                     0.814    -0.938    -0.214 
 C                     0.206    -2.037    -0.82 
 C                    -1.085    -2.393    -0.427 
 C                    -1.744    -1.659     0.558 
 C                    -1.118    -0.562     1.161 
 C                     0.17     -0.196     0.78 
 O                     3.348    -0.616     0.529 
 H                     3.179     1.566    -0.522 
 H                     2.52      3.745    -2.998 
 H                     1.663     3.442    -1.444 
 H                     1.318     0.477    -4.13 
 H                     0.492     0.309    -2.548 
 H                     3.923     0.282    -3.151 
 H                     4.474     1.871    -2.629 
 H                     3.485     2.893    -4.715 
 H                     2.97      1.3      -5.241 
 H                     4.732    -0.463    -5.772 
 H                     6.973    -0.836    -6.745 
 H                     8.626     1.02     -6.822 
 H                     8.009     3.253    -5.92 
 H                     5.762     3.62     -4.948 
 H                     0.74     -2.588    -1.583 
 H                    -1.572    -3.243    -0.892 
 H                    -2.747    -1.938     0.859 
 H                    -1.635     0.008     1.925 
 H                     0.662     0.655     1.235 
 
 NAtoms=     43 NQM=       43 NQMF=       0 NMMI=      0 NMMIF=      0
                NMic=       0 NMicF=      0.
                    Isotopes and Nuclear Properties:
 (Nuclear quadrupole moments (NQMom) in fm**2, nuclear magnetic moments (NMagM)
  in nuclear magnetons)

  Atom         1           2           3           4           5           6           7           8           9          10
 IAtWgt=          16          32          14          12          12          32          12          16          16          12
 AtmWgt=  15.9949146  31.9720718  14.0030740  12.0000000  12.0000000  31.9720718  12.0000000  15.9949146  15.9949146  12.0000000
 NucSpn=           0           0           2           0           0           0           0           0           0           0
 AtZEff=   0.0000000   0.0000000   0.0000000   0.0000000   0.0000000   0.0000000   0.0000000   0.0000000   0.0000000   0.0000000
 NQMom=    0.0000000   0.0000000   2.0440000   0.0000000   0.0000000   0.0000000   0.0000000   0.0000000   0.0000000   0.0000000
 NMagM=    0.0000000   0.0000000   0.4037610   0.0000000   0.0000000   0.0000000   0.0000000   0.0000000   0.0000000   0.0000000
 AtZNuc=   8.0000000  16.0000000   7.0000000   6.0000000   6.0000000  16.0000000   6.0000000   8.0000000   8.0000000   6.0000000

  Atom        11          12          13          14          15          16          17          18          19          20
 IAtWgt=          12          12          12          12          12          12          12          12          12          12
 AtmWgt=  12.0000000  12.0000000  12.0000000  12.0000000  12.0000000  12.0000000  12.0000000  12.0000000  12.0000000  12.0000000
 NucSpn=           0           0           0           0           0           0           0           0           0           0
 AtZEff=   0.0000000   0.0000000   0.0000000   0.0000000   0.0000000   0.0000000   0.0000000   0.0000000   0.0000000   0.0000000
 NQMom=    0.0000000   0.0000000   0.0000000   0.0000000   0.0000000   0.0000000   0.0000000   0.0000000   0.0000000   0.0000000
 NMagM=    0.0000000   0.0000000   0.0000000   0.0000000   0.0000000   0.0000000   0.0000000   0.0000000   0.0000000   0.0000000
 AtZNuc=   6.0000000   6.0000000   6.0000000   6.0000000   6.0000000   6.0000000   6.0000000   6.0000000   6.0000000   6.0000000

  Atom        21          22          23          24          25          26          27          28          29          30
 IAtWgt=          12          12          12          16           1           1           1           1           1           1
 AtmWgt=  12.0000000  12.0000000  12.0000000  15.9949146   1.0078250   1.0078250   1.0078250   1.0078250   1.0078250   1.0078250
 NucSpn=           0           0           0           0           1           1           1           1           1           1
 AtZEff=   0.0000000   0.0000000   0.0000000   0.0000000   0.0000000   0.0000000   0.0000000   0.0000000   0.0000000   0.0000000
 NQMom=    0.0000000   0.0000000   0.0000000   0.0000000   0.0000000   0.0000000   0.0000000   0.0000000   0.0000000   0.0000000
 NMagM=    0.0000000   0.0000000   0.0000000   0.0000000   2.7928460   2.7928460   2.7928460   2.7928460   2.7928460   2.7928460
 AtZNuc=   6.0000000   6.0000000   6.0000000   8.0000000   1.0000000   1.0000000   1.0000000   1.0000000   1.0000000   1.0000000

  Atom        31          32          33          34          35          36          37          38          39          40
 IAtWgt=           1           1           1           1           1           1           1           1           1           1
 AtmWgt=   1.0078250   1.0078250   1.0078250   1.0078250   1.0078250   1.0078250   1.0078250   1.0078250   1.0078250   1.0078250
 NucSpn=           1           1           1           1           1           1           1           1           1           1
 AtZEff=   0.0000000   0.0000000   0.0000000   0.0000000   0.0000000   0.0000000   0.0000000   0.0000000   0.0000000   0.0000000
 NQMom=    0.0000000   0.0000000   0.0000000   0.0000000   0.0000000   0.0000000   0.0000000   0.0000000   0.0000000   0.0000000
 NMagM=    2.7928460   2.7928460   2.7928460   2.7928460   2.7928460   2.7928460   2.7928460   2.7928460   2.7928460   2.7928460
 AtZNuc=   1.0000000   1.0000000   1.0000000   1.0000000   1.0000000   1.0000000   1.0000000   1.0000000   1.0000000   1.0000000

  Atom        41          42          43
 IAtWgt=           1           1           1
 AtmWgt=   1.0078250   1.0078250   1.0078250
 NucSpn=           1           1           1
 AtZEff=   0.0000000   0.0000000   0.0000000
 NQMom=    0.0000000   0.0000000   0.0000000
 NMagM=    2.7928460   2.7928460   2.7928460
 AtZNuc=   1.0000000   1.0000000   1.0000000
 Leave Link  101 at Sat Aug  8 00:22:58 2020, MaxMem=    33554432 cpu:         0.1
 (Enter /prod/apps/gaussian/g09d1/l202.exe)
                          Input orientation:                          
 ---------------------------------------------------------------------
 Center     Atomic      Atomic             Coordinates (Angstroms)
 Number     Number       Type             X           Y           Z
 ---------------------------------------------------------------------
      1          8           0        2.820000   -1.346000   -1.859000
      2         16           0        2.500000   -0.546000   -0.667000
      3          7           0        2.439000    1.103000   -1.050000
      4          6           0        2.363000    1.560000   -2.451000
      5          6           0        1.893000    3.055000   -2.437000
      6         16           0        0.375000    2.607000   -3.351000
      7          6           0        1.116000    0.947000   -3.170000
      8          8           0       -0.848000    2.777000   -2.552000
      9          8           0        0.406000    3.084000   -4.743000
     10          6           0        3.694000    1.349000   -3.196000
     11          6           0        3.733000    1.828000   -4.659000
     12          6           0        5.092000    1.604000   -5.283000
     13          6           0        5.450000    0.352000   -5.798000
     14          6           0        6.715000    0.140000   -6.347000
     15          6           0        7.643000    1.182000   -6.392000
     16          6           0        7.297000    2.435000   -5.884000
     17          6           0        6.031000    2.641000   -5.336000
     18          6           0        0.814000   -0.938000   -0.214000
     19          6           0        0.206000   -2.037000   -0.820000
     20          6           0       -1.085000   -2.393000   -0.427000
     21          6           0       -1.744000   -1.659000    0.558000
     22          6           0       -1.118000   -0.562000    1.161000
     23          6           0        0.170000   -0.196000    0.780000
     24          8           0        3.348000   -0.616000    0.529000
     25          1           0        3.179000    1.566000   -0.522000
     26          1           0        2.520000    3.745000   -2.998000
     27          1           0        1.663000    3.442000   -1.444000
     28          1           0        1.318000    0.477000   -4.130000
     29          1           0        0.492000    0.309000   -2.548000
     30          1           0        3.923000    0.282000   -3.151000
     31          1           0        4.474000    1.871000   -2.629000
     32          1           0        3.485000    2.893000   -4.715000
     33          1           0        2.970000    1.300000   -5.241000
     34          1           0        4.732000   -0.463000   -5.772000
     35          1           0        6.973000   -0.836000   -6.745000
     36          1           0        8.626000    1.020000   -6.822000
     37          1           0        8.009000    3.253000   -5.920000
     38          1           0        5.762000    3.620000   -4.948000
     39          1           0        0.740000   -2.588000   -1.583000
     40          1           0       -1.572000   -3.243000   -0.892000
     41          1           0       -2.747000   -1.938000    0.859000
     42          1           0       -1.635000    0.008000    1.925000
     43          1           0        0.662000    0.655000    1.235000
 ---------------------------------------------------------------------
                    Distance matrix (angstroms):
                    1          2          3          4          5
     1  O    0.000000
     2  S    1.470804   0.000000
     3  N    2.607152   1.693993   0.000000
     4  C    3.000691   2.763451   1.475610   0.000000
     5  C    4.534558   4.058146   2.456052   1.567202   0.000000
     6  S    4.881629   4.654126   3.437545   2.420403   1.827683
     7  C    3.143276   3.226378   2.503810   1.564525   2.363193
     8  O    5.561798   5.079829   3.982794   3.435376   2.757461
     9  O    5.811175   5.845983   4.657864   3.377231   2.744020
    10  C    3.132805   3.378239   2.498171   1.539840   2.594247
    11  C    4.329878   4.805437   3.901915   2.612276   3.135030
    12  C    5.058484   5.713880   5.020727   3.933141   4.520920
    13  C    5.031483   5.986323   5.672180   4.710758   5.590597
    14  C    6.125469   7.106280   6.875300   6.011249   6.858353
    15  C    7.085210   7.887462   7.458205   6.599452   7.225832
    16  C    7.109157   7.688606   6.981543   6.074164   6.439676
    17  C    6.188394   6.665170   5.799802   4.790199   5.069383
    18  C    2.626124   1.789265   2.739562   3.693721   4.695745
    19  C    2.896549   2.740242   3.859895   4.500135   5.602600
    20  C    4.289039   4.039955   5.002871   5.622410   6.526047
    21  C    5.173969   4.555319   5.264200   6.023578   6.664802
    22  C    5.024231   4.053611   4.506994   5.446723   5.924054
    23  C    3.912713   2.764997   3.191342   4.281606   4.887414
    24  O    2.552299   1.467794   2.504892   3.819110   4.938666
    25  H    3.224313   2.223198   1.020173   2.094501   2.745568
    26  H    5.225476   4.883302   3.283509   2.257893   1.088095
    27  H    4.943260   4.148306   2.495663   2.246324   1.090283
    28  H    3.276702   3.799477   3.336902   2.254763   3.137349
    29  H    2.938253   2.881189   2.581714   2.252787   3.084743
    30  H    2.352925   2.980062   2.700092   2.134686   3.510018
    31  H    3.698338   3.686192   2.687804   2.141197   2.846099
    32  H    5.154424   5.402152   4.210753   2.856828   2.783881
    33  H    4.296713   4.954805   4.229096   2.867080   3.478846
    34  H    4.443760   5.572229   5.477909   4.553431   5.617693
    35  H    6.432768   7.552080   7.533253   6.740278   7.713958
    36  H    7.996184   8.824073   8.461787   7.656527   8.288712
    37  H    8.035437   8.507379   7.704823   6.839410   7.041019
    38  H    6.546636   6.806112   5.707190   4.693805   4.646881
    39  H    2.438266   2.847178   4.098069   4.538001   5.822557
    40  H    4.880918   4.889337   5.916147   6.401837   7.352418
    41  H    6.223301   5.638914   6.307659   7.021695   7.571213
    42  H    5.999916   4.911579   5.162085   6.127160   6.384202
    43  H    4.270106   2.904866   2.929105   4.159209   4.556199
                    6          7          8          9         10
     6  S    0.000000
     7  C    1.826867   0.000000
     8  O    1.470724   2.754654   0.000000
     9  O    1.471786   2.746852   2.543078   0.000000
    10  C    3.552795   2.609284   4.804548   4.026708   0.000000
    11  C    3.686986   3.137192   5.130849   3.557179   1.539913
    12  C    5.195067   4.550274   6.642130   4.943743   2.524876
    13  C    6.068646   5.103329   7.488788   5.832562   3.293622
    14  C    7.433553   6.487941   8.863112   7.144469   4.529561
    15  C    8.006381   7.282736   9.454454   7.662309   5.083002
    16  C    7.372907   6.912648   8.806828   7.014910   4.624538
    17  C    5.994307   5.631911   7.422250   5.673493   3.422051
    18  C    4.754000   3.518858   4.693582   6.070815   4.734669
    19  C    5.291621   3.905747   5.223537   6.454035   5.410778
    20  C    5.973389   4.850160   5.594702   7.130811   6.671489
    21  C    6.161915   5.372971   5.491176   7.430959   7.260332
    22  C    5.712246   5.101509   5.000819   7.104443   6.766884
    23  C    4.996398   4.219463   4.580096   6.427879   5.533008
    24  O    5.854986   4.594278   6.213809   7.080914   4.225703
    25  H    4.116957   3.413361   4.669491   5.273585   2.731774
    26  H    2.453707   3.135220   3.532614   2.819741   2.675499
    27  H    2.448023   3.082744   2.824006   3.548466   3.402222
    28  H    2.456215   1.087798   3.531521   2.829127   2.697798
    29  H    2.437068   1.087798   2.808316   3.539215   3.428456
    30  H    4.246637   2.884759   5.417219   4.770216   1.092225
    31  H    4.226675   3.524574   5.399116   4.742256   1.096528
    32  H    3.407989   3.433089   4.844266   3.085046   2.176000
    33  H    3.466176   2.801958   4.897895   3.163030   2.169931
    34  H    5.854023   4.672682   7.211269   5.688086   3.316107
    35  H    8.179675   7.089722   9.581391   7.905687   5.302968
    36  H    9.090952   8.351199  10.539290   8.726439   6.130313
    37  H    8.080534   7.771331   9.487700   7.695421   5.446523
    38  H    5.709321   5.647259   7.081212   5.386655   3.536039
    39  H    5.499734   3.893093   5.678374   6.501441   5.179561
    40  H    6.637770   5.474553   6.286507   7.666395   7.357013
    41  H    6.937435   6.283219   6.121466   8.157469   8.290590
    42  H    6.215390   5.865897   5.322618   7.621659   7.511402
    43  H    4.992401   4.437951   4.596124   6.457713   5.413725
                   11         12         13         14         15
    11  C    0.000000
    12  C    1.512096   0.000000
    13  C    2.534558   1.400319   0.000000
    14  C    3.819818   2.430951   1.395195   0.000000
    15  C    4.325356   2.813462   2.418881   1.396056   0.000000
    16  C    3.817220   2.431828   2.785264   2.412492   1.395632
    17  C    2.529842   1.399964   2.406351   2.782980   2.417098
    18  C    5.994109   7.103366   7.371408   8.578903   9.449726
    19  C    6.489674   7.553029   7.614942   8.812159   9.834537
    20  C    7.677225   8.815445   8.893194  10.114469  11.159742
    21  C    8.329093   9.565320   9.807981  11.066621  12.020381
    22  C    7.944602   9.207649   9.612580  10.872845  11.698054
    23  C    6.809865   8.014116   8.452738   9.682151  10.449029
    24  O    5.747757   6.461368   6.736940   7.693348   8.341467
    25  H    4.182144   5.131095   5.870895   6.961853   7.384555
    26  H    2.811615   4.052196   5.285579   6.466054   6.658328
    27  H    4.150436   5.465730   6.545746   7.775945   8.083978
    28  H    2.817316   4.103975   4.457721   5.844336   6.754206
    29  H    4.155450   5.506110   5.928416   7.292921   8.165492
    30  H    2.168013   2.767611   3.056671   4.246156   5.015225
    31  H    2.161442   2.738052   3.647259   4.673539   4.967640
    32  H    1.094927   2.136959   3.389808   4.547014   4.798835
    33  H    1.095298   2.144076   2.712813   4.073556   4.814110
    34  H    2.735955   2.154347   1.086474   2.150935   3.400639
    35  H    4.684644   3.410162   2.151205   1.085147   2.155419
    36  H    5.410442   3.898555   3.403201   2.156837   1.085096
    37  H    4.680269   3.410844   3.870293   3.398166   2.155407
    38  H    2.722430   2.150670   3.391116   3.869859   3.401050
    39  H    6.157993   7.085391   6.970934   8.114081   9.219045
    40  H    8.249143   9.337194   9.289852  10.482179  11.608051
    41  H    9.307066  10.569761  10.805117  12.073689  13.048506
    42  H    8.687743   9.987743  10.486195  11.754400  12.515273
    43  H    6.748793   7.937873   8.513509   9.715491  10.352933
                   16         17         18         19         20
    16  C    0.000000
    17  C    1.394810   0.000000
    18  C    9.249612   8.140099   0.000000
    19  C    9.794139   8.729752   1.394525   0.000000
    20  C   11.106141  10.003844   2.401790   1.395660   0.000000
    21  C   11.832155  10.662076   2.767524   2.417492   1.394009
    22  C   11.376566  10.177348   2.400963   2.802314   2.423921
    23  C   10.105701   8.933384   1.397618   2.439380   2.803334
    24  O    8.125870   7.225286   2.660242   3.702865   4.870642
    25  H    6.816460   5.697730   3.458049   4.680720   5.819313
    26  H    5.732785   4.360296   5.708904   6.597712   7.568429
    27  H    7.243591   5.904972   4.627969   5.703654   6.529396
    28  H    6.531364   5.324444   4.194198   4.302655   5.265313
    29  H    7.871264   6.625080   2.665755   2.927712   3.779732
    30  H    4.846501   3.844837   4.447499   4.962601   6.297290
    31  H    4.345394   3.216364   5.207524   6.063066   7.343908
    32  H    4.013436   2.632729   6.486124   7.087155   8.198393
    33  H    4.519359   3.343206   5.909967   6.190356   7.297662
    34  H    3.871714   3.392980   6.816723   6.890897   8.132122
    35  H    3.397902   3.868097   8.977619   9.074156  10.357255
    36  H    2.155994   3.401450  10.417618  10.782655  12.118090
    37  H    1.085064   2.151298  10.094104  10.718251  12.031259
    38  H    2.153264   1.086897   8.226106   8.939305  10.172365
    39  H    9.312539   8.331994   2.145259   1.082093   2.169098
    40  H   11.654137  10.591327   3.386105   2.149629   1.084386
    41  H   12.863635  11.678979   3.851240   3.398389   2.150131
    42  H   12.109973  10.882204   3.386420   3.886686   3.405761
    43  H    9.893017   8.714838   2.158785   3.417283   3.886458
                   21         22         23         24         25
    21  C    0.000000
    22  C    1.399605   0.000000
    23  C    2.419308   1.392143   0.000000
    24  O    5.197803   4.510820   3.215445   0.000000
    25  H    5.983557   5.081838   3.722087   2.427815   0.000000
    26  H    7.747906   7.005896   5.943674   5.669536   3.363465
    27  H    6.452585   5.527387   4.517773   4.816567   2.582192
    28  H    5.992970   5.916781   5.087134   5.198253   4.203202
    29  H    4.303482   4.136112   3.381463   4.298871   3.592310
    30  H    7.045499   6.687104   5.455846   3.831374   3.018913
    31  H    7.828243   7.180115   5.866701   4.174447   2.491887
    32  H    8.710205   8.225084   7.122231   6.311211   4.408607
    33  H    8.037778   7.820767   6.806648   6.091538   4.731110
    34  H    9.134434   9.071868   7.988231   6.453020   5.838763
    35  H   11.401633  11.315661  10.164450   8.130197   7.673967
    36  H   13.006857  12.695533  11.435602   9.196248   8.346132
    37  H   12.696977  12.165398  10.873616   8.847807   7.437289
    38  H   10.701585  10.106602   8.868050   7.332709   5.520895
    39  H    3.408398   3.884118   3.410327   3.892428   4.932561
    40  H    2.154331   3.407152   3.887719   5.755586   6.770183
    41  H    1.083721   2.153653   3.398484   6.245447   7.021585
    42  H    2.158578   1.084382   2.147246   5.212339   5.620478
    43  H    3.406136   2.157537   1.083185   3.054255   3.201915
                   26         27         28         29         30
    26  H    0.000000
    27  H    1.800326   0.000000
    28  H    3.661428   4.015575   0.000000
    29  H    4.015144   3.522179   1.792547   0.000000
    30  H    3.739544   4.243471   2.789712   3.483690   0.000000
    31  H    2.732426   3.431324   3.762522   4.278169   1.760967
    32  H    2.145977   3.784247   3.297752   4.508990   3.074941
    33  H    3.348369   4.551222   2.154241   3.791413   2.512495
    34  H    5.504115   6.587820   3.903224   5.382171   2.842384
    35  H    7.406401   8.637013   6.367199   7.805716   4.844508
    36  H    7.702716   9.125368   7.806957   9.215994   6.011580
    37  H    6.237729   7.768012   7.461887   8.748875   5.761041
    38  H    3.785325   5.395507   5.504245   6.670504   4.213475
    39  H    6.728857   6.101815   4.026850   3.063550   4.563662
    40  H    8.367308   7.447090   5.716218   4.429349   6.908236
    41  H    8.655301   7.327777   6.873614   5.210353   8.093046
    42  H    7.447491   5.832608   6.753014   4.962102   7.532079
    43  H    5.560445   3.993296   5.407887   3.802592   5.478161
                   31         32         33         34         35
    31  H    0.000000
    32  H    2.524678   0.000000
    33  H    3.067670   1.754865   0.000000
    34  H    3.923336   3.732960   2.548485   0.000000
    35  H    5.523976   5.494769   4.780013   2.471424   0.000000
    36  H    5.961925   5.863229   5.879481   4.297095   2.486579
    37  H    5.023627   4.695551   5.446721   4.956742   4.298121
    38  H    3.177374   2.401572   3.641911   4.290777   4.954964
    39  H    5.909277   6.883735   5.785362   6.164366   8.280461
    40  H    8.107051   8.822646   7.757733   8.442939  10.633357
    41  H    8.877920   9.656390   8.965419  10.103525  12.390061
    42  H    7.844078   8.867199   8.615500  10.000217  12.246587
    43  H    5.562418   6.955607   6.905177   8.180029  10.282616
                   36         37         38         39         40
    36  H    0.000000
    37  H    2.486078   0.000000
    38  H    4.298182   2.475577   0.000000
    39  H   10.131820  10.284221   8.665043   0.000000
    40  H   12.543416  12.620395  10.832334   2.500370   0.000000
    41  H   14.038969  13.732911  11.705370   4.306394   2.479849
    42  H   13.521179  12.848377  10.723818   4.968491   4.302146
    43  H   11.334627  10.579321   8.545801   4.297006   4.970844
                   41         42         43
    41  H    0.000000
    42  H    2.481898   0.000000
    43  H    4.299570   2.484133   0.000000
 Stoichiometry    C17H19NO4S2
 Framework group  C1[X(C17H19NO4S2)]
 Deg. of freedom   123
 Full point group                 C1      NOp   1
 Largest Abelian subgroup         C1      NOp   1
 Largest concise Abelian subgroup C1      NOp   1
                         Standard orientation:                         
 ---------------------------------------------------------------------
 Center     Atomic      Atomic             Coordinates (Angstroms)
 Number     Number       Type             X           Y           Z
 ---------------------------------------------------------------------
      1          8           0        0.699146   -2.066461    0.597756
      2         16           0        1.479480   -1.682133   -0.588260
      3          7           0        0.830781   -0.292994   -1.308741
      4          6           0       -0.140471    0.556705   -0.593124
      5          6           0       -0.199164    1.936528   -1.333910
      6         16           0        0.419926    2.787513    0.160405
      7          6           0        0.454812    1.062984    0.762258
      8          8           0        1.763831    3.357606   -0.018319
      9          8           0       -0.627523    3.587041    0.815965
     10          6           0       -1.515824   -0.124466   -0.468562
     11          6           0       -2.615257    0.695513    0.231589
     12          6           0       -3.929225   -0.051789    0.269822
     13          6           0       -4.178651   -1.019382    1.250864
     14          6           0       -5.380288   -1.728177    1.266648
     15          6           0       -6.355153   -1.476413    0.299578
     16          6           0       -6.119094   -0.512708   -0.681920
     17          6           0       -4.915764    0.192536   -0.692958
     18          6           0        3.083905   -1.146497   -0.004835
     19          6           0        3.425950   -1.409825    1.321198
     20          6           0        4.699283   -1.056543    1.770286
     21          6           0        5.606811   -0.455892    0.899153
     22          6           0        5.250492   -0.203493   -0.430593
     23          6           0        3.984329   -0.551586   -0.892897
     24          8           0        1.661553   -2.623566   -1.699554
     25          1           0        0.515949   -0.553313   -2.243549
     26          1           0       -1.195693    2.272586   -1.613095
     27          1           0        0.500253    2.027645   -2.165313
     28          1           0       -0.180878    0.915404    1.632558
     29          1           0        1.474417    0.743584    0.966449
     30          1           0       -1.362335   -1.065812    0.063663
     31          1           0       -1.850123   -0.377067   -1.481879
     32          1           0       -2.761689    1.650047   -0.284441
     33          1           0       -2.301163    0.938778    1.252297
     34          1           0       -3.427690   -1.217786    2.010547
     35          1           0       -5.557406   -2.471395    2.037233
     36          1           0       -7.291836   -2.024036    0.312502
     37          1           0       -6.873011   -0.305269   -1.434212
     38          1           0       -4.738022    0.947689   -1.454206
     39          1           0        2.701372   -1.875676    1.976100
     40          1           0        4.978205   -1.251722    2.799850
     41          1           0        6.593952   -0.181780    1.252518
     42          1           0        5.958409    0.266299   -1.104413
     43          1           0        3.695119   -0.355239   -1.918126
 ---------------------------------------------------------------------
 Rotational constants (GHZ):      0.3458794      0.1169435      0.0981181
 Leave Link  202 at Sat Aug  8 00:22:58 2020, MaxMem=    33554432 cpu:         0.0
 (Enter /prod/apps/gaussian/g09d1/l301.exe)
 Standard basis: 6-31G(d) (6D, 7F)
 Ernie: Thresh=  0.10000D-02 Tol=  0.10000D-05 Strict=F.
 There are   406 symmetry adapted cartesian basis functions of A   symmetry.
 There are   406 symmetry adapted basis functions of A   symmetry.
   406 basis functions,   796 primitive gaussians,   406 cartesian basis functions
    96 alpha electrons       96 beta electrons
       nuclear repulsion energy      2448.3253838197 Hartrees.
 IExCor=  402 DFT=T Ex+Corr=B3LYP ExCW=0 ScaHFX=  0.200000
 ScaDFX=  0.800000  0.720000  1.000000  0.810000 ScalE2=  1.000000  1.000000
 IRadAn=      0 IRanWt=     -1 IRanGd=            0 ICorTp=0 IEmpDi=  4
 NAtoms=   43 NActive=   43 NUniq=   43 SFac= 1.00D+00 NAtFMM=   60 NAOKFM=F Big=F
 Integral buffers will be    131072 words long.
 Raffenetti 2 integral format.
 Two-electron integral symmetry is turned on.
 Leave Link  301 at Sat Aug  8 00:22:58 2020, MaxMem=    33554432 cpu:         0.0
 (Enter /prod/apps/gaussian/g09d1/l302.exe)
 NPDir=0 NMtPBC=     1 NCelOv=     1 NCel=       1 NClECP=     1 NCelD=      1
         NCelK=      1 NCelE2=     1 NClLst=     1 CellRange=     0.0.
 One-electron integrals computed using PRISM.
 NBasis=   406 RedAO= T EigKep=  4.63D-04  NBF=   406
 NBsUse=   406 1.00D-06 EigRej= -1.00D+00 NBFU=   406
 Precomputing XC quadrature grid using
 IXCGrd= 4 IRadAn=           0 IRanWt=          -1 IRanGd=           0 AccXCQ= 0.00D+00.
 Generated NRdTot=       0 NPtTot=           0 NUsed=           0 NTot=          32
 NSgBfM=   397   397   397   398   398 MxSgAt=    43 MxSgA2=    43.
 Leave Link  302 at Sat Aug  8 00:22:59 2020, MaxMem=    33554432 cpu:         1.4
 (Enter /prod/apps/gaussian/g09d1/l303.exe)
 DipDrv:  MaxL=1.
 Leave Link  303 at Sat Aug  8 00:22:59 2020, MaxMem=    33554432 cpu:         0.0
 (Enter /prod/apps/gaussian/g09d1/l401.exe)
 ExpMin= 1.17D-01 ExpMax= 2.19D+04 ExpMxC= 3.30D+03 IAcc=1 IRadAn=         1 AccDes= 0.00D+00
 Harris functional with IExCor=  402 and IRadAn=       1 diagonalized for initial guess.
 HarFok:  IExCor=  402 AccDes= 0.00D+00 IRadAn=         1 IDoV= 1 UseB2=F ITyADJ=14
 ICtDFT=  3500011 ScaDFX=  1.000000  1.000000  1.000000  1.000000
 FoFCou: FMM=F IPFlag=           0 FMFlag=      100000 FMFlg1=           0
         NFxFlg=           0 DoJE=T BraDBF=F KetDBF=T FulRan=T
         wScrn=  0.000000 ICntrl=     500 IOpCl=  0 I1Cent=   200000004 NGrid=           0
         NMat0=    1 NMatS0=      1 NMatT0=    0 NMatD0=    1 NMtDS0=    0 NMtDT0=    0
 Petite list used in FoFCou.
 Harris En= -1811.23100841461    
 JPrj=0 DoOrth=F DoCkMO=F.
 Leave Link  401 at Sat Aug  8 00:23:05 2020, MaxMem=    33554432 cpu:         5.4
 (Enter /prod/apps/gaussian/g09d1/l502.exe)
 Closed shell SCF:
 Using DIIS extrapolation, IDIIS=  1040.
 Integral symmetry usage will be decided dynamically.
 IVT=      518558 IEndB=      518558 NGot=    33554432 MDV=    33217757
 LenX=    33217757 LenY=    33052480
 Requested convergence on RMS density matrix=1.00D-08 within 128 cycles.
 Requested convergence on MAX density matrix=1.00D-06.
 Requested convergence on             energy=1.00D-06.
 No special actions if energy rises.
 Fock matrices will be formed incrementally for  20 cycles.
 Integral accuracy reduced to 1.0D-05 until final iterations.

 Cycle   1  Pass 0  IDiag  1:
 FoFJK:  IHMeth= 1 ICntrl=       0 DoSepK=F KAlg= 0 I1Cent=   0 FoldK=F
 IRaf= 690000000 NMat=   1 IRICut=       1 DoRegI=T DoRafI=F ISym2E= 0.
 FoFCou: FMM=F IPFlag=           0 FMFlag=      100000 FMFlg1=           0
         NFxFlg=           0 DoJE=F BraDBF=F KetDBF=F FulRan=T
         wScrn=  0.000000 ICntrl=       0 IOpCl=  0 I1Cent=           0 NGrid=           0
         NMat0=    1 NMatS0=      1 NMatT0=    0 NMatD0=    1 NMtDS0=    0 NMtDT0=    0
 Symmetry not used in FoFCou.
 E= -1810.23269180425    
 DIIS: error= 4.19D-02 at cycle   1 NSaved=   1.
 NSaved= 1 IEnMin= 1 EnMin= -1810.23269180425     IErMin= 1 ErrMin= 4.19D-02
 ErrMax= 4.19D-02  0.00D+00 EMaxC= 1.00D-01 BMatC= 1.02D+00 BMatP= 1.02D+00
 IDIUse=3 WtCom= 5.81D-01 WtEn= 4.19D-01
 Coeff-Com:  0.100D+01
 Coeff-En:   0.100D+01
 Coeff:      0.100D+01
 Gap=     0.280 Goal=   None    Shift=    0.000
 GapD=    0.280 DampG=1.000 DampE=0.500 DampFc=0.5000 IDamp=-1.
 Damping current iteration by 5.00D-01
 RMSDP=6.57D-03 MaxDP=5.81D-01              OVMax= 2.43D-01

 Cycle   2  Pass 0  IDiag  1:
 RMSU=  3.29D-03    CP:  9.97D-01
 E= -1810.41309123197     Delta-E=       -0.180399427727 Rises=F Damp=T
 DIIS: error= 1.88D-02 at cycle   2 NSaved=   2.
 NSaved= 2 IEnMin= 2 EnMin= -1810.41309123197     IErMin= 2 ErrMin= 1.88D-02
 ErrMax= 1.88D-02  0.00D+00 EMaxC= 1.00D-01 BMatC= 1.85D-01 BMatP= 1.02D+00
 IDIUse=3 WtCom= 8.12D-01 WtEn= 1.88D-01
 Coeff-Com:  0.254D+00 0.746D+00
 Coeff-En:   0.399D+00 0.601D+00
 Coeff:      0.281D+00 0.719D+00
 Gap=     0.246 Goal=   None    Shift=    0.000
 RMSDP=2.00D-03 MaxDP=1.30D-01 DE=-1.80D-01 OVMax= 2.11D-01

 Cycle   3  Pass 0  IDiag  1:
 RMSU=  1.61D-03    CP:  9.86D-01  6.41D-01
 E= -1811.01566221411     Delta-E=       -0.602570982132 Rises=F Damp=F
 DIIS: error= 1.09D-02 at cycle   3 NSaved=   3.
 NSaved= 3 IEnMin= 3 EnMin= -1811.01566221411     IErMin= 3 ErrMin= 1.09D-02
 ErrMax= 1.09D-02  0.00D+00 EMaxC= 1.00D-01 BMatC= 1.09D-01 BMatP= 1.85D-01
 IDIUse=3 WtCom= 8.91D-01 WtEn= 1.09D-01
 Coeff-Com:  0.103D+00 0.436D+00 0.461D+00
 Coeff-En:   0.000D+00 0.000D+00 0.100D+01
 Coeff:      0.918D-01 0.389D+00 0.519D+00
 Gap=     0.200 Goal=   None    Shift=    0.000
 RMSDP=1.26D-03 MaxDP=4.12D-02 DE=-6.03D-01 OVMax= 8.29D-02

 Cycle   4  Pass 0  IDiag  1:
 RMSU=  7.39D-04    CP:  9.91D-01  7.26D-01  3.97D-01
 E= -1811.10450663327     Delta-E=       -0.088844419162 Rises=F Damp=F
 DIIS: error= 5.59D-03 at cycle   4 NSaved=   4.
 NSaved= 4 IEnMin= 4 EnMin= -1811.10450663327     IErMin= 4 ErrMin= 5.59D-03
 ErrMax= 5.59D-03  0.00D+00 EMaxC= 1.00D-01 BMatC= 1.72D-02 BMatP= 1.09D-01
 IDIUse=3 WtCom= 9.44D-01 WtEn= 5.59D-02
 Coeff-Com:  0.136D-01 0.778D-01 0.295D+00 0.614D+00
 Coeff-En:   0.000D+00 0.000D+00 0.149D+00 0.851D+00
 Coeff:      0.128D-01 0.735D-01 0.287D+00 0.627D+00
 Gap=     0.197 Goal=   None    Shift=    0.000
 RMSDP=4.20D-04 MaxDP=1.77D-02 DE=-8.88D-02 OVMax= 3.20D-02

 Cycle   5  Pass 0  IDiag  1:
 RMSU=  1.78D-04    CP:  9.91D-01  7.03D-01  5.60D-01  6.43D-01
 E= -1811.11946265376     Delta-E=       -0.014956020488 Rises=F Damp=F
 DIIS: error= 2.03D-03 at cycle   5 NSaved=   5.
 NSaved= 5 IEnMin= 5 EnMin= -1811.11946265376     IErMin= 5 ErrMin= 2.03D-03
 ErrMax= 2.03D-03  0.00D+00 EMaxC= 1.00D-01 BMatC= 1.21D-03 BMatP= 1.72D-02
 IDIUse=3 WtCom= 9.80D-01 WtEn= 2.03D-02
 Coeff-Com:  0.345D-03 0.153D-01 0.122D+00 0.340D+00 0.522D+00
 Coeff-En:   0.000D+00 0.000D+00 0.000D+00 0.000D+00 0.100D+01
 Coeff:      0.338D-03 0.149D-01 0.120D+00 0.334D+00 0.532D+00
 Gap=     0.196 Goal=   None    Shift=    0.000
 RMSDP=1.15D-04 MaxDP=5.52D-03 DE=-1.50D-02 OVMax= 1.35D-02

 Cycle   6  Pass 0  IDiag  1:
 RMSU=  6.11D-05    CP:  9.91D-01  7.09D-01  5.49D-01  6.99D-01  5.30D-01
 E= -1811.12053484679     Delta-E=       -0.001072193030 Rises=F Damp=F
 DIIS: error= 7.60D-04 at cycle   6 NSaved=   6.
 NSaved= 6 IEnMin= 6 EnMin= -1811.12053484679     IErMin= 6 ErrMin= 7.60D-04
 ErrMax= 7.60D-04  0.00D+00 EMaxC= 1.00D-01 BMatC= 1.53D-04 BMatP= 1.21D-03
 IDIUse=3 WtCom= 9.92D-01 WtEn= 7.60D-03
 Coeff-Com: -0.902D-03 0.207D-02 0.436D-01 0.136D+00 0.317D+00 0.502D+00
 Coeff-En:   0.000D+00 0.000D+00 0.000D+00 0.000D+00 0.768D-01 0.923D+00
 Coeff:     -0.895D-03 0.206D-02 0.433D-01 0.135D+00 0.316D+00 0.505D+00
 Gap=     0.196 Goal=   None    Shift=    0.000
 RMSDP=3.83D-05 MaxDP=2.02D-03 DE=-1.07D-03 OVMax= 4.44D-03

 Cycle   7  Pass 0  IDiag  1:
 RMSU=  2.35D-05    CP:  9.91D-01  7.08D-01  5.52D-01  6.99D-01  5.97D-01
                    CP:  5.59D-01
 E= -1811.12066699048     Delta-E=       -0.000132143695 Rises=F Damp=F
 DIIS: error= 1.73D-04 at cycle   7 NSaved=   7.
 NSaved= 7 IEnMin= 7 EnMin= -1811.12066699048     IErMin= 7 ErrMin= 1.73D-04
 ErrMax= 1.73D-04  0.00D+00 EMaxC= 1.00D-01 BMatC= 1.83D-05 BMatP= 1.53D-04
 IDIUse=3 WtCom= 9.98D-01 WtEn= 1.73D-03
 Coeff-Com: -0.585D-03-0.301D-03 0.145D-01 0.488D-01 0.146D+00 0.321D+00
 Coeff-Com:  0.471D+00
 Coeff-En:   0.000D+00 0.000D+00 0.000D+00 0.000D+00 0.000D+00 0.476D-01
 Coeff-En:   0.952D+00
 Coeff:     -0.584D-03-0.300D-03 0.144D-01 0.487D-01 0.145D+00 0.321D+00
 Coeff:      0.472D+00
 Gap=     0.196 Goal=   None    Shift=    0.000
 RMSDP=1.24D-05 MaxDP=7.72D-04 DE=-1.32D-04 OVMax= 9.67D-04

 Cycle   8  Pass 0  IDiag  1:
 RMSU=  6.43D-06    CP:  9.91D-01  7.08D-01  5.53D-01  6.99D-01  6.03D-01
                    CP:  6.05D-01  5.72D-01
 E= -1811.12068209871     Delta-E=       -0.000015108227 Rises=F Damp=F
 DIIS: error= 4.77D-05 at cycle   8 NSaved=   8.
 NSaved= 8 IEnMin= 8 EnMin= -1811.12068209871     IErMin= 8 ErrMin= 4.77D-05
 ErrMax= 4.77D-05  0.00D+00 EMaxC= 1.00D-01 BMatC= 1.28D-06 BMatP= 1.83D-05
 IDIUse=1 WtCom= 1.00D+00 WtEn= 0.00D+00
 Coeff-Com: -0.230D-03-0.436D-03 0.291D-02 0.114D-01 0.461D-01 0.125D+00
 Coeff-Com:  0.264D+00 0.551D+00
 Coeff:     -0.230D-03-0.436D-03 0.291D-02 0.114D-01 0.461D-01 0.125D+00
 Coeff:      0.264D+00 0.551D+00
 Gap=     0.196 Goal=   None    Shift=    0.000
 RMSDP=3.62D-06 MaxDP=1.71D-04 DE=-1.51D-05 OVMax= 2.83D-04

 Initial convergence to 1.0D-05 achieved.  Increase integral accuracy.
 Cycle   9  Pass 1  IDiag  1:
 E= -1811.12062145810     Delta-E=        0.000060640612 Rises=F Damp=F
 DIIS: error= 1.42D-04 at cycle   1 NSaved=   1.
 NSaved= 1 IEnMin= 1 EnMin= -1811.12062145810     IErMin= 1 ErrMin= 1.42D-04
 ErrMax= 1.42D-04  0.00D+00 EMaxC= 1.00D-01 BMatC= 1.62D-06 BMatP= 1.62D-06
 IDIUse=3 WtCom= 9.99D-01 WtEn= 1.42D-03
 Coeff-Com:  0.100D+01
 Coeff-En:   0.100D+01
 Coeff:      0.100D+01
 Gap=     0.196 Goal=   None    Shift=    0.000
 RMSDP=3.62D-06 MaxDP=1.71D-04 DE= 6.06D-05 OVMax= 3.80D-04

 Cycle  10  Pass 1  IDiag  1:
 RMSU=  4.24D-05    CP:  1.00D+00
 E= -1811.12062240322     Delta-E=       -0.000000945125 Rises=F Damp=F
 DIIS: error= 4.57D-05 at cycle   2 NSaved=   2.
 NSaved= 2 IEnMin= 2 EnMin= -1811.12062240322     IErMin= 2 ErrMin= 4.57D-05
 ErrMax= 4.57D-05  0.00D+00 EMaxC= 1.00D-01 BMatC= 8.39D-07 BMatP= 1.62D-06
 IDIUse=1 WtCom= 1.00D+00 WtEn= 0.00D+00
 Coeff-Com:  0.379D+00 0.621D+00
 Coeff:      0.379D+00 0.621D+00
 Gap=     0.196 Goal=   None    Shift=    0.000
 RMSDP=4.22D-06 MaxDP=2.37D-04 DE=-9.45D-07 OVMax= 4.18D-04

 Cycle  11  Pass 1  IDiag  1:
 RMSU=  4.22D-06    CP:  1.00D+00  1.00D+00
 E= -1811.12062245930     Delta-E=       -0.000000056079 Rises=F Damp=F
 DIIS: error= 3.86D-05 at cycle   3 NSaved=   3.
 NSaved= 3 IEnMin= 3 EnMin= -1811.12062245930     IErMin= 3 ErrMin= 3.86D-05
 ErrMax= 3.86D-05  0.00D+00 EMaxC= 1.00D-01 BMatC= 8.14D-07 BMatP= 8.39D-07
 IDIUse=1 WtCom= 1.00D+00 WtEn= 0.00D+00
 Coeff-Com:  0.324D-02 0.495D+00 0.501D+00
 Coeff:      0.324D-02 0.495D+00 0.501D+00
 Gap=     0.196 Goal=   None    Shift=    0.000
 RMSDP=2.12D-06 MaxDP=1.34D-04 DE=-5.61D-08 OVMax= 2.13D-04

 Cycle  12  Pass 1  IDiag  1:
 RMSU=  6.57D-07    CP:  1.00D+00  1.01D+00  5.28D-01
 E= -1811.12062313616     Delta-E=       -0.000000676857 Rises=F Damp=F
 DIIS: error= 7.37D-06 at cycle   4 NSaved=   4.
 NSaved= 4 IEnMin= 4 EnMin= -1811.12062313616     IErMin= 4 ErrMin= 7.37D-06
 ErrMax= 7.37D-06  0.00D+00 EMaxC= 1.00D-01 BMatC= 2.12D-08 BMatP= 8.14D-07
 IDIUse=1 WtCom= 1.00D+00 WtEn= 0.00D+00
 Coeff-Com: -0.690D-02 0.290D+00 0.309D+00 0.408D+00
 Coeff:     -0.690D-02 0.290D+00 0.309D+00 0.408D+00
 Gap=     0.196 Goal=   None    Shift=    0.000
 RMSDP=4.15D-07 MaxDP=1.75D-05 DE=-6.77D-07 OVMax= 4.44D-05

 Cycle  13  Pass 1  IDiag  1:
 RMSU=  2.05D-07    CP:  1.00D+00  1.01D+00  5.23D-01  4.52D-01
 E= -1811.12062315495     Delta-E=       -0.000000018792 Rises=F Damp=F
 DIIS: error= 2.24D-06 at cycle   5 NSaved=   5.
 NSaved= 5 IEnMin= 5 EnMin= -1811.12062315495     IErMin= 5 ErrMin= 2.24D-06
 ErrMax= 2.24D-06  0.00D+00 EMaxC= 1.00D-01 BMatC= 8.54D-10 BMatP= 2.12D-08
 IDIUse=1 WtCom= 1.00D+00 WtEn= 0.00D+00
 Coeff-Com: -0.411D-02 0.133D+00 0.143D+00 0.232D+00 0.496D+00
 Coeff:     -0.411D-02 0.133D+00 0.143D+00 0.232D+00 0.496D+00
 Gap=     0.196 Goal=   None    Shift=    0.000
 RMSDP=8.84D-08 MaxDP=4.39D-06 DE=-1.88D-08 OVMax= 1.15D-05

 Cycle  14  Pass 1  IDiag  1:
 RMSU=  6.94D-08    CP:  1.00D+00  1.01D+00  5.25D-01  4.83D-01  7.57D-01
 E= -1811.12062315583     Delta-E=       -0.000000000879 Rises=F Damp=F
 DIIS: error= 4.84D-07 at cycle   6 NSaved=   6.
 NSaved= 6 IEnMin= 6 EnMin= -1811.12062315583     IErMin= 6 ErrMin= 4.84D-07
 ErrMax= 4.84D-07  0.00D+00 EMaxC= 1.00D-01 BMatC= 7.63D-11 BMatP= 8.54D-10
 IDIUse=1 WtCom= 1.00D+00 WtEn= 0.00D+00
 Coeff-Com: -0.123D-02 0.310D-01 0.343D-01 0.695D-01 0.266D+00 0.600D+00
 Coeff:     -0.123D-02 0.310D-01 0.343D-01 0.695D-01 0.266D+00 0.600D+00
 Gap=     0.196 Goal=   None    Shift=    0.000
 RMSDP=2.95D-08 MaxDP=1.90D-06 DE=-8.79D-10 OVMax= 2.33D-06

 Cycle  15  Pass 1  IDiag  1:
 RMSU=  2.19D-08    CP:  1.00D+00  1.01D+00  5.25D-01  4.85D-01  7.97D-01
                    CP:  7.40D-01
 E= -1811.12062315583     Delta-E=        0.000000000003 Rises=F Damp=F
 DIIS: error= 1.48D-07 at cycle   7 NSaved=   7.
 NSaved= 7 IEnMin= 6 EnMin= -1811.12062315583     IErMin= 7 ErrMin= 1.48D-07
 ErrMax= 1.48D-07  0.00D+00 EMaxC= 1.00D-01 BMatC= 1.33D-11 BMatP= 7.63D-11
 IDIUse=1 WtCom= 1.00D+00 WtEn= 0.00D+00
 Coeff-Com: -0.212D-03 0.201D-02 0.266D-02 0.126D-01 0.969D-01 0.356D+00
 Coeff-Com:  0.530D+00
 Coeff:     -0.212D-03 0.201D-02 0.266D-02 0.126D-01 0.969D-01 0.356D+00
 Coeff:      0.530D+00
 Gap=     0.196 Goal=   None    Shift=    0.000
 RMSDP=1.18D-08 MaxDP=1.13D-06 DE= 2.73D-12 OVMax= 6.42D-07

 Cycle  16  Pass 1  IDiag  1:
 RMSU=  7.11D-09    CP:  1.00D+00  1.01D+00  5.25D-01  4.88D-01  8.05D-01
                    CP:  7.72D-01  6.05D-01
 E= -1811.12062315594     Delta-E=       -0.000000000119 Rises=F Damp=F
 DIIS: error= 5.45D-08 at cycle   8 NSaved=   8.
 NSaved= 8 IEnMin= 8 EnMin= -1811.12062315594     IErMin= 8 ErrMin= 5.45D-08
 ErrMax= 5.45D-08  0.00D+00 EMaxC= 1.00D-01 BMatC= 1.75D-12 BMatP= 1.33D-11
 IDIUse=1 WtCom= 1.00D+00 WtEn= 0.00D+00
 Coeff-Com:  0.633D-05-0.231D-02-0.229D-02-0.522D-04 0.282D-01 0.147D+00
 Coeff-Com:  0.322D+00 0.507D+00
 Coeff:      0.633D-05-0.231D-02-0.229D-02-0.522D-04 0.282D-01 0.147D+00
 Coeff:      0.322D+00 0.507D+00
 Gap=     0.196 Goal=   None    Shift=    0.000
 RMSDP=3.79D-09 MaxDP=2.58D-07 DE=-1.19D-10 OVMax= 1.95D-07

 SCF Done:  E(RB3LYP) =  -1811.12062316     A.U. after   16 cycles
            NFock= 16  Conv=0.38D-08     -V/T= 2.0069
 KE= 1.798699606249D+03 PE=-9.146616238690D+03 EE= 3.088470625465D+03
 Leave Link  502 at Sat Aug  8 00:30:46 2020, MaxMem=    33554432 cpu:       460.8
 (Enter /prod/apps/gaussian/g09d1/l601.exe)
 Copying SCF densities to generalized density rwf, IOpCl= 0 IROHF=0.

 **********************************************************************

            Population analysis using the SCF density.

 **********************************************************************

 Orbital symmetries:
       Occupied  (A) (A) (A) (A) (A) (A) (A) (A) (A) (A) (A) (A)
                 (A) (A) (A) (A) (A) (A) (A) (A) (A) (A) (A) (A)
                 (A) (A) (A) (A) (A) (A) (A) (A) (A) (A) (A) (A)
                 (A) (A) (A) (A) (A) (A) (A) (A) (A) (A) (A) (A)
                 (A) (A) (A) (A) (A) (A) (A) (A) (A) (A) (A) (A)
                 (A) (A) (A) (A) (A) (A) (A) (A) (A) (A) (A) (A)
                 (A) (A) (A) (A) (A) (A) (A) (A) (A) (A) (A) (A)
                 (A) (A) (A) (A) (A) (A) (A) (A) (A) (A) (A) (A)
       Virtual   (A) (A) (A) (A) (A) (A) (A) (A) (A) (A) (A) (A)
                 (A) (A) (A) (A) (A) (A) (A) (A) (A) (A) (A) (A)
                 (A) (A) (A) (A) (A) (A) (A) (A) (A) (A) (A) (A)
                 (A) (A) (A) (A) (A) (A) (A) (A) (A) (A) (A) (A)
                 (A) (A) (A) (A) (A) (A) (A) (A) (A) (A) (A) (A)
                 (A) (A) (A) (A) (A) (A) (A) (A) (A) (A) (A) (A)
                 (A) (A) (A) (A) (A) (A) (A) (A) (A) (A) (A) (A)
                 (A) (A) (A) (A) (A) (A) (A) (A) (A) (A) (A) (A)
                 (A) (A) (A) (A) (A) (A) (A) (A) (A) (A) (A) (A)
                 (A) (A) (A) (A) (A) (A) (A) (A) (A) (A) (A) (A)
                 (A) (A) (A) (A) (A) (A) (A) (A) (A) (A) (A) (A)
                 (A) (A) (A) (A) (A) (A) (A) (A) (A) (A) (A) (A)
                 (A) (A) (A) (A) (A) (A) (A) (A) (A) (A) (A) (A)
                 (A) (A) (A) (A) (A) (A) (A) (A) (A) (A) (A) (A)
                 (A) (A) (A) (A) (A) (A) (A) (A) (A) (A) (A) (A)
                 (A) (A) (A) (A) (A) (A) (A) (A) (A) (A) (A) (A)
                 (A) (A) (A) (A) (A) (A) (A) (A) (A) (A) (A) (A)
                 (A) (A) (A) (A) (A) (A) (A) (A) (A) (A) (A) (A)
                 (A) (A) (A) (A) (A) (A) (A) (A) (A) (A) (A) (A)
                 (A) (A) (A) (A) (A) (A) (A) (A) (A) (A) (A) (A)
                 (A) (A) (A) (A) (A) (A) (A) (A) (A) (A) (A) (A)
                 (A) (A) (A) (A) (A) (A) (A) (A) (A) (A) (A) (A)
                 (A) (A) (A) (A) (A) (A) (A) (A) (A) (A) (A) (A)
                 (A) (A) (A) (A) (A) (A) (A) (A) (A) (A) (A) (A)
                 (A) (A) (A) (A) (A) (A) (A) (A) (A) (A) (A) (A)
                 (A) (A) (A) (A) (A) (A) (A) (A) (A) (A)
 The electronic state is 1-A.
 Alpha  occ. eigenvalues --  -89.12734 -89.09378 -19.15823 -19.15469 -19.14680
 Alpha  occ. eigenvalues --  -19.14622 -14.38662 -10.28418 -10.24077 -10.23736
 Alpha  occ. eigenvalues --  -10.23521 -10.22455 -10.22275 -10.21910 -10.21768
 Alpha  occ. eigenvalues --  -10.21732 -10.20514 -10.20150 -10.20005 -10.19201
 Alpha  occ. eigenvalues --  -10.19164 -10.19106 -10.19032 -10.19021  -8.15247
 Alpha  occ. eigenvalues --   -8.12413  -6.11766  -6.11662  -6.11532  -6.08828
 Alpha  occ. eigenvalues --   -6.08772  -6.08706  -1.12381  -1.10069  -1.01360
 Alpha  occ. eigenvalues --   -0.99732  -0.95614  -0.88635  -0.86278  -0.85544
 Alpha  occ. eigenvalues --   -0.79829  -0.79016  -0.77508  -0.74554  -0.74250
 Alpha  occ. eigenvalues --   -0.73488  -0.69851  -0.66733  -0.63600  -0.62788
 Alpha  occ. eigenvalues --   -0.60776  -0.60700  -0.58749  -0.57762  -0.56088
 Alpha  occ. eigenvalues --   -0.53962  -0.52783  -0.51195  -0.50430  -0.49720
 Alpha  occ. eigenvalues --   -0.49462  -0.48258  -0.47466  -0.46923  -0.46090
 Alpha  occ. eigenvalues --   -0.45772  -0.45238  -0.45054  -0.44948  -0.44048
 Alpha  occ. eigenvalues --   -0.42896  -0.42122  -0.41800  -0.41250  -0.39845
 Alpha  occ. eigenvalues --   -0.39317  -0.38901  -0.37979  -0.37403  -0.36642
 Alpha  occ. eigenvalues --   -0.35720  -0.35154  -0.34275  -0.34020  -0.33089
 Alpha  occ. eigenvalues --   -0.32612  -0.32175  -0.31622  -0.31530  -0.30051
 Alpha  occ. eigenvalues --   -0.29504  -0.29081  -0.27872  -0.27178  -0.25151
 Alpha  occ. eigenvalues --   -0.24411
 Alpha virt. eigenvalues --   -0.04816  -0.02797  -0.00364  -0.00231   0.02195
 Alpha virt. eigenvalues --    0.03214   0.04511   0.05623   0.06141   0.06877
 Alpha virt. eigenvalues --    0.07651   0.08626   0.09083   0.09564   0.09760
 Alpha virt. eigenvalues --    0.10401   0.11004   0.12424   0.13504   0.13730
 Alpha virt. eigenvalues --    0.14165   0.14643   0.15035   0.15394   0.16126
 Alpha virt. eigenvalues --    0.16293   0.16898   0.17189   0.17979   0.18466
 Alpha virt. eigenvalues --    0.18874   0.19695   0.20305   0.22082   0.22344
 Alpha virt. eigenvalues --    0.22875   0.25788   0.26731   0.26827   0.27926
 Alpha virt. eigenvalues --    0.28460   0.29971   0.30250   0.30448   0.32826
 Alpha virt. eigenvalues --    0.33642   0.34127   0.34832   0.35494   0.35614
 Alpha virt. eigenvalues --    0.37951   0.39964   0.43132   0.43753   0.45412
 Alpha virt. eigenvalues --    0.45835   0.48704   0.49707   0.50416   0.51169
 Alpha virt. eigenvalues --    0.51382   0.52061   0.52407   0.52936   0.53900
 Alpha virt. eigenvalues --    0.54654   0.55123   0.55560   0.55860   0.56214
 Alpha virt. eigenvalues --    0.56676   0.57279   0.57949   0.58496   0.58665
 Alpha virt. eigenvalues --    0.59106   0.59322   0.59559   0.60095   0.60387
 Alpha virt. eigenvalues --    0.60871   0.61232   0.61493   0.62118   0.62836
 Alpha virt. eigenvalues --    0.64293   0.65032   0.66390   0.67567   0.68559
 Alpha virt. eigenvalues --    0.69097   0.70075   0.71092   0.73080   0.74933
 Alpha virt. eigenvalues --    0.76857   0.77257   0.77725   0.78191   0.79686
 Alpha virt. eigenvalues --    0.80572   0.81138   0.81462   0.82052   0.82317
 Alpha virt. eigenvalues --    0.82645   0.83224   0.83461   0.83814   0.84011
 Alpha virt. eigenvalues --    0.84370   0.85104   0.85743   0.86235   0.86770
 Alpha virt. eigenvalues --    0.87044   0.88146   0.88631   0.89161   0.90170
 Alpha virt. eigenvalues --    0.91059   0.91646   0.92611   0.93475   0.93688
 Alpha virt. eigenvalues --    0.94365   0.94851   0.95783   0.96476   0.97822
 Alpha virt. eigenvalues --    0.98843   0.99446   1.00178   1.01708   1.02655
 Alpha virt. eigenvalues --    1.03508   1.04582   1.05638   1.06379   1.07434
 Alpha virt. eigenvalues --    1.09134   1.09709   1.10689   1.11816   1.12175
 Alpha virt. eigenvalues --    1.12842   1.14219   1.15128   1.15629   1.16358
 Alpha virt. eigenvalues --    1.17174   1.18716   1.20025   1.20781   1.21161
 Alpha virt. eigenvalues --    1.22297   1.24642   1.25415   1.25856   1.26511
 Alpha virt. eigenvalues --    1.29878   1.30230   1.31837   1.35134   1.37105
 Alpha virt. eigenvalues --    1.39432   1.40961   1.41539   1.42185   1.42656
 Alpha virt. eigenvalues --    1.44025   1.44940   1.45161   1.46566   1.47896
 Alpha virt. eigenvalues --    1.48023   1.48188   1.49103   1.50753   1.51240
 Alpha virt. eigenvalues --    1.52340   1.56032   1.57492   1.63573   1.64967
 Alpha virt. eigenvalues --    1.68314   1.71139   1.71983   1.72998   1.75596
 Alpha virt. eigenvalues --    1.76063   1.77408   1.78059   1.79099   1.79701
 Alpha virt. eigenvalues --    1.80362   1.80616   1.80956   1.81241   1.81671
 Alpha virt. eigenvalues --    1.82984   1.84075   1.84499   1.84908   1.85750
 Alpha virt. eigenvalues --    1.86840   1.88593   1.89238   1.89348   1.90528
 Alpha virt. eigenvalues --    1.92605   1.93124   1.93454   1.94133   1.95970
 Alpha virt. eigenvalues --    1.96948   1.97651   1.99370   1.99667   2.00926
 Alpha virt. eigenvalues --    2.03158   2.03496   2.04886   2.05769   2.06009
 Alpha virt. eigenvalues --    2.07737   2.09023   2.10037   2.12124   2.12750
 Alpha virt. eigenvalues --    2.12846   2.13220   2.13890   2.14209   2.14684
 Alpha virt. eigenvalues --    2.14975   2.16906   2.17908   2.20452   2.21280
 Alpha virt. eigenvalues --    2.24170   2.26009   2.26852   2.27563   2.27891
 Alpha virt. eigenvalues --    2.28318   2.29827   2.30762   2.30959   2.31512
 Alpha virt. eigenvalues --    2.32796   2.37525   2.38915   2.40348   2.40879
 Alpha virt. eigenvalues --    2.49058   2.51083   2.52370   2.54144   2.56519
 Alpha virt. eigenvalues --    2.57347   2.58088   2.62265   2.64340   2.66056
 Alpha virt. eigenvalues --    2.67578   2.69334   2.69803   2.71514   2.72159
 Alpha virt. eigenvalues --    2.72428   2.73081   2.73821   2.74198   2.74452
 Alpha virt. eigenvalues --    2.75933   2.76712   2.78718   2.82925   2.83698
 Alpha virt. eigenvalues --    2.87929   2.93756   3.01328   3.04958   3.35957
 Alpha virt. eigenvalues --    3.41078   3.76356   3.80258   3.94652   3.97958
 Alpha virt. eigenvalues --    4.00258   4.03131   4.06847   4.08929   4.09754
 Alpha virt. eigenvalues --    4.11397   4.12466   4.15332   4.15499   4.22051
 Alpha virt. eigenvalues --    4.24671   4.31333   4.32417   4.33081   4.36652
 Alpha virt. eigenvalues --    4.41261   4.53456   4.63970   4.70165   4.74713
          Condensed to atoms (all electrons):
               1          2          3          4          5          6
     1  O    8.290208   0.383138  -0.052361   0.008102   0.000068   0.000301
     2  S    0.383138  13.734970   0.088810  -0.004960   0.000181   0.000496
     3  N   -0.052361   0.088810   7.428119   0.229180  -0.050328   0.006319
     4  C    0.008102  -0.004960   0.229180   4.861133   0.343262  -0.100570
     5  C    0.000068   0.000181  -0.050328   0.343262   5.745092   0.130962
     6  S    0.000301   0.000496   0.006319  -0.100570   0.130962  13.872343
     7  C    0.003142  -0.001935  -0.043669   0.353163  -0.198160   0.148086
     8  O    0.000000  -0.000135  -0.000298   0.001279  -0.044875   0.432051
     9  O    0.000000   0.000001  -0.000033   0.000619  -0.044424   0.416688
    10  C   -0.009955  -0.003227  -0.062578   0.361360  -0.052264   0.003156
    11  C    0.000090  -0.000066   0.004304  -0.029108  -0.004443  -0.002028
    12  C    0.000000  -0.000020  -0.000117   0.003994  -0.000070   0.000336
    13  C   -0.000012  -0.000009  -0.000003   0.000142  -0.000002  -0.000006
    14  C    0.000000   0.000000   0.000000   0.000002   0.000000   0.000000
    15  C    0.000000   0.000000   0.000000   0.000000   0.000000   0.000000
    16  C    0.000000   0.000000   0.000000   0.000001   0.000000   0.000000
    17  C    0.000000   0.000000  -0.000002   0.000041  -0.000004  -0.000009
    18  C   -0.059811   0.180424  -0.051077  -0.003455  -0.000282  -0.000017
    19  C    0.002273  -0.035183   0.001054   0.000190  -0.000001  -0.000020
    20  C    0.000661   0.003374  -0.000107   0.000005   0.000000  -0.000006
    21  C   -0.000006  -0.000423   0.000011   0.000001   0.000000   0.000003
    22  C   -0.000045   0.002220   0.000067  -0.000002  -0.000001   0.000013
    23  C    0.001688  -0.021542   0.000421   0.000191  -0.000058   0.000284
    24  O   -0.041134   0.464946  -0.055945   0.001912  -0.000079   0.000007
    25  H    0.000330  -0.011689   0.295768  -0.028226  -0.005394  -0.000050
    26  H    0.000001  -0.000005   0.002264  -0.028620   0.335370  -0.008942
    27  H    0.000003   0.000148  -0.000981  -0.023963   0.332571  -0.002697
    28  H   -0.000166  -0.000565   0.002259  -0.027905   0.008473  -0.011697
    29  H   -0.001823   0.002195  -0.004918  -0.023400   0.006778  -0.007262
    30  H    0.014299   0.002081  -0.002277  -0.029829   0.005060  -0.000237
    31  H    0.000167   0.000405  -0.002356  -0.036928  -0.006441  -0.000036
    32  H   -0.000004   0.000002   0.000008  -0.004535   0.001642   0.000525
    33  H    0.000012   0.000004  -0.000005  -0.005387  -0.000417   0.000668
    34  H    0.000006   0.000001   0.000001  -0.000066   0.000000   0.000000
    35  H    0.000000   0.000000   0.000000   0.000000   0.000000   0.000000
    36  H    0.000000   0.000000   0.000000   0.000000   0.000000   0.000000
    37  H    0.000000   0.000000   0.000000   0.000000   0.000000   0.000000
    38  H    0.000000   0.000000   0.000000  -0.000035  -0.000021  -0.000001
    39  H    0.012981  -0.008033   0.000268  -0.000023   0.000001   0.000007
    40  H    0.000003  -0.000078   0.000000   0.000000   0.000000   0.000000
    41  H    0.000000   0.000007   0.000000   0.000000   0.000000   0.000000
    42  H    0.000000  -0.000062   0.000000   0.000000   0.000000   0.000000
    43  H    0.000052  -0.002225   0.005655   0.000137  -0.000027   0.000042
               7          8          9         10         11         12
     1  O    0.003142   0.000000   0.000000  -0.009955   0.000090   0.000000
     2  S   -0.001935  -0.000135   0.000001  -0.003227  -0.000066  -0.000020
     3  N   -0.043669  -0.000298  -0.000033  -0.062578   0.004304  -0.000117
     4  C    0.353163   0.001279   0.000619   0.361360  -0.029108   0.003994
     5  C   -0.198160  -0.044875  -0.044424  -0.052264  -0.004443  -0.000070
     6  S    0.148086   0.432051   0.416688   0.003156  -0.002028   0.000336
     7  C    5.695393  -0.046236  -0.044085  -0.044800  -0.005824  -0.000011
     8  O   -0.046236   8.207676  -0.044026  -0.000063  -0.000003   0.000000
     9  O   -0.044085  -0.044026   8.235685  -0.000559   0.000559   0.000090
    10  C   -0.044800  -0.000063  -0.000559   5.172803   0.328462  -0.036333
    11  C   -0.005824  -0.000003   0.000559   0.328462   5.221513   0.336127
    12  C   -0.000011   0.000000   0.000090  -0.036333   0.336127   4.644239
    13  C   -0.000007   0.000000   0.000000  -0.003683  -0.060848   0.545710
    14  C    0.000000   0.000000   0.000000   0.000041   0.006598  -0.018140
    15  C    0.000000   0.000000   0.000000   0.000017   0.000394  -0.034580
    16  C    0.000000   0.000000   0.000000  -0.000099   0.007122  -0.019999
    17  C   -0.000001   0.000000  -0.000001  -0.004008  -0.054534   0.551553
    18  C   -0.002374  -0.000016   0.000000  -0.000192   0.000002   0.000000
    19  C   -0.002598   0.000002   0.000000   0.000010   0.000000   0.000000
    20  C   -0.000012   0.000000   0.000000   0.000000   0.000000   0.000000
    21  C    0.000018   0.000000   0.000000   0.000000   0.000000   0.000000
    22  C    0.000030  -0.000008   0.000000   0.000000   0.000000   0.000000
    23  C   -0.000319   0.000040   0.000000   0.000005   0.000000   0.000000
    24  O   -0.000056   0.000000   0.000000  -0.000124  -0.000001   0.000000
    25  H    0.005284   0.000006   0.000001  -0.000788  -0.000067  -0.000001
    26  H    0.008220   0.000886  -0.000795  -0.004845   0.000233  -0.000186
    27  H    0.006649  -0.000070   0.000954   0.002689   0.000152   0.000006
    28  H    0.341228   0.000946  -0.000493  -0.005879   0.000563  -0.000150
    29  H    0.330909   0.001176   0.000960   0.002065   0.000209   0.000004
    30  H   -0.005445   0.000001   0.000002   0.363010  -0.029623  -0.002895
    31  H    0.005696   0.000001   0.000001   0.357317  -0.036688  -0.001565
    32  H   -0.000455   0.000007   0.001738  -0.039650   0.359980  -0.029927
    33  H    0.002041   0.000004   0.000976  -0.040937   0.360904  -0.026347
    34  H   -0.000009   0.000000   0.000000   0.000204  -0.008931  -0.047860
    35  H    0.000000   0.000000   0.000000  -0.000002  -0.000187   0.003661
    36  H    0.000000   0.000000   0.000000   0.000000   0.000007   0.000739
    37  H    0.000000   0.000000   0.000000  -0.000001  -0.000190   0.003798
    38  H    0.000001   0.000000   0.000000   0.000180  -0.010263  -0.047665
    39  H    0.000062   0.000000   0.000000   0.000004   0.000000   0.000000
    40  H   -0.000002   0.000000   0.000000   0.000000   0.000000   0.000000
    41  H    0.000000   0.000000   0.000000   0.000000   0.000000   0.000000
    42  H    0.000000   0.000000   0.000000   0.000000   0.000000   0.000000
    43  H   -0.000073   0.000001   0.000000   0.000005   0.000000   0.000000
              13         14         15         16         17         18
     1  O   -0.000012   0.000000   0.000000   0.000000   0.000000  -0.059811
     2  S   -0.000009   0.000000   0.000000   0.000000   0.000000   0.180424
     3  N   -0.000003   0.000000   0.000000   0.000000  -0.000002  -0.051077
     4  C    0.000142   0.000002   0.000000   0.000001   0.000041  -0.003455
     5  C   -0.000002   0.000000   0.000000   0.000000  -0.000004  -0.000282
     6  S   -0.000006   0.000000   0.000000   0.000000  -0.000009  -0.000017
     7  C   -0.000007   0.000000   0.000000   0.000000  -0.000001  -0.002374
     8  O    0.000000   0.000000   0.000000   0.000000   0.000000  -0.000016
     9  O    0.000000   0.000000   0.000000   0.000000  -0.000001   0.000000
    10  C   -0.003683   0.000041   0.000017  -0.000099  -0.004008  -0.000192
    11  C   -0.060848   0.006598   0.000394   0.007122  -0.054534   0.000002
    12  C    0.545710  -0.018140  -0.034580  -0.019999   0.551553   0.000000
    13  C    4.956283   0.525559  -0.035735  -0.047592  -0.036705   0.000000
    14  C    0.525559   4.862837   0.549697  -0.025756  -0.047255   0.000000
    15  C   -0.035735   0.549697   4.851519   0.551598  -0.036167   0.000000
    16  C   -0.047592  -0.025756   0.551598   4.866174   0.523574   0.000000
    17  C   -0.036705  -0.047255  -0.036167   0.523574   4.955719   0.000000
    18  C    0.000000   0.000000   0.000000   0.000000   0.000000   5.337259
    19  C    0.000000   0.000000   0.000000   0.000000   0.000000   0.515656
    20  C    0.000000   0.000000   0.000000   0.000000   0.000000  -0.031143
    21  C    0.000000   0.000000   0.000000   0.000000   0.000000  -0.039643
    22  C    0.000000   0.000000   0.000000   0.000000   0.000000  -0.023279
    23  C    0.000000   0.000000   0.000000   0.000000   0.000000   0.467787
    24  O    0.000000   0.000000   0.000000   0.000000   0.000000  -0.062980
    25  H    0.000000   0.000000   0.000000   0.000000   0.000000   0.002849
    26  H    0.000001   0.000000   0.000000   0.000000   0.000018   0.000001
    27  H    0.000000   0.000000   0.000000   0.000000   0.000000  -0.000027
    28  H    0.000014   0.000000   0.000000   0.000000   0.000000   0.000094
    29  H    0.000000   0.000000   0.000000   0.000000   0.000000   0.007227
    30  H    0.004081  -0.000119  -0.000003  -0.000003   0.000013   0.000046
    31  H   -0.000144  -0.000024  -0.000008  -0.000122   0.003376   0.000016
    32  H    0.004019  -0.000191   0.000007   0.000159  -0.003788   0.000000
    33  H   -0.004029   0.000062   0.000015  -0.000211   0.003117   0.000000
    34  H    0.356132  -0.044391   0.004825   0.000384   0.005993   0.000000
    35  H   -0.039166   0.356956  -0.043015   0.004532   0.000901   0.000000
    36  H    0.004693  -0.042833   0.359124  -0.043096   0.004710   0.000000
    37  H    0.000871   0.004548  -0.043065   0.356445  -0.039477   0.000000
    38  H    0.006294   0.000356   0.004921  -0.045630   0.353625   0.000000
    39  H    0.000000   0.000000   0.000000   0.000000   0.000000  -0.042096
    40  H    0.000000   0.000000   0.000000   0.000000   0.000000   0.004985
    41  H    0.000000   0.000000   0.000000   0.000000   0.000000   0.000485
    42  H    0.000000   0.000000   0.000000   0.000000   0.000000   0.004823
    43  H    0.000000   0.000000   0.000000   0.000000   0.000000  -0.049738
              19         20         21         22         23         24
     1  O    0.002273   0.000661  -0.000006  -0.000045   0.001688  -0.041134
     2  S   -0.035183   0.003374  -0.000423   0.002220  -0.021542   0.464946
     3  N    0.001054  -0.000107   0.000011   0.000067   0.000421  -0.055945
     4  C    0.000190   0.000005   0.000001  -0.000002   0.000191   0.001912
     5  C   -0.000001   0.000000   0.000000  -0.000001  -0.000058  -0.000079
     6  S   -0.000020  -0.000006   0.000003   0.000013   0.000284   0.000007
     7  C   -0.002598  -0.000012   0.000018   0.000030  -0.000319  -0.000056
     8  O    0.000002   0.000000   0.000000  -0.000008   0.000040   0.000000
     9  O    0.000000   0.000000   0.000000   0.000000   0.000000   0.000000
    10  C    0.000010   0.000000   0.000000   0.000000   0.000005  -0.000124
    11  C    0.000000   0.000000   0.000000   0.000000   0.000000  -0.000001
    12  C    0.000000   0.000000   0.000000   0.000000   0.000000   0.000000
    13  C    0.000000   0.000000   0.000000   0.000000   0.000000   0.000000
    14  C    0.000000   0.000000   0.000000   0.000000   0.000000   0.000000
    15  C    0.000000   0.000000   0.000000   0.000000   0.000000   0.000000
    16  C    0.000000   0.000000   0.000000   0.000000   0.000000   0.000000
    17  C    0.000000   0.000000   0.000000   0.000000   0.000000   0.000000
    18  C    0.515656  -0.031143  -0.039643  -0.023279   0.467787  -0.062980
    19  C    4.932422   0.500823  -0.028435  -0.040152  -0.032631  -0.001189
    20  C    0.500823   4.881298   0.545803  -0.028240  -0.037921  -0.000052
    21  C   -0.028435   0.545803   4.839493   0.539925  -0.029736  -0.000004
    22  C   -0.040152  -0.028240   0.539925   4.860499   0.525647   0.000107
    23  C   -0.032631  -0.037921  -0.029736   0.525647   4.905178   0.000589
    24  O   -0.001189  -0.000052  -0.000004   0.000107   0.000589   8.209947
    25  H   -0.000051   0.000002   0.000000   0.000003  -0.000130   0.005558
    26  H    0.000000   0.000000   0.000000   0.000000   0.000000   0.000000
    27  H    0.000000   0.000000   0.000000   0.000000   0.000010  -0.000006
    28  H    0.000017  -0.000002   0.000000   0.000000   0.000007   0.000000
    29  H    0.004780  -0.000101  -0.000058  -0.000179  -0.000076  -0.000009
    30  H   -0.000001   0.000000   0.000000   0.000000  -0.000003  -0.000324
    31  H    0.000000   0.000000   0.000000   0.000000   0.000000  -0.000004
    32  H    0.000000   0.000000   0.000000   0.000000   0.000000   0.000000
    33  H    0.000000   0.000000   0.000000   0.000000   0.000000   0.000000
    34  H    0.000000   0.000000   0.000000   0.000000   0.000000   0.000000
    35  H    0.000000   0.000000   0.000000   0.000000   0.000000   0.000000
    36  H    0.000000   0.000000   0.000000   0.000000   0.000000   0.000000
    37  H    0.000000   0.000000   0.000000   0.000000   0.000000   0.000000
    38  H    0.000000   0.000000   0.000000   0.000000   0.000000   0.000000
    39  H    0.359573  -0.036403   0.004149   0.000256   0.005089  -0.000001
    40  H   -0.042904   0.364218  -0.041573   0.004360   0.000719   0.000000
    41  H    0.004867  -0.042161   0.362388  -0.041667   0.004886   0.000000
    42  H    0.000640   0.004423  -0.041058   0.363358  -0.041136   0.000001
    43  H    0.004668   0.000347   0.004365  -0.037128   0.363032   0.000831
              25         26         27         28         29         30
     1  O    0.000330   0.000001   0.000003  -0.000166  -0.001823   0.014299
     2  S   -0.011689  -0.000005   0.000148  -0.000565   0.002195   0.002081
     3  N    0.295768   0.002264  -0.000981   0.002259  -0.004918  -0.002277
     4  C   -0.028226  -0.028620  -0.023963  -0.027905  -0.023400  -0.029829
     5  C   -0.005394   0.335370   0.332571   0.008473   0.006778   0.005060
     6  S   -0.000050  -0.008942  -0.002697  -0.011697  -0.007262  -0.000237
     7  C    0.005284   0.008220   0.006649   0.341228   0.330909  -0.005445
     8  O    0.000006   0.000886  -0.000070   0.000946   0.001176   0.000001
     9  O    0.000001  -0.000795   0.000954  -0.000493   0.000960   0.000002
    10  C   -0.000788  -0.004845   0.002689  -0.005879   0.002065   0.363010
    11  C   -0.000067   0.000233   0.000152   0.000563   0.000209  -0.029623
    12  C   -0.000001  -0.000186   0.000006  -0.000150   0.000004  -0.002895
    13  C    0.000000   0.000001   0.000000   0.000014   0.000000   0.004081
    14  C    0.000000   0.000000   0.000000   0.000000   0.000000  -0.000119
    15  C    0.000000   0.000000   0.000000   0.000000   0.000000  -0.000003
    16  C    0.000000   0.000000   0.000000   0.000000   0.000000  -0.000003
    17  C    0.000000   0.000018   0.000000   0.000000   0.000000   0.000013
    18  C    0.002849   0.000001  -0.000027   0.000094   0.007227   0.000046
    19  C   -0.000051   0.000000   0.000000   0.000017   0.004780  -0.000001
    20  C    0.000002   0.000000   0.000000  -0.000002  -0.000101   0.000000
    21  C    0.000000   0.000000   0.000000   0.000000  -0.000058   0.000000
    22  C    0.000003   0.000000   0.000000   0.000000  -0.000179   0.000000
    23  C   -0.000130   0.000000   0.000010   0.000007  -0.000076  -0.000003
    24  O    0.005558   0.000000  -0.000006   0.000000  -0.000009  -0.000324
    25  H    0.372913   0.000180   0.001304  -0.000102   0.000113  -0.000586
    26  H    0.000180   0.499207  -0.019682  -0.000253  -0.000247   0.000234
    27  H    0.001304  -0.019682   0.490003  -0.000245  -0.000257  -0.000100
    28  H   -0.000102  -0.000253  -0.000245   0.486997  -0.016955   0.001495
    29  H    0.000113  -0.000247  -0.000257  -0.016955   0.475485  -0.000017
    30  H   -0.000586   0.000234  -0.000100   0.001495  -0.000017   0.506372
    31  H    0.005257   0.001812  -0.000008   0.000194  -0.000095  -0.030228
    32  H   -0.000009   0.005534   0.000073   0.000071  -0.000009   0.004643
    33  H    0.000011   0.000042  -0.000013   0.005580   0.000065  -0.004213
    34  H    0.000000   0.000000   0.000000   0.000080   0.000000   0.001184
    35  H    0.000000   0.000000   0.000000   0.000000   0.000000   0.000004
    36  H    0.000000   0.000000   0.000000   0.000000   0.000000   0.000000
    37  H    0.000000   0.000000   0.000000   0.000000   0.000000   0.000000
    38  H    0.000000   0.000125   0.000000   0.000000   0.000000   0.000022
    39  H   -0.000005   0.000000   0.000000   0.000023   0.000068   0.000002
    40  H    0.000000   0.000000   0.000000   0.000000   0.000008   0.000000
    41  H    0.000000   0.000000   0.000000   0.000000   0.000000   0.000000
    42  H    0.000000   0.000000   0.000000   0.000000   0.000001   0.000000
    43  H   -0.000302   0.000000   0.000065   0.000000   0.000033   0.000000
              31         32         33         34         35         36
     1  O    0.000167  -0.000004   0.000012   0.000006   0.000000   0.000000
     2  S    0.000405   0.000002   0.000004   0.000001   0.000000   0.000000
     3  N   -0.002356   0.000008  -0.000005   0.000001   0.000000   0.000000
     4  C   -0.036928  -0.004535  -0.005387  -0.000066   0.000000   0.000000
     5  C   -0.006441   0.001642  -0.000417   0.000000   0.000000   0.000000
     6  S   -0.000036   0.000525   0.000668   0.000000   0.000000   0.000000
     7  C    0.005696  -0.000455   0.002041  -0.000009   0.000000   0.000000
     8  O    0.000001   0.000007   0.000004   0.000000   0.000000   0.000000
     9  O    0.000001   0.001738   0.000976   0.000000   0.000000   0.000000
    10  C    0.357317  -0.039650  -0.040937   0.000204  -0.000002   0.000000
    11  C   -0.036688   0.359980   0.360904  -0.008931  -0.000187   0.000007
    12  C   -0.001565  -0.029927  -0.026347  -0.047860   0.003661   0.000739
    13  C   -0.000144   0.004019  -0.004029   0.356132  -0.039166   0.004693
    14  C   -0.000024  -0.000191   0.000062  -0.044391   0.356956  -0.042833
    15  C   -0.000008   0.000007   0.000015   0.004825  -0.043015   0.359124
    16  C   -0.000122   0.000159  -0.000211   0.000384   0.004532  -0.043096
    17  C    0.003376  -0.003788   0.003117   0.005993   0.000901   0.004710
    18  C    0.000016   0.000000   0.000000   0.000000   0.000000   0.000000
    19  C    0.000000   0.000000   0.000000   0.000000   0.000000   0.000000
    20  C    0.000000   0.000000   0.000000   0.000000   0.000000   0.000000
    21  C    0.000000   0.000000   0.000000   0.000000   0.000000   0.000000
    22  C    0.000000   0.000000   0.000000   0.000000   0.000000   0.000000
    23  C    0.000000   0.000000   0.000000   0.000000   0.000000   0.000000
    24  O   -0.000004   0.000000   0.000000   0.000000   0.000000   0.000000
    25  H    0.005257  -0.000009   0.000011   0.000000   0.000000   0.000000
    26  H    0.001812   0.005534   0.000042   0.000000   0.000000   0.000000
    27  H   -0.000008   0.000073  -0.000013   0.000000   0.000000   0.000000
    28  H    0.000194   0.000071   0.005580   0.000080   0.000000   0.000000
    29  H   -0.000095  -0.000009   0.000065   0.000000   0.000000   0.000000
    30  H   -0.030228   0.004643  -0.004213   0.001184   0.000004   0.000000
    31  H    0.599385  -0.004571   0.005685   0.000060   0.000000   0.000000
    32  H   -0.004571   0.574086  -0.033533   0.000062   0.000003   0.000000
    33  H    0.005685  -0.033533   0.569176   0.004241  -0.000005   0.000000
    34  H    0.000060   0.000062   0.004241   0.606167  -0.005598  -0.000183
    35  H    0.000000   0.000003  -0.000005  -0.005598   0.595070  -0.005496
    36  H    0.000000   0.000000   0.000000  -0.000183  -0.005496   0.597310
    37  H    0.000003  -0.000008   0.000003   0.000018  -0.000190  -0.005557
    38  H    0.000452   0.006377   0.000085  -0.000184   0.000018  -0.000185
    39  H    0.000000   0.000000   0.000000   0.000000   0.000000   0.000000
    40  H    0.000000   0.000000   0.000000   0.000000   0.000000   0.000000
    41  H    0.000000   0.000000   0.000000   0.000000   0.000000   0.000000
    42  H    0.000000   0.000000   0.000000   0.000000   0.000000   0.000000
    43  H    0.000000   0.000000   0.000000   0.000000   0.000000   0.000000
              37         38         39         40         41         42
     1  O    0.000000   0.000000   0.012981   0.000003   0.000000   0.000000
     2  S    0.000000   0.000000  -0.008033  -0.000078   0.000007  -0.000062
     3  N    0.000000   0.000000   0.000268   0.000000   0.000000   0.000000
     4  C    0.000000  -0.000035  -0.000023   0.000000   0.000000   0.000000
     5  C    0.000000  -0.000021   0.000001   0.000000   0.000000   0.000000
     6  S    0.000000  -0.000001   0.000007   0.000000   0.000000   0.000000
     7  C    0.000000   0.000001   0.000062  -0.000002   0.000000   0.000000
     8  O    0.000000   0.000000   0.000000   0.000000   0.000000   0.000000
     9  O    0.000000   0.000000   0.000000   0.000000   0.000000   0.000000
    10  C   -0.000001   0.000180   0.000004   0.000000   0.000000   0.000000
    11  C   -0.000190  -0.010263   0.000000   0.000000   0.000000   0.000000
    12  C    0.003798  -0.047665   0.000000   0.000000   0.000000   0.000000
    13  C    0.000871   0.006294   0.000000   0.000000   0.000000   0.000000
    14  C    0.004548   0.000356   0.000000   0.000000   0.000000   0.000000
    15  C   -0.043065   0.004921   0.000000   0.000000   0.000000   0.000000
    16  C    0.356445  -0.045630   0.000000   0.000000   0.000000   0.000000
    17  C   -0.039477   0.353625   0.000000   0.000000   0.000000   0.000000
    18  C    0.000000   0.000000  -0.042096   0.004985   0.000485   0.004823
    19  C    0.000000   0.000000   0.359573  -0.042904   0.004867   0.000640
    20  C    0.000000   0.000000  -0.036403   0.364218  -0.042161   0.004423
    21  C    0.000000   0.000000   0.004149  -0.041573   0.362388  -0.041058
    22  C    0.000000   0.000000   0.000256   0.004360  -0.041667   0.363358
    23  C    0.000000   0.000000   0.005089   0.000719   0.004886  -0.041136
    24  O    0.000000   0.000000  -0.000001   0.000000   0.000000   0.000001
    25  H    0.000000   0.000000  -0.000005   0.000000   0.000000   0.000000
    26  H    0.000000   0.000125   0.000000   0.000000   0.000000   0.000000
    27  H    0.000000   0.000000   0.000000   0.000000   0.000000   0.000000
    28  H    0.000000   0.000000   0.000023   0.000000   0.000000   0.000000
    29  H    0.000000   0.000000   0.000068   0.000008   0.000000   0.000001
    30  H    0.000000   0.000022   0.000002   0.000000   0.000000   0.000000
    31  H    0.000003   0.000452   0.000000   0.000000   0.000000   0.000000
    32  H   -0.000008   0.006377   0.000000   0.000000   0.000000   0.000000
    33  H    0.000003   0.000085   0.000000   0.000000   0.000000   0.000000
    34  H    0.000018  -0.000184   0.000000   0.000000   0.000000   0.000000
    35  H   -0.000190   0.000018   0.000000   0.000000   0.000000   0.000000
    36  H   -0.005557  -0.000185   0.000000   0.000000   0.000000   0.000000
    37  H    0.597943  -0.005715   0.000000   0.000000   0.000000   0.000000
    38  H   -0.005715   0.618195   0.000000   0.000000   0.000000   0.000000
    39  H    0.000000   0.000000   0.523917  -0.004949  -0.000142   0.000014
    40  H    0.000000   0.000000  -0.004949   0.570173  -0.005472  -0.000169
    41  H    0.000000   0.000000  -0.000142  -0.005472   0.572311  -0.005301
    42  H    0.000000   0.000000   0.000014  -0.000169  -0.005301   0.567941
    43  H    0.000000   0.000000  -0.000145   0.000015  -0.000153  -0.005468
              43
     1  O    0.000052
     2  S   -0.002225
     3  N    0.005655
     4  C    0.000137
     5  C   -0.000027
     6  S    0.000042
     7  C   -0.000073
     8  O    0.000001
     9  O    0.000000
    10  C    0.000005
    11  C    0.000000
    12  C    0.000000
    13  C    0.000000
    14  C    0.000000
    15  C    0.000000
    16  C    0.000000
    17  C    0.000000
    18  C   -0.049738
    19  C    0.004668
    20  C    0.000347
    21  C    0.004365
    22  C   -0.037128
    23  C    0.363032
    24  O    0.000831
[...]
    38  H    0.006152   0.000321   0.004809  -0.044627   0.356709   0.000000
    39  H    0.000000   0.000000   0.000000   0.000000   0.000000  -0.044958
    40  H    0.000000   0.000000   0.000000   0.000000   0.000000   0.004946
    41  H    0.000000   0.000000   0.000000   0.000000   0.000000   0.000467
    42  H    0.000000   0.000000   0.000000   0.000000   0.000000   0.004761
    43  H    0.000000   0.000000   0.000000   0.000000   0.000000  -0.050688
              19         20         21         22         23         24
     1  O    0.002097   0.000641  -0.000005  -0.000046   0.001649  -0.040625
     2  S   -0.035360   0.003404  -0.000431   0.002182  -0.021341   0.464030
     3  N    0.001102  -0.000109   0.000011   0.000076   0.000199  -0.056173
     4  C    0.000182   0.000005   0.000001  -0.000001   0.000183   0.001906
     5  C   -0.000001   0.000000   0.000000  -0.000001  -0.000058  -0.000079
     6  S   -0.000021  -0.000006   0.000004   0.000015   0.000286   0.000007
     7  C   -0.002605  -0.000010   0.000018   0.000030  -0.000316  -0.000059
     8  O    0.000002   0.000000   0.000000  -0.000008   0.000038   0.000000
     9  O    0.000000   0.000000   0.000000   0.000000   0.000000   0.000000
    10  C    0.000011   0.000000   0.000000   0.000000   0.000005  -0.000125
    11  C    0.000000   0.000000   0.000000   0.000000   0.000000  -0.000001
    12  C    0.000000   0.000000   0.000000   0.000000   0.000000   0.000000
    13  C    0.000000   0.000000   0.000000   0.000000   0.000000   0.000000
    14  C    0.000000   0.000000   0.000000   0.000000   0.000000   0.000000
    15  C    0.000000   0.000000   0.000000   0.000000   0.000000   0.000000
    16  C    0.000000   0.000000   0.000000   0.000000   0.000000   0.000000
    17  C    0.000000   0.000000   0.000000   0.000000   0.000000   0.000000
    18  C    0.510216  -0.031195  -0.039629  -0.024906   0.465233  -0.063775
    19  C    4.934581   0.503079  -0.029498  -0.039852  -0.031721  -0.001216
    20  C    0.503079   4.882849   0.543452  -0.028960  -0.038166  -0.000050
    21  C   -0.029498   0.543452   4.847961   0.537536  -0.030787  -0.000004
    22  C   -0.039852  -0.028960   0.537536   4.866951   0.525938   0.000107
    23  C   -0.031721  -0.038166  -0.030787   0.525938   4.916342   0.000719
    24  O   -0.001216  -0.000050  -0.000004   0.000107   0.000719   8.231765
    25  H   -0.000046   0.000002   0.000000   0.000003  -0.000122   0.004793
    26  H    0.000000   0.000000   0.000000   0.000000   0.000000   0.000000
    27  H    0.000000   0.000000   0.000000   0.000000   0.000012  -0.000006
    28  H    0.000015  -0.000003   0.000000   0.000000   0.000006   0.000000
    29  H    0.004770  -0.000095  -0.000057  -0.000179  -0.000081  -0.000008
    30  H   -0.000001   0.000000   0.000000   0.000000  -0.000003  -0.000323
    31  H    0.000000   0.000000   0.000000   0.000000   0.000000  -0.000003
    32  H    0.000000   0.000000   0.000000   0.000000   0.000000   0.000000
    33  H    0.000000   0.000000   0.000000   0.000000   0.000000   0.000000
    34  H    0.000000   0.000000   0.000000   0.000000   0.000000   0.000000
    35  H    0.000000   0.000000   0.000000   0.000000   0.000000   0.000000
    36  H    0.000000   0.000000   0.000000   0.000000   0.000000   0.000000
    37  H    0.000000   0.000000   0.000000   0.000000   0.000000   0.000000
    38  H    0.000000   0.000000   0.000000   0.000000   0.000000   0.000000
    39  H    0.361154  -0.034811   0.004195   0.000229   0.004973  -0.000002
    40  H   -0.041990   0.366235  -0.040498   0.004278   0.000673   0.000000
    41  H    0.004807  -0.041083   0.364373  -0.040866   0.004826   0.000000
    42  H    0.000619   0.004315  -0.039963   0.365337  -0.040580   0.000001
    43  H    0.004459   0.000322   0.004283  -0.035126   0.364565   0.000743
              25         26         27         28         29         30
     1  O    0.000261   0.000001   0.000003  -0.000176  -0.001812   0.014006
     2  S   -0.010769  -0.000008   0.000151  -0.000515   0.002254   0.002266
     3  N    0.297594   0.002152  -0.000960   0.002225  -0.004951  -0.002408
     4  C   -0.026294  -0.028421  -0.023456  -0.027871  -0.023657  -0.030342
     5  C   -0.005243   0.338738   0.335647   0.008136   0.006579   0.005079
     6  S   -0.000075  -0.009979  -0.003740  -0.011366  -0.007193  -0.000239
     7  C    0.004889   0.008025   0.006459   0.342499   0.331535  -0.005535
     8  O    0.000005   0.000875  -0.000133   0.000927   0.001071   0.000001
     9  O    0.000001  -0.000831   0.000935  -0.000596   0.000948   0.000002
    10  C   -0.000531  -0.004600   0.002561  -0.005742   0.002080   0.362339
    11  C   -0.000056   0.000116   0.000145   0.000564   0.000203  -0.030613
    12  C   -0.000001  -0.000157   0.000006  -0.000146   0.000004  -0.002900
    13  C    0.000000   0.000001   0.000000   0.000014   0.000000   0.004162
    14  C    0.000000   0.000000   0.000000   0.000000   0.000000  -0.000121
    15  C    0.000000   0.000000   0.000000   0.000000   0.000000  -0.000003
    16  C    0.000000   0.000000   0.000000   0.000000   0.000000  -0.000002
    17  C    0.000000   0.000016   0.000000   0.000000   0.000000   0.000007
    18  C    0.002530   0.000001  -0.000027   0.000089   0.007437   0.000048
    19  C   -0.000046   0.000000   0.000000   0.000015   0.004770  -0.000001
    20  C    0.000002   0.000000   0.000000  -0.000003  -0.000095   0.000000
    21  C    0.000000   0.000000   0.000000   0.000000  -0.000057   0.000000
    22  C    0.000003   0.000000   0.000000   0.000000  -0.000179   0.000000
    23  C   -0.000122   0.000000   0.000012   0.000006  -0.000081  -0.000003
    24  O    0.004793   0.000000  -0.000006   0.000000  -0.000008  -0.000323
    25  H    0.344185   0.000164   0.001128  -0.000091   0.000109  -0.000553
    26  H    0.000164   0.480420  -0.016839  -0.000252  -0.000232   0.000225
    27  H    0.001128  -0.016839   0.469846  -0.000229  -0.000260  -0.000095
    28  H   -0.000091  -0.000252  -0.000229   0.474492  -0.015723   0.001503
    29  H    0.000109  -0.000232  -0.000260  -0.015723   0.470344  -0.000021
    30  H   -0.000553   0.000225  -0.000095   0.001503  -0.000021   0.517218
    31  H    0.004641   0.001702  -0.000007   0.000184  -0.000090  -0.030247
    32  H   -0.000009   0.005408   0.000071   0.000064  -0.000010   0.004705
    33  H    0.000010   0.000041  -0.000013   0.005499   0.000066  -0.004335
    34  H    0.000000   0.000000   0.000000   0.000076   0.000000   0.001203
    35  H    0.000000   0.000000   0.000000   0.000000   0.000000   0.000003
    36  H    0.000000   0.000000   0.000000   0.000000   0.000000   0.000000
    37  H    0.000000   0.000000   0.000000   0.000000   0.000000   0.000000
    38  H    0.000000   0.000111   0.000000   0.000000   0.000000   0.000020
    39  H   -0.000004   0.000000   0.000000   0.000022   0.000066   0.000002
    40  H    0.000000   0.000000   0.000000   0.000000   0.000008   0.000000
    41  H    0.000000   0.000000   0.000000   0.000000   0.000000   0.000000
    42  H    0.000000   0.000000   0.000000   0.000000   0.000001   0.000000
    43  H   -0.000266   0.000000   0.000060   0.000000   0.000031   0.000000
              31         32         33         34         35         36
     1  O    0.000161  -0.000003   0.000012   0.000006   0.000000   0.000000
     2  S    0.000435   0.000003   0.000004   0.000001   0.000000   0.000000
     3  N   -0.002086   0.000007  -0.000007   0.000001   0.000000   0.000000
     4  C   -0.035307  -0.004580  -0.005383  -0.000064   0.000000   0.000000
     5  C   -0.006358   0.001917  -0.000425   0.000000   0.000000   0.000000
     6  S   -0.000056   0.000580   0.000668   0.000000   0.000000   0.000000
     7  C    0.005525  -0.000465   0.002229  -0.000009   0.000000   0.000000
     8  O    0.000001   0.000007   0.000004   0.000000   0.000000   0.000000
     9  O    0.000001   0.001685   0.000956   0.000000   0.000000   0.000000
    10  C    0.361660  -0.038786  -0.040275   0.000196  -0.000001   0.000000
    11  C   -0.036165   0.359840   0.360166  -0.008779  -0.000183   0.000006
    12  C   -0.001466  -0.029194  -0.026155  -0.047536   0.003623   0.000691
    13  C   -0.000135   0.004064  -0.004061   0.358144  -0.038827   0.004652
    14  C   -0.000023  -0.000191   0.000065  -0.044009   0.358933  -0.042395
    15  C   -0.000008   0.000007   0.000015   0.004794  -0.042505   0.361166
    16  C   -0.000117   0.000157  -0.000212   0.000336   0.004494  -0.042569
    17  C    0.003250  -0.003827   0.003149   0.005938   0.000843   0.004662
    18  C    0.000015   0.000000   0.000000   0.000000   0.000000   0.000000
    19  C    0.000000   0.000000   0.000000   0.000000   0.000000   0.000000
    20  C    0.000000   0.000000   0.000000   0.000000   0.000000   0.000000
    21  C    0.000000   0.000000   0.000000   0.000000   0.000000   0.000000
    22  C    0.000000   0.000000   0.000000   0.000000   0.000000   0.000000
    23  C    0.000000   0.000000   0.000000   0.000000   0.000000   0.000000
    24  O   -0.000003   0.000000   0.000000   0.000000   0.000000   0.000000
    25  H    0.004641  -0.000009   0.000010   0.000000   0.000000   0.000000
    26  H    0.001702   0.005408   0.000041   0.000000   0.000000   0.000000
    27  H   -0.000007   0.000071  -0.000013   0.000000   0.000000   0.000000
    28  H    0.000184   0.000064   0.005499   0.000076   0.000000   0.000000
    29  H   -0.000090  -0.000010   0.000066   0.000000   0.000000   0.000000
    30  H   -0.030247   0.004705  -0.004335   0.001203   0.000003   0.000000
    31  H    0.577586  -0.004541   0.005514   0.000056   0.000000   0.000000
    32  H   -0.004541   0.570636  -0.034155   0.000064   0.000003   0.000000
    33  H    0.005514  -0.034155   0.569402   0.004105  -0.000005   0.000000
    34  H    0.000056   0.000064   0.004105   0.595682  -0.005440  -0.000176
    35  H    0.000000   0.000003  -0.000005  -0.005440   0.583100  -0.005328
    36  H    0.000000   0.000000   0.000000  -0.000176  -0.005328   0.584700
    37  H    0.000003  -0.000008   0.000003   0.000018  -0.000183  -0.005374
    38  H    0.000425   0.006068   0.000089  -0.000175   0.000017  -0.000176
    39  H    0.000000   0.000000   0.000000   0.000000   0.000000   0.000000
    40  H    0.000000   0.000000   0.000000   0.000000   0.000000   0.000000
    41  H    0.000000   0.000000   0.000000   0.000000   0.000000   0.000000
    42  H    0.000000   0.000000   0.000000   0.000000   0.000000   0.000000
    43  H    0.000000   0.000000   0.000000   0.000000   0.000000   0.000000
              37         38         39         40         41         42
     1  O    0.000000   0.000000   0.012603   0.000003   0.000000   0.000000
     2  S    0.000000   0.000000  -0.007763  -0.000079   0.000007  -0.000066
     3  N    0.000000   0.000000   0.000257   0.000000   0.000000   0.000000
     4  C    0.000000  -0.000033  -0.000022   0.000000   0.000000   0.000000
     5  C    0.000000  -0.000019   0.000001   0.000000   0.000000   0.000000
     6  S    0.000000  -0.000001   0.000006   0.000000   0.000000   0.000000
     7  C    0.000000   0.000001   0.000054  -0.000002   0.000000   0.000000
     8  O    0.000000   0.000000   0.000000   0.000000   0.000000   0.000000
     9  O    0.000000   0.000000   0.000000   0.000000   0.000000   0.000000
    10  C    0.000000   0.000200   0.000004   0.000000   0.000000   0.000000
    11  C   -0.000185  -0.010004   0.000000   0.000000   0.000000   0.000000
    12  C    0.003724  -0.046071   0.000000   0.000000   0.000000   0.000000
    13  C    0.000829   0.006152   0.000000   0.000000   0.000000   0.000000
    14  C    0.004493   0.000321   0.000000   0.000000   0.000000   0.000000
    15  C   -0.042600   0.004809   0.000000   0.000000   0.000000   0.000000
    16  C    0.358620  -0.044627   0.000000   0.000000   0.000000   0.000000
    17  C   -0.038753   0.356709   0.000000   0.000000   0.000000   0.000000
    18  C    0.000000   0.000000  -0.044958   0.004946   0.000467   0.004761
    19  C    0.000000   0.000000   0.361154  -0.041990   0.004807   0.000619
    20  C    0.000000   0.000000  -0.034811   0.366235  -0.041083   0.004315
    21  C    0.000000   0.000000   0.004195  -0.040498   0.364373  -0.039963
    22  C    0.000000   0.000000   0.000229   0.004278  -0.040866   0.365337
    23  C    0.000000   0.000000   0.004973   0.000673   0.004826  -0.040580
    24  O    0.000000   0.000000  -0.000002   0.000000   0.000000   0.000001
    25  H    0.000000   0.000000  -0.000004   0.000000   0.000000   0.000000
    26  H    0.000000   0.000111   0.000000   0.000000   0.000000   0.000000
    27  H    0.000000   0.000000   0.000000   0.000000   0.000000   0.000000
    28  H    0.000000   0.000000   0.000022   0.000000   0.000000   0.000000
    29  H    0.000000   0.000000   0.000066   0.000008   0.000000   0.000001
    30  H    0.000000   0.000020   0.000002   0.000000   0.000000   0.000000
    31  H    0.000003   0.000425   0.000000   0.000000   0.000000   0.000000
    32  H   -0.000008   0.006068   0.000000   0.000000   0.000000   0.000000
    33  H    0.000003   0.000089   0.000000   0.000000   0.000000   0.000000
    34  H    0.000018  -0.000175   0.000000   0.000000   0.000000   0.000000
    35  H   -0.000183   0.000017   0.000000   0.000000   0.000000   0.000000
    36  H   -0.005374  -0.000176   0.000000   0.000000   0.000000   0.000000
    37  H    0.584017  -0.005439   0.000000   0.000000   0.000000   0.000000
    38  H   -0.005439   0.597964   0.000000   0.000000   0.000000   0.000000
    39  H    0.000000   0.000000   0.522843  -0.004935  -0.000137   0.000013
    40  H    0.000000   0.000000  -0.004935   0.552943  -0.005246  -0.000161
    41  H    0.000000   0.000000  -0.000137  -0.005246   0.554812  -0.005088
    42  H    0.000000   0.000000   0.000013  -0.000161  -0.005088   0.551763
    43  H    0.000000   0.000000  -0.000141   0.000014  -0.000147  -0.005293
              43
     1  O    0.000050
     2  S   -0.001938
     3  N    0.005395
     4  C    0.000125
     5  C   -0.000026
     6  S    0.000042
     7  C   -0.000071
     8  O    0.000001
     9  O    0.000000
    10  C    0.000005
    11  C    0.000000
    12  C    0.000000
    13  C    0.000000
    14  C    0.000000
    15  C    0.000000
    16  C    0.000000
    17  C    0.000000
    18  C   -0.050688
    19  C    0.004459
    20  C    0.000322
    21  C    0.004283
    22  C   -0.035126
    23  C    0.364565
    24  O    0.000743
    25  H   -0.000266
    26  H    0.000000
    27  H    0.000060
    28  H    0.000000
    29  H    0.000031
    30  H    0.000000
    31  H    0.000000
    32  H    0.000000
    33  H    0.000000
    34  H    0.000000
    35  H    0.000000
    36  H    0.000000
    37  H    0.000000
    38  H    0.000000
    39  H   -0.000141
    40  H    0.000014
    41  H   -0.000147
    42  H   -0.005293
    43  H    0.537910
 Mulliken charges:
               1
     1  O   -0.560944
     2  S    1.220625
     3  N   -0.741102
     4  C    0.181150
     5  C   -0.499013
     6  S    1.114894
     7  C   -0.506437
     8  O   -0.528299
     9  O   -0.544387
    10  C   -0.283555
    11  C   -0.385805
    12  C    0.169467
    13  C   -0.185039
    14  C   -0.139236
    15  C   -0.140471
    16  C   -0.138652
    17  C   -0.189152
    18  C   -0.159761
    19  C   -0.144783
    20  C   -0.129814
    21  C   -0.120962
    22  C   -0.132738
    23  C   -0.122472
    24  O   -0.541621
    25  H    0.383748
    26  H    0.223324
    27  H    0.228740
    28  H    0.226396
    29  H    0.226863
    30  H    0.194951
    31  H    0.155451
    32  H    0.160481
    33  H    0.163026
    34  H    0.135565
    35  H    0.141455
    36  H    0.140141
    37  H    0.140837
    38  H    0.133659
    39  H    0.186352
    40  H    0.163809
    41  H    0.163277
    42  H    0.164343
    43  H    0.175689
 Sum of Mulliken charges =   0.00000
 Mulliken charges with hydrogens summed into heavy atoms:
               1
     1  O   -0.560944
     2  S    1.220625
     3  N   -0.357354
     4  C    0.181150
     5  C   -0.046949
     6  S    1.114894
     7  C   -0.053178
     8  O   -0.528299
     9  O   -0.544387
    10  C    0.066847
    11  C   -0.062298
    12  C    0.169467
    13  C   -0.049473
    14  C    0.002219
    15  C   -0.000331
    16  C    0.002185
    17  C   -0.055493
    18  C   -0.159761
    19  C    0.041570
    20  C    0.033995
    21  C    0.042315
    22  C    0.031605
    23  C    0.053217
    24  O   -0.541621
 Electronic spatial extent (au):  <R**2>=          10806.5585
 Charge=              0.0000 electrons
 Dipole moment (field-independent basis, Debye):
    X=              1.1738    Y=             -1.1765    Z=             -1.4512  Tot=              2.2063
 Quadrupole moment (field-independent basis, Debye-Ang):
   XX=           -127.2025   YY=           -190.2446   ZZ=           -140.9841
   XY=              1.2954   XZ=             10.1751   YZ=            -15.6909
 Traceless Quadrupole moment (field-independent basis, Debye-Ang):
   XX=             25.6079   YY=            -37.4342   ZZ=             11.8263
   XY=              1.2954   XZ=             10.1751   YZ=            -15.6909
 Octapole moment (field-independent basis, Debye-Ang**2):
  XXX=            118.7886  YYY=            -50.5701  ZZZ=             -4.7324  XYY=            -38.7914
  XXY=            -30.0762  XXZ=              5.8459  XZZ=             19.9262  YZZ=             10.8513
  YYZ=             -4.5583  XYZ=              0.9897
 Hexadecapole moment (field-independent basis, Debye-Ang**3):
 XXXX=          -9329.7678 YYYY=          -3272.8117 ZZZZ=           -916.1218 XXXY=            225.9529
 XXXZ=            254.3509 YYYX=              6.6657 YYYZ=           -125.8841 ZZZX=             35.4508
 ZZZY=            -35.7007 XXYY=          -2347.5294 XXZZ=          -1816.9449 YYZZ=           -641.3454
 XXYZ=           -141.6913 YYXZ=             27.3646 ZZXY=              9.4502
 N-N= 2.448305852610D+03 E-N=-9.146848021560D+03  KE= 1.798717534822D+03
 No NMR shielding tensors so no spin-rotation constants.
 Leave Link  601 at Sat Aug  8 00:36:24 2020, MaxMem=    33554432 cpu:         0.4
 (Enter /prod/apps/gaussian/g09d1/l9999.exe)
 1\1\GINC-PIRINEUS12\SP\RB3LYP\6-31G(d)\C17H19N1O4S2\UBAFAR01\08-Aug-20
 20\0\\#p b3lyp/6-31G(d) scrf=(iefpcm,read,solvent=n-Octanol) geom=allc
 heck guess=read\\SM39.n.15.pdb.xyz\\0,1\O,0,2.82,-1.346,-1.859\S,0,2.5
 ,-0.546,-0.667\N,0,2.439,1.103,-1.05\C,0,2.363,1.56,-2.451\C,0,1.893,3
 .055,-2.437\S,0,0.375,2.607,-3.351\C,0,1.116,0.947,-3.17\O,0,-0.848,2.
 777,-2.552\O,0,0.406,3.084,-4.743\C,0,3.694,1.349,-3.196\C,0,3.733,1.8
 28,-4.659\C,0,5.092,1.604,-5.283\C,0,5.45,0.352,-5.798\C,0,6.715,0.14,
 -6.347\C,0,7.643,1.182,-6.392\C,0,7.297,2.435,-5.884\C,0,6.031,2.641,-
 5.336\C,0,0.814,-0.938,-0.214\C,0,0.206,-2.037,-0.82\C,0,-1.085,-2.393
 ,-0.427\C,0,-1.744,-1.659,0.558\C,0,-1.118,-0.562,1.161\C,0,0.17,-0.19
 6,0.78\O,0,3.348,-0.616,0.529\H,0,3.179,1.566,-0.522\H,0,2.52,3.745,-2
 .998\H,0,1.663,3.442,-1.444\H,0,1.318,0.477,-4.13\H,0,0.492,0.309,-2.5
 48\H,0,3.923,0.282,-3.151\H,0,4.474,1.871,-2.629\H,0,3.485,2.893,-4.71
 5\H,0,2.97,1.3,-5.241\H,0,4.732,-0.463,-5.772\H,0,6.973,-0.836,-6.745\
 H,0,8.626,1.02,-6.822\H,0,8.009,3.253,-5.92\H,0,5.762,3.62,-4.948\H,0,
 0.74,-2.588,-1.583\H,0,-1.572,-3.243,-0.892\H,0,-2.747,-1.938,0.859\H,
 0,-1.635,0.008,1.925\H,0,0.662,0.655,1.235\\Version=AM64L-G09RevD.01\S
 tate=1-A\HF=-1811.1543815\RMSD=4.269e-09\Dipole=0.1600335,-0.1200146,0
 .844676\Quadrupole=1.4727463,2.0042039,-3.4769502,20.7630028,-16.24812
 28,9.8585874\PG=C01 [X(C17H19N1O4S2)]\\@


 PICNIC:  A SNACK IN THE GRASS.
 Job cpu time:       0 days  0 hours  5 minutes 37.8 seconds.
 File lengths (MBytes):  RWF=    472 Int=      0 D2E=      0 Chk=      9 Scr=      1
 Normal termination of Gaussian 09 at Sat Aug  8 00:36:26 2020.
