 Entering Gaussian System, Link 0=g09
 Initial command:
 /prod/apps/gaussian/g09d1/l1.exe "/tmp/ubafar01/1449033/Gau-107968.inp" -scrdir="/tmp/ubafar01/1449033/"
 Entering Link 1 = /prod/apps/gaussian/g09d1/l1.exe PID=    107969.
  
 Copyright (c) 1988,1990,1992,1993,1995,1998,2003,2009,2013,
            Gaussian, Inc.  All Rights Reserved.
  
 This is part of the Gaussian(R) 09 program.  It is based on
 the Gaussian(R) 03 system (copyright 2003, Gaussian, Inc.),
 the Gaussian(R) 98 system (copyright 1998, Gaussian, Inc.),
 the Gaussian(R) 94 system (copyright 1995, Gaussian, Inc.),
 the Gaussian 92(TM) system (copyright 1992, Gaussian, Inc.),
 the Gaussian 90(TM) system (copyright 1990, Gaussian, Inc.),
 the Gaussian 88(TM) system (copyright 1988, Gaussian, Inc.),
 the Gaussian 86(TM) system (copyright 1986, Carnegie Mellon
 University), and the Gaussian 82(TM) system (copyright 1983,
 Carnegie Mellon University). Gaussian is a federally registered
 trademark of Gaussian, Inc.
  
 This software contains proprietary and confidential information,
 including trade secrets, belonging to Gaussian, Inc.
  
 This software is provided under written license and may be
 used, copied, transmitted, or stored only in accord with that
 written license.
  
 The following legend is applicable only to US Government
 contracts under FAR:
  
                    RESTRICTED RIGHTS LEGEND
  
 Use, reproduction and disclosure by the US Government is
 subject to restrictions as set forth in subparagraphs (a)
 and (c) of the Commercial Computer Software - Restricted
 Rights clause in FAR 52.227-19.
  
 Gaussian, Inc.
 340 Quinnipiac St., Bldg. 40, Wallingford CT 06492
  
  
 ---------------------------------------------------------------
 Warning -- This program may not be used in any manner that
 competes with the business of Gaussian, Inc. or will provide
 assistance to any competitor of Gaussian, Inc.  The licensee
 of this program is prohibited from giving any competitor of
 Gaussian, Inc. access to this program.  By using this program,
 the user acknowledges that Gaussian, Inc. is engaged in the
 business of creating and licensing software in the field of
 computational chemistry and represents and warrants to the
 licensee that it is not a competitor of Gaussian, Inc. and that
 it will not use this program in any manner prohibited above.
 ---------------------------------------------------------------
  

 Cite this work as:
 Gaussian 09, Revision D.01,
 M. J. Frisch, G. W. Trucks, H. B. Schlegel, G. E. Scuseria, 
 M. A. Robb, J. R. Cheeseman, G. Scalmani, V. Barone, B. Mennucci, 
 G. A. Petersson, H. Nakatsuji, M. Caricato, X. Li, H. P. Hratchian, 
 A. F. Izmaylov, J. Bloino, G. Zheng, J. L. Sonnenberg, M. Hada, 
 M. Ehara, K. Toyota, R. Fukuda, J. Hasegawa, M. Ishida, T. Nakajima, 
 Y. Honda, O. Kitao, H. Nakai, T. Vreven, J. A. Montgomery, Jr., 
 J. E. Peralta, F. Ogliaro, M. Bearpark, J. J. Heyd, E. Brothers, 
 K. N. Kudin, V. N. Staroverov, T. Keith, R. Kobayashi, J. Normand, 
 K. Raghavachari, A. Rendell, J. C. Burant, S. S. Iyengar, J. Tomasi, 
 M. Cossi, N. Rega, J. M. Millam, M. Klene, J. E. Knox, J. B. Cross, 
 V. Bakken, C. Adamo, J. Jaramillo, R. Gomperts, R. E. Stratmann, 
 O. Yazyev, A. J. Austin, R. Cammi, C. Pomelli, J. W. Ochterski, 
 R. L. Martin, K. Morokuma, V. G. Zakrzewski, G. A. Voth, 
 P. Salvador, J. J. Dannenberg, S. Dapprich, A. D. Daniels, 
 O. Farkas, J. B. Foresman, J. V. Ortiz, J. Cioslowski, 
 and D. J. Fox, Gaussian, Inc., Wallingford CT, 2013.
 
 ******************************************
 Gaussian 09:  AM64L-G09RevD.01 24-Apr-2013
                 8-Aug-2020 
 ******************************************
 %nproc=1
 Will use up to    1 processors via shared memory.
 %Chk=SM39.n.4.pdb.xyz.mst.n.o.chk
 -----------------
 #p b3lyp/6-31G(d)
 -----------------
 1/38=1/1;
 2/12=2,17=6,18=5,40=1/2;
 3/5=1,6=6,7=1,11=2,16=1,25=1,30=1,74=-5/1,2,3;
 4//1;
 5/5=2,38=5/2;
 6/7=2,8=2,9=2,10=2,28=1/1;
 99/5=1,9=1/99;
 Leave Link    1 at Sat Aug  8 00:26:24 2020, MaxMem=           0 cpu:         0.0
 (Enter /prod/apps/gaussian/g09d1/l101.exe)
 ----------------
 SM39.n.4.pdb.xyz
 ----------------
 Symbolic Z-matrix:
 Charge =  0 Multiplicity = 1
 O                     3.053     0.799     2.095 
 S                     2.124     1.408     1.14 
 N                     2.928     1.277    -0.332 
 C                     2.519     1.786    -1.647 
 C                     2.14      3.305    -1.652 
 S                     0.644     2.94     -2.625 
 C                     1.162     1.237    -2.222 
 O                    -0.607     3.341    -1.959 
 O                     0.832     3.244    -4.056 
 C                     3.662     1.459    -2.63 
 C                     5.076     1.918    -2.224 
 C                     5.314     3.413    -2.216 
 C                     5.526     4.09     -1.009 
 C                     5.749     5.467    -0.987 
 C                     5.766     6.191    -2.18 
 C                     5.564     5.527    -3.392 
 C                     5.345     4.149    -3.409 
 C                     0.647     0.395     1.118 
 C                     0.759    -0.97      1.394 
 C                    -0.391    -1.756     1.37 
 C                    -1.629    -1.179     1.076 
 C                    -1.727     0.189     0.811 
 C                    -0.584     0.989     0.832 
 O                     1.691     2.802     1.277 
 H                     3.397     0.374    -0.374 
 H                     2.84      3.959    -2.164 
 H                     1.873     3.694    -0.67 
 H                     1.242     0.587    -3.093 
 H                     0.496     0.808    -1.475 
 H                     3.388     1.883    -3.601 
 H                     3.679     0.371    -2.766 
 H                     5.772     1.445    -2.925 
 H                     5.309     1.52     -1.233 
 H                     5.51      3.526    -0.082 
 H                     5.909     5.973    -0.041 
 H                     5.938     7.262    -2.167 
 H                     5.584     6.08     -4.326 
 H                     5.199     3.641    -4.357 
 H                     1.724    -1.396     1.641 
 H                    -0.322    -2.816     1.586 
 H                    -2.52     -1.796     1.06 
 H                    -2.69      0.636     0.593 
 H                    -0.638     2.053     0.637 
 
 NAtoms=     43 NQM=       43 NQMF=       0 NMMI=      0 NMMIF=      0
                NMic=       0 NMicF=      0.
                    Isotopes and Nuclear Properties:
 (Nuclear quadrupole moments (NQMom) in fm**2, nuclear magnetic moments (NMagM)
  in nuclear magnetons)

  Atom         1           2           3           4           5           6           7           8           9          10
 IAtWgt=          16          32          14          12          12          32          12          16          16          12
 AtmWgt=  15.9949146  31.9720718  14.0030740  12.0000000  12.0000000  31.9720718  12.0000000  15.9949146  15.9949146  12.0000000
 NucSpn=           0           0           2           0           0           0           0           0           0           0
 AtZEff=   0.0000000   0.0000000   0.0000000   0.0000000   0.0000000   0.0000000   0.0000000   0.0000000   0.0000000   0.0000000
 NQMom=    0.0000000   0.0000000   2.0440000   0.0000000   0.0000000   0.0000000   0.0000000   0.0000000   0.0000000   0.0000000
 NMagM=    0.0000000   0.0000000   0.4037610   0.0000000   0.0000000   0.0000000   0.0000000   0.0000000   0.0000000   0.0000000
 AtZNuc=   8.0000000  16.0000000   7.0000000   6.0000000   6.0000000  16.0000000   6.0000000   8.0000000   8.0000000   6.0000000

  Atom        11          12          13          14          15          16          17          18          19          20
 IAtWgt=          12          12          12          12          12          12          12          12          12          12
 AtmWgt=  12.0000000  12.0000000  12.0000000  12.0000000  12.0000000  12.0000000  12.0000000  12.0000000  12.0000000  12.0000000
 NucSpn=           0           0           0           0           0           0           0           0           0           0
 AtZEff=   0.0000000   0.0000000   0.0000000   0.0000000   0.0000000   0.0000000   0.0000000   0.0000000   0.0000000   0.0000000
 NQMom=    0.0000000   0.0000000   0.0000000   0.0000000   0.0000000   0.0000000   0.0000000   0.0000000   0.0000000   0.0000000
 NMagM=    0.0000000   0.0000000   0.0000000   0.0000000   0.0000000   0.0000000   0.0000000   0.0000000   0.0000000   0.0000000
 AtZNuc=   6.0000000   6.0000000   6.0000000   6.0000000   6.0000000   6.0000000   6.0000000   6.0000000   6.0000000   6.0000000

  Atom        21          22          23          24          25          26          27          28          29          30
 IAtWgt=          12          12          12          16           1           1           1           1           1           1
 AtmWgt=  12.0000000  12.0000000  12.0000000  15.9949146   1.0078250   1.0078250   1.0078250   1.0078250   1.0078250   1.0078250
 NucSpn=           0           0           0           0           1           1           1           1           1           1
 AtZEff=   0.0000000   0.0000000   0.0000000   0.0000000   0.0000000   0.0000000   0.0000000   0.0000000   0.0000000   0.0000000
 NQMom=    0.0000000   0.0000000   0.0000000   0.0000000   0.0000000   0.0000000   0.0000000   0.0000000   0.0000000   0.0000000
 NMagM=    0.0000000   0.0000000   0.0000000   0.0000000   2.7928460   2.7928460   2.7928460   2.7928460   2.7928460   2.7928460
 AtZNuc=   6.0000000   6.0000000   6.0000000   8.0000000   1.0000000   1.0000000   1.0000000   1.0000000   1.0000000   1.0000000

  Atom        31          32          33          34          35          36          37          38          39          40
 IAtWgt=           1           1           1           1           1           1           1           1           1           1
 AtmWgt=   1.0078250   1.0078250   1.0078250   1.0078250   1.0078250   1.0078250   1.0078250   1.0078250   1.0078250   1.0078250
 NucSpn=           1           1           1           1           1           1           1           1           1           1
 AtZEff=   0.0000000   0.0000000   0.0000000   0.0000000   0.0000000   0.0000000   0.0000000   0.0000000   0.0000000   0.0000000
 NQMom=    0.0000000   0.0000000   0.0000000   0.0000000   0.0000000   0.0000000   0.0000000   0.0000000   0.0000000   0.0000000
 NMagM=    2.7928460   2.7928460   2.7928460   2.7928460   2.7928460   2.7928460   2.7928460   2.7928460   2.7928460   2.7928460
 AtZNuc=   1.0000000   1.0000000   1.0000000   1.0000000   1.0000000   1.0000000   1.0000000   1.0000000   1.0000000   1.0000000

  Atom        41          42          43
 IAtWgt=           1           1           1
 AtmWgt=   1.0078250   1.0078250   1.0078250
 NucSpn=           1           1           1
 AtZEff=   0.0000000   0.0000000   0.0000000
 NQMom=    0.0000000   0.0000000   0.0000000
 NMagM=    2.7928460   2.7928460   2.7928460
 AtZNuc=   1.0000000   1.0000000   1.0000000
 Leave Link  101 at Sat Aug  8 00:26:24 2020, MaxMem=    33554432 cpu:         0.1
 (Enter /prod/apps/gaussian/g09d1/l202.exe)
                          Input orientation:                          
 ---------------------------------------------------------------------
 Center     Atomic      Atomic             Coordinates (Angstroms)
 Number     Number       Type             X           Y           Z
 ---------------------------------------------------------------------
      1          8           0        3.053000    0.799000    2.095000
      2         16           0        2.124000    1.408000    1.140000
      3          7           0        2.928000    1.277000   -0.332000
      4          6           0        2.519000    1.786000   -1.647000
      5          6           0        2.140000    3.305000   -1.652000
      6         16           0        0.644000    2.940000   -2.625000
      7          6           0        1.162000    1.237000   -2.222000
      8          8           0       -0.607000    3.341000   -1.959000
      9          8           0        0.832000    3.244000   -4.056000
     10          6           0        3.662000    1.459000   -2.630000
     11          6           0        5.076000    1.918000   -2.224000
     12          6           0        5.314000    3.413000   -2.216000
     13          6           0        5.526000    4.090000   -1.009000
     14          6           0        5.749000    5.467000   -0.987000
     15          6           0        5.766000    6.191000   -2.180000
     16          6           0        5.564000    5.527000   -3.392000
     17          6           0        5.345000    4.149000   -3.409000
     18          6           0        0.647000    0.395000    1.118000
     19          6           0        0.759000   -0.970000    1.394000
     20          6           0       -0.391000   -1.756000    1.370000
     21          6           0       -1.629000   -1.179000    1.076000
     22          6           0       -1.727000    0.189000    0.811000
     23          6           0       -0.584000    0.989000    0.832000
     24          8           0        1.691000    2.802000    1.277000
     25          1           0        3.397000    0.374000   -0.374000
     26          1           0        2.840000    3.959000   -2.164000
     27          1           0        1.873000    3.694000   -0.670000
     28          1           0        1.242000    0.587000   -3.093000
     29          1           0        0.496000    0.808000   -1.475000
     30          1           0        3.388000    1.883000   -3.601000
     31          1           0        3.679000    0.371000   -2.766000
     32          1           0        5.772000    1.445000   -2.925000
     33          1           0        5.309000    1.520000   -1.233000
     34          1           0        5.510000    3.526000   -0.082000
     35          1           0        5.909000    5.973000   -0.041000
     36          1           0        5.938000    7.262000   -2.167000
     37          1           0        5.584000    6.080000   -4.326000
     38          1           0        5.199000    3.641000   -4.357000
     39          1           0        1.724000   -1.396000    1.641000
     40          1           0       -0.322000   -2.816000    1.586000
     41          1           0       -2.520000   -1.796000    1.060000
     42          1           0       -2.690000    0.636000    0.593000
     43          1           0       -0.638000    2.053000    0.637000
 ---------------------------------------------------------------------
                    Distance matrix (angstroms):
                    1          2          3          4          5
     1  O    0.000000
     2  S    1.464905   0.000000
     3  N    2.476780   1.682368   0.000000
     4  C    3.906647   2.840119   1.468192   0.000000
     5  C    4.599306   3.375519   2.544824   1.565576   0.000000
     6  S    5.715379   4.325812   3.638691   2.409113   1.821530
     7  C    4.733309   3.501104   2.586978   1.572729   2.357543
     8  O    6.024307   4.560554   4.404935   3.505317   2.764336
     9  O    6.981810   5.660263   4.704305   3.282532   2.737481
    10  C    4.809585   4.071971   2.419232   1.542617   2.584702
    11  C    4.898821   4.504542   2.933334   2.624615   3.297127
    12  C    5.525381   5.045677   3.715501   3.283735   3.225529
    13  C    5.155698   4.835797   3.888560   3.841550   3.534780
    14  C    6.209458   5.842965   5.093443   4.941484   4.259266
    15  C    7.396598   6.867580   5.967977   5.498284   4.664296
    16  C    7.665916   7.024157   5.862985   5.129535   4.437191
    17  C    6.838843   6.211387   4.853679   4.083465   3.751188
    18  C    2.628037   1.791140   2.843129   3.617249   4.286030
    19  C    2.980469   2.753657   3.568283   4.465514   5.427790
    20  C    4.349113   4.048336   4.807458   5.487819   6.414995
    21  C    5.183818   4.558692   5.364760   5.780299   6.461703
    22  C    4.986898   4.052703   4.915203   5.159524   5.543421
    23  C    3.854742   2.757479   3.711062   4.050834   4.353652
    24  O    2.556595   1.466115   2.538636   3.204312   3.005603
    25  H    2.528818   2.232013   1.018398   2.094077   3.435709
    26  H    5.307547   4.235171   3.249168   2.256603   1.086214
    27  H    4.173566   2.926585   2.658789   2.238819   1.089465
    28  H    5.499092   4.401165   3.307842   2.271397   3.204748
    29  H    4.391267   3.138249   2.727826   2.253574   2.994841
    30  H    5.807900   4.929544   3.356367   2.140721   2.716282
    31  H    4.919795   4.330154   2.703552   2.144758   3.495407
    32  H    5.745492   5.462005   3.852299   3.511634   4.274524
    33  H    4.084723   3.973399   2.557345   2.833064   3.661195
    34  H    4.267635   4.176626   3.433253   3.797750   3.724331
    35  H    6.284068   6.046504   5.569871   5.621593   4.890696
    36  H    8.261854   7.729952   6.946046   6.476615   5.508891
    37  H    8.690464   7.979746   6.787870   5.916900   5.168369
    38  H    7.369571   6.682733   5.191008   4.238812   4.097243
    39  H    2.605836   2.876355   3.533734   4.644146   5.754677
    40  H    4.971713   4.901429   5.567214   6.300950   7.349335
    41  H    6.234066   5.642584   6.407940   6.749081   7.422314
    42  H    5.938402   4.906097   5.729610   5.785653   5.957557
    43  H    4.161942   2.880569   3.775910   3.905713   3.811077
                    6          7          8          9         10
     6  S    0.000000
     7  C    1.825087   0.000000
     8  O    1.472874   2.761403   0.000000
     9  O    1.474965   2.738705   2.545101   0.000000
    10  C    3.361802   2.542784   4.713441   3.637114   0.000000
    11  C    4.565951   3.972803   5.864439   4.808954   1.541075
    12  C    4.711678   4.687656   5.927012   4.847936   2.592029
    13  C    5.269524   5.353081   6.251175   5.659820   3.608919
    14  C    5.927040   6.360715   6.772252   6.207848   4.808231
    15  C    6.082920   6.763187   6.984731   6.045539   5.198186
    16  C    5.611351   6.257044   6.701741   5.295735   4.554873
    17  C    4.916883   5.233183   6.179132   4.648097   3.267328
    18  C    4.526266   3.482785   4.440649   5.909425   4.926441
    19  C    5.608359   4.255433   5.629679   6.889530   5.524493
    20  C    6.251693   4.926695   6.091659   7.479118   6.539345
    21  C    5.985824   4.950105   5.539504   7.208112   6.977690
    22  C    4.999574   4.317837   4.343087   6.290405   6.518796
    23  C    4.155145   3.526604   3.649947   5.566204   5.498623
    24  O    4.042383   3.869376   4.005374   5.419791   4.577460
    25  H    4.385244   3.025739   5.229467   5.326655   2.517337
    26  H    2.464406   3.198176   3.507956   2.850079   2.672609
    27  H    2.429194   2.991835   2.817185   3.570879   3.469488
    28  H    2.472496   1.089744   3.505606   2.855717   2.613647
    29  H    2.426897   1.088855   2.804809   3.564906   3.432402
    30  H    3.098284   2.697042   4.558723   2.931294   1.094392
    31  H    3.978802   2.716833   5.276547   4.245426   1.096599
    32  H    5.349898   4.667930   6.724553   5.377654   2.130568
    33  H    5.071123   4.272683   6.232349   5.566420   2.160541
    34  H    5.521612   5.359499   6.401175   6.144582   3.765620
    35  H    6.602755   7.051274   7.284532   7.024500   5.668168
    36  H    6.849517   7.688552   7.632466   6.766379   6.250548
    37  H    6.095621   6.887347   7.171701   5.540514   5.284330
    38  H    4.923337   5.160892   6.288882   4.395327   3.178997
    39  H    6.177868   4.708641   6.390049   7.401424   5.490748
    40  H    7.197028   5.755860   7.110337   8.359873   7.205729
    41  H    6.783791   5.790314   6.258011   7.925337   7.901155
    42  H    5.174891   4.808672   4.262466   6.389002   7.170283
    43  H    3.615375   3.475592   2.898124   5.060003   5.432874
                   11         12         13         14         15
    11  C    0.000000
    12  C    1.513847   0.000000
    13  C    2.529093   1.400044   0.000000
    14  C    3.818180   2.432814   1.395114   0.000000
    15  C    4.328575   2.814762   2.417239   1.395605   0.000000
    16  C    3.824559   2.431969   2.783002   2.412851   1.396655
    17  C    2.540462   1.402108   2.407539   2.786830   2.420216
    18  C    5.753654   6.481109   6.479336   7.495773   8.406818
    19  C    6.329847   7.279479   7.355426   8.485531   9.440521
    20  C    7.503546   8.492643   8.651372   9.768663  10.661424
    21  C    8.089403   8.951479   9.127081  10.142000  10.936382
    22  C    7.647318   8.314601   8.434228   9.326342  10.055602
    23  C    6.499060   7.067707   7.094898   7.966689   8.743881
    24  O    4.949412   5.069566   4.646716   5.356798   6.327859
    25  H    2.936916   4.037744   4.329494   5.643255   6.535387
    26  H    3.028032   2.534067   2.926736   3.481619   3.680157
    27  H    3.978480   3.782798   3.690006   4.274037   4.865240
    28  H    4.150455   5.033546   5.913267   6.968693   7.259818
    29  H    4.771740   5.527045   6.024083   7.038354   7.566149
    30  H    2.178692   2.822871   4.019995   5.025174   5.121815
    31  H    2.153737   3.497069   4.508816   5.780913   6.210585
    32  H    1.095238   2.141371   3.275301   4.464623   4.804121
    33  H    1.093057   2.133017   2.588854   3.979061   4.787891
    34  H    2.713334   2.145959   1.085210   2.154908   3.401377
    35  H    4.680000   3.411488   2.151605   1.084690   2.154830
    36  H    5.413375   3.899561   3.401807   2.156420   1.084801
    37  H    4.690278   3.411435   3.868585   3.398811   2.156562
    38  H    2.744731   2.156175   3.393764   3.872167   3.400488
    39  H    6.095632   7.133795   7.181497   8.379008   9.407464
    40  H    8.128054   9.220637   9.414136  10.587042  11.505327
    41  H    9.070704   9.961798  10.181546  11.194541  11.956068
    42  H    8.360010   8.925594   9.055340   9.851481  10.490543
    43  H    6.391662   6.739103   6.697282   7.422031   8.128330
                   16         17         18         19         20
    16  C    0.000000
    17  C    1.395397   0.000000
    18  C    8.417506   7.527114   0.000000
    19  C    9.391743   8.384770   1.397120   0.000000
    20  C   10.544229   9.518906   2.401614   1.393152   0.000000
    21  C   10.801514   9.855937   2.767565   2.418129   1.397143
    22  C    9.965848   9.138008   2.402615   2.804169   2.424954
    23  C    8.731181   7.945107   1.396421   2.440732   2.803876
    24  O    6.650212   6.093006   2.628472   3.887197   5.011860
    25  H    6.352765   5.220781   3.128739   3.448363   4.682668
    26  H    3.374431   2.803774   5.318164   6.425338   7.455853
    27  H    4.938892   4.445664   3.947584   5.220535   6.244181
    28  H    6.570592   5.442638   4.257160   4.773961   5.298557
    29  H    7.185296   6.198019   2.630023   3.385501   3.931271
    30  H    4.249399   3.000245   5.656517   6.324656   7.227310
    31  H    5.525345   4.178790   4.927378   5.256451   6.180253
    32  H    4.113888   2.779964   6.611654   7.043874   8.165537
    33  H    4.558767   3.412904   5.341074   5.814097   7.070911
    34  H    3.868206   3.388847   5.906939   6.705564   8.051685
    35  H    3.398109   3.871498   7.755386   8.762818  10.070668
    36  H    2.156554   3.403672   9.270469  10.357055  11.571125
    37  H    1.085617   2.150993   9.291412  10.281125  11.381913
    38  H    2.149755   1.085396   7.825142   8.605168   9.652680
    39  H    9.381078   8.328335   2.154330   1.083379   2.162468
    40  H   11.359187  10.275025   3.386518   2.147822   1.083982
    41  H   11.781243  10.824658   3.851459   3.397892   2.151823
    42  H   10.388966   9.639419   3.386632   3.887986   3.407462
    43  H    8.171066   7.520613   2.152104   3.415141   3.886744
                   21         22         23         24         25
    21  C    0.000000
    22  C    1.396873   0.000000
    23  C    2.419046   1.395310   0.000000
    24  O    5.187597   4.327545   2.942893   0.000000
    25  H    5.456646   5.262492   4.204881   3.395795   0.000000
    26  H    7.541128   6.627293   5.433295   3.807799   4.045562
    27  H    6.249692   5.238166   3.950934   2.149325   3.665050
    28  H    5.361153   4.920831   4.347586   4.919830   3.475968
    29  H    3.869289   3.248182   2.553705   3.602439   3.133107
    30  H    7.511356   6.964094   6.018929   5.245880   3.562400
    31  H    6.733374   6.484820   5.612548   5.119351   2.408567
    32  H    8.812955   8.471731   7.397413   6.012721   3.646268
    33  H    7.794352   7.446797   6.266868   4.586235   2.388920
    34  H    8.628054   8.019176   6.663978   4.117744   3.805934
    35  H   10.450849   9.617123   8.231733   5.439107   6.145717
    36  H   11.790972  10.846568   9.533153   7.056185   7.557518
    37  H   11.571606  10.702494   9.516694   7.569303   7.277342
    38  H    9.968524   9.305590   8.209867   6.689689   5.457544
    39  H    3.407187   3.887226   3.416075   4.213881   3.161021
    40  H    2.155949   3.406564   3.887825   5.975749   5.277183
    41  H    1.083894   2.151993   3.399457   6.238687   6.463447
    42  H    2.157136   1.083837   2.148713   4.934833   6.168898
    43  H    3.408904   2.165801   1.083068   2.528802   4.485798
                   26         27         28         29         30
    26  H    0.000000
    27  H    1.799264   0.000000
    28  H    3.845391   3.990306   0.000000
    29  H    3.987212   3.297446   1.795350   0.000000
    30  H    2.583612   3.763736   2.557928   3.746887   0.000000
    31  H    3.733640   4.324024   2.468310   3.462534   1.751585
    32  H    3.936488   5.034404   4.613598   5.508579   2.516401
    33  H    3.593250   4.104795   4.568433   4.871394   3.070738
    34  H    3.413373   3.688053   5.993302   5.870960   4.425573
    35  H    4.240529   4.677476   7.752715   7.618015   5.979728
    36  H    4.528512   5.612117   8.213740   8.470439   6.123112
    37  H    4.086860   5.729821   7.109592   7.861929   4.791957
    38  H    3.236550   4.965788   5.155818   6.200808   2.634734
    39  H    6.663295   5.592050   5.155130   4.009371   6.403070
    40  H    8.364291   7.231021   5.993292   4.813753   7.921469
    41  H    8.499635   7.240956   6.089232   4.722637   8.376421
    42  H    7.016002   5.636267   5.389770   3.802210   7.489107
    43  H    4.855401   3.272041   4.426788   2.701208   5.847924
                   31         32         33         34         35
    31  H    0.000000
    32  H    2.357839   0.000000
    33  H    2.515391   1.755807   0.000000
    34  H    4.528846   3.532967   2.321473   0.000000
    35  H    6.616716   5.370196   4.648664   2.479655   0.000000
    36  H    7.276521   5.868527   5.851373   4.299780   2.486411
    37  H    6.217339   4.845758   5.516872   4.953779   4.298639
    38  H    3.941393   2.683537   3.777581   4.287840   4.956832
    39  H    5.134780   6.730969   5.441981   6.444269   8.639763
    40  H    6.716016   8.697245   7.645640   8.775843  10.895825
    41  H    7.600116   9.754054   8.806074   9.700966  11.515972
    42  H    7.205364   9.199796   8.252256   8.720535  10.140430
    43  H    5.748567   7.358370   6.256820   6.362751   7.660894
                   36         37         38         39         40
    36  H    0.000000
    37  H    2.486709   0.000000
    38  H    4.295796   2.469394   0.000000
    39  H   10.354691  10.314808   8.568722   0.000000
    40  H   12.443420  12.205384  10.367909   2.491092   0.000000
    41  H   12.806196  12.518594  10.885211   4.302220   2.479573
    42  H   11.223362  11.058606   9.786156   4.970988   4.302299
    43  H    8.845331   8.919719   7.844256   4.299147   4.970676
                   41         42         43
    41  H    0.000000
    42  H    2.482260   0.000000
    43  H    4.305305   2.494099   0.000000
 Stoichiometry    C17H19NO4S2
 Framework group  C1[X(C17H19NO4S2)]
 Deg. of freedom   123
 Full point group                 C1      NOp   1
 Largest Abelian subgroup         C1      NOp   1
 Largest concise Abelian subgroup C1      NOp   1
                         Standard orientation:                         
 ---------------------------------------------------------------------
 Center     Atomic      Atomic             Coordinates (Angstroms)
 Number     Number       Type             X           Y           Z
 ---------------------------------------------------------------------
      1          8           0        1.566090   -3.003205   -0.232815
      2         16           0        1.409832   -1.575088   -0.519191
      3          7           0        0.295350   -1.060833    0.631388
      4          6           0       -0.311183    0.266890    0.789054
      5          6           0       -0.957402    0.831222   -0.520509
      6         16           0       -0.162701    2.444440   -0.230774
      7          6           0        0.674572    1.462124    1.059563
      8          8           0        0.737196    2.864187   -1.318596
      9          8           0       -1.101464    3.422511    0.350278
     10          6           0       -1.322116    0.163378    1.949643
     11          6           0       -2.367641   -0.965042    1.857665
     12          6           0       -3.409772   -0.819972    0.769249
     13          6           0       -3.420439   -1.696406   -0.322480
     14          6           0       -4.376404   -1.575895   -1.331414
     15          6           0       -5.343491   -0.572148   -1.261070
     16          6           0       -5.349471    0.304024   -0.173444
     17          6           0       -4.393401    0.177052    0.834991
     18          6           0        2.995469   -0.797922   -0.219271
     19          6           0        3.850154   -1.352175    0.736900
     20          6           0        5.080090   -0.741521    0.971915
     21          6           0        5.442998    0.402868    0.257298
     22          6           0        4.581959    0.940563   -0.702259
     23          6           0        3.347126    0.339557   -0.948976
     24          8           0        0.936745   -1.104094   -1.824506
     25          1           0        0.495391   -1.523580    1.516251
     26          1           0       -2.042609    0.877933   -0.522834
     27          1           0       -0.574058    0.373335   -1.431728
     28          1           0        0.620843    1.908526    2.052226
     29          1           0        1.707424    1.268689    0.774248
     30          1           0       -1.817372    1.135283    2.038043
     31          1           0       -0.749393    0.027501    2.874876
     32          1           0       -2.866285   -1.009956    2.831771
     33          1           0       -1.851312   -1.919223    1.724557
     34          1           0       -2.666253   -2.474813   -0.376973
     35          1           0       -4.366043   -2.263823   -2.169984
     36          1           0       -6.087862   -0.474484   -2.044121
     37          1           0       -6.102931    1.082629   -0.105334
     38          1           0       -4.412897    0.856835    1.680922
     39          1           0        3.561079   -2.252274    1.266019
     40          1           0        5.756654   -1.161348    1.707459
     41          1           0        6.401827    0.872461    0.444266
     42          1           0        4.870060    1.822607   -1.262346
     43          1           0        2.667359    0.735114   -1.693616
 ---------------------------------------------------------------------
 Rotational constants (GHZ):      0.3770893      0.1388791      0.1185680
 Leave Link  202 at Sat Aug  8 00:26:24 2020, MaxMem=    33554432 cpu:         0.0
 (Enter /prod/apps/gaussian/g09d1/l301.exe)
 Standard basis: 6-31G(d) (6D, 7F)
 Ernie: Thresh=  0.10000D-02 Tol=  0.10000D-05 Strict=F.
 There are   406 symmetry adapted cartesian basis functions of A   symmetry.
 There are   406 symmetry adapted basis functions of A   symmetry.
   406 basis functions,   796 primitive gaussians,   406 cartesian basis functions
    96 alpha electrons       96 beta electrons
       nuclear repulsion energy      2529.3840499627 Hartrees.
 IExCor=  402 DFT=T Ex+Corr=B3LYP ExCW=0 ScaHFX=  0.200000
 ScaDFX=  0.800000  0.720000  1.000000  0.810000 ScalE2=  1.000000  1.000000
 IRadAn=      0 IRanWt=     -1 IRanGd=            0 ICorTp=0 IEmpDi=  4
 NAtoms=   43 NActive=   43 NUniq=   43 SFac= 1.00D+00 NAtFMM=   60 NAOKFM=F Big=F
 Integral buffers will be    131072 words long.
 Raffenetti 2 integral format.
 Two-electron integral symmetry is turned on.
 Leave Link  301 at Sat Aug  8 00:26:24 2020, MaxMem=    33554432 cpu:         0.0
 (Enter /prod/apps/gaussian/g09d1/l302.exe)
 NPDir=0 NMtPBC=     1 NCelOv=     1 NCel=       1 NClECP=     1 NCelD=      1
         NCelK=      1 NCelE2=     1 NClLst=     1 CellRange=     0.0.
 One-electron integrals computed using PRISM.
 NBasis=   406 RedAO= T EigKep=  4.68D-04  NBF=   406
 NBsUse=   406 1.00D-06 EigRej= -1.00D+00 NBFU=   406
 Precomputing XC quadrature grid using
 IXCGrd= 4 IRadAn=           0 IRanWt=          -1 IRanGd=           0 AccXCQ= 0.00D+00.
 Generated NRdTot=       0 NPtTot=           0 NUsed=           0 NTot=          32
 NSgBfM=   399   399   399   400   400 MxSgAt=    43 MxSgA2=    43.
 Leave Link  302 at Sat Aug  8 00:26:25 2020, MaxMem=    33554432 cpu:         1.5
 (Enter /prod/apps/gaussian/g09d1/l303.exe)
 DipDrv:  MaxL=1.
 Leave Link  303 at Sat Aug  8 00:26:26 2020, MaxMem=    33554432 cpu:         0.1
 (Enter /prod/apps/gaussian/g09d1/l401.exe)
 ExpMin= 1.17D-01 ExpMax= 2.19D+04 ExpMxC= 3.30D+03 IAcc=1 IRadAn=         1 AccDes= 0.00D+00
 Harris functional with IExCor=  402 and IRadAn=       1 diagonalized for initial guess.
 HarFok:  IExCor=  402 AccDes= 0.00D+00 IRadAn=         1 IDoV= 1 UseB2=F ITyADJ=14
 ICtDFT=  3500011 ScaDFX=  1.000000  1.000000  1.000000  1.000000
 FoFCou: FMM=F IPFlag=           0 FMFlag=      100000 FMFlg1=           0
         NFxFlg=           0 DoJE=T BraDBF=F KetDBF=T FulRan=T
         wScrn=  0.000000 ICntrl=     500 IOpCl=  0 I1Cent=   200000004 NGrid=           0
         NMat0=    1 NMatS0=      1 NMatT0=    0 NMatD0=    1 NMtDS0=    0 NMtDT0=    0
 Petite list used in FoFCou.
 Harris En= -1811.22766852720    
 JPrj=0 DoOrth=F DoCkMO=F.
 Leave Link  401 at Sat Aug  8 00:26:32 2020, MaxMem=    33554432 cpu:         6.7
 (Enter /prod/apps/gaussian/g09d1/l502.exe)
 Closed shell SCF:
 Using DIIS extrapolation, IDIIS=  1040.
 Integral symmetry usage will be decided dynamically.
 IVT=      518558 IEndB=      518558 NGot=    33554432 MDV=    33217757
 LenX=    33217757 LenY=    33052480
 Requested convergence on RMS density matrix=1.00D-08 within 128 cycles.
 Requested convergence on MAX density matrix=1.00D-06.
 Requested convergence on             energy=1.00D-06.
 No special actions if energy rises.
 Fock matrices will be formed incrementally for  20 cycles.
 Integral accuracy reduced to 1.0D-05 until final iterations.

 Cycle   1  Pass 0  IDiag  1:
 FoFJK:  IHMeth= 1 ICntrl=       0 DoSepK=F KAlg= 0 I1Cent=   0 FoldK=F
 IRaf= 730000000 NMat=   1 IRICut=       1 DoRegI=T DoRafI=F ISym2E= 0.
 FoFCou: FMM=F IPFlag=           0 FMFlag=      100000 FMFlg1=           0
         NFxFlg=           0 DoJE=F BraDBF=F KetDBF=F FulRan=T
         wScrn=  0.000000 ICntrl=       0 IOpCl=  0 I1Cent=           0 NGrid=           0
         NMat0=    1 NMatS0=      1 NMatT0=    0 NMatD0=    1 NMtDS0=    0 NMtDT0=    0
 Symmetry not used in FoFCou.
 E= -1810.23254250135    
 DIIS: error= 2.88D-02 at cycle   1 NSaved=   1.
 NSaved= 1 IEnMin= 1 EnMin= -1810.23254250135     IErMin= 1 ErrMin= 2.88D-02
 ErrMax= 2.88D-02  0.00D+00 EMaxC= 1.00D-01 BMatC= 1.02D+00 BMatP= 1.02D+00
 IDIUse=3 WtCom= 7.12D-01 WtEn= 2.88D-01
 Coeff-Com:  0.100D+01
 Coeff-En:   0.100D+01
 Coeff:      0.100D+01
 Gap=     0.282 Goal=   None    Shift=    0.000
 GapD=    0.282 DampG=1.000 DampE=0.500 DampFc=0.5000 IDamp=-1.
 Damping current iteration by 5.00D-01
 RMSDP=6.62D-03 MaxDP=5.84D-01              OVMax= 2.38D-01

 Cycle   2  Pass 0  IDiag  1:
 RMSU=  3.31D-03    CP:  9.97D-01
 E= -1810.40707375255     Delta-E=       -0.174531251204 Rises=F Damp=T
 DIIS: error= 1.47D-02 at cycle   2 NSaved=   2.
 NSaved= 2 IEnMin= 2 EnMin= -1810.40707375255     IErMin= 2 ErrMin= 1.47D-02
 ErrMax= 1.47D-02  0.00D+00 EMaxC= 1.00D-01 BMatC= 1.90D-01 BMatP= 1.02D+00
 IDIUse=3 WtCom= 8.53D-01 WtEn= 1.47D-01
 Coeff-Com:  0.256D+00 0.744D+00
 Coeff-En:   0.403D+00 0.597D+00
 Coeff:      0.278D+00 0.722D+00
 Gap=     0.236 Goal=   None    Shift=    0.000
 RMSDP=2.05D-03 MaxDP=1.42D-01 DE=-1.75D-01 OVMax= 1.88D-01

 Cycle   3  Pass 0  IDiag  1:
 RMSU=  1.61D-03    CP:  9.86D-01  6.21D-01
 E= -1811.01299423813     Delta-E=       -0.605920485576 Rises=F Damp=F
 DIIS: error= 9.17D-03 at cycle   3 NSaved=   3.
 NSaved= 3 IEnMin= 3 EnMin= -1811.01299423813     IErMin= 3 ErrMin= 9.17D-03
 ErrMax= 9.17D-03  0.00D+00 EMaxC= 1.00D-01 BMatC= 1.10D-01 BMatP= 1.90D-01
 IDIUse=3 WtCom= 9.08D-01 WtEn= 9.17D-02
 Coeff-Com:  0.986D-01 0.437D+00 0.464D+00
 Coeff-En:   0.000D+00 0.000D+00 0.100D+01
 Coeff:      0.896D-01 0.397D+00 0.513D+00
 Gap=     0.200 Goal=   None    Shift=    0.000
 RMSDP=1.23D-03 MaxDP=4.71D-02 DE=-6.06D-01 OVMax= 8.30D-02

 Cycle   4  Pass 0  IDiag  1:
 RMSU=  7.46D-04    CP:  9.91D-01  7.13D-01  4.22D-01
 E= -1811.10466205589     Delta-E=       -0.091667817765 Rises=F Damp=F
 DIIS: error= 4.07D-03 at cycle   4 NSaved=   4.
 NSaved= 4 IEnMin= 4 EnMin= -1811.10466205589     IErMin= 4 ErrMin= 4.07D-03
 ErrMax= 4.07D-03  0.00D+00 EMaxC= 1.00D-01 BMatC= 1.50D-02 BMatP= 1.10D-01
 IDIUse=3 WtCom= 9.59D-01 WtEn= 4.07D-02
 Coeff-Com:  0.112D-01 0.865D-01 0.285D+00 0.617D+00
 Coeff-En:   0.000D+00 0.000D+00 0.126D+00 0.874D+00
 Coeff:      0.108D-01 0.829D-01 0.278D+00 0.628D+00
 Gap=     0.195 Goal=   None    Shift=    0.000
 RMSDP=4.13D-04 MaxDP=1.63D-02 DE=-9.17D-02 OVMax= 3.16D-02

 Cycle   5  Pass 0  IDiag  1:
 RMSU=  1.90D-04    CP:  9.91D-01  6.94D-01  5.68D-01  6.30D-01
 E= -1811.11773869722     Delta-E=       -0.013076641329 Rises=F Damp=F
 DIIS: error= 1.65D-03 at cycle   5 NSaved=   5.
 NSaved= 5 IEnMin= 5 EnMin= -1811.11773869722     IErMin= 5 ErrMin= 1.65D-03
 ErrMax= 1.65D-03  0.00D+00 EMaxC= 1.00D-01 BMatC= 1.32D-03 BMatP= 1.50D-02
 IDIUse=3 WtCom= 9.84D-01 WtEn= 1.65D-02
 Coeff-Com: -0.104D-02 0.187D-01 0.118D+00 0.348D+00 0.516D+00
 Coeff-En:   0.000D+00 0.000D+00 0.000D+00 0.225D-01 0.977D+00
 Coeff:     -0.102D-02 0.184D-01 0.116D+00 0.343D+00 0.524D+00
 Gap=     0.195 Goal=   None    Shift=    0.000
 RMSDP=1.23D-04 MaxDP=4.74D-03 DE=-1.31D-02 OVMax= 1.24D-02

 Cycle   6  Pass 0  IDiag  1:
 RMSU=  6.14D-05    CP:  9.91D-01  6.99D-01  5.60D-01  6.98D-01  5.24D-01
 E= -1811.11898198041     Delta-E=       -0.001243283184 Rises=F Damp=F
 DIIS: error= 5.44D-04 at cycle   6 NSaved=   6.
 NSaved= 6 IEnMin= 6 EnMin= -1811.11898198041     IErMin= 6 ErrMin= 5.44D-04
 ErrMax= 5.44D-04  0.00D+00 EMaxC= 1.00D-01 BMatC= 1.33D-04 BMatP= 1.32D-03
 IDIUse=3 WtCom= 9.95D-01 WtEn= 5.44D-03
 Coeff-Com: -0.153D-02 0.283D-02 0.385D-01 0.131D+00 0.299D+00 0.530D+00
 Coeff-En:   0.000D+00 0.000D+00 0.000D+00 0.000D+00 0.510D-01 0.949D+00
 Coeff:     -0.152D-02 0.281D-02 0.383D-01 0.130D+00 0.298D+00 0.533D+00
 Gap=     0.195 Goal=   None    Shift=    0.000
 RMSDP=3.70D-05 MaxDP=1.05D-03 DE=-1.24D-03 OVMax= 3.56D-03

 Cycle   7  Pass 0  IDiag  1:
 RMSU=  2.21D-05    CP:  9.91D-01  6.98D-01  5.62D-01  6.96D-01  5.93D-01
                    CP:  5.76D-01
 E= -1811.11910849283     Delta-E=       -0.000126512427 Rises=F Damp=F
 DIIS: error= 1.80D-04 at cycle   7 NSaved=   7.
 NSaved= 7 IEnMin= 7 EnMin= -1811.11910849283     IErMin= 7 ErrMin= 1.80D-04
 ErrMax= 1.80D-04  0.00D+00 EMaxC= 1.00D-01 BMatC= 1.25D-05 BMatP= 1.33D-04
 IDIUse=3 WtCom= 9.98D-01 WtEn= 1.80D-03
 Coeff-Com: -0.801D-03 0.580D-04 0.122D-01 0.458D-01 0.131D+00 0.313D+00
 Coeff-Com:  0.499D+00
 Coeff-En:   0.000D+00 0.000D+00 0.000D+00 0.000D+00 0.000D+00 0.120D-01
 Coeff-En:   0.988D+00
 Coeff:     -0.799D-03 0.579D-04 0.122D-01 0.457D-01 0.131D+00 0.313D+00
 Coeff:      0.499D+00
 Gap=     0.195 Goal=   None    Shift=    0.000
 RMSDP=1.16D-05 MaxDP=6.30D-04 DE=-1.27D-04 OVMax= 9.72D-04

 Cycle   8  Pass 0  IDiag  1:
 RMSU=  6.06D-06    CP:  9.91D-01  6.98D-01  5.62D-01  6.96D-01  5.96D-01
                    CP:  6.21D-01  5.72D-01
 E= -1811.11912051312     Delta-E=       -0.000012020288 Rises=F Damp=F
 DIIS: error= 3.25D-05 at cycle   8 NSaved=   8.
 NSaved= 8 IEnMin= 8 EnMin= -1811.11912051312     IErMin= 8 ErrMin= 3.25D-05
 ErrMax= 3.25D-05  0.00D+00 EMaxC= 1.00D-01 BMatC= 1.10D-06 BMatP= 1.25D-05
 IDIUse=1 WtCom= 1.00D+00 WtEn= 0.00D+00
 Coeff-Com: -0.278D-03-0.325D-03 0.213D-02 0.999D-02 0.390D-01 0.115D+00
 Coeff-Com:  0.279D+00 0.556D+00
 Coeff:     -0.278D-03-0.325D-03 0.213D-02 0.999D-02 0.390D-01 0.115D+00
 Coeff:      0.279D+00 0.556D+00
 Gap=     0.195 Goal=   None    Shift=    0.000
 RMSDP=3.44D-06 MaxDP=1.88D-04 DE=-1.20D-05 OVMax= 2.03D-04

 Initial convergence to 1.0D-05 achieved.  Increase integral accuracy.
 Cycle   9  Pass 1  IDiag  1:
 E= -1811.11909073778     Delta-E=        0.000029775341 Rises=F Damp=F
 DIIS: error= 7.16D-05 at cycle   1 NSaved=   1.
 NSaved= 1 IEnMin= 1 EnMin= -1811.11909073778     IErMin= 1 ErrMin= 7.16D-05
 ErrMax= 7.16D-05  0.00D+00 EMaxC= 1.00D-01 BMatC= 1.21D-06 BMatP= 1.21D-06
 IDIUse=1 WtCom= 1.00D+00 WtEn= 0.00D+00
 Coeff-Com:  0.100D+01
 Coeff:      0.100D+01
 Gap=     0.195 Goal=   None    Shift=    0.000
 RMSDP=3.44D-06 MaxDP=1.88D-04 DE= 2.98D-05 OVMax= 2.38D-04

 Cycle  10  Pass 1  IDiag  1:
 RMSU=  3.10D-05    CP:  1.00D+00
 E= -1811.11909161022     Delta-E=       -0.000000872436 Rises=F Damp=F
 DIIS: error= 2.75D-05 at cycle   2 NSaved=   2.
 NSaved= 2 IEnMin= 2 EnMin= -1811.11909161022     IErMin= 2 ErrMin= 2.75D-05
 ErrMax= 2.75D-05  0.00D+00 EMaxC= 1.00D-01 BMatC= 5.52D-07 BMatP= 1.21D-06
 IDIUse=1 WtCom= 1.00D+00 WtEn= 0.00D+00
 Coeff-Com:  0.353D+00 0.647D+00
 Coeff:      0.353D+00 0.647D+00
 Gap=     0.195 Goal=   None    Shift=    0.000
 RMSDP=3.75D-06 MaxDP=1.90D-04 DE=-8.72D-07 OVMax= 2.44D-04

 Cycle  11  Pass 1  IDiag  1:
 RMSU=  3.74D-06    CP:  1.00D+00  1.00D+00
 E= -1811.11909155921     Delta-E=        0.000000051009 Rises=F Damp=F
 DIIS: error= 2.70D-05 at cycle   3 NSaved=   3.
 NSaved= 3 IEnMin= 2 EnMin= -1811.11909161022     IErMin= 3 ErrMin= 2.70D-05
 ErrMax= 2.70D-05  0.00D+00 EMaxC= 1.00D-01 BMatC= 6.29D-07 BMatP= 5.52D-07
 IDIUse=1 WtCom= 1.00D+00 WtEn= 0.00D+00
 Coeff-Com:  0.258D-02 0.516D+00 0.482D+00
 Coeff:      0.258D-02 0.516D+00 0.482D+00
 Gap=     0.195 Goal=   None    Shift=    0.000
 RMSDP=1.99D-06 MaxDP=9.05D-05 DE= 5.10D-08 OVMax= 1.49D-04

 Cycle  12  Pass 1  IDiag  1:
 RMSU=  6.84D-07    CP:  1.00D+00  1.01D+00  5.06D-01
 E= -1811.11909206700     Delta-E=       -0.000000507794 Rises=F Damp=F
 DIIS: error= 4.17D-06 at cycle   4 NSaved=   4.
 NSaved= 4 IEnMin= 4 EnMin= -1811.11909206700     IErMin= 4 ErrMin= 4.17D-06
 ErrMax= 4.17D-06  0.00D+00 EMaxC= 1.00D-01 BMatC= 1.74D-08 BMatP= 5.52D-07
 IDIUse=1 WtCom= 1.00D+00 WtEn= 0.00D+00
 Coeff-Com: -0.877D-02 0.293D+00 0.293D+00 0.423D+00
 Coeff:     -0.877D-02 0.293D+00 0.293D+00 0.423D+00
 Gap=     0.195 Goal=   None    Shift=    0.000
 RMSDP=3.81D-07 MaxDP=1.66D-05 DE=-5.08D-07 OVMax= 2.52D-05

 Cycle  13  Pass 1  IDiag  1:
 RMSU=  1.93D-07    CP:  1.00D+00  1.01D+00  5.11D-01  5.21D-01
 E= -1811.11909208178     Delta-E=       -0.000000014776 Rises=F Damp=F
 DIIS: error= 8.01D-07 at cycle   5 NSaved=   5.
 NSaved= 5 IEnMin= 5 EnMin= -1811.11909208178     IErMin= 5 ErrMin= 8.01D-07
 ErrMax= 8.01D-07  0.00D+00 EMaxC= 1.00D-01 BMatC= 5.80D-10 BMatP= 1.74D-08
 IDIUse=1 WtCom= 1.00D+00 WtEn= 0.00D+00
 Coeff-Com: -0.476D-02 0.124D+00 0.126D+00 0.223D+00 0.532D+00
 Coeff:     -0.476D-02 0.124D+00 0.126D+00 0.223D+00 0.532D+00
 Gap=     0.195 Goal=   None    Shift=    0.000
 RMSDP=7.79D-08 MaxDP=6.21D-06 DE=-1.48D-08 OVMax= 6.24D-06

 Cycle  14  Pass 1  IDiag  1:
 RMSU=  6.59D-08    CP:  1.00D+00  1.01D+00  5.13D-01  5.36D-01  7.97D-01
 E= -1811.11909208229     Delta-E=       -0.000000000518 Rises=F Damp=F
 DIIS: error= 3.25D-07 at cycle   6 NSaved=   6.
 NSaved= 6 IEnMin= 6 EnMin= -1811.11909208229     IErMin= 6 ErrMin= 3.25D-07
 ErrMax= 3.25D-07  0.00D+00 EMaxC= 1.00D-01 BMatC= 6.64D-11 BMatP= 5.80D-10
 IDIUse=1 WtCom= 1.00D+00 WtEn= 0.00D+00
 Coeff-Com: -0.141D-02 0.300D-01 0.308D-01 0.662D-01 0.287D+00 0.587D+00
 Coeff:     -0.141D-02 0.300D-01 0.308D-01 0.662D-01 0.287D+00 0.587D+00
 Gap=     0.195 Goal=   None    Shift=    0.000
 RMSDP=2.95D-08 MaxDP=1.18D-06 DE=-5.18D-10 OVMax= 2.85D-06

 Cycle  15  Pass 1  IDiag  1:
 RMSU=  2.30D-08    CP:  1.00D+00  1.01D+00  5.12D-01  5.37D-01  8.42D-01
                    CP:  7.58D-01
 E= -1811.11909208232     Delta-E=       -0.000000000030 Rises=F Damp=F
 DIIS: error= 1.38D-07 at cycle   7 NSaved=   7.
 NSaved= 7 IEnMin= 7 EnMin= -1811.11909208232     IErMin= 7 ErrMin= 1.38D-07
 ErrMax= 1.38D-07  0.00D+00 EMaxC= 1.00D-01 BMatC= 1.63D-11 BMatP= 6.64D-11
 IDIUse=1 WtCom= 1.00D+00 WtEn= 0.00D+00
 Coeff-Com: -0.259D-03 0.186D-02 0.205D-02 0.107D-01 0.109D+00 0.381D+00
 Coeff-Com:  0.496D+00
 Coeff:     -0.259D-03 0.186D-02 0.205D-02 0.107D-01 0.109D+00 0.381D+00
 Coeff:      0.496D+00
 Gap=     0.195 Goal=   None    Shift=    0.000
 RMSDP=1.16D-08 MaxDP=6.45D-07 DE=-3.00D-11 OVMax= 8.05D-07

 Cycle  16  Pass 1  IDiag  1:
 RMSU=  6.83D-09    CP:  1.00D+00  1.01D+00  5.13D-01  5.39D-01  8.47D-01
                    CP:  7.93D-01  6.19D-01
 E= -1811.11909208231     Delta-E=        0.000000000015 Rises=F Damp=F
 DIIS: error= 2.95D-08 at cycle   8 NSaved=   8.
 NSaved= 8 IEnMin= 7 EnMin= -1811.11909208232     IErMin= 8 ErrMin= 2.95D-08
 ErrMax= 2.95D-08  0.00D+00 EMaxC= 1.00D-01 BMatC= 1.10D-12 BMatP= 1.63D-11
 IDIUse=1 WtCom= 1.00D+00 WtEn= 0.00D+00
 Coeff-Com:  0.362D-05-0.214D-02-0.213D-02-0.114D-02 0.291D-01 0.149D+00
 Coeff-Com:  0.273D+00 0.554D+00
 Coeff:      0.362D-05-0.214D-02-0.213D-02-0.114D-02 0.291D-01 0.149D+00
 Coeff:      0.273D+00 0.554D+00
 Gap=     0.195 Goal=   None    Shift=    0.000
 RMSDP=3.31D-09 MaxDP=2.41D-07 DE= 1.55D-11 OVMax= 2.06D-07

 SCF Done:  E(RB3LYP) =  -1811.11909208     A.U. after   16 cycles
            NFock= 16  Conv=0.33D-08     -V/T= 2.0069
 KE= 1.798703977759D+03 PE=-9.308857624833D+03 EE= 3.169650505029D+03
 Leave Link  502 at Sat Aug  8 00:35:57 2020, MaxMem=    33554432 cpu:       564.5
 (Enter /prod/apps/gaussian/g09d1/l601.exe)
 Copying SCF densities to generalized density rwf, IOpCl= 0 IROHF=0.

 **********************************************************************

            Population analysis using the SCF density.

 **********************************************************************

 Orbital symmetries:
       Occupied  (A) (A) (A) (A) (A) (A) (A) (A) (A) (A) (A) (A)
                 (A) (A) (A) (A) (A) (A) (A) (A) (A) (A) (A) (A)
                 (A) (A) (A) (A) (A) (A) (A) (A) (A) (A) (A) (A)
                 (A) (A) (A) (A) (A) (A) (A) (A) (A) (A) (A) (A)
                 (A) (A) (A) (A) (A) (A) (A) (A) (A) (A) (A) (A)
                 (A) (A) (A) (A) (A) (A) (A) (A) (A) (A) (A) (A)
                 (A) (A) (A) (A) (A) (A) (A) (A) (A) (A) (A) (A)
                 (A) (A) (A) (A) (A) (A) (A) (A) (A) (A) (A) (A)
       Virtual   (A) (A) (A) (A) (A) (A) (A) (A) (A) (A) (A) (A)
                 (A) (A) (A) (A) (A) (A) (A) (A) (A) (A) (A) (A)
                 (A) (A) (A) (A) (A) (A) (A) (A) (A) (A) (A) (A)
                 (A) (A) (A) (A) (A) (A) (A) (A) (A) (A) (A) (A)
                 (A) (A) (A) (A) (A) (A) (A) (A) (A) (A) (A) (A)
                 (A) (A) (A) (A) (A) (A) (A) (A) (A) (A) (A) (A)
                 (A) (A) (A) (A) (A) (A) (A) (A) (A) (A) (A) (A)
                 (A) (A) (A) (A) (A) (A) (A) (A) (A) (A) (A) (A)
                 (A) (A) (A) (A) (A) (A) (A) (A) (A) (A) (A) (A)
                 (A) (A) (A) (A) (A) (A) (A) (A) (A) (A) (A) (A)
                 (A) (A) (A) (A) (A) (A) (A) (A) (A) (A) (A) (A)
                 (A) (A) (A) (A) (A) (A) (A) (A) (A) (A) (A) (A)
                 (A) (A) (A) (A) (A) (A) (A) (A) (A) (A) (A) (A)
                 (A) (A) (A) (A) (A) (A) (A) (A) (A) (A) (A) (A)
                 (A) (A) (A) (A) (A) (A) (A) (A) (A) (A) (A) (A)
                 (A) (A) (A) (A) (A) (A) (A) (A) (A) (A) (A) (A)
                 (A) (A) (A) (A) (A) (A) (A) (A) (A) (A) (A) (A)
                 (A) (A) (A) (A) (A) (A) (A) (A) (A) (A) (A) (A)
                 (A) (A) (A) (A) (A) (A) (A) (A) (A) (A) (A) (A)
                 (A) (A) (A) (A) (A) (A) (A) (A) (A) (A) (A) (A)
                 (A) (A) (A) (A) (A) (A) (A) (A) (A) (A) (A) (A)
                 (A) (A) (A) (A) (A) (A) (A) (A) (A) (A) (A) (A)
                 (A) (A) (A) (A) (A) (A) (A) (A) (A) (A) (A) (A)
                 (A) (A) (A) (A) (A) (A) (A) (A) (A) (A) (A) (A)
                 (A) (A) (A) (A) (A) (A) (A) (A) (A) (A) (A) (A)
                 (A) (A) (A) (A) (A) (A) (A) (A) (A) (A)
 The electronic state is 1-A.
 Alpha  occ. eigenvalues --  -89.12730 -89.08747 -19.15498 -19.15251 -19.14218
 Alpha  occ. eigenvalues --  -19.14013 -14.38807 -10.28384 -10.24139 -10.23053
 Alpha  occ. eigenvalues --  -10.22643 -10.22201 -10.22144 -10.22047 -10.21970
 Alpha  occ. eigenvalues --  -10.21854 -10.21807 -10.20494 -10.20200 -10.19459
 Alpha  occ. eigenvalues --  -10.19324 -10.19303 -10.19236 -10.19077  -8.15181
 Alpha  occ. eigenvalues --   -8.11804  -6.11700  -6.11599  -6.11486  -6.08225
 Alpha  occ. eigenvalues --   -6.08163  -6.08085  -1.12348  -1.09429  -1.01338
 Alpha  occ. eigenvalues --   -0.99112  -0.95463  -0.88771  -0.86358  -0.85537
 Alpha  occ. eigenvalues --   -0.80230  -0.78999  -0.77660  -0.74812  -0.74695
 Alpha  occ. eigenvalues --   -0.72365  -0.69754  -0.66974  -0.63690  -0.63230
 Alpha  occ. eigenvalues --   -0.61213  -0.60844  -0.58477  -0.57794  -0.56654
 Alpha  occ. eigenvalues --   -0.53194  -0.52576  -0.51417  -0.50581  -0.49182
 Alpha  occ. eigenvalues --   -0.48517  -0.48420  -0.47305  -0.46960  -0.46577
 Alpha  occ. eigenvalues --   -0.45750  -0.45448  -0.45141  -0.44094  -0.43816
 Alpha  occ. eigenvalues --   -0.43549  -0.42189  -0.41770  -0.41057  -0.40004
 Alpha  occ. eigenvalues --   -0.39554  -0.38825  -0.37884  -0.37560  -0.37462
 Alpha  occ. eigenvalues --   -0.35585  -0.34513  -0.34158  -0.33897  -0.32823
 Alpha  occ. eigenvalues --   -0.32174  -0.31709  -0.31425  -0.30984  -0.30655
 Alpha  occ. eigenvalues --   -0.29453  -0.28307  -0.27995  -0.27112  -0.25398
 Alpha  occ. eigenvalues --   -0.24641
 Alpha virt. eigenvalues --   -0.05114  -0.03143  -0.00938  -0.00446   0.03038
 Alpha virt. eigenvalues --    0.04907   0.05317   0.05795   0.06179   0.06531
 Alpha virt. eigenvalues --    0.07632   0.08837   0.09295   0.09953   0.10047
 Alpha virt. eigenvalues --    0.11326   0.11999   0.12307   0.13058   0.13583
 Alpha virt. eigenvalues --    0.14238   0.14484   0.15402   0.15857   0.16014
 Alpha virt. eigenvalues --    0.16582   0.16733   0.17043   0.17855   0.18625
 Alpha virt. eigenvalues --    0.19285   0.19945   0.20478   0.20905   0.22979
 Alpha virt. eigenvalues --    0.23489   0.24250   0.26020   0.27074   0.27944
 Alpha virt. eigenvalues --    0.28500   0.29781   0.30227   0.30715   0.31957
 Alpha virt. eigenvalues --    0.32702   0.34475   0.34708   0.35671   0.36138
 Alpha virt. eigenvalues --    0.36790   0.40187   0.41872   0.43755   0.44786
 Alpha virt. eigenvalues --    0.46562   0.47615   0.48158   0.49419   0.50450
 Alpha virt. eigenvalues --    0.51064   0.51525   0.52550   0.53431   0.53798
 Alpha virt. eigenvalues --    0.55063   0.55303   0.55959   0.56345   0.56350
 Alpha virt. eigenvalues --    0.56941   0.57566   0.57840   0.58369   0.58607
 Alpha virt. eigenvalues --    0.58960   0.59461   0.59729   0.59946   0.60738
 Alpha virt. eigenvalues --    0.61168   0.61664   0.61792   0.62225   0.62926
 Alpha virt. eigenvalues --    0.64075   0.65132   0.66451   0.67237   0.69484
 Alpha virt. eigenvalues --    0.71147   0.72024   0.73855   0.74109   0.75240
 Alpha virt. eigenvalues --    0.75884   0.76589   0.77740   0.78735   0.80172
 Alpha virt. eigenvalues --    0.80488   0.80972   0.81431   0.81882   0.82755
 Alpha virt. eigenvalues --    0.83076   0.83641   0.83828   0.83895   0.84314
 Alpha virt. eigenvalues --    0.85042   0.86044   0.86683   0.86906   0.87400
 Alpha virt. eigenvalues --    0.88439   0.89269   0.89489   0.90156   0.90789
 Alpha virt. eigenvalues --    0.91371   0.92169   0.92450   0.92893   0.94415
 Alpha virt. eigenvalues --    0.94871   0.95543   0.96386   0.97134   0.98601
 Alpha virt. eigenvalues --    0.99641   1.00112   1.01124   1.02694   1.03645
 Alpha virt. eigenvalues --    1.04960   1.05311   1.06514   1.06945   1.08065
 Alpha virt. eigenvalues --    1.08623   1.10359   1.10987   1.11617   1.13089
 Alpha virt. eigenvalues --    1.14224   1.14959   1.15929   1.15964   1.17471
 Alpha virt. eigenvalues --    1.17869   1.18387   1.20398   1.20773   1.21875
 Alpha virt. eigenvalues --    1.23124   1.23966   1.26070   1.26792   1.27121
 Alpha virt. eigenvalues --    1.27803   1.30336   1.30981   1.34936   1.35206
 Alpha virt. eigenvalues --    1.38005   1.41073   1.42081   1.43155   1.43384
 Alpha virt. eigenvalues --    1.43870   1.44622   1.45058   1.46187   1.47804
 Alpha virt. eigenvalues --    1.47859   1.48204   1.49137   1.50744   1.51064
 Alpha virt. eigenvalues --    1.55012   1.56925   1.58936   1.61579   1.63059
 Alpha virt. eigenvalues --    1.68201   1.70460   1.71187   1.73089   1.74965
 Alpha virt. eigenvalues --    1.75689   1.76076   1.77988   1.79149   1.80094
 Alpha virt. eigenvalues --    1.80220   1.81289   1.81341   1.81997   1.82524
 Alpha virt. eigenvalues --    1.82981   1.84120   1.85349   1.86176   1.86680
 Alpha virt. eigenvalues --    1.87301   1.88923   1.89946   1.90247   1.90440
 Alpha virt. eigenvalues --    1.91368   1.92069   1.93513   1.94872   1.96129
 Alpha virt. eigenvalues --    1.96706   1.97305   1.98023   2.00597   2.02378
 Alpha virt. eigenvalues --    2.03796   2.04343   2.05015   2.06830   2.07433
 Alpha virt. eigenvalues --    2.08625   2.09779   2.10482   2.11464   2.12239
 Alpha virt. eigenvalues --    2.12854   2.13072   2.13858   2.13994   2.14581
 Alpha virt. eigenvalues --    2.16339   2.16878   2.18119   2.19015   2.21006
 Alpha virt. eigenvalues --    2.22556   2.25268   2.25753   2.27050   2.27507
 Alpha virt. eigenvalues --    2.27961   2.29437   2.29779   2.30570   2.30985
 Alpha virt. eigenvalues --    2.33894   2.35991   2.38267   2.38787   2.40904
 Alpha virt. eigenvalues --    2.46322   2.48452   2.52049   2.56401   2.56843
 Alpha virt. eigenvalues --    2.57972   2.58500   2.61920   2.64100   2.65171
 Alpha virt. eigenvalues --    2.68837   2.69308   2.69510   2.71552   2.72311
 Alpha virt. eigenvalues --    2.72541   2.73689   2.73877   2.74491   2.75076
 Alpha virt. eigenvalues --    2.75899   2.77180   2.78681   2.81249   2.83573
 Alpha virt. eigenvalues --    2.88744   2.89539   3.00961   3.05169   3.35740
 Alpha virt. eigenvalues --    3.40675   3.74947   3.81463   3.93136   3.94028
 Alpha virt. eigenvalues --    3.98835   4.04477   4.06767   4.09376   4.09759
 Alpha virt. eigenvalues --    4.11125   4.12708   4.18487   4.19956   4.21470
 Alpha virt. eigenvalues --    4.26552   4.31544   4.33713   4.34091   4.36711
 Alpha virt. eigenvalues --    4.42234   4.53361   4.63959   4.70125   4.75240
          Condensed to atoms (all electrons):
               1          2          3          4          5          6
     1  O    8.228615   0.443947  -0.056796   0.002413  -0.000092   0.000005
     2  S    0.443947  13.719295   0.121799  -0.003985  -0.004480   0.001756
     3  N   -0.056796   0.121799   7.373100   0.233392  -0.043183   0.001093
     4  C    0.002413  -0.003985   0.233392   4.843861   0.347625  -0.097751
     5  C   -0.000092  -0.004480  -0.043183   0.347625   5.737251   0.155572
     6  S    0.000005   0.001756   0.001093  -0.097751   0.155572  13.876328
     7  C   -0.000063  -0.009257  -0.048462   0.352766  -0.200793   0.125273
     8  O    0.000000   0.000030  -0.000122   0.001371  -0.044982   0.417356
     9  O    0.000000  -0.000009  -0.000037   0.000087  -0.046498   0.419139
    10  C   -0.000081   0.000530  -0.052733   0.362731  -0.043722   0.004229
    11  C   -0.000015  -0.000218  -0.006903  -0.039852  -0.005216  -0.000037
    12  C    0.000003   0.000084  -0.001094  -0.002632  -0.000383   0.000112
    13  C   -0.000012   0.000117   0.000337   0.001070  -0.000090   0.000152
    14  C    0.000000  -0.000003   0.000011  -0.000010   0.000412   0.000009
    15  C    0.000000   0.000000   0.000001   0.000008   0.000051  -0.000002
    16  C    0.000000  -0.000001  -0.000001   0.000004  -0.000468  -0.000021
    17  C    0.000000   0.000005   0.000015  -0.000806  -0.003387  -0.000044
    18  C   -0.061362   0.168107  -0.058289  -0.001958  -0.001022  -0.000328
    19  C    0.002528  -0.020376  -0.001716   0.000063   0.000000   0.000021
    20  C    0.000504   0.002711  -0.000101  -0.000007   0.000000  -0.000006
    21  C   -0.000006  -0.000325   0.000002   0.000005   0.000000   0.000005
    22  C   -0.000046   0.002750  -0.000091   0.000066  -0.000004   0.000024
    23  C    0.001330  -0.023495  -0.001334   0.000249  -0.000039  -0.000135
    24  O   -0.039834   0.410674  -0.050804  -0.000413  -0.011483   0.000980
    25  H    0.002263  -0.003459   0.289609  -0.032755   0.005202  -0.000223
    26  H    0.000001   0.000223   0.001431  -0.027353   0.340428  -0.011939
    27  H   -0.000001   0.000659  -0.004217  -0.020670   0.323219  -0.003262
    28  H    0.000000   0.000143   0.002246  -0.027444   0.009691  -0.009510
    29  H   -0.000025  -0.000116  -0.005362  -0.023480   0.004413  -0.003378
    30  H    0.000000   0.000049   0.004243  -0.032520  -0.006406   0.006738
    31  H    0.000000  -0.000186  -0.005652  -0.036100   0.005891  -0.000231
    32  H    0.000000  -0.000004   0.000257   0.005251  -0.000062   0.000019
    33  H    0.000033   0.000290   0.008939  -0.011401  -0.000445  -0.000024
    34  H    0.000017   0.000589   0.001345  -0.000146  -0.000036   0.000002
    35  H    0.000000  -0.000001   0.000000   0.000001  -0.000004   0.000000
    36  H    0.000000   0.000000   0.000000   0.000000   0.000000   0.000000
    37  H    0.000000   0.000000   0.000000   0.000000  -0.000004   0.000000
    38  H    0.000000   0.000000   0.000001   0.000118  -0.000028   0.000001
    39  H    0.007933  -0.001020   0.000024   0.000016   0.000000   0.000000
    40  H    0.000001  -0.000043   0.000002   0.000000   0.000000   0.000000
    41  H    0.000000   0.000006   0.000000   0.000000   0.000000   0.000000
    42  H    0.000000  -0.000048   0.000001   0.000000   0.000000   0.000007
    43  H    0.000056  -0.003585   0.000174   0.000071  -0.000275   0.002417
               7          8          9         10         11         12
     1  O   -0.000063   0.000000   0.000000  -0.000081  -0.000015   0.000003
     2  S   -0.009257   0.000030  -0.000009   0.000530  -0.000218   0.000084
     3  N   -0.048462  -0.000122  -0.000037  -0.052733  -0.006903  -0.001094
     4  C    0.352766   0.001371   0.000087   0.362731  -0.039852  -0.002632
     5  C   -0.200793  -0.044982  -0.046498  -0.043722  -0.005216  -0.000383
     6  S    0.125273   0.417356   0.419139   0.004229  -0.000037   0.000112
     7  C    5.778063  -0.043426  -0.044951  -0.053909   0.004427  -0.000047
     8  O   -0.043426   8.230779  -0.043493  -0.000050   0.000000   0.000000
     9  O   -0.044951  -0.043493   8.238814  -0.001819   0.000041  -0.000025
    10  C   -0.053909  -0.000050  -0.001819   5.177173   0.334247  -0.035920
    11  C    0.004427   0.000000   0.000041   0.334247   5.171022   0.357298
    12  C   -0.000047   0.000000  -0.000025  -0.035920   0.357298   4.659324
    13  C   -0.000001   0.000000   0.000000  -0.001572  -0.050289   0.551364
    14  C    0.000000   0.000000   0.000000  -0.000163   0.007213  -0.022521
    15  C    0.000000   0.000000   0.000000   0.000010   0.000358  -0.035014
    16  C    0.000000   0.000000  -0.000001   0.000083   0.006325  -0.018288
    17  C   -0.000019   0.000000   0.000018  -0.003494  -0.067718   0.534889
    18  C   -0.000858  -0.000068   0.000000  -0.000153  -0.000001   0.000000
    19  C    0.000181   0.000001   0.000000  -0.000012   0.000000   0.000000
    20  C    0.000119   0.000000   0.000000   0.000000   0.000000   0.000000
    21  C    0.000022   0.000001   0.000000   0.000000   0.000000   0.000000
    22  C   -0.000811  -0.000096   0.000000   0.000000   0.000000   0.000000
    23  C   -0.005908  -0.001651  -0.000002  -0.000004   0.000000   0.000000
    24  O   -0.000952  -0.000069   0.000000   0.000029  -0.000014   0.000001
    25  H   -0.000087   0.000002   0.000001  -0.005659  -0.000323   0.000238
    26  H    0.009001   0.000745   0.000379  -0.006284  -0.002051   0.006380
    27  H    0.004531   0.000418   0.000986   0.003055   0.000054  -0.000129
    28  H    0.339993   0.000834  -0.000172  -0.005748   0.000213   0.000010
    29  H    0.321328  -0.000741   0.001143   0.003285  -0.000097   0.000001
    30  H   -0.002876   0.000014   0.004729   0.366907  -0.030959  -0.005465
    31  H   -0.007791   0.000001   0.000046   0.352063  -0.034049   0.004386
    32  H   -0.000119   0.000000   0.000000  -0.037284   0.359497  -0.030348
    33  H    0.000207   0.000000   0.000000  -0.036482   0.361508  -0.030180
    34  H    0.000006   0.000000   0.000000   0.000150  -0.011798  -0.041572
    35  H    0.000000   0.000000   0.000000   0.000001  -0.000182   0.003766
    36  H    0.000000   0.000000   0.000000   0.000000   0.000007   0.000703
    37  H    0.000000   0.000000   0.000000   0.000001  -0.000185   0.003624
    38  H   -0.000001   0.000000  -0.000002   0.000647  -0.008790  -0.049484
    39  H   -0.000013   0.000000   0.000000   0.000000   0.000000   0.000000
    40  H    0.000000   0.000000   0.000000   0.000000   0.000000   0.000000
    41  H    0.000000   0.000000   0.000000   0.000000   0.000000   0.000000
    42  H   -0.000014   0.000010   0.000000   0.000000   0.000000   0.000000
    43  H   -0.000504   0.006341   0.000007   0.000001   0.000000   0.000000
              13         14         15         16         17         18
     1  O   -0.000012   0.000000   0.000000   0.000000   0.000000  -0.061362
     2  S    0.000117  -0.000003   0.000000  -0.000001   0.000005   0.168107
     3  N    0.000337   0.000011   0.000001  -0.000001   0.000015  -0.058289
     4  C    0.001070  -0.000010   0.000008   0.000004  -0.000806  -0.001958
     5  C   -0.000090   0.000412   0.000051  -0.000468  -0.003387  -0.001022
     6  S    0.000152   0.000009  -0.000002  -0.000021  -0.000044  -0.000328
     7  C   -0.000001   0.000000   0.000000   0.000000  -0.000019  -0.000858
     8  O    0.000000   0.000000   0.000000   0.000000   0.000000  -0.000068
     9  O    0.000000   0.000000   0.000000  -0.000001   0.000018   0.000000
    10  C   -0.001572  -0.000163   0.000010   0.000083  -0.003494  -0.000153
    11  C   -0.050289   0.007213   0.000358   0.006325  -0.067718  -0.000001
    12  C    0.551364  -0.022521  -0.035014  -0.018288   0.534889   0.000000
    13  C    4.964508   0.519113  -0.035535  -0.046449  -0.042995   0.000000
    14  C    0.519113   4.870052   0.549642  -0.025864  -0.047062   0.000000
    15  C   -0.035535   0.549642   4.855852   0.547105  -0.035779   0.000000
    16  C   -0.046449  -0.025864   0.547105   4.859823   0.525861   0.000000
    17  C   -0.042995  -0.047062  -0.035779   0.525861   4.986033   0.000000
    18  C    0.000000   0.000000   0.000000   0.000000   0.000000   5.381850
    19  C    0.000000   0.000000   0.000000   0.000000   0.000000   0.479569
    20  C    0.000000   0.000000   0.000000   0.000000   0.000000  -0.028230
    21  C    0.000000   0.000000   0.000000   0.000000   0.000000  -0.038383
    22  C    0.000000   0.000000   0.000000   0.000000   0.000000  -0.031691
    23  C    0.000000   0.000000   0.000000   0.000000   0.000000   0.483784
    24  O   -0.000013  -0.000001   0.000000   0.000000   0.000000  -0.059422
    25  H   -0.000029   0.000000   0.000000   0.000000   0.000002  -0.000872
    26  H   -0.001266  -0.000478   0.000217   0.001502   0.006639  -0.000001
    27  H    0.000117  -0.000029  -0.000008   0.000002   0.000041   0.000000
    28  H    0.000000   0.000000   0.000000   0.000000   0.000001   0.000099
    29  H    0.000000   0.000000   0.000000   0.000000   0.000000   0.005531
    30  H    0.000121   0.000003   0.000000  -0.000124   0.003624   0.000002
    31  H   -0.000097   0.000003   0.000000   0.000003   0.000071   0.000003
    32  H    0.002505  -0.000221   0.000025   0.000031  -0.005163   0.000000
    33  H   -0.005219   0.000182   0.000004  -0.000183   0.004837   0.000010
    34  H    0.356310  -0.044051   0.004647   0.000322   0.006274   0.000002
    35  H   -0.038345   0.358165  -0.043113   0.004549   0.000817   0.000000
    36  H    0.004664  -0.042869   0.360119  -0.042733   0.004745   0.000000
    37  H    0.000813   0.004571  -0.042471   0.358164  -0.039739   0.000000
    38  H    0.006046   0.000328   0.004848  -0.043287   0.356974   0.000000
    39  H    0.000000   0.000000   0.000000   0.000000   0.000000  -0.049218
    40  H    0.000000   0.000000   0.000000   0.000000   0.000000   0.004964
    41  H    0.000000   0.000000   0.000000   0.000000   0.000000   0.000438
    42  H    0.000000   0.000000   0.000000   0.000000   0.000000   0.004699
    43  H    0.000000   0.000000   0.000000   0.000000   0.000000  -0.044478
              19         20         21         22         23         24
     1  O    0.002528   0.000504  -0.000006  -0.000046   0.001330  -0.039834
     2  S   -0.020376   0.002711  -0.000325   0.002750  -0.023495   0.410674
     3  N   -0.001716  -0.000101   0.000002  -0.000091  -0.001334  -0.050804
     4  C    0.000063  -0.000007   0.000005   0.000066   0.000249  -0.000413
     5  C    0.000000   0.000000   0.000000  -0.000004  -0.000039  -0.011483
     6  S    0.000021  -0.000006   0.000005   0.000024  -0.000135   0.000980
     7  C    0.000181   0.000119   0.000022  -0.000811  -0.005908  -0.000952
     8  O    0.000001   0.000000   0.000001  -0.000096  -0.001651  -0.000069
     9  O    0.000000   0.000000   0.000000   0.000000  -0.000002   0.000000
    10  C   -0.000012   0.000000   0.000000   0.000000  -0.000004   0.000029
    11  C    0.000000   0.000000   0.000000   0.000000   0.000000  -0.000014
    12  C    0.000000   0.000000   0.000000   0.000000   0.000000   0.000001
    13  C    0.000000   0.000000   0.000000   0.000000   0.000000  -0.000013
    14  C    0.000000   0.000000   0.000000   0.000000   0.000000  -0.000001
    15  C    0.000000   0.000000   0.000000   0.000000   0.000000   0.000000
    16  C    0.000000   0.000000   0.000000   0.000000   0.000000   0.000000
    17  C    0.000000   0.000000   0.000000   0.000000   0.000000   0.000000
    18  C    0.479569  -0.028230  -0.038383  -0.031691   0.483784  -0.059422
    19  C    4.945824   0.510802  -0.029683  -0.037073  -0.038821   0.001796
    20  C    0.510802   4.877905   0.541442  -0.028763  -0.038004  -0.000042
    21  C   -0.029683   0.541442   4.847508   0.541672  -0.030314  -0.000006
    22  C   -0.037073  -0.028763   0.541672   4.878986   0.503371   0.000565
    23  C   -0.038821  -0.038004  -0.030314   0.503371   4.971976   0.003153
    24  O    0.001796  -0.000042  -0.000006   0.000565   0.003153   8.257073
    25  H    0.000398   0.000026   0.000000  -0.000001   0.000037   0.001857
    26  H    0.000000   0.000000   0.000000   0.000000   0.000001   0.000231
    27  H   -0.000007   0.000000   0.000000   0.000003  -0.000070   0.018312
    28  H   -0.000011  -0.000004  -0.000002   0.000004   0.000066  -0.000002
    29  H   -0.000579  -0.000245   0.000020   0.001591   0.008988  -0.000111
    30  H    0.000000   0.000000   0.000000   0.000000   0.000000   0.000001
    31  H   -0.000001   0.000000   0.000000   0.000000   0.000001   0.000001
    32  H    0.000000   0.000000   0.000000   0.000000   0.000000   0.000000
    33  H    0.000000   0.000000   0.000000   0.000000   0.000000  -0.000007
    34  H    0.000000   0.000000   0.000000   0.000000   0.000000   0.000004
    35  H    0.000000   0.000000   0.000000   0.000000   0.000000   0.000000
    36  H    0.000000   0.000000   0.000000   0.000000   0.000000   0.000000
    37  H    0.000000   0.000000   0.000000   0.000000   0.000000   0.000000
    38  H    0.000000   0.000000   0.000000   0.000000   0.000000   0.000000
    39  H    0.361361  -0.036136   0.004219   0.000292   0.004540   0.000084
    40  H   -0.042385   0.363792  -0.041619   0.004429   0.000592   0.000000
    41  H    0.004967  -0.042693   0.362807  -0.041910   0.004994   0.000000
    42  H    0.000641   0.004355  -0.042168   0.365333  -0.039876   0.000002
    43  H    0.004393   0.000250   0.004016  -0.032302   0.356959   0.008486
              25         26         27         28         29         30
     1  O    0.002263   0.000001  -0.000001   0.000000  -0.000025   0.000000
     2  S   -0.003459   0.000223   0.000659   0.000143  -0.000116   0.000049
     3  N    0.289609   0.001431  -0.004217   0.002246  -0.005362   0.004243
     4  C   -0.032755  -0.027353  -0.020670  -0.027444  -0.023480  -0.032520
     5  C    0.005202   0.340428   0.323219   0.009691   0.004413  -0.006406
     6  S   -0.000223  -0.011939  -0.003262  -0.009510  -0.003378   0.006738
     7  C   -0.000087   0.009001   0.004531   0.339993   0.321328  -0.002876
     8  O    0.000002   0.000745   0.000418   0.000834  -0.000741   0.000014
     9  O    0.000001   0.000379   0.000986  -0.000172   0.001143   0.004729
    10  C   -0.005659  -0.006284   0.003055  -0.005748   0.003285   0.366907
    11  C   -0.000323  -0.002051   0.000054   0.000213  -0.000097  -0.030959
    12  C    0.000238   0.006380  -0.000129   0.000010   0.000001  -0.005465
    13  C   -0.000029  -0.001266   0.000117   0.000000   0.000000   0.000121
    14  C    0.000000  -0.000478  -0.000029   0.000000   0.000000   0.000003
    15  C    0.000000   0.000217  -0.000008   0.000000   0.000000   0.000000
    16  C    0.000000   0.001502   0.000002   0.000000   0.000000  -0.000124
    17  C    0.000002   0.006639   0.000041   0.000001   0.000000   0.003624
    18  C   -0.000872  -0.000001   0.000000   0.000099   0.005531   0.000002
    19  C    0.000398   0.000000  -0.000007  -0.000011  -0.000579   0.000000
    20  C    0.000026   0.000000   0.000000  -0.000004  -0.000245   0.000000
    21  C    0.000000   0.000000   0.000000  -0.000002   0.000020   0.000000
    22  C   -0.000001   0.000000   0.000003   0.000004   0.001591   0.000000
    23  C    0.000037   0.000001  -0.000070   0.000066   0.008988   0.000000
    24  O    0.001857   0.000231   0.018312  -0.000002  -0.000111   0.000001
    25  H    0.385857  -0.000042  -0.000026   0.000245   0.000039   0.000066
    26  H   -0.000042   0.461565  -0.012967  -0.000275  -0.000234   0.000217
    27  H   -0.000026  -0.012967   0.429031  -0.000244  -0.000066   0.000131
    28  H    0.000245  -0.000275  -0.000244   0.500362  -0.019678   0.000087
    29  H    0.000039  -0.000234  -0.000066  -0.019678   0.493556   0.000164
    30  H    0.000066   0.000217   0.000131   0.000087   0.000164   0.531971
    31  H    0.006076   0.000254  -0.000120   0.004383   0.000074  -0.030137
    32  H   -0.000188  -0.000010   0.000003  -0.000019   0.000002  -0.002292
    33  H    0.001128   0.000140   0.000005   0.000000   0.000004   0.004730
    34  H   -0.000021   0.000045   0.000046   0.000000   0.000000   0.000011
    35  H    0.000000   0.000005   0.000001   0.000000   0.000000   0.000000
    36  H    0.000000   0.000000   0.000000   0.000000   0.000000   0.000000
    37  H    0.000000   0.000012   0.000000   0.000000   0.000000   0.000004
    38  H    0.000000   0.000077   0.000000   0.000000   0.000000   0.002164
    39  H    0.000222   0.000000   0.000000   0.000000   0.000008   0.000000
    40  H    0.000000   0.000000   0.000000   0.000000   0.000000   0.000000
    41  H    0.000000   0.000000   0.000000   0.000000  -0.000001   0.000000
    42  H    0.000000   0.000000   0.000000   0.000000   0.000050   0.000000
    43  H   -0.000013   0.000007   0.000095   0.000014  -0.000787   0.000000
              31         32         33         34         35         36
     1  O    0.000000   0.000000   0.000033   0.000017   0.000000   0.000000
     2  S   -0.000186  -0.000004   0.000290   0.000589  -0.000001   0.000000
     3  N   -0.005652   0.000257   0.008939   0.001345   0.000000   0.000000
     4  C   -0.036100   0.005251  -0.011401  -0.000146   0.000001   0.000000
     5  C    0.005891  -0.000062  -0.000445  -0.000036  -0.000004   0.000000
     6  S   -0.000231   0.000019  -0.000024   0.000002   0.000000   0.000000
     7  C   -0.007791  -0.000119   0.000207   0.000006   0.000000   0.000000
     8  O    0.000001   0.000000   0.000000   0.000000   0.000000   0.000000
     9  O    0.000046   0.000000   0.000000   0.000000   0.000000   0.000000
    10  C    0.352063  -0.037284  -0.036482   0.000150   0.000001   0.000000
    11  C   -0.034049   0.359497   0.361508  -0.011798  -0.000182   0.000007
    12  C    0.004386  -0.030348  -0.030180  -0.041572   0.003766   0.000703
    13  C   -0.000097   0.002505  -0.005219   0.356310  -0.038345   0.004664
    14  C    0.000003  -0.000221   0.000182  -0.044051   0.358165  -0.042869
    15  C    0.000000   0.000025   0.000004   0.004647  -0.043113   0.360119
    16  C    0.000003   0.000031  -0.000183   0.000322   0.004549  -0.042733
    17  C    0.000071  -0.005163   0.004837   0.006274   0.000817   0.004745
    18  C    0.000003   0.000000   0.000010   0.000002   0.000000   0.000000
    19  C   -0.000001   0.000000   0.000000   0.000000   0.000000   0.000000
    20  C    0.000000   0.000000   0.000000   0.000000   0.000000   0.000000
    21  C    0.000000   0.000000   0.000000   0.000000   0.000000   0.000000
    22  C    0.000000   0.000000   0.000000   0.000000   0.000000   0.000000
    23  C    0.000001   0.000000   0.000000   0.000000   0.000000   0.000000
    24  O    0.000001   0.000000  -0.000007   0.000004   0.000000   0.000000
    25  H    0.006076  -0.000188   0.001128  -0.000021   0.000000   0.000000
    26  H    0.000254  -0.000010   0.000140   0.000045   0.000005   0.000000
    27  H   -0.000120   0.000003   0.000005   0.000046   0.000001   0.000000
    28  H    0.004383  -0.000019   0.000000   0.000000   0.000000   0.000000
    29  H    0.000074   0.000002   0.000004   0.000000   0.000000   0.000000
    30  H   -0.030137  -0.002292   0.004730   0.000011   0.000000   0.000000
    31  H    0.608482  -0.004698  -0.002484  -0.000019   0.000000   0.000000
    32  H   -0.004698   0.586194  -0.032953   0.000115   0.000003   0.000000
    33  H   -0.002484  -0.032953   0.572254   0.007162  -0.000010   0.000000
    34  H   -0.000019   0.000115   0.007162   0.580719  -0.005281  -0.000170
    35  H    0.000000   0.000003  -0.000010  -0.005281   0.587510  -0.005519
    36  H    0.000000   0.000000   0.000000  -0.000170  -0.005519   0.592459
    37  H    0.000000  -0.000003   0.000003   0.000016  -0.000184  -0.005444
    38  H   -0.000120   0.002916   0.000046  -0.000174   0.000018  -0.000180
    39  H    0.000000   0.000000   0.000000   0.000000   0.000000   0.000000
    40  H    0.000000   0.000000   0.000000   0.000000   0.000000   0.000000
    41  H    0.000000   0.000000   0.000000   0.000000   0.000000   0.000000
    42  H    0.000000   0.000000   0.000000   0.000000   0.000000   0.000000
    43  H    0.000000   0.000000   0.000000   0.000000   0.000000   0.000000
              37         38         39         40         41         42
     1  O    0.000000   0.000000   0.007933   0.000001   0.000000   0.000000
     2  S    0.000000   0.000000  -0.001020  -0.000043   0.000006  -0.000048
     3  N    0.000000   0.000001   0.000024   0.000002   0.000000   0.000001
     4  C    0.000000   0.000118   0.000016   0.000000   0.000000   0.000000
     5  C   -0.000004  -0.000028   0.000000   0.000000   0.000000   0.000000
     6  S    0.000000   0.000001   0.000000   0.000000   0.000000   0.000007
     7  C    0.000000  -0.000001  -0.000013   0.000000   0.000000  -0.000014
     8  O    0.000000   0.000000   0.000000   0.000000   0.000000   0.000010
     9  O    0.000000  -0.000002   0.000000   0.000000   0.000000   0.000000
    10  C    0.000001   0.000647   0.000000   0.000000   0.000000   0.000000
    11  C   -0.000185  -0.008790   0.000000   0.000000   0.000000   0.000000
    12  C    0.003624  -0.049484   0.000000   0.000000   0.000000   0.000000
    13  C    0.000813   0.006046   0.000000   0.000000   0.000000   0.000000
    14  C    0.004571   0.000328   0.000000   0.000000   0.000000   0.000000
    15  C   -0.042471   0.004848   0.000000   0.000000   0.000000   0.000000
    16  C    0.358164  -0.043287   0.000000   0.000000   0.000000   0.000000
    17  C   -0.039739   0.356974   0.000000   0.000000   0.000000   0.000000
    18  C    0.000000   0.000000  -0.049218   0.004964   0.000438   0.004699
    19  C    0.000000   0.000000   0.361361  -0.042385   0.004967   0.000641
    20  C    0.000000   0.000000  -0.036136   0.363792  -0.042693   0.004355
    21  C    0.000000   0.000000   0.004219  -0.041619   0.362807  -0.042168
    22  C    0.000000   0.000000   0.000292   0.004429  -0.041910   0.365333
    23  C    0.000000   0.000000   0.004540   0.000592   0.004994  -0.039876
    24  O    0.000000   0.000000   0.000084   0.000000   0.000000   0.000002
    25  H    0.000000   0.000000   0.000222   0.000000   0.000000   0.000000
    26  H    0.000012   0.000077   0.000000   0.000000   0.000000   0.000000
    27  H    0.000000   0.000000   0.000000   0.000000   0.000000   0.000000
    28  H    0.000000   0.000000   0.000000   0.000000   0.000000   0.000000
    29  H    0.000000   0.000000   0.000008   0.000000  -0.000001   0.000050
    30  H    0.000004   0.002164   0.000000   0.000000   0.000000   0.000000
    31  H    0.000000  -0.000120   0.000000   0.000000   0.000000   0.000000
    32  H   -0.000003   0.002916   0.000000   0.000000   0.000000   0.000000
    33  H    0.000003   0.000046   0.000000   0.000000   0.000000   0.000000
    34  H    0.000016  -0.000174   0.000000   0.000000   0.000000   0.000000
    35  H   -0.000184   0.000018   0.000000   0.000000   0.000000   0.000000
    36  H   -0.005444  -0.000180   0.000000   0.000000   0.000000   0.000000
    37  H    0.590567  -0.005590   0.000000   0.000000   0.000000   0.000000
    38  H   -0.005590   0.604675   0.000000   0.000000   0.000000   0.000000
    39  H    0.000000   0.000000   0.538361  -0.005268  -0.000148   0.000014
    40  H    0.000000   0.000000  -0.005268   0.571626  -0.005450  -0.000164
    41  H    0.000000   0.000000  -0.000148  -0.005450   0.572513  -0.005312
    42  H    0.000000   0.000000   0.000014  -0.000164  -0.005312   0.556732
    43  H    0.000000   0.000000  -0.000138   0.000013  -0.000134  -0.004741
              43
     1  O    0.000056
     2  S   -0.003585
     3  N    0.000174
     4  C    0.000071
     5  C   -0.000275
     6  S    0.002417
     7  C   -0.000504
     8  O    0.006341
     9  O    0.000007
    10  C    0.000001
    11  C    0.000000
    12  C    0.000000
    13  C    0.000000
    14  C    0.000000
    15  C    0.000000
    16  C    0.000000
    17  C    0.000000
    18  C   -0.044478
    19  C    0.004393
    20  C    0.000250
    21  C    0.004016
    22  C   -0.032302
    23  C    0.356959
    24  O    0.008486
    25  H   -0.000013
[...]
    41  H    0.000000   0.000000   0.000000   0.000000   0.000000   0.000442
    42  H    0.000000   0.000000   0.000000   0.000000   0.000000   0.004714
    43  H    0.000000   0.000000   0.000000   0.000000   0.000000  -0.047119
              19         20         21         22         23         24
     1  O    0.002489   0.000487  -0.000005  -0.000045   0.001297  -0.039195
     2  S   -0.021714   0.002636  -0.000337   0.002667  -0.024414   0.411361
     3  N   -0.001662  -0.000096   0.000002  -0.000088  -0.001366  -0.051745
     4  C    0.000048  -0.000006   0.000005   0.000064   0.000275  -0.000229
     5  C    0.000000   0.000000   0.000000  -0.000004  -0.000044  -0.011652
     6  S    0.000020  -0.000006   0.000006   0.000026  -0.000059   0.000987
     7  C    0.000207   0.000117   0.000020  -0.000806  -0.005932  -0.000966
     8  O    0.000001   0.000000   0.000001  -0.000094  -0.001655  -0.000067
     9  O    0.000000   0.000000   0.000000   0.000000  -0.000002   0.000000
    10  C   -0.000011   0.000000   0.000000   0.000000  -0.000004   0.000029
    11  C    0.000000   0.000000   0.000000   0.000000   0.000000  -0.000014
    12  C    0.000000   0.000000   0.000000   0.000000   0.000000   0.000001
    13  C    0.000000   0.000000   0.000000   0.000000   0.000000  -0.000014
    14  C    0.000000   0.000000   0.000000   0.000000   0.000000  -0.000001
    15  C    0.000000   0.000000   0.000000   0.000000   0.000000   0.000000
    16  C    0.000000   0.000000   0.000000   0.000000   0.000000   0.000000
    17  C    0.000000   0.000000   0.000000   0.000000   0.000000   0.000000
    18  C    0.478569  -0.028574  -0.038587  -0.031905   0.482412  -0.060197
    19  C    4.941137   0.513580  -0.030271  -0.037298  -0.037133   0.001708
    20  C    0.513580   4.875226   0.539453  -0.029333  -0.038161  -0.000042
    21  C   -0.030271   0.539453   4.849128   0.540907  -0.030914  -0.000006
    22  C   -0.037298  -0.029333   0.540907   4.880284   0.504999   0.000551
    23  C   -0.037133  -0.038161  -0.030914   0.504999   4.975038   0.003167
    24  O    0.001708  -0.000042  -0.000006   0.000551   0.003167   8.272731
    25  H    0.000381   0.000023   0.000000  -0.000001   0.000030   0.001679
    26  H    0.000000   0.000000   0.000000   0.000000   0.000001   0.000227
    27  H   -0.000006   0.000000   0.000000   0.000003  -0.000078   0.018495
    28  H   -0.000011  -0.000004  -0.000002   0.000004   0.000064  -0.000002
    29  H   -0.000640  -0.000242   0.000026   0.001586   0.009246  -0.000104
    30  H    0.000000   0.000000   0.000000   0.000000   0.000000   0.000001
    31  H   -0.000001   0.000000   0.000000   0.000000   0.000001   0.000001
    32  H    0.000000   0.000000   0.000000   0.000000   0.000000   0.000000
    33  H    0.000000   0.000000   0.000000   0.000000   0.000000  -0.000007
    34  H    0.000000   0.000000   0.000000   0.000000   0.000000   0.000002
    35  H    0.000000   0.000000   0.000000   0.000000   0.000000   0.000000
    36  H    0.000000   0.000000   0.000000   0.000000   0.000000   0.000000
    37  H    0.000000   0.000000   0.000000   0.000000   0.000000   0.000000
    38  H    0.000000   0.000000   0.000000   0.000000   0.000000   0.000000
    39  H    0.363136  -0.033702   0.004187   0.000289   0.004392   0.000079
    40  H   -0.041096   0.365971  -0.040216   0.004322   0.000590   0.000000
    41  H    0.004861  -0.041097   0.364739  -0.040941   0.004895   0.000000
    42  H    0.000609   0.004295  -0.040185   0.366437  -0.040895   0.000002
    43  H    0.004409   0.000223   0.004128  -0.032653   0.357825   0.008498
              25         26         27         28         29         30
     1  O    0.001843   0.000001  -0.000002   0.000000  -0.000024   0.000000
     2  S   -0.003660   0.000206   0.000773   0.000139   0.000058   0.000043
     3  N    0.293179   0.001479  -0.004354   0.002054  -0.005437   0.004307
     4  C   -0.030464  -0.026959  -0.020713  -0.027104  -0.023701  -0.033686
     5  C    0.004809   0.339609   0.322873   0.009337   0.004520  -0.006658
     6  S   -0.000222  -0.011690  -0.003170  -0.010094  -0.004391   0.006723
     7  C   -0.000067   0.008845   0.004490   0.343750   0.323396  -0.003063
     8  O    0.000002   0.000747   0.000353   0.000812  -0.000816   0.000012
     9  O    0.000001   0.000291   0.000996  -0.000277   0.001138   0.004345
    10  C   -0.004768  -0.006470   0.003085  -0.005037   0.003228   0.366650
    11  C   -0.000358  -0.001917   0.000033   0.000203  -0.000094  -0.031310
    12  C    0.000211   0.006529  -0.000124   0.000011   0.000001  -0.005783
    13  C   -0.000026  -0.001205   0.000120   0.000000   0.000000   0.000122
    14  C    0.000000  -0.000496  -0.000029   0.000000   0.000000   0.000004
    15  C    0.000000   0.000210  -0.000008   0.000000   0.000000   0.000000
    16  C    0.000000   0.001568   0.000002   0.000000   0.000000  -0.000125
    17  C    0.000001   0.006984   0.000041   0.000001   0.000000   0.003799
    18  C   -0.000956  -0.000001   0.000004   0.000097   0.005117   0.000002
    19  C    0.000381   0.000000  -0.000006  -0.000011  -0.000640   0.000000
    20  C    0.000023   0.000000   0.000000  -0.000004  -0.000242   0.000000
    21  C    0.000000   0.000000   0.000000  -0.000002   0.000026   0.000000
    22  C   -0.000001   0.000000   0.000003   0.000004   0.001586   0.000000
    23  C    0.000030   0.000001  -0.000078   0.000064   0.009246   0.000000
    24  O    0.001679   0.000227   0.018495  -0.000002  -0.000104   0.000001
    25  H    0.354827  -0.000037  -0.000019   0.000212   0.000042   0.000070
    26  H   -0.000037   0.460123  -0.012909  -0.000267  -0.000229   0.000282
    27  H   -0.000019  -0.012909   0.434576  -0.000234  -0.000079   0.000133
    28  H    0.000212  -0.000267  -0.000234   0.476052  -0.017376   0.000078
    29  H    0.000042  -0.000229  -0.000079  -0.017376   0.484353   0.000157
    30  H    0.000070   0.000282   0.000133   0.000078   0.000157   0.537100
    31  H    0.005269   0.000245  -0.000115   0.004000   0.000068  -0.028820
    32  H   -0.000164  -0.000011   0.000003  -0.000019   0.000002  -0.002252
    33  H    0.001085   0.000144   0.000006   0.000001   0.000004   0.004737
    34  H   -0.000020   0.000045   0.000048   0.000000   0.000000   0.000012
    35  H    0.000000   0.000005   0.000001   0.000000   0.000000   0.000000
    36  H    0.000000   0.000000   0.000000   0.000000   0.000000   0.000000
    37  H    0.000000   0.000012   0.000000   0.000000   0.000000   0.000004
    38  H    0.000000   0.000075   0.000000   0.000000   0.000000   0.002135
    39  H    0.000187   0.000000   0.000000   0.000000   0.000009   0.000000
    40  H    0.000000   0.000000   0.000000   0.000000   0.000000   0.000000
    41  H    0.000000   0.000000   0.000000   0.000000  -0.000001   0.000000
    42  H    0.000000   0.000000   0.000000   0.000000   0.000050   0.000000
    43  H   -0.000011   0.000007   0.000099   0.000013  -0.000803   0.000000
              31         32         33         34         35         36
     1  O    0.000000   0.000000   0.000031   0.000016   0.000000   0.000000
     2  S   -0.000168  -0.000004   0.000342   0.000629  -0.000001   0.000000
     3  N   -0.005318   0.000244   0.008806   0.001385   0.000000   0.000000
     4  C   -0.034801   0.005147  -0.011617  -0.000154   0.000001   0.000000
     5  C    0.005695  -0.000064  -0.000428  -0.000043  -0.000004   0.000000
     6  S   -0.000277   0.000019  -0.000018   0.000002   0.000000   0.000000
     7  C   -0.007362  -0.000114   0.000190   0.000006   0.000000   0.000000
     8  O    0.000001   0.000000   0.000000   0.000000   0.000000   0.000000
     9  O    0.000042   0.000000   0.000000   0.000000   0.000000   0.000000
    10  C    0.359297  -0.035653  -0.035748   0.000146   0.000001   0.000000
    11  C   -0.032233   0.362486   0.363271  -0.011512  -0.000176   0.000007
    12  C    0.004210  -0.030685  -0.032013  -0.041848   0.003765   0.000671
    13  C   -0.000094   0.002509  -0.005235   0.356642  -0.038585   0.004599
    14  C    0.000002  -0.000218   0.000218  -0.044853   0.359443  -0.042433
    15  C    0.000000   0.000024   0.000003   0.004701  -0.042576   0.361760
    16  C    0.000003   0.000037  -0.000183   0.000283   0.004537  -0.042245
    17  C    0.000066  -0.005208   0.004850   0.006358   0.000769   0.004678
    18  C    0.000002   0.000000   0.000009   0.000002   0.000000   0.000000
    19  C   -0.000001   0.000000   0.000000   0.000000   0.000000   0.000000
    20  C    0.000000   0.000000   0.000000   0.000000   0.000000   0.000000
    21  C    0.000000   0.000000   0.000000   0.000000   0.000000   0.000000
    22  C    0.000000   0.000000   0.000000   0.000000   0.000000   0.000000
    23  C    0.000001   0.000000   0.000000   0.000000   0.000000   0.000000
    24  O    0.000001   0.000000  -0.000007   0.000002   0.000000   0.000000
    25  H    0.005269  -0.000164   0.001085  -0.000020   0.000000   0.000000
    26  H    0.000245  -0.000011   0.000144   0.000045   0.000005   0.000000
    27  H   -0.000115   0.000003   0.000006   0.000048   0.000001   0.000000
    28  H    0.004000  -0.000019   0.000001   0.000000   0.000000   0.000000
    29  H    0.000068   0.000002   0.000004   0.000000   0.000000   0.000000
    30  H   -0.028820  -0.002252   0.004737   0.000012   0.000000   0.000000
    31  H    0.573441  -0.004668  -0.002395  -0.000019   0.000000   0.000000
    32  H   -0.004668   0.570989  -0.031733   0.000108   0.000003   0.000000
    33  H   -0.002395  -0.031733   0.566195   0.007075  -0.000009   0.000000
    34  H   -0.000019   0.000108   0.007075   0.582446  -0.005263  -0.000167
    35  H    0.000000   0.000003  -0.000009  -0.005263   0.580141  -0.005385
    36  H    0.000000   0.000000   0.000000  -0.000167  -0.005385   0.581705
    37  H    0.000000  -0.000003   0.000003   0.000016  -0.000179  -0.005293
    38  H   -0.000112   0.002763   0.000044  -0.000170   0.000017  -0.000174
    39  H    0.000000   0.000000   0.000000   0.000000   0.000000   0.000000
    40  H    0.000000   0.000000   0.000000   0.000000   0.000000   0.000000
    41  H    0.000000   0.000000   0.000000   0.000000   0.000000   0.000000
    42  H    0.000000   0.000000   0.000000   0.000000   0.000000   0.000000
    43  H    0.000000   0.000000   0.000000   0.000000   0.000000   0.000000
              37         38         39         40         41         42
     1  O    0.000000   0.000000   0.007518   0.000001   0.000000   0.000000
     2  S    0.000000   0.000000  -0.001369  -0.000048   0.000006  -0.000051
     3  N    0.000000   0.000001   0.000002   0.000001   0.000000   0.000001
     4  C    0.000000   0.000111   0.000017   0.000000   0.000000   0.000000
     5  C   -0.000004  -0.000028   0.000000   0.000000   0.000000   0.000000
     6  S    0.000000   0.000003   0.000000   0.000000   0.000000   0.000006
     7  C    0.000000  -0.000001  -0.000012   0.000000   0.000000  -0.000014
     8  O    0.000000   0.000000   0.000000   0.000000   0.000000   0.000009
     9  O    0.000000  -0.000002   0.000000   0.000000   0.000000   0.000000
    10  C    0.000001   0.000648   0.000000   0.000000   0.000000   0.000000
    11  C   -0.000179  -0.008346   0.000000   0.000000   0.000000   0.000000
    12  C    0.003575  -0.048046   0.000000   0.000000   0.000000   0.000000
    13  C    0.000786   0.005951   0.000000   0.000000   0.000000   0.000000
    14  C    0.004534   0.000314   0.000000   0.000000   0.000000   0.000000
    15  C   -0.042050   0.004754   0.000000   0.000000   0.000000   0.000000
    16  C    0.359719  -0.043046   0.000000   0.000000   0.000000   0.000000
    17  C   -0.039425   0.358798   0.000000   0.000000   0.000000   0.000000
    18  C    0.000000   0.000000  -0.050654   0.004871   0.000442   0.004714
    19  C    0.000000   0.000000   0.363136  -0.041096   0.004861   0.000609
    20  C    0.000000   0.000000  -0.033702   0.365971  -0.041097   0.004295
    21  C    0.000000   0.000000   0.004187  -0.040216   0.364739  -0.040185
    22  C    0.000000   0.000000   0.000289   0.004322  -0.040941   0.366437
    23  C    0.000000   0.000000   0.004392   0.000590   0.004895  -0.040895
    24  O    0.000000   0.000000   0.000079   0.000000   0.000000   0.000002
    25  H    0.000000   0.000000   0.000187   0.000000   0.000000   0.000000
    26  H    0.000012   0.000075   0.000000   0.000000   0.000000   0.000000
    27  H    0.000000   0.000000   0.000000   0.000000   0.000000   0.000000
    28  H    0.000000   0.000000   0.000000   0.000000   0.000000   0.000000
    29  H    0.000000   0.000000   0.000009   0.000000  -0.000001   0.000050
    30  H    0.000004   0.002135   0.000000   0.000000   0.000000   0.000000
    31  H    0.000000  -0.000112   0.000000   0.000000   0.000000   0.000000
    32  H   -0.000003   0.002763   0.000000   0.000000   0.000000   0.000000
    33  H    0.000003   0.000044   0.000000   0.000000   0.000000   0.000000
    34  H    0.000016  -0.000170   0.000000   0.000000   0.000000   0.000000
    35  H   -0.000179   0.000017   0.000000   0.000000   0.000000   0.000000
    36  H   -0.005293  -0.000174   0.000000   0.000000   0.000000   0.000000
    37  H    0.580346  -0.005384   0.000000   0.000000   0.000000   0.000000
    38  H   -0.005384   0.591132   0.000000   0.000000   0.000000   0.000000
    39  H    0.000000   0.000000   0.529103  -0.005140  -0.000142   0.000014
    40  H    0.000000   0.000000  -0.005140   0.550706  -0.005180  -0.000157
    41  H    0.000000   0.000000  -0.000142  -0.005180   0.552863  -0.005138
    42  H    0.000000   0.000000   0.000014  -0.000157  -0.005138   0.547573
    43  H    0.000000   0.000000  -0.000138   0.000013  -0.000133  -0.004847
              43
     1  O    0.000056
     2  S   -0.003834
     3  N    0.000166
     4  C    0.000078
     5  C   -0.000279
     6  S    0.002360
     7  C   -0.000537
     8  O    0.006175
     9  O    0.000006
    10  C    0.000001
    11  C    0.000000
    12  C    0.000000
    13  C    0.000000
    14  C    0.000000
    15  C    0.000000
    16  C    0.000000
    17  C    0.000000
    18  C   -0.047119
    19  C    0.004409
    20  C    0.000223
    21  C    0.004128
    22  C   -0.032653
    23  C    0.357825
    24  O    0.008498
    25  H   -0.000011
    26  H    0.000007
    27  H    0.000099
    28  H    0.000013
    29  H   -0.000803
    30  H    0.000000
    31  H    0.000000
    32  H    0.000000
    33  H    0.000000
    34  H    0.000000
    35  H    0.000000
    36  H    0.000000
    37  H    0.000000
    38  H    0.000000
    39  H   -0.000138
    40  H    0.000013
    41  H   -0.000133
    42  H   -0.004847
    43  H    0.508900
 Mulliken charges:
               1
     1  O   -0.547269
     2  S    1.191666
     3  N   -0.708769
     4  C    0.206133
     5  C   -0.513945
     6  S    1.107528
     7  C   -0.512299
     8  O   -0.540892
     9  O   -0.546997
    10  C   -0.321943
    11  C   -0.345073
    12  C    0.146986
    13  C   -0.189991
    14  C   -0.134869
    15  C   -0.140549
    16  C   -0.135244
    17  C   -0.192167
    18  C   -0.155298
    19  C   -0.141309
    20  C   -0.130746
    21  C   -0.122081
    22  C   -0.128971
    23  C   -0.163578
    24  O   -0.555280
    25  H    0.376923
    26  H    0.234556
    27  H    0.255706
    28  H    0.223599
    29  H    0.220937
    30  H    0.180980
    31  H    0.164043
    32  H    0.166461
    33  H    0.162376
    34  H    0.144128
    35  H    0.143497
    36  H    0.142277
    37  H    0.143521
    38  H    0.138564
    39  H    0.182227
    40  H    0.165362
    41  H    0.164826
    42  H    0.167578
    43  H    0.197396
 Sum of Mulliken charges =   0.00000
 Mulliken charges with hydrogens summed into heavy atoms:
               1
     1  O   -0.547269
     2  S    1.191666
     3  N   -0.331846
     4  C    0.206133
     5  C   -0.023682
     6  S    1.107528
     7  C   -0.067764
     8  O   -0.540892
     9  O   -0.546997
    10  C    0.023080
    11  C   -0.016236
    12  C    0.146986
    13  C   -0.045863
    14  C    0.008628
    15  C    0.001729
    16  C    0.008277
    17  C   -0.053604
    18  C   -0.155298
    19  C    0.040918
    20  C    0.034616
    21  C    0.042745
    22  C    0.038607
    23  C    0.033818
    24  O   -0.555280
 Electronic spatial extent (au):  <R**2>=           9216.1387
 Charge=              0.0000 electrons
 Dipole moment (field-independent basis, Debye):
    X=              2.6685    Y=             -1.5731    Z=              6.3459  Tot=              7.0616
 Quadrupole moment (field-independent basis, Debye-Ang):
   XX=           -123.1320   YY=           -182.6236   ZZ=           -147.4946
   XY=              6.5180   XZ=             10.6563   YZ=             -1.7001
 Traceless Quadrupole moment (field-independent basis, Debye-Ang):
   XX=             27.9513   YY=            -31.5402   ZZ=              3.5888
   XY=              6.5180   XZ=             10.6563   YZ=             -1.7001
 Octapole moment (field-independent basis, Debye-Ang**2):
  XXX=            127.6177  YYY=            -40.0854  ZZZ=             18.3944  XYY=              9.8532
  XXY=             38.2373  XXZ=              3.4669  XZZ=             -8.9207  YZZ=             -5.3848
  YYZ=             17.7466  XYZ=            -20.3945
 Hexadecapole moment (field-independent basis, Debye-Ang**3):
 XXXX=          -7764.9616 YYYY=          -2839.8333 ZZZZ=          -1076.3347 XXXY=            -77.8255
 XXXZ=            285.5377 YYYX=             83.8010 YYYZ=             11.8084 ZZZX=             15.0096
 ZZZY=             -2.4776 XXYY=          -1882.9713 XXZZ=          -1552.7734 YYZZ=           -584.4304
 XXYZ=            -28.6547 YYXZ=             53.4368 ZZXY=             -5.6932
 N-N= 2.529364581308D+03 E-N=-9.309154414818D+03  KE= 1.798716159576D+03
 No NMR shielding tensors so no spin-rotation constants.
 Leave Link  601 at Sat Aug  8 00:42:33 2020, MaxMem=    33554432 cpu:         0.4
 (Enter /prod/apps/gaussian/g09d1/l9999.exe)
 1\1\GINC-PIRINEUS23\SP\RB3LYP\6-31G(d)\C17H19N1O4S2\UBAFAR01\08-Aug-20
 20\0\\#p b3lyp/6-31G(d) scrf=(iefpcm,read,solvent=n-Octanol) geom=allc
 heck guess=read\\SM39.n.4.pdb.xyz\\0,1\O,0,3.053,0.799,2.095\S,0,2.124
 ,1.408,1.14\N,0,2.928,1.277,-0.332\C,0,2.519,1.786,-1.647\C,0,2.14,3.3
 05,-1.652\S,0,0.644,2.94,-2.625\C,0,1.162,1.237,-2.222\O,0,-0.607,3.34
 1,-1.959\O,0,0.832,3.244,-4.056\C,0,3.662,1.459,-2.63\C,0,5.076,1.918,
 -2.224\C,0,5.314,3.413,-2.216\C,0,5.526,4.09,-1.009\C,0,5.749,5.467,-0
 .987\C,0,5.766,6.191,-2.18\C,0,5.564,5.527,-3.392\C,0,5.345,4.149,-3.4
 09\C,0,0.647,0.395,1.118\C,0,0.759,-0.97,1.394\C,0,-0.391,-1.756,1.37\
 C,0,-1.629,-1.179,1.076\C,0,-1.727,0.189,0.811\C,0,-0.584,0.989,0.832\
 O,0,1.691,2.802,1.277\H,0,3.397,0.374,-0.374\H,0,2.84,3.959,-2.164\H,0
 ,1.873,3.694,-0.67\H,0,1.242,0.587,-3.093\H,0,0.496,0.808,-1.475\H,0,3
 .388,1.883,-3.601\H,0,3.679,0.371,-2.766\H,0,5.772,1.445,-2.925\H,0,5.
 309,1.52,-1.233\H,0,5.51,3.526,-0.082\H,0,5.909,5.973,-0.041\H,0,5.938
 ,7.262,-2.167\H,0,5.584,6.08,-4.326\H,0,5.199,3.641,-4.357\H,0,1.724,-
 1.396,1.641\H,0,-0.322,-2.816,1.586\H,0,-2.52,-1.796,1.06\H,0,-2.69,0.
 636,0.593\H,0,-0.638,2.053,0.637\\Version=AM64L-G09RevD.01\State=1-A\H
 F=-1811.1522435\RMSD=4.892e-09\Dipole=0.545456,-2.694234,-0.4027202\Qu
 adrupole=0.8762528,14.4543693,-15.330622,13.796745,-12.9939165,0.84824
 03\PG=C01 [X(C17H19N1O4S2)]\\@


 When I told the people of Northern Ireland that I was
 an atheist, a woman in the audience stood up and said,
 "Yes, but is it the God of the Catholics or the God
 of the Protestants in whom you don't believe?"
                               -- Quentin Crisp
 Job cpu time:       0 days  0 hours  6 minutes 35.3 seconds.
 File lengths (MBytes):  RWF=    291 Int=      0 D2E=      0 Chk=      9 Scr=      1
 Normal termination of Gaussian 09 at Sat Aug  8 00:42:33 2020.
