 Entering Gaussian System, Link 0=g09
 Initial command:
 /prod/apps/gaussian/g09d1/l1.exe "/tmp/ubafar01/1449005/Gau-26377.inp" -scrdir="/tmp/ubafar01/1449005/"
 Entering Link 1 = /prod/apps/gaussian/g09d1/l1.exe PID=     26380.
  
 Copyright (c) 1988,1990,1992,1993,1995,1998,2003,2009,2013,
            Gaussian, Inc.  All Rights Reserved.
  
 This is part of the Gaussian(R) 09 program.  It is based on
 the Gaussian(R) 03 system (copyright 2003, Gaussian, Inc.),
 the Gaussian(R) 98 system (copyright 1998, Gaussian, Inc.),
 the Gaussian(R) 94 system (copyright 1995, Gaussian, Inc.),
 the Gaussian 92(TM) system (copyright 1992, Gaussian, Inc.),
 the Gaussian 90(TM) system (copyright 1990, Gaussian, Inc.),
 the Gaussian 88(TM) system (copyright 1988, Gaussian, Inc.),
 the Gaussian 86(TM) system (copyright 1986, Carnegie Mellon
 University), and the Gaussian 82(TM) system (copyright 1983,
 Carnegie Mellon University). Gaussian is a federally registered
 trademark of Gaussian, Inc.
  
 This software contains proprietary and confidential information,
 including trade secrets, belonging to Gaussian, Inc.
  
 This software is provided under written license and may be
 used, copied, transmitted, or stored only in accord with that
 written license.
  
 The following legend is applicable only to US Government
 contracts under FAR:
  
                    RESTRICTED RIGHTS LEGEND
  
 Use, reproduction and disclosure by the US Government is
 subject to restrictions as set forth in subparagraphs (a)
 and (c) of the Commercial Computer Software - Restricted
 Rights clause in FAR 52.227-19.
  
 Gaussian, Inc.
 340 Quinnipiac St., Bldg. 40, Wallingford CT 06492
  
  
 ---------------------------------------------------------------
 Warning -- This program may not be used in any manner that
 competes with the business of Gaussian, Inc. or will provide
 assistance to any competitor of Gaussian, Inc.  The licensee
 of this program is prohibited from giving any competitor of
 Gaussian, Inc. access to this program.  By using this program,
 the user acknowledges that Gaussian, Inc. is engaged in the
 business of creating and licensing software in the field of
 computational chemistry and represents and warrants to the
 licensee that it is not a competitor of Gaussian, Inc. and that
 it will not use this program in any manner prohibited above.
 ---------------------------------------------------------------
  

 Cite this work as:
 Gaussian 09, Revision D.01,
 M. J. Frisch, G. W. Trucks, H. B. Schlegel, G. E. Scuseria, 
 M. A. Robb, J. R. Cheeseman, G. Scalmani, V. Barone, B. Mennucci, 
 G. A. Petersson, H. Nakatsuji, M. Caricato, X. Li, H. P. Hratchian, 
 A. F. Izmaylov, J. Bloino, G. Zheng, J. L. Sonnenberg, M. Hada, 
 M. Ehara, K. Toyota, R. Fukuda, J. Hasegawa, M. Ishida, T. Nakajima, 
 Y. Honda, O. Kitao, H. Nakai, T. Vreven, J. A. Montgomery, Jr., 
 J. E. Peralta, F. Ogliaro, M. Bearpark, J. J. Heyd, E. Brothers, 
 K. N. Kudin, V. N. Staroverov, T. Keith, R. Kobayashi, J. Normand, 
 K. Raghavachari, A. Rendell, J. C. Burant, S. S. Iyengar, J. Tomasi, 
 M. Cossi, N. Rega, J. M. Millam, M. Klene, J. E. Knox, J. B. Cross, 
 V. Bakken, C. Adamo, J. Jaramillo, R. Gomperts, R. E. Stratmann, 
 O. Yazyev, A. J. Austin, R. Cammi, C. Pomelli, J. W. Ochterski, 
 R. L. Martin, K. Morokuma, V. G. Zakrzewski, G. A. Voth, 
 P. Salvador, J. J. Dannenberg, S. Dapprich, A. D. Daniels, 
 O. Farkas, J. B. Foresman, J. V. Ortiz, J. Cioslowski, 
 and D. J. Fox, Gaussian, Inc., Wallingford CT, 2013.
 
 ******************************************
 Gaussian 09:  AM64L-G09RevD.01 24-Apr-2013
                 7-Aug-2020 
 ******************************************
 %nproc=1
 Will use up to    1 processors via shared memory.
 %Chk=SM39.n.4.pdb.xyz.mst.n.w.chk
 -----------------
 #p b3lyp/6-31G(d)
 -----------------
 1/38=1/1;
 2/12=2,17=6,18=5,40=1/2;
 3/5=1,6=6,7=1,11=2,16=1,25=1,30=1,74=-5/1,2,3;
 4//1;
 5/5=2,38=5/2;
 6/7=2,8=2,9=2,10=2,28=1/1;
 99/5=1,9=1/99;
 Leave Link    1 at Fri Aug  7 23:53:17 2020, MaxMem=           0 cpu:         0.0
 (Enter /prod/apps/gaussian/g09d1/l101.exe)
 ----------------
 SM39.n.4.pdb.xyz
 ----------------
 Symbolic Z-matrix:
 Charge =  0 Multiplicity = 1
 O                     3.119     0.588     2.087 
 S                     2.235     1.298     1.153 
 N                     3.02      1.154    -0.322 
 C                     2.601     1.659    -1.638 
 C                     2.109     3.145    -1.638 
 S                     0.703     2.683    -2.697 
 C                     1.296     1.02     -2.246 
 O                    -0.617     3.03     -2.134 
 O                     0.957     2.992    -4.12 
 C                     3.782     1.417    -2.602 
 C                     5.152     1.971    -2.168 
 C                     5.3       3.478    -2.179 
 C                     5.469     4.185    -0.982 
 C                     5.617     5.574    -0.982 
 C                     5.601     6.279    -2.186 
 C                     5.441     5.586    -3.389 
 C                     5.296     4.198    -3.384 
 C                     0.672     0.427     1.112 
 C                     0.667    -0.971     1.136 
 C                    -0.555    -1.638     1.103 
 C                    -1.75     -0.913     1.051 
 C                    -1.73      0.483     1.034 
 C                    -0.512     1.165     1.065 
 O                     1.939     2.723     1.364 
 H                     3.431     0.22     -0.382 
 H                     2.78      3.867    -2.095 
 H                     1.751     3.494    -0.671 
 H                     1.439     0.359    -3.1 
 H                     0.631     0.571    -1.511 
 H                     3.498     1.819    -3.58 
 H                     3.878     0.334    -2.733 
 H                     5.894     1.534    -2.847 
 H                     5.382     1.598    -1.167 
 H                     5.481     3.638    -0.046 
 H                     5.746     6.102    -0.042 
 H                     5.717     7.358    -2.189 
 H                     5.436     6.125    -4.331 
 H                     5.181     3.668    -4.325 
 H                     1.597    -1.526     1.189 
 H                    -0.576    -2.721     1.122 
 H                    -2.698    -1.439     1.027 
 H                    -2.657     1.044     1.002 
 H                    -0.471     2.246     1.058 
 
 NAtoms=     43 NQM=       43 NQMF=       0 NMMI=      0 NMMIF=      0
                NMic=       0 NMicF=      0.
                    Isotopes and Nuclear Properties:
 (Nuclear quadrupole moments (NQMom) in fm**2, nuclear magnetic moments (NMagM)
  in nuclear magnetons)

  Atom         1           2           3           4           5           6           7           8           9          10
 IAtWgt=          16          32          14          12          12          32          12          16          16          12
 AtmWgt=  15.9949146  31.9720718  14.0030740  12.0000000  12.0000000  31.9720718  12.0000000  15.9949146  15.9949146  12.0000000
 NucSpn=           0           0           2           0           0           0           0           0           0           0
 AtZEff=   0.0000000   0.0000000   0.0000000   0.0000000   0.0000000   0.0000000   0.0000000   0.0000000   0.0000000   0.0000000
 NQMom=    0.0000000   0.0000000   2.0440000   0.0000000   0.0000000   0.0000000   0.0000000   0.0000000   0.0000000   0.0000000
 NMagM=    0.0000000   0.0000000   0.4037610   0.0000000   0.0000000   0.0000000   0.0000000   0.0000000   0.0000000   0.0000000
 AtZNuc=   8.0000000  16.0000000   7.0000000   6.0000000   6.0000000  16.0000000   6.0000000   8.0000000   8.0000000   6.0000000

  Atom        11          12          13          14          15          16          17          18          19          20
 IAtWgt=          12          12          12          12          12          12          12          12          12          12
 AtmWgt=  12.0000000  12.0000000  12.0000000  12.0000000  12.0000000  12.0000000  12.0000000  12.0000000  12.0000000  12.0000000
 NucSpn=           0           0           0           0           0           0           0           0           0           0
 AtZEff=   0.0000000   0.0000000   0.0000000   0.0000000   0.0000000   0.0000000   0.0000000   0.0000000   0.0000000   0.0000000
 NQMom=    0.0000000   0.0000000   0.0000000   0.0000000   0.0000000   0.0000000   0.0000000   0.0000000   0.0000000   0.0000000
 NMagM=    0.0000000   0.0000000   0.0000000   0.0000000   0.0000000   0.0000000   0.0000000   0.0000000   0.0000000   0.0000000
 AtZNuc=   6.0000000   6.0000000   6.0000000   6.0000000   6.0000000   6.0000000   6.0000000   6.0000000   6.0000000   6.0000000

  Atom        21          22          23          24          25          26          27          28          29          30
 IAtWgt=          12          12          12          16           1           1           1           1           1           1
 AtmWgt=  12.0000000  12.0000000  12.0000000  15.9949146   1.0078250   1.0078250   1.0078250   1.0078250   1.0078250   1.0078250
 NucSpn=           0           0           0           0           1           1           1           1           1           1
 AtZEff=   0.0000000   0.0000000   0.0000000   0.0000000   0.0000000   0.0000000   0.0000000   0.0000000   0.0000000   0.0000000
 NQMom=    0.0000000   0.0000000   0.0000000   0.0000000   0.0000000   0.0000000   0.0000000   0.0000000   0.0000000   0.0000000
 NMagM=    0.0000000   0.0000000   0.0000000   0.0000000   2.7928460   2.7928460   2.7928460   2.7928460   2.7928460   2.7928460
 AtZNuc=   6.0000000   6.0000000   6.0000000   8.0000000   1.0000000   1.0000000   1.0000000   1.0000000   1.0000000   1.0000000

  Atom        31          32          33          34          35          36          37          38          39          40
 IAtWgt=           1           1           1           1           1           1           1           1           1           1
 AtmWgt=   1.0078250   1.0078250   1.0078250   1.0078250   1.0078250   1.0078250   1.0078250   1.0078250   1.0078250   1.0078250
 NucSpn=           1           1           1           1           1           1           1           1           1           1
 AtZEff=   0.0000000   0.0000000   0.0000000   0.0000000   0.0000000   0.0000000   0.0000000   0.0000000   0.0000000   0.0000000
 NQMom=    0.0000000   0.0000000   0.0000000   0.0000000   0.0000000   0.0000000   0.0000000   0.0000000   0.0000000   0.0000000
 NMagM=    2.7928460   2.7928460   2.7928460   2.7928460   2.7928460   2.7928460   2.7928460   2.7928460   2.7928460   2.7928460
 AtZNuc=   1.0000000   1.0000000   1.0000000   1.0000000   1.0000000   1.0000000   1.0000000   1.0000000   1.0000000   1.0000000

  Atom        41          42          43
 IAtWgt=           1           1           1
 AtmWgt=   1.0078250   1.0078250   1.0078250
 NucSpn=           1           1           1
 AtZEff=   0.0000000   0.0000000   0.0000000
 NQMom=    0.0000000   0.0000000   0.0000000
 NMagM=    2.7928460   2.7928460   2.7928460
 AtZNuc=   1.0000000   1.0000000   1.0000000
 Leave Link  101 at Fri Aug  7 23:53:17 2020, MaxMem=    33554432 cpu:         0.1
 (Enter /prod/apps/gaussian/g09d1/l202.exe)
                          Input orientation:                          
 ---------------------------------------------------------------------
 Center     Atomic      Atomic             Coordinates (Angstroms)
 Number     Number       Type             X           Y           Z
 ---------------------------------------------------------------------
      1          8           0        3.119000    0.588000    2.087000
      2         16           0        2.235000    1.298000    1.153000
      3          7           0        3.020000    1.154000   -0.322000
      4          6           0        2.601000    1.659000   -1.638000
      5          6           0        2.109000    3.145000   -1.638000
      6         16           0        0.703000    2.683000   -2.697000
      7          6           0        1.296000    1.020000   -2.246000
      8          8           0       -0.617000    3.030000   -2.134000
      9          8           0        0.957000    2.992000   -4.120000
     10          6           0        3.782000    1.417000   -2.602000
     11          6           0        5.152000    1.971000   -2.168000
     12          6           0        5.300000    3.478000   -2.179000
     13          6           0        5.469000    4.185000   -0.982000
     14          6           0        5.617000    5.574000   -0.982000
     15          6           0        5.601000    6.279000   -2.186000
     16          6           0        5.441000    5.586000   -3.389000
     17          6           0        5.296000    4.198000   -3.384000
     18          6           0        0.672000    0.427000    1.112000
     19          6           0        0.667000   -0.971000    1.136000
     20          6           0       -0.555000   -1.638000    1.103000
     21          6           0       -1.750000   -0.913000    1.051000
     22          6           0       -1.730000    0.483000    1.034000
     23          6           0       -0.512000    1.165000    1.065000
     24          8           0        1.939000    2.723000    1.364000
     25          1           0        3.431000    0.220000   -0.382000
     26          1           0        2.780000    3.867000   -2.095000
     27          1           0        1.751000    3.494000   -0.671000
     28          1           0        1.439000    0.359000   -3.100000
     29          1           0        0.631000    0.571000   -1.511000
     30          1           0        3.498000    1.819000   -3.580000
     31          1           0        3.878000    0.334000   -2.733000
     32          1           0        5.894000    1.534000   -2.847000
     33          1           0        5.382000    1.598000   -1.167000
     34          1           0        5.481000    3.638000   -0.046000
     35          1           0        5.746000    6.102000   -0.042000
     36          1           0        5.717000    7.358000   -2.189000
     37          1           0        5.436000    6.125000   -4.331000
     38          1           0        5.181000    3.668000   -4.325000
     39          1           0        1.597000   -1.526000    1.189000
     40          1           0       -0.576000   -2.721000    1.122000
     41          1           0       -2.698000   -1.439000    1.027000
     42          1           0       -2.657000    1.044000    1.002000
     43          1           0       -0.471000    2.246000    1.058000
 ---------------------------------------------------------------------
                    Distance matrix (angstroms):
                    1          2          3          4          5
     1  O    0.000000
     2  S    1.468983   0.000000
     3  N    2.476578   1.677077   0.000000
     4  C    3.910370   2.837950   1.470524   0.000000
     5  C    4.629684   3.349174   2.554576   1.565331   0.000000
     6  S    5.754367   4.368953   3.653348   2.402595   1.819824
     7  C    4.720682   3.537260   2.586872   1.575122   2.355049
     8  O    6.143118   4.683812   4.475543   3.532871   2.773142
     9  O    6.998593   5.683964   4.696703   3.261893   2.740591
    10  C    4.807653   4.062929   2.418308   1.543574   2.591179
    11  C    4.914347   4.471114   2.936091   2.624089   3.304395
    12  C    5.595321   5.024823   3.748043   3.299400   3.253621
    13  C    5.280120   4.832365   3.952235   3.877684   3.577923
    14  C    6.365451   5.854940   5.168792   4.985360   4.316994
    15  C    7.536998   6.876717   6.033381   5.535766   4.724016
    16  C    7.769058   7.021050   5.908498   5.152954   4.486280
    17  C    6.906755   6.193875   4.880774   4.093661   3.783424
    18  C    2.639006   1.789774   2.845697   3.577900   4.124923
    19  C    3.057317   2.758129   3.489699   4.283962   5.168742
    20  C    4.406995   4.050518   4.754631   5.323873   6.122668
    21  C    5.199371   4.558415   5.376850   5.725129   6.212082
    22  C    4.963128   4.049643   4.985126   5.223038   5.381798
    23  C    3.815963   2.751625   3.794590   4.152230   4.253969
    24  O    2.544279   1.470633   2.544193   3.253051   3.036279
    25  H    2.515697   2.224573   1.022192   2.082584   3.446860
    26  H    5.325025   4.176876   3.249846   2.261892   1.086450
    27  H    4.233536   2.895453   2.684728   2.241610   1.088602
    28  H    5.457088   4.427567   3.293762   2.275453   3.216852
    29  H    4.374476   3.193468   2.731470   2.254057   2.970873
    30  H    5.811531   4.926246   3.359356   2.145128   2.731110
    31  H    4.886000   4.327787   2.687282   2.141350   3.497157
    32  H    5.739329   5.426230   3.844464   3.510150   4.287567
    33  H    4.090206   3.921225   2.547588   2.821263   3.650696
    34  H    4.408087   4.177286   3.507557   3.839962   3.761369
    35  H    6.468227   6.069066   5.656163   5.672609   4.951650
    36  H    8.418235   7.747057   7.017771   6.518563   5.574104
    37  H    8.787354   7.976251   6.827882   5.935877   5.215513
    38  H    7.406213   6.656148   5.197512   4.232310   4.114691
    39  H    2.755337   2.895396   3.389757   4.375405   5.483823
    40  H    5.053091   4.904594   5.480144   6.074153   7.016893
    41  H    6.250585   5.642830   6.421758   6.691728   7.156992
    42  H    5.894687   4.900916   5.830386   5.915606   5.839397
    43  H    4.086062   2.868826   3.909469   4.129185   3.838361
                    6          7          8          9         10
     6  S    0.000000
     7  C    1.822257   0.000000
     8  O    1.476407   2.777087   0.000000
     9  O    1.478150   2.741456   2.534387   0.000000
    10  C    3.330469   2.542546   4.708715   3.572894   0.000000
    11  C    4.536561   3.972307   5.865492   4.738224   1.540186
    12  C    4.693906   4.698752   5.934106   4.781770   2.594412
    13  C    5.283179   5.387843   6.300835   5.623917   3.623837
    14  C    5.953696   6.403722   6.830944   6.182990   4.824135
    15  C    6.097765   6.796595   7.015856   6.009281   5.207769
    16  C    5.599546   6.271828   6.693842   5.231582   4.555459
    17  C    4.884961   5.233997   6.155509   4.563228   3.261546
    18  C    4.427073   3.466582   4.355875   5.833890   4.944289
    19  C    5.295744   3.974625   5.324430   6.589006   5.420186
    20  C    5.890128   4.659074   5.680866   7.141623   6.470674
    21  C    5.744208   4.887209   5.193762   7.022543   7.026830
    22  C    4.967882   4.494824   4.214523   6.330779   6.668958
    23  C    4.234760   3.775263   3.704437   5.690353   5.652330
    24  O    4.245117   4.042989   4.343200   5.577718   4.564147
    25  H    4.343683   2.944948   5.229905   5.270418   2.546450
    26  H    2.465398   3.214104   3.498814   2.861744   2.695098
    27  H    2.420888   2.967882   2.821895   3.574639   3.488216
    28  H    2.470846   1.089351   3.506356   2.864509   2.618591
    29  H    2.423288   1.088141   2.827068   3.574129   3.440174
    30  H    3.055848   2.695693   4.526661   2.850300   1.094872
    31  H    3.949648   2.715601   5.275627   4.185806   1.095110
    32  H    5.318758   4.665512   6.718594   5.302854   2.129380
    33  H    5.040949   4.265410   6.242893   5.499461   2.156846
    34  H    5.546991   5.404456   6.474180   6.122203   3.788480
    35  H    6.646084   7.105409   7.368950   7.016887   5.688596
    36  H    6.874146   7.727790   7.671647   6.741537   6.261811
    37  H    6.076069   6.895495   7.144553   5.470069   5.281138
    38  H    4.865500   5.140756   6.230917   4.282660   3.161160
    39  H    5.797923   4.286250   6.058157   7.000529   5.273249
    40  H    6.739719   5.370558   6.608874   7.903608   7.069893
    41  H    6.513514   5.719375   5.856146   7.712613   7.957184
    42  H    5.259137   5.116277   4.235598   6.564342   7.388414
    43  H    3.958443   3.942307   3.290112   5.422858   5.671935
                   11         12         13         14         15
    11  C    0.000000
    12  C    1.514290   0.000000
    13  C    2.531577   1.400435   0.000000
    14  C    3.821574   2.434443   1.396863   0.000000
    15  C    4.331373   2.817135   2.419065   1.395313   0.000000
    16  C    3.826563   2.434676   2.785181   2.413456   1.397519
    17  C    2.541441   1.403724   2.408257   2.786758   2.420494
    18  C    5.763049   6.446524   6.443494   7.438378   8.331731
    19  C    6.299762   7.228244   7.357273   8.474990   9.377768
    20  C    7.502944   8.439550   8.633836   9.718732  10.554276
    21  C    8.143526   8.911581   9.068443  10.024318  10.781476
    22  C    7.734913   8.289409   8.342341   9.163021   9.884613
    23  C    6.571364   7.046478   7.005924   7.822668   8.607599
    24  O    4.833622   4.941578   4.483532   5.211487   6.217546
    25  H    3.036056   4.163764   4.498296   5.814113   6.683921
    26  H    3.037520   2.551230   2.927561   3.493020   3.712690
    27  H    4.015886   3.856128   3.794434   4.401031   4.987379
    28  H    4.153738   5.048141   5.946856   7.009838   7.294110
    29  H    4.778189   5.540436   6.061937   7.083082   7.598539
    30  H    2.180038   2.821752   4.028945   5.033864   5.124202
    31  H    2.149900   3.494816   4.519677   5.792040   6.213772
    32  H    1.096619   2.139672   3.269044   4.458313   4.799770
    33  H    1.092717   2.136649   2.595065   3.987233   4.795632
    34  H    2.718458   2.146637   1.084181   2.154690   3.401306
    35  H    4.683788   3.413365   2.152956   1.085829   2.156175
    36  H    5.416589   3.902357   3.403863   2.156271   1.085222
    37  H    4.692008   3.414119   3.870464   3.398847   2.156842
    38  H    2.744686   2.157679   3.394979   3.872800   3.401329
    39  H    6.011363   7.077828   7.233336   8.442964   9.398972
    40  H    8.102404   9.157051   9.416033  10.563479  11.406059
    41  H    9.135569   9.920853  10.117576  11.061531  11.779826
    42  H    8.478721   8.908253   8.934988   9.639307  10.284120
    43  H    6.488515   6.730560   6.573045   7.231938   7.978584
                   16         17         18         19         20
    16  C    0.000000
    17  C    1.395562   0.000000
    18  C    8.343719   7.470999   0.000000
    19  C    9.287677   8.281099   1.398215   0.000000
    20  C   10.407510   9.403524   2.402048   1.392574   0.000000
    21  C   10.661195   9.769220   2.768647   2.419190   1.398697
    22  C    9.850217   9.093109   2.403918   2.805375   2.425701
    23  C    8.649946   7.919947   1.395962   2.440815   2.803587
    24  O    6.561386   5.999048   2.634466   3.913516   5.030554
    25  H    6.471175   5.321157   3.144355   3.370831   4.641722
    26  H    3.422034   2.846285   5.153844   6.189537   7.187103
    27  H    5.037865   4.519182   3.708075   4.937259   5.899334
    28  H    6.589465   5.449314   4.281805   4.506504   5.062534
    29  H    7.198139   6.198829   2.627270   3.063604   3.622054
    30  H    4.242879   2.988455   5.651443   6.167602   7.092824
    31  H    5.518769   4.167136   5.007106   5.194488   6.185076
    32  H    4.113110   2.782601   6.645932   7.032840   8.200834
    33  H    4.565623   3.417965   5.361826   5.842499   7.132501
    34  H    3.869361   3.389700   5.897285   6.768648   8.098745
    35  H    3.400249   3.872555   7.699534   8.786993  10.045956
    36  H    2.157814   3.404536   9.186261  10.292248  11.450033
    37  H    1.085316   2.151683   9.208102  10.148136  11.210915
    38  H    2.149981   1.086097   7.771495   8.468709   9.514122
    39  H    9.290585   8.207259   2.162351   1.084313   2.156628
    40  H   11.205341  10.131978   3.386371   2.146566   1.083370
    41  H   11.623038  10.730178   3.853061   3.399137   2.153561
    42  H   10.270747   9.614308   3.387481   3.889365   3.409066
    43  H    8.116844   7.536575   2.148983   3.413241   3.885169
                   21         22         23         24         25
    21  C    0.000000
    22  C    1.396247   0.000000
    23  C    2.418868   1.396284   0.000000
    24  O    5.189141   4.311387   2.919617   0.000000
    25  H    5.493627   5.358185   4.305123   3.396997   0.000000
    26  H    7.298398   6.448426   5.303175   3.739077   4.081517
    27  H    5.885910   4.908208   3.682269   2.184264   3.691205
    28  H    5.386883   5.210364   4.669396   5.076002   3.372671
    29  H    3.799376   3.472620   2.880115   3.821988   3.039382
    30  H    7.513421   7.099710   6.171211   5.262208   3.576100
    31  H    6.895509   6.757378   5.864083   5.123715   2.395831
    32  H    8.922609   8.619289   7.515101   5.898158   3.724136
    33  H    7.879725   7.527826   6.317321   4.418805   2.514261
    34  H    8.614080   7.944743   6.577697   3.920598   3.999765
    35  H   10.324480   9.413900   8.047483   5.280883   6.330304
    36  H   11.604444  10.635373   9.367081   6.955596   7.709870
    37  H   11.407803  10.581443   9.439127   7.499042   7.381304
    38  H    9.895741   9.307257   8.229663   6.615762   5.522540
    39  H    3.405469   3.889606   3.421219   4.266332   2.979952
    40  H    2.156892   3.406622   3.886945   6.001743   5.193029
    41  H    1.084415   2.152012   3.400126   6.239999   6.504014
    42  H    2.157521   1.084008   2.149334   4.906455   6.297474
    43  H    3.408104   2.166524   1.081800   2.475735   4.626433
                   26         27         28         29         30
    26  H    0.000000
    27  H    1.796036   0.000000
    28  H    3.887720   3.978142   0.000000
    29  H    3.977798   3.240977   1.795196   0.000000
    30  H    2.629649   3.784166   2.569335   3.749394   0.000000
    31  H    3.754296   4.331463   2.466584   3.477422   1.751295
    32  H    3.963003   5.073561   4.614289   5.514656   2.521771
    33  H    3.574905   4.126135   4.562769   4.872891   3.069343
    34  H    3.397976   3.784741   6.034610   5.922433   4.441870
    35  H    4.243488   4.812206   7.802798   7.675490   5.992916
    36  H    4.563100   5.741426   8.253315   8.508258   6.126937
    37  H    4.141569   5.822112   7.123070   7.866851   4.781368
    38  H    3.282880   5.014668   5.143216   6.181626   2.608892
    39  H    6.424064   5.355718   4.687612   3.552543   6.127494
    40  H    8.063099   6.874300   5.601063   4.384838   7.701810
    41  H    8.240692   6.856478   6.113894   4.643682   8.380300
    42  H    6.864525   5.313369   5.837195   4.165314   7.712287
    43  H    4.810203   3.079648   4.949529   3.258802   6.119341
                   31         32         33         34         35
    31  H    0.000000
    32  H    2.348883   0.000000
    33  H    2.512383   1.757453   0.000000
    34  H    4.550384   3.527462   2.329816   0.000000
    35  H    6.633305   5.362514   4.656623   2.478212   0.000000
    36  H    7.281101   5.863725   5.859549   4.299598   2.487566
    37  H    6.206178   4.846576   5.523363   4.954636   4.300250
    38  H    3.917631   2.691990   3.781305   4.289608   4.958596
    39  H    4.903534   6.642071   5.443927   6.578570   8.770174
    40  H    6.635674   8.701660   7.706559   8.859365  10.916405
    41  H    7.779775   9.882766   8.906369   9.686243  11.371481
    42  H    7.560460   9.390128   8.344879   8.605474   9.863250
    43  H    6.077929   7.501279   6.295088   6.211504   7.397961
                   36         37         38         39         40
    36  H    0.000000
    37  H    2.487451   0.000000
    38  H    4.297196   2.470204   0.000000
    39  H   10.359090  10.185584   8.380148   0.000000
    40  H   12.334943  12.005460  10.179989   2.480815   0.000000
    41  H   12.591350  12.332243  10.807590   4.298935   2.481015
    42  H   10.962342  10.943222   9.833440   4.973569   4.303509
    43  H    8.658343   8.887104   7.933718   4.303692   4.968522
                   41         42         43
    41  H    0.000000
    42  H    2.483464   0.000000
    43  H    4.305777   2.495303   0.000000
 Stoichiometry    C17H19NO4S2
 Framework group  C1[X(C17H19NO4S2)]
 Deg. of freedom   123
 Full point group                 C1      NOp   1
 Largest Abelian subgroup         C1      NOp   1
 Largest concise Abelian subgroup C1      NOp   1
                         Standard orientation:                         
 ---------------------------------------------------------------------
 Center     Atomic      Atomic             Coordinates (Angstroms)
 Number     Number       Type             X           Y           Z
 ---------------------------------------------------------------------
      1          8           0        1.612219   -3.079244    0.126429
      2         16           0        1.386422   -1.701157   -0.329427
      3          7           0        0.293654   -1.089308    0.785959
      4          6           0       -0.294117    0.257033    0.851775
      5          6           0       -0.835780    0.797811   -0.513663
      6         16           0       -0.070589    2.414995   -0.180553
      7          6           0        0.703767    1.438889    1.149187
      8          8           0        0.867712    2.866442   -1.227245
      9          8           0       -1.046865    3.390711    0.348400
     10          6           0       -1.375009    0.215279    1.952933
     11          6           0       -2.442954   -0.887747    1.830459
     12          6           0       -3.436686   -0.736263    0.697930
     13          6           0       -3.445475   -1.645461   -0.367199
     14          6           0       -4.364843   -1.520839   -1.411449
     15          6           0       -5.295435   -0.481208   -1.403558
     16          6           0       -5.303635    0.429123   -0.343233
     17          6           0       -4.384711    0.298961    0.698991
     18          6           0        2.944031   -0.826881   -0.216350
     19          6           0        3.782017   -1.060830    0.878206
     20          6           0        4.991152   -0.374387    0.955988
     21          6           0        5.353073    0.527464   -0.050010
     22          6           0        4.509131    0.746357   -1.140584
     23          6           0        3.292998    0.066294   -1.230829
     24          8           0        0.839693   -1.453829   -1.672066
     25          1           0        0.538753   -1.447150    1.711569
     26          1           0       -1.916947    0.839321   -0.612301
     27          1           0       -0.375888    0.338386   -1.386865
     28          1           0        0.623246    1.897918    2.133816
     29          1           0        1.741349    1.224077    0.901537
     30          1           0       -1.846167    1.202849    1.991137
     31          1           0       -0.859042    0.085689    2.910143
     32          1           0       -2.986111   -0.902575    2.783000
     33          1           0       -1.942151   -1.854508    1.737719
     34          1           0       -2.722359   -2.453236   -0.374352
     35          1           0       -4.353183   -2.236759   -2.227750
     36          1           0       -6.011627   -0.382755   -2.212929
     37          1           0       -6.029412    1.235842   -0.324215
     38          1           0       -4.405142    1.006560    1.522697
     39          1           0        3.500390   -1.770813    1.647845
     40          1           0        5.652138   -0.545202    1.797185
     41          1           0        6.296836    1.057430    0.016352
     42          1           0        4.794355    1.439365   -1.923821
     43          1           0        2.624842    0.215104   -2.068514
 ---------------------------------------------------------------------
 Rotational constants (GHZ):      0.3728709      0.1404397      0.1202258
 Leave Link  202 at Fri Aug  7 23:53:17 2020, MaxMem=    33554432 cpu:         0.0
 (Enter /prod/apps/gaussian/g09d1/l301.exe)
 Standard basis: 6-31G(d) (6D, 7F)
 Ernie: Thresh=  0.10000D-02 Tol=  0.10000D-05 Strict=F.
 There are   406 symmetry adapted cartesian basis functions of A   symmetry.
 There are   406 symmetry adapted basis functions of A   symmetry.
   406 basis functions,   796 primitive gaussians,   406 cartesian basis functions
    96 alpha electrons       96 beta electrons
       nuclear repulsion energy      2530.3012041321 Hartrees.
 IExCor=  402 DFT=T Ex+Corr=B3LYP ExCW=0 ScaHFX=  0.200000
 ScaDFX=  0.800000  0.720000  1.000000  0.810000 ScalE2=  1.000000  1.000000
 IRadAn=      0 IRanWt=     -1 IRanGd=            0 ICorTp=0 IEmpDi=  4
 NAtoms=   43 NActive=   43 NUniq=   43 SFac= 1.00D+00 NAtFMM=   60 NAOKFM=F Big=F
 Integral buffers will be    131072 words long.
 Raffenetti 2 integral format.
 Two-electron integral symmetry is turned on.
 Leave Link  301 at Fri Aug  7 23:53:17 2020, MaxMem=    33554432 cpu:         0.0
 (Enter /prod/apps/gaussian/g09d1/l302.exe)
 NPDir=0 NMtPBC=     1 NCelOv=     1 NCel=       1 NClECP=     1 NCelD=      1
         NCelK=      1 NCelE2=     1 NClLst=     1 CellRange=     0.0.
 One-electron integrals computed using PRISM.
 NBasis=   406 RedAO= T EigKep=  4.70D-04  NBF=   406
 NBsUse=   406 1.00D-06 EigRej= -1.00D+00 NBFU=   406
 Precomputing XC quadrature grid using
 IXCGrd= 4 IRadAn=           0 IRanWt=          -1 IRanGd=           0 AccXCQ= 0.00D+00.
 Generated NRdTot=       0 NPtTot=           0 NUsed=           0 NTot=          32
 NSgBfM=   398   399   399   399   400 MxSgAt=    43 MxSgA2=    43.
 Leave Link  302 at Fri Aug  7 23:53:19 2020, MaxMem=    33554432 cpu:         1.6
 (Enter /prod/apps/gaussian/g09d1/l303.exe)
 DipDrv:  MaxL=1.
 Leave Link  303 at Fri Aug  7 23:53:19 2020, MaxMem=    33554432 cpu:         0.1
 (Enter /prod/apps/gaussian/g09d1/l401.exe)
 ExpMin= 1.17D-01 ExpMax= 2.19D+04 ExpMxC= 3.30D+03 IAcc=1 IRadAn=         1 AccDes= 0.00D+00
 Harris functional with IExCor=  402 and IRadAn=       1 diagonalized for initial guess.
 HarFok:  IExCor=  402 AccDes= 0.00D+00 IRadAn=         1 IDoV= 1 UseB2=F ITyADJ=14
 ICtDFT=  3500011 ScaDFX=  1.000000  1.000000  1.000000  1.000000
 FoFCou: FMM=F IPFlag=           0 FMFlag=      100000 FMFlg1=           0
         NFxFlg=           0 DoJE=T BraDBF=F KetDBF=T FulRan=T
         wScrn=  0.000000 ICntrl=     500 IOpCl=  0 I1Cent=   200000004 NGrid=           0
         NMat0=    1 NMatS0=      1 NMatT0=    0 NMatD0=    1 NMtDS0=    0 NMtDT0=    0
 Petite list used in FoFCou.
 Harris En= -1811.22923275078    
 JPrj=0 DoOrth=F DoCkMO=F.
 Leave Link  401 at Fri Aug  7 23:53:25 2020, MaxMem=    33554432 cpu:         6.6
 (Enter /prod/apps/gaussian/g09d1/l502.exe)
 Closed shell SCF:
 Using DIIS extrapolation, IDIIS=  1040.
 Integral symmetry usage will be decided dynamically.
 IVT=      518558 IEndB=      518558 NGot=    33554432 MDV=    33217757
 LenX=    33217757 LenY=    33052480
 Requested convergence on RMS density matrix=1.00D-08 within 128 cycles.
 Requested convergence on MAX density matrix=1.00D-06.
 Requested convergence on             energy=1.00D-06.
 No special actions if energy rises.
 Fock matrices will be formed incrementally for  20 cycles.
 Integral accuracy reduced to 1.0D-05 until final iterations.

 Cycle   1  Pass 0  IDiag  1:
 FoFJK:  IHMeth= 1 ICntrl=       0 DoSepK=F KAlg= 0 I1Cent=   0 FoldK=F
 IRaf= 730000000 NMat=   1 IRICut=       1 DoRegI=T DoRafI=F ISym2E= 0.
 FoFCou: FMM=F IPFlag=           0 FMFlag=      100000 FMFlg1=           0
         NFxFlg=           0 DoJE=F BraDBF=F KetDBF=F FulRan=T
         wScrn=  0.000000 ICntrl=       0 IOpCl=  0 I1Cent=           0 NGrid=           0
         NMat0=    1 NMatS0=      1 NMatT0=    0 NMatD0=    1 NMtDS0=    0 NMtDT0=    0
 Symmetry not used in FoFCou.
 E= -1810.22562310684    
 DIIS: error= 2.65D-02 at cycle   1 NSaved=   1.
 NSaved= 1 IEnMin= 1 EnMin= -1810.22562310684     IErMin= 1 ErrMin= 2.65D-02
 ErrMax= 2.65D-02  0.00D+00 EMaxC= 1.00D-01 BMatC= 1.03D+00 BMatP= 1.03D+00
 IDIUse=3 WtCom= 7.35D-01 WtEn= 2.65D-01
 Coeff-Com:  0.100D+01
 Coeff-En:   0.100D+01
 Coeff:      0.100D+01
 Gap=     0.287 Goal=   None    Shift=    0.000
 GapD=    0.287 DampG=1.000 DampE=0.500 DampFc=0.5000 IDamp=-1.
 Damping current iteration by 5.00D-01
 RMSDP=6.75D-03 MaxDP=5.90D-01              OVMax= 2.40D-01

 Cycle   2  Pass 0  IDiag  1:
 RMSU=  3.37D-03    CP:  9.97D-01
 E= -1810.38635484207     Delta-E=       -0.160731735227 Rises=F Damp=T
 DIIS: error= 1.40D-02 at cycle   2 NSaved=   2.
 NSaved= 2 IEnMin= 2 EnMin= -1810.38635484207     IErMin= 2 ErrMin= 1.40D-02
 ErrMax= 1.40D-02  0.00D+00 EMaxC= 1.00D-01 BMatC= 2.01D-01 BMatP= 1.03D+00
 IDIUse=3 WtCom= 8.60D-01 WtEn= 1.40D-01
 Coeff-Com:  0.264D+00 0.736D+00
 Coeff-En:   0.413D+00 0.587D+00
 Coeff:      0.284D+00 0.716D+00
 Gap=     0.238 Goal=   None    Shift=    0.000
 RMSDP=2.13D-03 MaxDP=1.44D-01 DE=-1.61D-01 OVMax= 1.94D-01

 Cycle   3  Pass 0  IDiag  1:
 RMSU=  1.64D-03    CP:  9.86D-01  6.04D-01
 E= -1811.00511367096     Delta-E=       -0.618758828889 Rises=F Damp=F
 DIIS: error= 1.12D-02 at cycle   3 NSaved=   3.
 NSaved= 3 IEnMin= 3 EnMin= -1811.00511367096     IErMin= 3 ErrMin= 1.12D-02
 ErrMax= 1.12D-02  0.00D+00 EMaxC= 1.00D-01 BMatC= 1.17D-01 BMatP= 2.01D-01
 IDIUse=3 WtCom= 8.88D-01 WtEn= 1.12D-01
 Coeff-Com:  0.102D+00 0.437D+00 0.462D+00
 Coeff-En:   0.000D+00 0.000D+00 0.100D+01
 Coeff:      0.903D-01 0.388D+00 0.522D+00
 Gap=     0.197 Goal=   None    Shift=    0.000
 RMSDP=1.30D-03 MaxDP=4.88D-02 DE=-6.19D-01 OVMax= 8.07D-02

 Cycle   4  Pass 0  IDiag  1:
 RMSU=  7.70D-04    CP:  9.92D-01  7.09D-01  4.03D-01
 E= -1811.10056439233     Delta-E=       -0.095450721373 Rises=F Damp=F
 DIIS: error= 3.84D-03 at cycle   4 NSaved=   4.
 NSaved= 4 IEnMin= 4 EnMin= -1811.10056439233     IErMin= 4 ErrMin= 3.84D-03
 ErrMax= 3.84D-03  0.00D+00 EMaxC= 1.00D-01 BMatC= 1.81D-02 BMatP= 1.17D-01
 IDIUse=3 WtCom= 9.62D-01 WtEn= 3.84D-02
 Coeff-Com:  0.132D-01 0.823D-01 0.296D+00 0.609D+00
 Coeff-En:   0.000D+00 0.000D+00 0.149D+00 0.851D+00
 Coeff:      0.127D-01 0.791D-01 0.290D+00 0.618D+00
 Gap=     0.193 Goal=   None    Shift=    0.000
 RMSDP=4.42D-04 MaxDP=1.73D-02 DE=-9.55D-02 OVMax= 3.43D-02

 Cycle   5  Pass 0  IDiag  1:
 RMSU=  1.92D-04    CP:  9.91D-01  6.83D-01  5.62D-01  6.27D-01
 E= -1811.11651766785     Delta-E=       -0.015953275519 Rises=F Damp=F
 DIIS: error= 1.51D-03 at cycle   5 NSaved=   5.
 NSaved= 5 IEnMin= 5 EnMin= -1811.11651766785     IErMin= 5 ErrMin= 1.51D-03
 ErrMax= 1.51D-03  0.00D+00 EMaxC= 1.00D-01 BMatC= 1.33D-03 BMatP= 1.81D-02
 IDIUse=3 WtCom= 9.85D-01 WtEn= 1.51D-02
 Coeff-Com: -0.178D-03 0.165D-01 0.124D+00 0.341D+00 0.518D+00
 Coeff-En:   0.000D+00 0.000D+00 0.000D+00 0.000D+00 0.100D+01
 Coeff:     -0.176D-03 0.162D-01 0.122D+00 0.336D+00 0.525D+00
 Gap=     0.194 Goal=   None    Shift=    0.000
 RMSDP=1.23D-04 MaxDP=4.91D-03 DE=-1.60D-02 OVMax= 1.36D-02

 Cycle   6  Pass 0  IDiag  1:
 RMSU=  6.29D-05    CP:  9.91D-01  6.88D-01  5.54D-01  6.91D-01  5.26D-01
 E= -1811.11777362614     Delta-E=       -0.001255958290 Rises=F Damp=F
 DIIS: error= 5.62D-04 at cycle   6 NSaved=   6.
 NSaved= 6 IEnMin= 6 EnMin= -1811.11777362614     IErMin= 6 ErrMin= 5.62D-04
 ErrMax= 5.62D-04  0.00D+00 EMaxC= 1.00D-01 BMatC= 1.38D-04 BMatP= 1.33D-03
 IDIUse=3 WtCom= 9.94D-01 WtEn= 5.62D-03
 Coeff-Com: -0.121D-02 0.177D-02 0.403D-01 0.125D+00 0.299D+00 0.535D+00
 Coeff-En:   0.000D+00 0.000D+00 0.000D+00 0.000D+00 0.587D-01 0.941D+00
 Coeff:     -0.121D-02 0.176D-02 0.401D-01 0.125D+00 0.297D+00 0.537D+00
 Gap=     0.194 Goal=   None    Shift=    0.000
 RMSDP=3.79D-05 MaxDP=1.20D-03 DE=-1.26D-03 OVMax= 4.08D-03

 Cycle   7  Pass 0  IDiag  1:
 RMSU=  2.25D-05    CP:  9.91D-01  6.87D-01  5.57D-01  6.88D-01  5.98D-01
                    CP:  5.77D-01
 E= -1811.11790743538     Delta-E=       -0.000133809243 Rises=F Damp=F
 DIIS: error= 2.11D-04 at cycle   7 NSaved=   7.
 NSaved= 7 IEnMin= 7 EnMin= -1811.11790743538     IErMin= 7 ErrMin= 2.11D-04
 ErrMax= 2.11D-04  0.00D+00 EMaxC= 1.00D-01 BMatC= 1.23D-05 BMatP= 1.38D-04
 IDIUse=3 WtCom= 9.98D-01 WtEn= 2.11D-03
 Coeff-Com: -0.660D-03-0.379D-03 0.123D-01 0.419D-01 0.127D+00 0.311D+00
 Coeff-Com:  0.509D+00
 Coeff-En:   0.000D+00 0.000D+00 0.000D+00 0.000D+00 0.000D+00 0.711D-02
 Coeff-En:   0.993D+00
 Coeff:     -0.658D-03-0.378D-03 0.123D-01 0.418D-01 0.127D+00 0.310D+00
 Coeff:      0.510D+00
 Gap=     0.194 Goal=   None    Shift=    0.000
 RMSDP=1.18D-05 MaxDP=6.70D-04 DE=-1.34D-04 OVMax= 1.05D-03

 Cycle   8  Pass 0  IDiag  1:
 RMSU=  6.11D-06    CP:  9.91D-01  6.87D-01  5.57D-01  6.89D-01  6.00D-01
                    CP:  6.24D-01  5.72D-01
 E= -1811.11791955518     Delta-E=       -0.000012119795 Rises=F Damp=F
 DIIS: error= 4.47D-05 at cycle   8 NSaved=   8.
 NSaved= 8 IEnMin= 8 EnMin= -1811.11791955518     IErMin= 8 ErrMin= 4.47D-05
 ErrMax= 4.47D-05  0.00D+00 EMaxC= 1.00D-01 BMatC= 1.05D-06 BMatP= 1.23D-05
 IDIUse=1 WtCom= 1.00D+00 WtEn= 0.00D+00
 Coeff-Com: -0.222D-03-0.437D-03 0.190D-02 0.803D-02 0.357D-01 0.109D+00
 Coeff-Com:  0.277D+00 0.569D+00
 Coeff:     -0.222D-03-0.437D-03 0.190D-02 0.803D-02 0.357D-01 0.109D+00
 Coeff:      0.277D+00 0.569D+00
 Gap=     0.194 Goal=   None    Shift=    0.000
 RMSDP=3.36D-06 MaxDP=1.84D-04 DE=-1.21D-05 OVMax= 2.05D-04

 Initial convergence to 1.0D-05 achieved.  Increase integral accuracy.
 Cycle   9  Pass 1  IDiag  1:
 E= -1811.11785360972     Delta-E=        0.000065945459 Rises=F Damp=F
 DIIS: error= 7.72D-05 at cycle   1 NSaved=   1.
 NSaved= 1 IEnMin= 1 EnMin= -1811.11785360972     IErMin= 1 ErrMin= 7.72D-05
 ErrMax= 7.72D-05  0.00D+00 EMaxC= 1.00D-01 BMatC= 1.32D-06 BMatP= 1.32D-06
 IDIUse=1 WtCom= 1.00D+00 WtEn= 0.00D+00
 Coeff-Com:  0.100D+01
 Coeff:      0.100D+01
 Gap=     0.194 Goal=   None    Shift=    0.000
 RMSDP=3.36D-06 MaxDP=1.84D-04 DE= 6.59D-05 OVMax= 2.03D-04

 Cycle  10  Pass 1  IDiag  1:
 RMSU=  3.12D-05    CP:  1.00D+00
 E= -1811.11785473821     Delta-E=       -0.000001128495 Rises=F Damp=F
 DIIS: error= 2.22D-05 at cycle   2 NSaved=   2.
 NSaved= 2 IEnMin= 2 EnMin= -1811.11785473821     IErMin= 2 ErrMin= 2.22D-05
 ErrMax= 2.22D-05  0.00D+00 EMaxC= 1.00D-01 BMatC= 3.86D-07 BMatP= 1.32D-06
 IDIUse=1 WtCom= 1.00D+00 WtEn= 0.00D+00
 Coeff-Com:  0.274D+00 0.726D+00
 Coeff:      0.274D+00 0.726D+00
 Gap=     0.194 Goal=   None    Shift=    0.000
 RMSDP=3.41D-06 MaxDP=2.13D-04 DE=-1.13D-06 OVMax= 2.27D-04

 Cycle  11  Pass 1  IDiag  1:
 RMSU=  3.41D-06    CP:  1.00D+00  1.00D+00
 E= -1811.11785462097     Delta-E=        0.000000117242 Rises=F Damp=F
 DIIS: error= 3.00D-05 at cycle   3 NSaved=   3.
 NSaved= 3 IEnMin= 2 EnMin= -1811.11785473821     IErMin= 2 ErrMin= 2.22D-05
 ErrMax= 3.00D-05  0.00D+00 EMaxC= 1.00D-01 BMatC= 5.41D-07 BMatP= 3.86D-07
 IDIUse=1 WtCom= 1.00D+00 WtEn= 0.00D+00
 Coeff-Com: -0.102D-02 0.543D+00 0.458D+00
 Coeff:     -0.102D-02 0.543D+00 0.458D+00
 Gap=     0.194 Goal=   None    Shift=    0.000
 RMSDP=1.92D-06 MaxDP=1.23D-04 DE= 1.17D-07 OVMax= 1.44D-04

 Cycle  12  Pass 1  IDiag  1:
 RMSU=  6.42D-07    CP:  1.00D+00  1.01D+00  4.73D-01
 E= -1811.11785505700     Delta-E=       -0.000000436030 Rises=F Damp=F
 DIIS: error= 4.47D-06 at cycle   4 NSaved=   4.
 NSaved= 4 IEnMin= 4 EnMin= -1811.11785505700     IErMin= 4 ErrMin= 4.47D-06
 ErrMax= 4.47D-06  0.00D+00 EMaxC= 1.00D-01 BMatC= 1.50D-08 BMatP= 3.86D-07
 IDIUse=1 WtCom= 1.00D+00 WtEn= 0.00D+00
 Coeff-Com: -0.899D-02 0.309D+00 0.279D+00 0.420D+00
 Coeff:     -0.899D-02 0.309D+00 0.279D+00 0.420D+00
 Gap=     0.194 Goal=   None    Shift=    0.000
 RMSDP=3.64D-07 MaxDP=2.14D-05 DE=-4.36D-07 OVMax= 2.15D-05

 Cycle  13  Pass 1  IDiag  1:
 RMSU=  2.01D-07    CP:  1.00D+00  1.01D+00  4.83D-01  5.32D-01
 E= -1811.11785506972     Delta-E=       -0.000000012713 Rises=F Damp=F
 DIIS: error= 7.41D-07 at cycle   5 NSaved=   5.
 NSaved= 5 IEnMin= 5 EnMin= -1811.11785506972     IErMin= 5 ErrMin= 7.41D-07
 ErrMax= 7.41D-07  0.00D+00 EMaxC= 1.00D-01 BMatC= 5.65D-10 BMatP= 1.50D-08
 IDIUse=1 WtCom= 1.00D+00 WtEn= 0.00D+00
 Coeff-Com: -0.450D-02 0.124D+00 0.114D+00 0.221D+00 0.546D+00
 Coeff:     -0.450D-02 0.124D+00 0.114D+00 0.221D+00 0.546D+00
 Gap=     0.194 Goal=   None    Shift=    0.000
 RMSDP=7.40D-08 MaxDP=6.28D-06 DE=-1.27D-08 OVMax= 3.90D-06

 Cycle  14  Pass 1  IDiag  1:
 RMSU=  6.16D-08    CP:  1.00D+00  1.01D+00  4.82D-01  5.53D-01  8.09D-01
 E= -1811.11785507016     Delta-E=       -0.000000000447 Rises=F Damp=F
 DIIS: error= 2.46D-07 at cycle   6 NSaved=   6.
 NSaved= 6 IEnMin= 6 EnMin= -1811.11785507016     IErMin= 6 ErrMin= 2.46D-07
 ErrMax= 2.46D-07  0.00D+00 EMaxC= 1.00D-01 BMatC= 6.29D-11 BMatP= 5.65D-10
 IDIUse=1 WtCom= 1.00D+00 WtEn= 0.00D+00
 Coeff-Com: -0.129D-02 0.286D-01 0.266D-01 0.664D-01 0.290D+00 0.590D+00
 Coeff:     -0.129D-02 0.286D-01 0.266D-01 0.664D-01 0.290D+00 0.590D+00
 Gap=     0.194 Goal=   None    Shift=    0.000
 RMSDP=2.82D-08 MaxDP=2.04D-06 DE=-4.47D-10 OVMax= 1.87D-06

 Cycle  15  Pass 1  IDiag  1:
 RMSU=  2.12D-08    CP:  1.00D+00  1.01D+00  4.82D-01  5.58D-01  8.52D-01
                    CP:  7.39D-01
 E= -1811.11785507016     Delta-E=       -0.000000000002 Rises=F Damp=F
 DIIS: error= 1.54D-07 at cycle   7 NSaved=   7.
 NSaved= 7 IEnMin= 7 EnMin= -1811.11785507016     IErMin= 7 ErrMin= 1.54D-07
 ErrMax= 1.54D-07  0.00D+00 EMaxC= 1.00D-01 BMatC= 1.26D-11 BMatP= 6.29D-11
 IDIUse=1 WtCom= 1.00D+00 WtEn= 0.00D+00
 Coeff-Com: -0.252D-03 0.212D-02 0.223D-02 0.128D-01 0.107D+00 0.363D+00
 Coeff-Com:  0.513D+00
 Coeff:     -0.252D-03 0.212D-02 0.223D-02 0.128D-01 0.107D+00 0.363D+00
 Coeff:      0.513D+00
 Gap=     0.194 Goal=   None    Shift=    0.000
 RMSDP=1.06D-08 MaxDP=5.72D-07 DE=-1.82D-12 OVMax= 6.96D-07

 Cycle  16  Pass 1  IDiag  1:
 RMSU=  6.53D-09    CP:  1.00D+00  1.01D+00  4.82D-01  5.60D-01  8.54D-01
                    CP:  7.73D-01  6.26D-01
 E= -1811.11785507008     Delta-E=        0.000000000085 Rises=F Damp=F
 DIIS: error= 5.22D-08 at cycle   8 NSaved=   8.
 NSaved= 8 IEnMin= 7 EnMin= -1811.11785507016     IErMin= 8 ErrMin= 5.22D-08
 ErrMax= 5.22D-08  0.00D+00 EMaxC= 1.00D-01 BMatC= 1.25D-12 BMatP= 1.26D-11
 IDIUse=1 WtCom= 1.00D+00 WtEn= 0.00D+00
 Coeff-Com:  0.206D-04-0.241D-02-0.208D-02-0.106D-02 0.247D-01 0.134D+00
 Coeff-Com:  0.296D+00 0.551D+00
 Coeff:      0.206D-04-0.241D-02-0.208D-02-0.106D-02 0.247D-01 0.134D+00
 Coeff:      0.296D+00 0.551D+00
 Gap=     0.194 Goal=   None    Shift=    0.000
 RMSDP=3.29D-09 MaxDP=2.75D-07 DE= 8.55D-11 OVMax= 2.15D-07

 SCF Done:  E(RB3LYP) =  -1811.11785507     A.U. after   16 cycles
            NFock= 16  Conv=0.33D-08     -V/T= 2.0069
 KE= 1.798645754251D+03 PE=-9.310608159815D+03 EE= 3.170543346362D+03
 Leave Link  502 at Sat Aug  8 00:02:53 2020, MaxMem=    33554432 cpu:       567.1
 (Enter /prod/apps/gaussian/g09d1/l601.exe)
 Copying SCF densities to generalized density rwf, IOpCl= 0 IROHF=0.

 **********************************************************************

            Population analysis using the SCF density.

 **********************************************************************

 Orbital symmetries:
       Occupied  (A) (A) (A) (A) (A) (A) (A) (A) (A) (A) (A) (A)
                 (A) (A) (A) (A) (A) (A) (A) (A) (A) (A) (A) (A)
                 (A) (A) (A) (A) (A) (A) (A) (A) (A) (A) (A) (A)
                 (A) (A) (A) (A) (A) (A) (A) (A) (A) (A) (A) (A)
                 (A) (A) (A) (A) (A) (A) (A) (A) (A) (A) (A) (A)
                 (A) (A) (A) (A) (A) (A) (A) (A) (A) (A) (A) (A)
                 (A) (A) (A) (A) (A) (A) (A) (A) (A) (A) (A) (A)
                 (A) (A) (A) (A) (A) (A) (A) (A) (A) (A) (A) (A)
       Virtual   (A) (A) (A) (A) (A) (A) (A) (A) (A) (A) (A) (A)
                 (A) (A) (A) (A) (A) (A) (A) (A) (A) (A) (A) (A)
                 (A) (A) (A) (A) (A) (A) (A) (A) (A) (A) (A) (A)
                 (A) (A) (A) (A) (A) (A) (A) (A) (A) (A) (A) (A)
                 (A) (A) (A) (A) (A) (A) (A) (A) (A) (A) (A) (A)
                 (A) (A) (A) (A) (A) (A) (A) (A) (A) (A) (A) (A)
                 (A) (A) (A) (A) (A) (A) (A) (A) (A) (A) (A) (A)
                 (A) (A) (A) (A) (A) (A) (A) (A) (A) (A) (A) (A)
                 (A) (A) (A) (A) (A) (A) (A) (A) (A) (A) (A) (A)
                 (A) (A) (A) (A) (A) (A) (A) (A) (A) (A) (A) (A)
                 (A) (A) (A) (A) (A) (A) (A) (A) (A) (A) (A) (A)
                 (A) (A) (A) (A) (A) (A) (A) (A) (A) (A) (A) (A)
                 (A) (A) (A) (A) (A) (A) (A) (A) (A) (A) (A) (A)
                 (A) (A) (A) (A) (A) (A) (A) (A) (A) (A) (A) (A)
                 (A) (A) (A) (A) (A) (A) (A) (A) (A) (A) (A) (A)
                 (A) (A) (A) (A) (A) (A) (A) (A) (A) (A) (A) (A)
                 (A) (A) (A) (A) (A) (A) (A) (A) (A) (A) (A) (A)
                 (A) (A) (A) (A) (A) (A) (A) (A) (A) (A) (A) (A)
                 (A) (A) (A) (A) (A) (A) (A) (A) (A) (A) (A) (A)
                 (A) (A) (A) (A) (A) (A) (A) (A) (A) (A) (A) (A)
                 (A) (A) (A) (A) (A) (A) (A) (A) (A) (A) (A) (A)
                 (A) (A) (A) (A) (A) (A) (A) (A) (A) (A) (A) (A)
                 (A) (A) (A) (A) (A) (A) (A) (A) (A) (A) (A) (A)
                 (A) (A) (A) (A) (A) (A) (A) (A) (A) (A) (A) (A)
                 (A) (A) (A) (A) (A) (A) (A) (A) (A) (A) (A) (A)
                 (A) (A) (A) (A) (A) (A) (A) (A) (A) (A)
 The electronic state is 1-A.
 Alpha  occ. eigenvalues --  -89.12723 -89.08862 -19.15391 -19.15073 -19.14206
 Alpha  occ. eigenvalues --  -19.13980 -14.39074 -10.28597 -10.24315 -10.23365
 Alpha  occ. eigenvalues --  -10.22914 -10.22375 -10.22331 -10.22252 -10.22190
 Alpha  occ. eigenvalues --  -10.21921 -10.21734 -10.20321 -10.20118 -10.19369
 Alpha  occ. eigenvalues --  -10.19241 -10.19224 -10.19155 -10.18988  -8.15183
 Alpha  occ. eigenvalues --   -8.11915  -6.11701  -6.11595  -6.11489  -6.08333
 Alpha  occ. eigenvalues --   -6.08275  -6.08201  -1.12123  -1.09314  -1.00924
 Alpha  occ. eigenvalues --   -0.98872  -0.95691  -0.88888  -0.86404  -0.85633
 Alpha  occ. eigenvalues --   -0.80196  -0.79106  -0.77785  -0.74795  -0.74575
 Alpha  occ. eigenvalues --   -0.72629  -0.69855  -0.66993  -0.63813  -0.63295
 Alpha  occ. eigenvalues --   -0.61263  -0.60732  -0.58415  -0.57948  -0.56791
 Alpha  occ. eigenvalues --   -0.53103  -0.52694  -0.51413  -0.50686  -0.49237
 Alpha  occ. eigenvalues --   -0.48604  -0.48352  -0.47257  -0.47098  -0.46587
 Alpha  occ. eigenvalues --   -0.45704  -0.45445  -0.45262  -0.44052  -0.43836
 Alpha  occ. eigenvalues --   -0.43508  -0.42088  -0.41867  -0.41003  -0.40016
 Alpha  occ. eigenvalues --   -0.39589  -0.38911  -0.37891  -0.37635  -0.37443
 Alpha  occ. eigenvalues --   -0.35476  -0.34411  -0.34058  -0.33757  -0.32709
 Alpha  occ. eigenvalues --   -0.32327  -0.31709  -0.31221  -0.30836  -0.30633
 Alpha  occ. eigenvalues --   -0.29330  -0.28359  -0.28134  -0.27339  -0.25276
 Alpha  occ. eigenvalues --   -0.24549
 Alpha virt. eigenvalues --   -0.05186  -0.03201  -0.00848  -0.00353   0.02640
 Alpha virt. eigenvalues --    0.04673   0.04966   0.05549   0.06057   0.06638
 Alpha virt. eigenvalues --    0.07686   0.08807   0.09231   0.09747   0.10039
 Alpha virt. eigenvalues --    0.11237   0.11774   0.11929   0.12819   0.13677
 Alpha virt. eigenvalues --    0.14227   0.14371   0.15328   0.15660   0.15757
 Alpha virt. eigenvalues --    0.16550   0.16635   0.16964   0.17189   0.18363
 Alpha virt. eigenvalues --    0.19323   0.20055   0.20286   0.20763   0.22990
 Alpha virt. eigenvalues --    0.23118   0.23943   0.26006   0.26815   0.27713
 Alpha virt. eigenvalues --    0.28325   0.29599   0.30353   0.30596   0.32048
 Alpha virt. eigenvalues --    0.32786   0.34527   0.34864   0.35503   0.36115
 Alpha virt. eigenvalues --    0.36868   0.39970   0.42048   0.43074   0.44642
 Alpha virt. eigenvalues --    0.45920   0.47532   0.48494   0.49400   0.50303
 Alpha virt. eigenvalues --    0.51046   0.51520   0.52287   0.53523   0.53891
 Alpha virt. eigenvalues --    0.54897   0.55195   0.55780   0.56078   0.56385
 Alpha virt. eigenvalues --    0.56987   0.57396   0.57978   0.58212   0.58399
 Alpha virt. eigenvalues --    0.58881   0.59510   0.59799   0.60279   0.60711
 Alpha virt. eigenvalues --    0.61177   0.61301   0.61721   0.62548   0.63142
 Alpha virt. eigenvalues --    0.63951   0.65268   0.65861   0.67115   0.69676
 Alpha virt. eigenvalues --    0.70699   0.71841   0.72239   0.73555   0.75726
 Alpha virt. eigenvalues --    0.76052   0.76552   0.77739   0.79450   0.79660
 Alpha virt. eigenvalues --    0.80067   0.80927   0.81382   0.81869   0.82616
 Alpha virt. eigenvalues --    0.83164   0.83453   0.83735   0.84192   0.84538
 Alpha virt. eigenvalues --    0.85055   0.85969   0.86605   0.86895   0.87562
 Alpha virt. eigenvalues --    0.88400   0.89027   0.89256   0.89521   0.91102
 Alpha virt. eigenvalues --    0.91667   0.92034   0.92704   0.92978   0.94710
 Alpha virt. eigenvalues --    0.94980   0.95218   0.95908   0.97251   0.98434
 Alpha virt. eigenvalues --    0.99522   1.00015   1.00668   1.02577   1.03339
 Alpha virt. eigenvalues --    1.04169   1.05800   1.06187   1.07101   1.07564
 Alpha virt. eigenvalues --    1.08093   1.09791   1.10386   1.10867   1.12661
 Alpha virt. eigenvalues --    1.13350   1.14177   1.14945   1.15872   1.17743
 Alpha virt. eigenvalues --    1.18094   1.18604   1.19924   1.20871   1.21240
 Alpha virt. eigenvalues --    1.21693   1.23327   1.24391   1.26075   1.26407
 Alpha virt. eigenvalues --    1.27471   1.30024   1.31696   1.33847   1.34322
 Alpha virt. eigenvalues --    1.37995   1.39850   1.41668   1.42953   1.43167
 Alpha virt. eigenvalues --    1.43271   1.44409   1.44837   1.46134   1.47659
 Alpha virt. eigenvalues --    1.47837   1.48303   1.49300   1.50827   1.51158
 Alpha virt. eigenvalues --    1.54774   1.56738   1.59231   1.61251   1.62765
 Alpha virt. eigenvalues --    1.67991   1.70504   1.71097   1.72865   1.74739
 Alpha virt. eigenvalues --    1.76330   1.76668   1.77957   1.79031   1.80338
 Alpha virt. eigenvalues --    1.80628   1.81016   1.81234   1.81891   1.82207
 Alpha virt. eigenvalues --    1.82804   1.84019   1.85127   1.86080   1.86842
 Alpha virt. eigenvalues --    1.87192   1.88905   1.89594   1.90186   1.90648
 Alpha virt. eigenvalues --    1.91116   1.91833   1.93363   1.94798   1.96276
 Alpha virt. eigenvalues --    1.96645   1.97534   1.98069   2.00552   2.02880
 Alpha virt. eigenvalues --    2.03446   2.04173   2.04864   2.06715   2.07311
 Alpha virt. eigenvalues --    2.08553   2.09644   2.10287   2.11486   2.12156
 Alpha virt. eigenvalues --    2.12697   2.12938   2.13395   2.13869   2.14379
 Alpha virt. eigenvalues --    2.16143   2.16774   2.17476   2.18876   2.20634
 Alpha virt. eigenvalues --    2.22318   2.24622   2.25627   2.26908   2.27249
 Alpha virt. eigenvalues --    2.27448   2.29381   2.29554   2.30683   2.30984
 Alpha virt. eigenvalues --    2.34011   2.35952   2.37751   2.38579   2.40955
 Alpha virt. eigenvalues --    2.45907   2.47990   2.52003   2.56064   2.56769
 Alpha virt. eigenvalues --    2.58032   2.58448   2.61769   2.63861   2.65050
 Alpha virt. eigenvalues --    2.68310   2.68860   2.69225   2.71364   2.72200
 Alpha virt. eigenvalues --    2.72420   2.73058   2.73718   2.74334   2.74932
 Alpha virt. eigenvalues --    2.75637   2.76983   2.78513   2.80509   2.83227
 Alpha virt. eigenvalues --    2.88748   2.90306   3.00933   3.05218   3.35539
 Alpha virt. eigenvalues --    3.40546   3.75023   3.80942   3.92311   3.95394
 Alpha virt. eigenvalues --    3.97778   4.03719   4.06702   4.08833   4.09687
 Alpha virt. eigenvalues --    4.11282   4.12851   4.18060   4.19735   4.21309
 Alpha virt. eigenvalues --    4.25054   4.30339   4.33649   4.34322   4.36637
 Alpha virt. eigenvalues --    4.42135   4.53180   4.63883   4.70122   4.74973
          Condensed to atoms (all electrons):
               1          2          3          4          5          6
     1  O    8.233424   0.445599  -0.056348   0.002388  -0.000095   0.000000
     2  S    0.445599  13.737086   0.114446  -0.003224  -0.003929   0.001235
     3  N   -0.056348   0.114446   7.373795   0.231174  -0.039948   0.001219
     4  C    0.002388  -0.003224   0.231174   4.866204   0.342033  -0.096715
     5  C   -0.000095  -0.003929  -0.039948   0.342033   5.741519   0.148742
     6  S    0.000000   0.001235   0.001219  -0.096715   0.148742  13.891189
     7  C   -0.000057  -0.009433  -0.047876   0.351029  -0.197239   0.116127
     8  O    0.000000  -0.000012  -0.000105   0.001629  -0.045404   0.426042
     9  O    0.000000  -0.000008  -0.000038  -0.000124  -0.046079   0.414380
    10  C   -0.000085   0.000429  -0.055203   0.360490  -0.044700   0.004281
    11  C   -0.000014  -0.000090  -0.007857  -0.039909  -0.004468  -0.000067
    12  C    0.000002   0.000071  -0.000714  -0.002475  -0.000811   0.000081
    13  C   -0.000004   0.000115   0.000269   0.001056  -0.000452   0.000135
    14  C    0.000000  -0.000004   0.000009  -0.000008   0.000293   0.000007
    15  C    0.000000   0.000000   0.000000   0.000007   0.000049  -0.000001
    16  C    0.000000   0.000000  -0.000001  -0.000002  -0.000364  -0.000021
    17  C    0.000000   0.000005   0.000017  -0.000824  -0.002877  -0.000029
    18  C   -0.060446   0.163320  -0.058473  -0.001294  -0.001352  -0.000277
    19  C    0.002800  -0.019151  -0.001205  -0.000028   0.000011   0.000006
    20  C    0.000361   0.002463  -0.000073  -0.000011   0.000001  -0.000015
    21  C   -0.000005  -0.000353   0.000002   0.000006   0.000000   0.000007
    22  C   -0.000047   0.002910  -0.000096   0.000049  -0.000007   0.000048
    23  C    0.000652  -0.026083  -0.000580   0.000171  -0.000105   0.001105
    24  O   -0.042592   0.405362  -0.048993  -0.002127  -0.009619   0.000198
    25  H    0.001902  -0.003397   0.288014  -0.031754   0.005345  -0.000212
    26  H    0.000001   0.000074   0.001205  -0.026097   0.342789  -0.012150
    27  H    0.000042   0.003523  -0.004896  -0.020336   0.320161  -0.002854
    28  H    0.000000   0.000134   0.002053  -0.027270   0.009674  -0.009554
    29  H   -0.000017  -0.000032  -0.005841  -0.023694   0.003992  -0.001902
    30  H    0.000000   0.000043   0.004251  -0.032286  -0.006506   0.007575
    31  H    0.000000  -0.000232  -0.006179  -0.036104   0.005845  -0.000273
    32  H    0.000000  -0.000007   0.000250   0.005269  -0.000065   0.000020
    33  H    0.000035   0.000368   0.009803  -0.011511  -0.000438  -0.000025
    34  H   -0.000011   0.000569   0.001005  -0.000154   0.000040   0.000003
    35  H    0.000000  -0.000001   0.000000   0.000001  -0.000005   0.000000
    36  H    0.000000   0.000000   0.000000   0.000000   0.000000   0.000000
    37  H    0.000000   0.000000   0.000000   0.000000  -0.000003   0.000000
    38  H    0.000000   0.000000   0.000001   0.000121  -0.000030   0.000003
    39  H    0.005075   0.000582   0.000175   0.000028   0.000001   0.000001
    40  H    0.000001  -0.000043   0.000002   0.000000   0.000000   0.000000
    41  H    0.000000   0.000006   0.000000   0.000000   0.000000   0.000000
    42  H    0.000000  -0.000048   0.000001   0.000000   0.000000   0.000003
    43  H    0.000059  -0.005346   0.000220   0.000024  -0.000222   0.000833
               7          8          9         10         11         12
     1  O   -0.000057   0.000000   0.000000  -0.000085  -0.000014   0.000002
     2  S   -0.009433  -0.000012  -0.000008   0.000429  -0.000090   0.000071
     3  N   -0.047876  -0.000105  -0.000038  -0.055203  -0.007857  -0.000714
     4  C    0.351029   0.001629  -0.000124   0.360490  -0.039909  -0.002475
     5  C   -0.197239  -0.045404  -0.046079  -0.044700  -0.004468  -0.000811
     6  S    0.116127   0.426042   0.414380   0.004281  -0.000067   0.000081
     7  C    5.775437  -0.043628  -0.044308  -0.055802   0.004296  -0.000029
     8  O   -0.043628   8.224831  -0.046598  -0.000054   0.000000   0.000000
     9  O   -0.044308  -0.046598   8.246670  -0.002260   0.000055  -0.000031
    10  C   -0.055802  -0.000054  -0.002260   5.178547   0.334759  -0.035690
    11  C    0.004296   0.000000   0.000055   0.334759   5.168044   0.358578
    12  C   -0.000029   0.000000  -0.000031  -0.035690   0.358578   4.659740
    13  C   -0.000002   0.000000   0.000000  -0.001252  -0.050251   0.551161
    14  C    0.000000   0.000000   0.000000  -0.000166   0.007141  -0.022725
    15  C    0.000000   0.000000   0.000000   0.000010   0.000354  -0.034829
    16  C    0.000000   0.000000  -0.000002   0.000092   0.006241  -0.018282
    17  C   -0.000017   0.000000   0.000028  -0.003506  -0.067590   0.533177
    18  C   -0.000278  -0.000207   0.000000  -0.000112  -0.000002   0.000000
    19  C   -0.000536   0.000004   0.000000  -0.000020   0.000000   0.000000
    20  C    0.000052   0.000000   0.000000   0.000000   0.000000   0.000000
    21  C    0.000018   0.000001   0.000000   0.000000   0.000000   0.000000
    22  C   -0.000200  -0.000133   0.000000   0.000000   0.000000   0.000000
    23  C   -0.002382   0.000443   0.000000  -0.000002   0.000000   0.000000
    24  O   -0.000587  -0.000010   0.000000  -0.000021  -0.000011  -0.000006
    25  H   -0.001063   0.000002   0.000001  -0.005910  -0.000235   0.000171
    26  H    0.008963   0.000670   0.000261  -0.006237  -0.001842   0.007082
    27  H    0.003806   0.000660   0.001024   0.003241   0.000015  -0.000066
    28  H    0.340816   0.000742  -0.000258  -0.005480   0.000203   0.000009
    29  H    0.326772   0.000009   0.001140   0.003329  -0.000096   0.000001
    30  H   -0.002572   0.000020   0.005938   0.365649  -0.030680  -0.005377
    31  H   -0.007733   0.000001   0.000060   0.351638  -0.033532   0.004323
    32  H   -0.000125   0.000000   0.000000  -0.037495   0.359058  -0.030473
    33  H    0.000231   0.000000   0.000000  -0.036216   0.362588  -0.029854
    34  H    0.000005   0.000000   0.000000   0.000167  -0.011511  -0.041578
    35  H    0.000000   0.000000   0.000000   0.000001  -0.000181   0.003743
    36  H    0.000000   0.000000   0.000000   0.000000   0.000007   0.000700
    37  H    0.000000   0.000000   0.000000   0.000001  -0.000183   0.003609
    38  H   -0.000001   0.000000  -0.000001   0.000721  -0.008761  -0.049407
    39  H   -0.000016   0.000000   0.000000  -0.000002   0.000000   0.000000
    40  H   -0.000002   0.000000   0.000000   0.000000   0.000000   0.000000
    41  H    0.000000   0.000000   0.000000   0.000000   0.000000   0.000000
    42  H   -0.000005   0.000001   0.000000   0.000000   0.000000   0.000000
    43  H   -0.000095   0.001346   0.000001   0.000001   0.000000   0.000000
              13         14         15         16         17         18
     1  O   -0.000004   0.000000   0.000000   0.000000   0.000000  -0.060446
     2  S    0.000115  -0.000004   0.000000   0.000000   0.000005   0.163320
     3  N    0.000269   0.000009   0.000000  -0.000001   0.000017  -0.058473
     4  C    0.001056  -0.000008   0.000007  -0.000002  -0.000824  -0.001294
     5  C   -0.000452   0.000293   0.000049  -0.000364  -0.002877  -0.001352
     6  S    0.000135   0.000007  -0.000001  -0.000021  -0.000029  -0.000277
     7  C   -0.000002   0.000000   0.000000   0.000000  -0.000017  -0.000278
     8  O    0.000000   0.000000   0.000000   0.000000   0.000000  -0.000207
     9  O    0.000000   0.000000   0.000000  -0.000002   0.000028   0.000000
    10  C   -0.001252  -0.000166   0.000010   0.000092  -0.003506  -0.000112
    11  C   -0.050251   0.007141   0.000354   0.006241  -0.067590  -0.000002
    12  C    0.551161  -0.022725  -0.034829  -0.018282   0.533177   0.000000
    13  C    4.965572   0.518420  -0.035559  -0.046137  -0.043077   0.000000
    14  C    0.518420   4.870583   0.550141  -0.026123  -0.046835   0.000000
    15  C   -0.035559   0.550141   4.856658   0.546445  -0.035797   0.000000
    16  C   -0.046137  -0.026123   0.546445   4.859546   0.526839   0.000000
    17  C   -0.043077  -0.046835  -0.035797   0.526839   4.986195   0.000000
    18  C    0.000000   0.000000   0.000000   0.000000   0.000000   5.388647
    19  C    0.000000   0.000000   0.000000   0.000000   0.000000   0.461342
    20  C    0.000000   0.000000   0.000000   0.000000   0.000000  -0.027231
    21  C    0.000000   0.000000   0.000000   0.000000   0.000000  -0.039060
    22  C    0.000000   0.000000   0.000000   0.000000   0.000000  -0.030398
    23  C    0.000000   0.000000   0.000000   0.000000   0.000000   0.504562
    24  O   -0.000038  -0.000002   0.000000   0.000000   0.000000  -0.058074
    25  H   -0.000012   0.000000   0.000000   0.000000   0.000001  -0.001047
    26  H   -0.000368  -0.000337   0.000170   0.001207   0.005901   0.000001
    27  H    0.000024  -0.000041  -0.000007   0.000003   0.000051  -0.000448
    28  H    0.000000   0.000000   0.000000   0.000000   0.000000   0.000099
    29  H    0.000000   0.000000   0.000000   0.000000   0.000000   0.006198
    30  H    0.000131   0.000003   0.000000  -0.000125   0.003581   0.000003
    31  H   -0.000100   0.000002   0.000000   0.000003   0.000078   0.000003
    32  H    0.002364  -0.000224   0.000027   0.000029  -0.005210   0.000000
    33  H   -0.005084   0.000194   0.000003  -0.000176   0.004794   0.000010
    34  H    0.356540  -0.043932   0.004640   0.000324   0.006252   0.000002
    35  H   -0.038253   0.358027  -0.043136   0.004533   0.000811   0.000000
    36  H    0.004653  -0.042903   0.359936  -0.042758   0.004742   0.000000
    37  H    0.000799   0.004571  -0.042570   0.358248  -0.039664   0.000000
    38  H    0.006018   0.000333   0.004835  -0.043105   0.356765   0.000000
    39  H    0.000000   0.000000   0.000000   0.000000   0.000000  -0.052471
    40  H    0.000000   0.000000   0.000000   0.000000   0.000000   0.004946
    41  H    0.000000   0.000000   0.000000   0.000000   0.000000   0.000476
    42  H    0.000000   0.000000   0.000000   0.000000   0.000000   0.004703
    43  H    0.000000   0.000000   0.000000   0.000000   0.000000  -0.043047
              19         20         21         22         23         24
     1  O    0.002800   0.000361  -0.000005  -0.000047   0.000652  -0.042592
     2  S   -0.019151   0.002463  -0.000353   0.002910  -0.026083   0.405362
     3  N   -0.001205  -0.000073   0.000002  -0.000096  -0.000580  -0.048993
     4  C   -0.000028  -0.000011   0.000006   0.000049   0.000171  -0.002127
     5  C    0.000011   0.000001   0.000000  -0.000007  -0.000105  -0.009619
     6  S    0.000006  -0.000015   0.000007   0.000048   0.001105   0.000198
     7  C   -0.000536   0.000052   0.000018  -0.000200  -0.002382  -0.000587
     8  O    0.000004   0.000000   0.000001  -0.000133   0.000443  -0.000010
     9  O    0.000000   0.000000   0.000000   0.000000   0.000000   0.000000
    10  C   -0.000020   0.000000   0.000000   0.000000  -0.000002  -0.000021
    11  C    0.000000   0.000000   0.000000   0.000000   0.000000  -0.000011
    12  C    0.000000   0.000000   0.000000   0.000000   0.000000  -0.000006
    13  C    0.000000   0.000000   0.000000   0.000000   0.000000  -0.000038
    14  C    0.000000   0.000000   0.000000   0.000000   0.000000  -0.000002
    15  C    0.000000   0.000000   0.000000   0.000000   0.000000   0.000000
    16  C    0.000000   0.000000   0.000000   0.000000   0.000000   0.000000
    17  C    0.000000   0.000000   0.000000   0.000000   0.000000   0.000000
    18  C    0.461342  -0.027231  -0.039060  -0.030398   0.504562  -0.058074
    19  C    4.954418   0.517371  -0.030223  -0.036609  -0.039505   0.001964
    20  C    0.517371   4.871441   0.540474  -0.029139  -0.037786  -0.000042
    21  C   -0.030223   0.540474   4.847541   0.542913  -0.029814  -0.000006
    22  C   -0.036609  -0.029139   0.542913   4.875221   0.501156   0.000633
    23  C   -0.039505  -0.037786  -0.029814   0.501156   4.928285   0.002317
    24  O    0.001964  -0.000042  -0.000006   0.000633   0.002317   8.262843
    25  H    0.000501   0.000029   0.000000  -0.000001   0.000005   0.001857
    26  H    0.000000   0.000000   0.000000   0.000000   0.000002   0.000162
    27  H   -0.000010   0.000000   0.000000   0.000009  -0.000059   0.018323
    28  H    0.000001  -0.000009  -0.000002   0.000001   0.000052  -0.000001
    29  H    0.000829   0.000211   0.000076   0.000518   0.002172  -0.000020
    30  H    0.000000   0.000000   0.000000   0.000000   0.000000   0.000001
    31  H   -0.000001   0.000000   0.000000   0.000000   0.000000   0.000001
    32  H    0.000000   0.000000   0.000000   0.000000   0.000000   0.000000
    33  H    0.000000   0.000000   0.000000   0.000000   0.000000  -0.000021
    34  H    0.000000   0.000000   0.000000   0.000000   0.000000   0.000124
    35  H    0.000000   0.000000   0.000000   0.000000   0.000000   0.000000
    36  H    0.000000   0.000000   0.000000   0.000000   0.000000   0.000000
    37  H    0.000000   0.000000   0.000000   0.000000   0.000000   0.000000
    38  H    0.000000   0.000000   0.000000   0.000000   0.000000   0.000000
    39  H    0.362196  -0.035940   0.004280   0.000344   0.004374   0.000071
    40  H   -0.042372   0.363630  -0.041136   0.004397   0.000607   0.000000
    41  H    0.004977  -0.042494   0.362627  -0.041388   0.004828   0.000000
    42  H    0.000655   0.004333  -0.041973   0.365266  -0.039625   0.000003
    43  H    0.004757   0.000238   0.004115  -0.033526   0.360107   0.010710
              25         26         27         28         29         30
     1  O    0.001902   0.000001   0.000042   0.000000  -0.000017   0.000000
     2  S   -0.003397   0.000074   0.003523   0.000134  -0.000032   0.000043
     3  N    0.288014   0.001205  -0.004896   0.002053  -0.005841   0.004251
     4  C   -0.031754  -0.026097  -0.020336  -0.027270  -0.023694  -0.032286
     5  C    0.005345   0.342789   0.320161   0.009674   0.003992  -0.006506
     6  S   -0.000212  -0.012150  -0.002854  -0.009554  -0.001902   0.007575
     7  C   -0.001063   0.008963   0.003806   0.340816   0.326772  -0.002572
     8  O    0.000002   0.000670   0.000660   0.000742   0.000009   0.000020
     9  O    0.000001   0.000261   0.001024  -0.000258   0.001140   0.005938
    10  C   -0.005910  -0.006237   0.003241  -0.005480   0.003329   0.365649
    11  C   -0.000235  -0.001842   0.000015   0.000203  -0.000096  -0.030680
    12  C    0.000171   0.007082  -0.000066   0.000009   0.000001  -0.005377
    13  C   -0.000012  -0.000368   0.000024   0.000000   0.000000   0.000131
    14  C    0.000000  -0.000337  -0.000041   0.000000   0.000000   0.000003
    15  C    0.000000   0.000170  -0.000007   0.000000   0.000000   0.000000
    16  C    0.000000   0.001207   0.000003   0.000000   0.000000  -0.000125
    17  C    0.000001   0.005901   0.000051   0.000000   0.000000   0.003581
    18  C   -0.001047   0.000001  -0.000448   0.000099   0.006198   0.000003
    19  C    0.000501   0.000000  -0.000010   0.000001   0.000829   0.000000
    20  C    0.000029   0.000000   0.000000  -0.000009   0.000211   0.000000
    21  C    0.000000   0.000000   0.000000  -0.000002   0.000076   0.000000
    22  C   -0.000001   0.000000   0.000009   0.000001   0.000518   0.000000
    23  C    0.000005   0.000002  -0.000059   0.000052   0.002172   0.000000
    24  O    0.001857   0.000162   0.018323  -0.000001  -0.000020   0.000001
    25  H    0.388358  -0.000048  -0.000031   0.000340   0.000145  -0.000007
    26  H   -0.000048   0.453972  -0.012729  -0.000266  -0.000216   0.000098
    27  H   -0.000031  -0.012729   0.435184  -0.000248   0.000007   0.000117
    28  H    0.000340  -0.000266  -0.000248   0.498570  -0.020147  -0.000055
    29  H    0.000145  -0.000216   0.000007  -0.020147   0.489036   0.000172
    30  H   -0.000007   0.000098   0.000117  -0.000055   0.000172   0.528211
    31  H    0.006498   0.000232  -0.000116   0.004399   0.000064  -0.029981
    32  H   -0.000131   0.000001   0.000003  -0.000019   0.000002  -0.002081
    33  H    0.000249   0.000132   0.000002   0.000000   0.000004   0.004647
    34  H   -0.000004   0.000031   0.000021   0.000000   0.000000   0.000011
    35  H    0.000000   0.000006   0.000001   0.000000   0.000000   0.000000
    36  H    0.000000   0.000000   0.000000   0.000000   0.000000   0.000000
    37  H    0.000000   0.000010   0.000000   0.000000   0.000000   0.000004
    38  H    0.000000   0.000079   0.000000   0.000000   0.000000   0.002285
    39  H    0.000465   0.000000  -0.000001   0.000001  -0.000016   0.000000
    40  H   -0.000001   0.000000   0.000000   0.000000   0.000007   0.000000
    41  H    0.000000   0.000000   0.000000   0.000000  -0.000002   0.000000
    42  H    0.000000   0.000000   0.000000   0.000000   0.000018   0.000000
    43  H   -0.000013   0.000005   0.000479   0.000000  -0.000059   0.000000
              31         32         33         34         35         36
     1  O    0.000000   0.000000   0.000035  -0.000011   0.000000   0.000000
     2  S   -0.000232  -0.000007   0.000368   0.000569  -0.000001   0.000000
     3  N   -0.006179   0.000250   0.009803   0.001005   0.000000   0.000000
     4  C   -0.036104   0.005269  -0.011511  -0.000154   0.000001   0.000000
     5  C    0.005845  -0.000065  -0.000438   0.000040  -0.000005   0.000000
     6  S   -0.000273   0.000020  -0.000025   0.000003   0.000000   0.000000
     7  C   -0.007733  -0.000125   0.000231   0.000005   0.000000   0.000000
     8  O    0.000001   0.000000   0.000000   0.000000   0.000000   0.000000
     9  O    0.000060   0.000000   0.000000   0.000000   0.000000   0.000000
    10  C    0.351638  -0.037495  -0.036216   0.000167   0.000001   0.000000
    11  C   -0.033532   0.359058   0.362588  -0.011511  -0.000181   0.000007
    12  C    0.004323  -0.030473  -0.029854  -0.041578   0.003743   0.000700
    13  C   -0.000100   0.002364  -0.005084   0.356540  -0.038253   0.004653
    14  C    0.000002  -0.000224   0.000194  -0.043932   0.358027  -0.042903
    15  C    0.000000   0.000027   0.000003   0.004640  -0.043136   0.359936
    16  C    0.000003   0.000029  -0.000176   0.000324   0.004533  -0.042758
    17  C    0.000078  -0.005210   0.004794   0.006252   0.000811   0.004742
    18  C    0.000003   0.000000   0.000010   0.000002   0.000000   0.000000
    19  C   -0.000001   0.000000   0.000000   0.000000   0.000000   0.000000
    20  C    0.000000   0.000000   0.000000   0.000000   0.000000   0.000000
    21  C    0.000000   0.000000   0.000000   0.000000   0.000000   0.000000
    22  C    0.000000   0.000000   0.000000   0.000000   0.000000   0.000000
    23  C    0.000000   0.000000   0.000000   0.000000   0.000000   0.000000
    24  O    0.000001   0.000000  -0.000021   0.000124   0.000000   0.000000
    25  H    0.006498  -0.000131   0.000249  -0.000004   0.000000   0.000000
    26  H    0.000232   0.000001   0.000132   0.000031   0.000006   0.000000
    27  H   -0.000116   0.000003   0.000002   0.000021   0.000001   0.000000
    28  H    0.004399  -0.000019   0.000000   0.000000   0.000000   0.000000
    29  H    0.000064   0.000002   0.000004   0.000000   0.000000   0.000000
    30  H   -0.029981  -0.002081   0.004647   0.000011   0.000000   0.000000
    31  H    0.610545  -0.004934  -0.002207  -0.000018   0.000000   0.000000
    32  H   -0.004934   0.587701  -0.032675   0.000109   0.000003   0.000000
    33  H   -0.002207  -0.032675   0.564608   0.007009  -0.000010   0.000000
    34  H   -0.000018   0.000109   0.007009   0.579763  -0.005264  -0.000170
    35  H    0.000000   0.000003  -0.000010  -0.005264   0.588048  -0.005515
    36  H    0.000000   0.000000   0.000000  -0.000170  -0.005515   0.593315
    37  H    0.000000  -0.000003   0.000003   0.000016  -0.000183  -0.005427
    38  H   -0.000127   0.002817   0.000044  -0.000173   0.000018  -0.000180
    39  H    0.000001   0.000000  -0.000001   0.000000   0.000000   0.000000
    40  H    0.000000   0.000000   0.000000   0.000000   0.000000   0.000000
    41  H    0.000000   0.000000   0.000000   0.000000   0.000000   0.000000
    42  H    0.000000   0.000000   0.000000   0.000000   0.000000   0.000000
    43  H    0.000000   0.000000   0.000000   0.000000   0.000000   0.000000
              37         38         39         40         41         42
     1  O    0.000000   0.000000   0.005075   0.000001   0.000000   0.000000
     2  S    0.000000   0.000000   0.000582  -0.000043   0.000006  -0.000048
     3  N    0.000000   0.000001   0.000175   0.000002   0.000000   0.000001
     4  C    0.000000   0.000121   0.000028   0.000000   0.000000   0.000000
     5  C   -0.000003  -0.000030   0.000001   0.000000   0.000000   0.000000
     6  S    0.000000   0.000003   0.000001   0.000000   0.000000   0.000003
     7  C    0.000000  -0.000001  -0.000016  -0.000002   0.000000  -0.000005
     8  O    0.000000   0.000000   0.000000   0.000000   0.000000   0.000001
     9  O    0.000000  -0.000001   0.000000   0.000000   0.000000   0.000000
    10  C    0.000001   0.000721  -0.000002   0.000000   0.000000   0.000000
    11  C   -0.000183  -0.008761   0.000000   0.000000   0.000000   0.000000
    12  C    0.003609  -0.049407   0.000000   0.000000   0.000000   0.000000
    13  C    0.000799   0.006018   0.000000   0.000000   0.000000   0.000000
    14  C    0.004571   0.000333   0.000000   0.000000   0.000000   0.000000
    15  C   -0.042570   0.004835   0.000000   0.000000   0.000000   0.000000
    16  C    0.358248  -0.043105   0.000000   0.000000   0.000000   0.000000
    17  C   -0.039664   0.356765   0.000000   0.000000   0.000000   0.000000
    18  C    0.000000   0.000000  -0.052471   0.004946   0.000476   0.004703
    19  C    0.000000   0.000000   0.362196  -0.042372   0.004977   0.000655
    20  C    0.000000   0.000000  -0.035940   0.363630  -0.042494   0.004333
    21  C    0.000000   0.000000   0.004280  -0.041136   0.362627  -0.041973
    22  C    0.000000   0.000000   0.000344   0.004397  -0.041388   0.365266
    23  C    0.000000   0.000000   0.004374   0.000607   0.004828  -0.039625
    24  O    0.000000   0.000000   0.000071   0.000000   0.000000   0.000003
    25  H    0.000000   0.000000   0.000465  -0.000001   0.000000   0.000000
    26  H    0.000010   0.000079   0.000000   0.000000   0.000000   0.000000
    27  H    0.000000   0.000000  -0.000001   0.000000   0.000000   0.000000
    28  H    0.000000   0.000000   0.000001   0.000000   0.000000   0.000000
    29  H    0.000000   0.000000  -0.000016   0.000007  -0.000002   0.000018
    30  H    0.000004   0.002285   0.000000   0.000000   0.000000   0.000000
    31  H    0.000000  -0.000127   0.000001   0.000000   0.000000   0.000000
    32  H   -0.000003   0.002817   0.000000   0.000000   0.000000   0.000000
    33  H    0.000003   0.000044  -0.000001   0.000000   0.000000   0.000000
    34  H    0.000016  -0.000173   0.000000   0.000000   0.000000   0.000000
    35  H   -0.000183   0.000018   0.000000   0.000000   0.000000   0.000000
    36  H   -0.005427  -0.000180   0.000000   0.000000   0.000000   0.000000
    37  H    0.590765  -0.005581   0.000000   0.000000   0.000000   0.000000
    38  H   -0.005581   0.604315   0.000000   0.000000   0.000000   0.000000
    39  H    0.000000   0.000000   0.549278  -0.005444  -0.000154   0.000015
    40  H    0.000000   0.000000  -0.005444   0.570982  -0.005370  -0.000164
    41  H    0.000000   0.000000  -0.000154  -0.005370   0.570803  -0.005296
    42  H    0.000000   0.000000   0.000015  -0.000164  -0.005296   0.556593
    43  H    0.000000   0.000000  -0.000141   0.000013  -0.000138  -0.004846
              43
     1  O    0.000059
     2  S   -0.005346
     3  N    0.000220
     4  C    0.000024
     5  C   -0.000222
     6  S    0.000833
     7  C   -0.000095
     8  O    0.001346
     9  O    0.000001
    10  C    0.000001
    11  C    0.000000
    12  C    0.000000
    13  C    0.000000
    14  C    0.000000
    15  C    0.000000
    16  C    0.000000
    17  C    0.000000
    18  C   -0.043047
    19  C    0.004757
    20  C    0.000238
    21  C    0.004115
    22  C   -0.033526
    23  C    0.360107
    24  O    0.010710
    25  H   -0.000013
[...]
    39  H    0.000000   0.000000   0.000000   0.000000   0.000000  -0.053099
    40  H    0.000000   0.000000   0.000000   0.000000   0.000000   0.004850
    41  H    0.000000   0.000000   0.000000   0.000000   0.000000   0.000449
    42  H    0.000000   0.000000   0.000000   0.000000   0.000000   0.004737
    43  H    0.000000   0.000000   0.000000   0.000000   0.000000  -0.047223
              19         20         21         22         23         24
     1  O    0.002939   0.000347  -0.000005  -0.000045   0.000585  -0.041298
     2  S   -0.021475   0.002309  -0.000374   0.002691  -0.026985   0.407954
     3  N   -0.001236  -0.000065   0.000002  -0.000093  -0.000646  -0.050985
     4  C   -0.000054  -0.000010   0.000006   0.000045   0.000230  -0.001768
     5  C    0.000010   0.000001   0.000000  -0.000006  -0.000135  -0.009570
     6  S   -0.000011  -0.000015   0.000007   0.000068   0.001215   0.000192
     7  C   -0.000450   0.000058   0.000011  -0.000215  -0.002443  -0.000604
     8  O    0.000004   0.000000   0.000001  -0.000128   0.000371  -0.000010
     9  O    0.000000   0.000000   0.000000   0.000000   0.000000   0.000000
    10  C   -0.000020   0.000000   0.000000   0.000000  -0.000003  -0.000020
    11  C    0.000000   0.000000   0.000000   0.000000   0.000000  -0.000011
    12  C    0.000000   0.000000   0.000000   0.000000   0.000000  -0.000005
    13  C    0.000000   0.000000   0.000000   0.000000   0.000000  -0.000039
    14  C    0.000000   0.000000   0.000000   0.000000   0.000000  -0.000002
    15  C    0.000000   0.000000   0.000000   0.000000   0.000000   0.000000
    16  C    0.000000   0.000000   0.000000   0.000000   0.000000   0.000000
    17  C    0.000000   0.000000   0.000000   0.000000   0.000000   0.000000
    18  C    0.462149  -0.028397  -0.039315  -0.031478   0.498715  -0.059171
    19  C    4.946658   0.520229  -0.031302  -0.037074  -0.036224   0.001791
    20  C    0.520229   4.873106   0.536336  -0.030178  -0.038121  -0.000043
    21  C   -0.031302   0.536336   4.857295   0.540016  -0.031560  -0.000005
    22  C   -0.037074  -0.030178   0.540016   4.885282   0.504945   0.000600
    23  C   -0.036224  -0.038121  -0.031560   0.504945   4.939286   0.002261
    24  O    0.001791  -0.000043  -0.000005   0.000600   0.002261   8.293094
    25  H    0.000454   0.000023   0.000000   0.000000   0.000001   0.001478
    26  H    0.000000   0.000000   0.000000   0.000000   0.000002   0.000149
    27  H   -0.000008   0.000000   0.000000   0.000009  -0.000067   0.018053
    28  H   -0.000004  -0.000008  -0.000003   0.000001   0.000047  -0.000001
    29  H    0.000408   0.000205   0.000106   0.000579   0.002287  -0.000009
    30  H    0.000000   0.000000   0.000000   0.000000   0.000000   0.000001
    31  H   -0.000001   0.000000   0.000000   0.000000   0.000000   0.000001
    32  H    0.000000   0.000000   0.000000   0.000000   0.000000   0.000000
    33  H    0.000000   0.000000   0.000000   0.000000   0.000000  -0.000020
    34  H    0.000000   0.000000   0.000000   0.000000   0.000000   0.000118
    35  H    0.000000   0.000000   0.000000   0.000000   0.000000   0.000000
    36  H    0.000000   0.000000   0.000000   0.000000   0.000000   0.000000
    37  H    0.000000   0.000000   0.000000   0.000000   0.000000   0.000000
    38  H    0.000000   0.000000   0.000000   0.000000   0.000000   0.000000
    39  H    0.365272  -0.031656   0.004184   0.000322   0.004090   0.000062
    40  H   -0.040412   0.367110  -0.039674   0.004269   0.000581   0.000000
    41  H    0.004884  -0.040515   0.365573  -0.040514   0.004777   0.000000
    42  H    0.000582   0.004246  -0.039819   0.367421  -0.040537   0.000002
    43  H    0.004629   0.000198   0.004219  -0.032782   0.361696   0.010356
              25         26         27         28         29         30
     1  O    0.001135   0.000001   0.000039   0.000000  -0.000016   0.000000
     2  S   -0.003193   0.000041   0.003432   0.000130   0.000113   0.000029
     3  N    0.291913   0.001361  -0.005066   0.001736  -0.006131   0.004330
     4  C   -0.026654  -0.026307  -0.020978  -0.026646  -0.023814  -0.034249
     5  C    0.004429   0.341912   0.321392   0.009036   0.004251  -0.006756
     6  S   -0.000214  -0.011399  -0.002567  -0.010892  -0.004189   0.007667
     7  C   -0.000883   0.008717   0.003652   0.346954   0.330836  -0.003008
     8  O    0.000002   0.000679   0.000503   0.000723  -0.000081   0.000017
     9  O    0.000001   0.000142   0.001018  -0.000353   0.001136   0.005182
    10  C   -0.004532  -0.006483   0.003279  -0.004429   0.003210   0.365160
    11  C   -0.000335  -0.001652  -0.000010   0.000191  -0.000091  -0.031611
    12  C    0.000138   0.007089  -0.000070   0.000011   0.000001  -0.006013
    13  C   -0.000009  -0.000270   0.000031   0.000000   0.000000   0.000128
    14  C    0.000000  -0.000339  -0.000041   0.000000   0.000000   0.000005
    15  C    0.000000   0.000170  -0.000007   0.000000   0.000000   0.000000
    16  C    0.000000   0.001280   0.000003   0.000000   0.000000  -0.000123
    17  C    0.000000   0.006147   0.000050   0.000000   0.000000   0.003848
    18  C   -0.001177   0.000002  -0.000433   0.000094   0.005694   0.000003
    19  C    0.000454   0.000000  -0.000008  -0.000004   0.000408   0.000000
    20  C    0.000023   0.000000   0.000000  -0.000008   0.000205   0.000000
    21  C    0.000000   0.000000   0.000000  -0.000003   0.000106   0.000000
    22  C    0.000000   0.000000   0.000009   0.000001   0.000579   0.000000
    23  C    0.000001   0.000002  -0.000067   0.000047   0.002287   0.000000
    24  O    0.001478   0.000149   0.018053  -0.000001  -0.000009   0.000001
    25  H    0.320409  -0.000040  -0.000018   0.000252   0.000130   0.000021
    26  H   -0.000040   0.452190  -0.012229  -0.000258  -0.000208   0.000200
    27  H   -0.000018  -0.012229   0.438805  -0.000228  -0.000012   0.000117
    28  H    0.000252  -0.000258  -0.000228   0.459019  -0.015609  -0.000066
    29  H    0.000130  -0.000208  -0.000012  -0.015609   0.472892   0.000157
    30  H    0.000021   0.000200   0.000117  -0.000066   0.000157   0.539093
    31  H    0.004858   0.000217  -0.000110   0.003784   0.000058  -0.028047
    32  H   -0.000097  -0.000003   0.000003  -0.000018   0.000002  -0.002042
    33  H    0.000318   0.000140   0.000003   0.000001   0.000004   0.004697
    34  H   -0.000004   0.000030   0.000022   0.000000   0.000000   0.000013
    35  H    0.000000   0.000006   0.000001   0.000000   0.000000   0.000000
    36  H    0.000000   0.000000   0.000000   0.000000   0.000000   0.000000
    37  H    0.000000   0.000010   0.000000   0.000000   0.000000   0.000004
    38  H    0.000000   0.000077   0.000000   0.000000   0.000000   0.002183
    39  H    0.000320   0.000000  -0.000001   0.000001  -0.000012   0.000000
    40  H    0.000000   0.000000   0.000000   0.000000   0.000007   0.000000
    41  H    0.000000   0.000000   0.000000   0.000000  -0.000002   0.000000
    42  H    0.000000   0.000000   0.000000   0.000000   0.000017   0.000000
    43  H   -0.000010   0.000005   0.000493   0.000000  -0.000071   0.000000
              31         32         33         34         35         36
     1  O    0.000000   0.000000   0.000033  -0.000012   0.000000   0.000000
     2  S   -0.000170  -0.000007   0.000462   0.000652  -0.000001   0.000000
     3  N   -0.005301   0.000240   0.009413   0.001089   0.000000   0.000000
     4  C   -0.033255   0.005067  -0.011696  -0.000162   0.000001   0.000000
     5  C    0.005460  -0.000067  -0.000400   0.000031  -0.000005   0.000000
     6  S   -0.000365   0.000020  -0.000014   0.000003   0.000000   0.000000
     7  C   -0.007109  -0.000115   0.000204   0.000005   0.000000   0.000000
     8  O    0.000001   0.000000   0.000000   0.000000   0.000000   0.000000
     9  O    0.000051   0.000000   0.000000   0.000000   0.000000   0.000000
    10  C    0.362563  -0.034691  -0.035257   0.000151   0.000001   0.000000
    11  C   -0.030841   0.362844   0.364923  -0.010986  -0.000169   0.000007
    12  C    0.004115  -0.030753  -0.032961  -0.041862   0.003739   0.000625
    13  C   -0.000092   0.002454  -0.005238   0.357772  -0.038437   0.004568
    14  C    0.000002  -0.000222   0.000252  -0.045020   0.360789  -0.042173
    15  C    0.000000   0.000026   0.000002   0.004710  -0.042256   0.363231
    16  C    0.000002   0.000036  -0.000178   0.000250   0.004517  -0.041960
    17  C    0.000065  -0.005461   0.004871   0.006357   0.000712   0.004637
    18  C    0.000000   0.000000   0.000009   0.000002   0.000000   0.000000
    19  C   -0.000001   0.000000   0.000000   0.000000   0.000000   0.000000
    20  C    0.000000   0.000000   0.000000   0.000000   0.000000   0.000000
    21  C    0.000000   0.000000   0.000000   0.000000   0.000000   0.000000
    22  C    0.000000   0.000000   0.000000   0.000000   0.000000   0.000000
    23  C    0.000000   0.000000   0.000000   0.000000   0.000000   0.000000
    24  O    0.000001   0.000000  -0.000020   0.000118   0.000000   0.000000
    25  H    0.004858  -0.000097   0.000318  -0.000004   0.000000   0.000000
    26  H    0.000217  -0.000003   0.000140   0.000030   0.000006   0.000000
    27  H   -0.000110   0.000003   0.000003   0.000022   0.000001   0.000000
    28  H    0.003784  -0.000018   0.000001   0.000000   0.000000   0.000000
    29  H    0.000058   0.000002   0.000004   0.000000   0.000000   0.000000
    30  H   -0.028047  -0.002042   0.004697   0.000013   0.000000   0.000000
    31  H    0.555109  -0.004865  -0.002121  -0.000017   0.000000   0.000000
    32  H   -0.004865   0.567625  -0.031272   0.000101   0.000003   0.000000
    33  H   -0.002121  -0.031272   0.558346   0.006868  -0.000009   0.000000
    34  H   -0.000017   0.000101   0.006868   0.577756  -0.005182  -0.000163
    35  H    0.000000   0.000003  -0.000009  -0.005182   0.571613  -0.005272
    36  H    0.000000   0.000000   0.000000  -0.000163  -0.005272   0.572541
    37  H    0.000000  -0.000002   0.000003   0.000016  -0.000173  -0.005169
    38  H   -0.000113   0.002584   0.000041  -0.000165   0.000016  -0.000168
    39  H    0.000000   0.000000   0.000000   0.000000   0.000000   0.000000
    40  H    0.000000   0.000000   0.000000   0.000000   0.000000   0.000000
    41  H    0.000000   0.000000   0.000000   0.000000   0.000000   0.000000
    42  H    0.000000   0.000000   0.000000   0.000000   0.000000   0.000000
    43  H    0.000000   0.000000   0.000000   0.000000   0.000000   0.000000
              37         38         39         40         41         42
     1  O    0.000000   0.000000   0.004569   0.000001   0.000000   0.000000
     2  S    0.000000   0.000000   0.000000  -0.000049   0.000006  -0.000051
     3  N    0.000000   0.000001   0.000119   0.000002   0.000000   0.000001
     4  C    0.000000   0.000107   0.000030   0.000000   0.000000   0.000000
     5  C   -0.000003  -0.000030   0.000001   0.000000   0.000000   0.000000
     6  S    0.000000   0.000007   0.000001   0.000000   0.000000   0.000003
     7  C    0.000000  -0.000001  -0.000018  -0.000001   0.000000  -0.000005
     8  O    0.000000   0.000000   0.000000   0.000000   0.000000   0.000001
     9  O    0.000000  -0.000001   0.000000   0.000000   0.000000   0.000000
    10  C    0.000001   0.000738  -0.000001   0.000000   0.000000   0.000000
    11  C   -0.000171  -0.008095   0.000000   0.000000   0.000000   0.000000
    12  C    0.003542  -0.046491   0.000000   0.000000   0.000000   0.000000
    13  C    0.000730   0.005895   0.000000   0.000000   0.000000   0.000000
    14  C    0.004528   0.000285   0.000000   0.000000   0.000000   0.000000
    15  C   -0.041890   0.004699   0.000000   0.000000   0.000000   0.000000
    16  C    0.361385  -0.043105   0.000000   0.000000   0.000000   0.000000
    17  C   -0.039168   0.360286   0.000000   0.000000   0.000000   0.000000
    18  C    0.000000   0.000000  -0.053099   0.004850   0.000449   0.004737
    19  C    0.000000   0.000000   0.365272  -0.040412   0.004884   0.000582
    20  C    0.000000   0.000000  -0.031656   0.367110  -0.040515   0.004246
    21  C    0.000000   0.000000   0.004184  -0.039674   0.365573  -0.039819
    22  C    0.000000   0.000000   0.000322   0.004269  -0.040514   0.367421
    23  C    0.000000   0.000000   0.004090   0.000581   0.004777  -0.040537
    24  O    0.000000   0.000000   0.000062   0.000000   0.000000   0.000002
    25  H    0.000000   0.000000   0.000320   0.000000   0.000000   0.000000
    26  H    0.000010   0.000077   0.000000   0.000000   0.000000   0.000000
    27  H    0.000000   0.000000  -0.000001   0.000000   0.000000   0.000000
    28  H    0.000000   0.000000   0.000001   0.000000   0.000000   0.000000
    29  H    0.000000   0.000000  -0.000012   0.000007  -0.000002   0.000017
    30  H    0.000004   0.002183   0.000000   0.000000   0.000000   0.000000
    31  H    0.000000  -0.000113   0.000000   0.000000   0.000000   0.000000
    32  H   -0.000002   0.002584   0.000000   0.000000   0.000000   0.000000
    33  H    0.000003   0.000041   0.000000   0.000000   0.000000   0.000000
    34  H    0.000016  -0.000165   0.000000   0.000000   0.000000   0.000000
    35  H   -0.000173   0.000016   0.000000   0.000000   0.000000   0.000000
    36  H   -0.005169  -0.000168   0.000000   0.000000   0.000000   0.000000
    37  H    0.570904  -0.005223   0.000000   0.000000   0.000000   0.000000
    38  H   -0.005223   0.578666   0.000000   0.000000   0.000000   0.000000
    39  H    0.000000   0.000000   0.523606  -0.005188  -0.000142   0.000014
    40  H    0.000000   0.000000  -0.005188   0.540312  -0.005042  -0.000152
    41  H    0.000000   0.000000  -0.000142  -0.005042   0.543670  -0.005060
    42  H    0.000000   0.000000   0.000014  -0.000152  -0.005060   0.540237
    43  H    0.000000   0.000000  -0.000136   0.000013  -0.000134  -0.004933
              43
     1  O    0.000055
     2  S   -0.005529
     3  N    0.000202
     4  C    0.000020
     5  C   -0.000233
     6  S    0.000820
     7  C   -0.000101
     8  O    0.001295
     9  O    0.000001
    10  C    0.000001
    11  C    0.000000
    12  C    0.000000
    13  C    0.000000
    14  C    0.000000
    15  C    0.000000
    16  C    0.000000
    17  C    0.000000
    18  C   -0.047223
    19  C    0.004629
    20  C    0.000198
    21  C    0.004219
    22  C   -0.032782
    23  C    0.361696
    24  O    0.010356
    25  H   -0.000010
    26  H    0.000005
    27  H    0.000493
    28  H    0.000000
    29  H   -0.000071
    30  H    0.000000
    31  H    0.000000
    32  H    0.000000
    33  H    0.000000
    34  H    0.000000
    35  H    0.000000
    36  H    0.000000
    37  H    0.000000
    38  H    0.000000
    39  H   -0.000136
    40  H    0.000013
    41  H   -0.000134
    42  H   -0.004933
    43  H    0.517909
 Mulliken charges:
               1
     1  O   -0.571075
     2  S    1.187664
     3  N   -0.708737
     4  C    0.191343
     5  C   -0.510288
     6  S    1.108610
     7  C   -0.496971
     8  O   -0.559687
     9  O   -0.571660
    10  C   -0.311266
    11  C   -0.344148
    12  C    0.143928
    13  C   -0.198508
    14  C   -0.145463
    15  C   -0.151433
    16  C   -0.145557
    17  C   -0.198187
    18  C   -0.164354
    19  C   -0.141736
    20  C   -0.135158
    21  C   -0.125700
    22  C   -0.133735
    23  C   -0.144368
    24  O   -0.572550
    25  H    0.411286
    26  H    0.238621
    27  H    0.250943
    28  H    0.236536
    29  H    0.228151
    30  H    0.179058
    31  H    0.176118
    32  H    0.168611
    33  H    0.168579
    34  H    0.147628
    35  H    0.150105
    36  H    0.149296
    37  H    0.150676
    38  H    0.147806
    39  H    0.187661
    40  H    0.173375
    41  H    0.172048
    42  H    0.173296
    43  H    0.189242
 Sum of Mulliken charges =   0.00000
 Mulliken charges with hydrogens summed into heavy atoms:
               1
     1  O   -0.571075
     2  S    1.187664
     3  N   -0.297450
     4  C    0.191343
     5  C   -0.020724
     6  S    1.108610
     7  C   -0.032284
     8  O   -0.559687
     9  O   -0.571660
    10  C    0.043910
    11  C   -0.006959
    12  C    0.143928
    13  C   -0.050881
    14  C    0.004642
    15  C   -0.002137
    16  C    0.005119
    17  C   -0.050382
    18  C   -0.164354
    19  C    0.045925
    20  C    0.038218
    21  C    0.046348
    22  C    0.039561
    23  C    0.044874
    24  O   -0.572550
 Electronic spatial extent (au):  <R**2>=           9136.6916
 Charge=              0.0000 electrons
 Dipole moment (field-independent basis, Debye):
    X=              3.1369    Y=             -0.8560    Z=              6.7208  Tot=              7.4661
 Quadrupole moment (field-independent basis, Debye-Ang):
   XX=           -123.9027   YY=           -189.5239   ZZ=           -142.0057
   XY=              8.2690   XZ=              9.4264   YZ=             -0.8314
 Traceless Quadrupole moment (field-independent basis, Debye-Ang):
   XX=             27.9081   YY=            -37.7131   ZZ=              9.8051
   XY=              8.2690   XZ=              9.4264   YZ=             -0.8314
 Octapole moment (field-independent basis, Debye-Ang**2):
  XXX=            139.0746  YYY=            -36.9077  ZZZ=             23.9583  XYY=             -6.4298
  XXY=             50.0142  XXZ=             -2.5691  XZZ=              1.9962  YZZ=             -3.3565
  YYZ=             17.1722  XYZ=            -15.8562
 Hexadecapole moment (field-independent basis, Debye-Ang**3):
 XXXX=          -7672.4148 YYYY=          -2885.8200 ZZZZ=          -1094.1664 XXXY=            -26.7355
 XXXZ=            243.3504 YYYX=            102.8672 YYYZ=             32.9676 ZZZX=             17.7989
 ZZZY=            -14.3374 XXYY=          -1891.8789 XXZZ=          -1482.7265 YYZZ=           -592.4613
 XXYZ=            -25.2605 YYXZ=             44.1263 ZZXY=              2.8502
 N-N= 2.530304362734D+03 E-N=-9.310935247503D+03  KE= 1.798664201746D+03
 No NMR shielding tensors so no spin-rotation constants.
 Leave Link  601 at Sat Aug  8 00:10:03 2020, MaxMem=    33554432 cpu:         0.4
 (Enter /prod/apps/gaussian/g09d1/l9999.exe)
 1\1\GINC-PIRINEUS28\SP\RB3LYP\6-31G(d)\C17H19N1O4S2\UBAFAR01\08-Aug-20
 20\0\\#p b3lyp/6-31G(d) scrf=(iefpcm,read,solvent=Water) geom=allcheck
  guess=read\\SM39.n.4.pdb.xyz\\0,1\O,0,3.119,0.588,2.087\S,0,2.235,1.2
 98,1.153\N,0,3.02,1.154,-0.322\C,0,2.601,1.659,-1.638\C,0,2.109,3.145,
 -1.638\S,0,0.703,2.683,-2.697\C,0,1.296,1.02,-2.246\O,0,-0.617,3.03,-2
 .134\O,0,0.957,2.992,-4.12\C,0,3.782,1.417,-2.602\C,0,5.152,1.971,-2.1
 68\C,0,5.3,3.478,-2.179\C,0,5.469,4.185,-0.982\C,0,5.617,5.574,-0.982\
 C,0,5.601,6.279,-2.186\C,0,5.441,5.586,-3.389\C,0,5.296,4.198,-3.384\C
 ,0,0.672,0.427,1.112\C,0,0.667,-0.971,1.136\C,0,-0.555,-1.638,1.103\C,
 0,-1.75,-0.913,1.051\C,0,-1.73,0.483,1.034\C,0,-0.512,1.165,1.065\O,0,
 1.939,2.723,1.364\H,0,3.431,0.22,-0.382\H,0,2.78,3.867,-2.095\H,0,1.75
 1,3.494,-0.671\H,0,1.439,0.359,-3.1\H,0,0.631,0.571,-1.511\H,0,3.498,1
 .819,-3.58\H,0,3.878,0.334,-2.733\H,0,5.894,1.534,-2.847\H,0,5.382,1.5
 98,-1.167\H,0,5.481,3.638,-0.046\H,0,5.746,6.102,-0.042\H,0,5.717,7.35
 8,-2.189\H,0,5.436,6.125,-4.331\H,0,5.181,3.668,-4.325\H,0,1.597,-1.52
 6,1.189\H,0,-0.576,-2.721,1.122\H,0,-2.698,-1.439,1.027\H,0,-2.657,1.0
 44,1.002\H,0,-0.471,2.246,1.058\\Version=AM64L-G09RevD.01\State=1-A\HF
 =-1811.1449801\RMSD=7.020e-09\Dipole=0.3817757,-2.8756598,-0.4615483\Q
 uadrupole=1.5309458,16.6688624,-18.1998082,12.324614,-15.9578411,3.154
 0661\PG=C01 [X(C17H19N1O4S2)]\\@


 A leading authority is anyone who has guessed right more than once.
 -- Frank A. Clark
 Job cpu time:       0 days  0 hours  7 minutes  9.9 seconds.
 File lengths (MBytes):  RWF=    296 Int=      0 D2E=      0 Chk=      9 Scr=      1
 Normal termination of Gaussian 09 at Sat Aug  8 00:10:03 2020.
