 Entering Gaussian System, Link 0=g09
 Initial command:
 /prod/apps/gaussian/g09d1/l1.exe "/tmp/ubafar01/1449004/Gau-26378.inp" -scrdir="/tmp/ubafar01/1449004/"
 Entering Link 1 = /prod/apps/gaussian/g09d1/l1.exe PID=     26381.
  
 Copyright (c) 1988,1990,1992,1993,1995,1998,2003,2009,2013,
            Gaussian, Inc.  All Rights Reserved.
  
 This is part of the Gaussian(R) 09 program.  It is based on
 the Gaussian(R) 03 system (copyright 2003, Gaussian, Inc.),
 the Gaussian(R) 98 system (copyright 1998, Gaussian, Inc.),
 the Gaussian(R) 94 system (copyright 1995, Gaussian, Inc.),
 the Gaussian 92(TM) system (copyright 1992, Gaussian, Inc.),
 the Gaussian 90(TM) system (copyright 1990, Gaussian, Inc.),
 the Gaussian 88(TM) system (copyright 1988, Gaussian, Inc.),
 the Gaussian 86(TM) system (copyright 1986, Carnegie Mellon
 University), and the Gaussian 82(TM) system (copyright 1983,
 Carnegie Mellon University). Gaussian is a federally registered
 trademark of Gaussian, Inc.
  
 This software contains proprietary and confidential information,
 including trade secrets, belonging to Gaussian, Inc.
  
 This software is provided under written license and may be
 used, copied, transmitted, or stored only in accord with that
 written license.
  
 The following legend is applicable only to US Government
 contracts under FAR:
  
                    RESTRICTED RIGHTS LEGEND
  
 Use, reproduction and disclosure by the US Government is
 subject to restrictions as set forth in subparagraphs (a)
 and (c) of the Commercial Computer Software - Restricted
 Rights clause in FAR 52.227-19.
  
 Gaussian, Inc.
 340 Quinnipiac St., Bldg. 40, Wallingford CT 06492
  
  
 ---------------------------------------------------------------
 Warning -- This program may not be used in any manner that
 competes with the business of Gaussian, Inc. or will provide
 assistance to any competitor of Gaussian, Inc.  The licensee
 of this program is prohibited from giving any competitor of
 Gaussian, Inc. access to this program.  By using this program,
 the user acknowledges that Gaussian, Inc. is engaged in the
 business of creating and licensing software in the field of
 computational chemistry and represents and warrants to the
 licensee that it is not a competitor of Gaussian, Inc. and that
 it will not use this program in any manner prohibited above.
 ---------------------------------------------------------------
  

 Cite this work as:
 Gaussian 09, Revision D.01,
 M. J. Frisch, G. W. Trucks, H. B. Schlegel, G. E. Scuseria, 
 M. A. Robb, J. R. Cheeseman, G. Scalmani, V. Barone, B. Mennucci, 
 G. A. Petersson, H. Nakatsuji, M. Caricato, X. Li, H. P. Hratchian, 
 A. F. Izmaylov, J. Bloino, G. Zheng, J. L. Sonnenberg, M. Hada, 
 M. Ehara, K. Toyota, R. Fukuda, J. Hasegawa, M. Ishida, T. Nakajima, 
 Y. Honda, O. Kitao, H. Nakai, T. Vreven, J. A. Montgomery, Jr., 
 J. E. Peralta, F. Ogliaro, M. Bearpark, J. J. Heyd, E. Brothers, 
 K. N. Kudin, V. N. Staroverov, T. Keith, R. Kobayashi, J. Normand, 
 K. Raghavachari, A. Rendell, J. C. Burant, S. S. Iyengar, J. Tomasi, 
 M. Cossi, N. Rega, J. M. Millam, M. Klene, J. E. Knox, J. B. Cross, 
 V. Bakken, C. Adamo, J. Jaramillo, R. Gomperts, R. E. Stratmann, 
 O. Yazyev, A. J. Austin, R. Cammi, C. Pomelli, J. W. Ochterski, 
 R. L. Martin, K. Morokuma, V. G. Zakrzewski, G. A. Voth, 
 P. Salvador, J. J. Dannenberg, S. Dapprich, A. D. Daniels, 
 O. Farkas, J. B. Foresman, J. V. Ortiz, J. Cioslowski, 
 and D. J. Fox, Gaussian, Inc., Wallingford CT, 2013.
 
 ******************************************
 Gaussian 09:  AM64L-G09RevD.01 24-Apr-2013
                 7-Aug-2020 
 ******************************************
 %nproc=1
 Will use up to    1 processors via shared memory.
 %Chk=SM39.n.3.pdb.xyz.mst.n.w.chk
 -----------------
 #p b3lyp/6-31G(d)
 -----------------
 1/38=1/1;
 2/12=2,17=6,18=5,40=1/2;
 3/5=1,6=6,7=1,11=2,16=1,25=1,30=1,74=-5/1,2,3;
 4//1;
 5/5=2,38=5/2;
 6/7=2,8=2,9=2,10=2,28=1/1;
 99/5=1,9=1/99;
 Leave Link    1 at Fri Aug  7 23:53:17 2020, MaxMem=           0 cpu:         0.0
 (Enter /prod/apps/gaussian/g09d1/l101.exe)
 ----------------
 SM39.n.3.pdb.xyz
 ----------------
 Symbolic Z-matrix:
 Charge =  0 Multiplicity = 1
 O                     3.068     0.372     1.911 
 S                     2.934     0.091     0.474 
 N                     2.928     1.61     -0.229 
 C                     2.768     1.914    -1.662 
 C                     2.255     3.397    -1.774 
 S                     0.89      2.849    -2.845 
 C                     1.493     1.233    -2.269 
 O                    -0.455     3.207    -2.355 
 O                     1.194     3.074    -4.274 
 C                     4.009     1.638    -2.539 
 C                     5.35      2.256    -2.094 
 C                     5.439     3.767    -2.124 
 C                     5.56      4.495    -0.934 
 C                     5.647     5.889    -0.947 
 C                     5.616     6.579    -2.16 
 C                     5.506     5.865    -3.356 
 C                     5.422     4.472    -3.337 
 C                     4.369    -0.856    -0.024 
 C                     5.607    -0.587     0.566 
 C                     6.714    -1.336     0.172 
 C                     6.578    -2.338    -0.793 
 C                     5.332    -2.602    -1.367 
 C                     4.215    -1.859    -0.983 
 O                     1.752    -0.622    -0.031 
 H                     3.599     2.217     0.243 
 H                     2.925     4.11     -2.248 
 H                     1.862     3.781    -0.832 
 H                     1.661     0.516    -3.07 
 H                     0.827     0.826    -1.512 
 H                     3.772     1.969    -3.556 
 H                     4.143     0.554    -2.597 
 H                     6.114     1.839    -2.76 
 H                     5.605     1.908    -1.089 
 H                     5.589     3.957     0.009 
 H                     5.739     6.433    -0.013 
 H                     5.683     7.661    -2.175 
 H                     5.49      6.393    -4.305 
 H                     5.344     3.927    -4.274 
 H                     5.7       0.182     1.324 
 H                     7.681    -1.141     0.623 
 H                     7.444    -2.918    -1.092 
 H                     5.226    -3.386    -2.108 
 H                     3.237    -2.053    -1.405 
 
 NAtoms=     43 NQM=       43 NQMF=       0 NMMI=      0 NMMIF=      0
                NMic=       0 NMicF=      0.
                    Isotopes and Nuclear Properties:
 (Nuclear quadrupole moments (NQMom) in fm**2, nuclear magnetic moments (NMagM)
  in nuclear magnetons)

  Atom         1           2           3           4           5           6           7           8           9          10
 IAtWgt=          16          32          14          12          12          32          12          16          16          12
 AtmWgt=  15.9949146  31.9720718  14.0030740  12.0000000  12.0000000  31.9720718  12.0000000  15.9949146  15.9949146  12.0000000
 NucSpn=           0           0           2           0           0           0           0           0           0           0
 AtZEff=   0.0000000   0.0000000   0.0000000   0.0000000   0.0000000   0.0000000   0.0000000   0.0000000   0.0000000   0.0000000
 NQMom=    0.0000000   0.0000000   2.0440000   0.0000000   0.0000000   0.0000000   0.0000000   0.0000000   0.0000000   0.0000000
 NMagM=    0.0000000   0.0000000   0.4037610   0.0000000   0.0000000   0.0000000   0.0000000   0.0000000   0.0000000   0.0000000
 AtZNuc=   8.0000000  16.0000000   7.0000000   6.0000000   6.0000000  16.0000000   6.0000000   8.0000000   8.0000000   6.0000000

  Atom        11          12          13          14          15          16          17          18          19          20
 IAtWgt=          12          12          12          12          12          12          12          12          12          12
 AtmWgt=  12.0000000  12.0000000  12.0000000  12.0000000  12.0000000  12.0000000  12.0000000  12.0000000  12.0000000  12.0000000
 NucSpn=           0           0           0           0           0           0           0           0           0           0
 AtZEff=   0.0000000   0.0000000   0.0000000   0.0000000   0.0000000   0.0000000   0.0000000   0.0000000   0.0000000   0.0000000
 NQMom=    0.0000000   0.0000000   0.0000000   0.0000000   0.0000000   0.0000000   0.0000000   0.0000000   0.0000000   0.0000000
 NMagM=    0.0000000   0.0000000   0.0000000   0.0000000   0.0000000   0.0000000   0.0000000   0.0000000   0.0000000   0.0000000
 AtZNuc=   6.0000000   6.0000000   6.0000000   6.0000000   6.0000000   6.0000000   6.0000000   6.0000000   6.0000000   6.0000000

  Atom        21          22          23          24          25          26          27          28          29          30
 IAtWgt=          12          12          12          16           1           1           1           1           1           1
 AtmWgt=  12.0000000  12.0000000  12.0000000  15.9949146   1.0078250   1.0078250   1.0078250   1.0078250   1.0078250   1.0078250
 NucSpn=           0           0           0           0           1           1           1           1           1           1
 AtZEff=   0.0000000   0.0000000   0.0000000   0.0000000   0.0000000   0.0000000   0.0000000   0.0000000   0.0000000   0.0000000
 NQMom=    0.0000000   0.0000000   0.0000000   0.0000000   0.0000000   0.0000000   0.0000000   0.0000000   0.0000000   0.0000000
 NMagM=    0.0000000   0.0000000   0.0000000   0.0000000   2.7928460   2.7928460   2.7928460   2.7928460   2.7928460   2.7928460
 AtZNuc=   6.0000000   6.0000000   6.0000000   8.0000000   1.0000000   1.0000000   1.0000000   1.0000000   1.0000000   1.0000000

  Atom        31          32          33          34          35          36          37          38          39          40
 IAtWgt=           1           1           1           1           1           1           1           1           1           1
 AtmWgt=   1.0078250   1.0078250   1.0078250   1.0078250   1.0078250   1.0078250   1.0078250   1.0078250   1.0078250   1.0078250
 NucSpn=           1           1           1           1           1           1           1           1           1           1
 AtZEff=   0.0000000   0.0000000   0.0000000   0.0000000   0.0000000   0.0000000   0.0000000   0.0000000   0.0000000   0.0000000
 NQMom=    0.0000000   0.0000000   0.0000000   0.0000000   0.0000000   0.0000000   0.0000000   0.0000000   0.0000000   0.0000000
 NMagM=    2.7928460   2.7928460   2.7928460   2.7928460   2.7928460   2.7928460   2.7928460   2.7928460   2.7928460   2.7928460
 AtZNuc=   1.0000000   1.0000000   1.0000000   1.0000000   1.0000000   1.0000000   1.0000000   1.0000000   1.0000000   1.0000000

  Atom        41          42          43
 IAtWgt=           1           1           1
 AtmWgt=   1.0078250   1.0078250   1.0078250
 NucSpn=           1           1           1
 AtZEff=   0.0000000   0.0000000   0.0000000
 NQMom=    0.0000000   0.0000000   0.0000000
 NMagM=    2.7928460   2.7928460   2.7928460
 AtZNuc=   1.0000000   1.0000000   1.0000000
 Leave Link  101 at Fri Aug  7 23:53:17 2020, MaxMem=    33554432 cpu:         0.1
 (Enter /prod/apps/gaussian/g09d1/l202.exe)
                          Input orientation:                          
 ---------------------------------------------------------------------
 Center     Atomic      Atomic             Coordinates (Angstroms)
 Number     Number       Type             X           Y           Z
 ---------------------------------------------------------------------
      1          8           0        3.068000    0.372000    1.911000
      2         16           0        2.934000    0.091000    0.474000
      3          7           0        2.928000    1.610000   -0.229000
      4          6           0        2.768000    1.914000   -1.662000
      5          6           0        2.255000    3.397000   -1.774000
      6         16           0        0.890000    2.849000   -2.845000
      7          6           0        1.493000    1.233000   -2.269000
      8          8           0       -0.455000    3.207000   -2.355000
      9          8           0        1.194000    3.074000   -4.274000
     10          6           0        4.009000    1.638000   -2.539000
     11          6           0        5.350000    2.256000   -2.094000
     12          6           0        5.439000    3.767000   -2.124000
     13          6           0        5.560000    4.495000   -0.934000
     14          6           0        5.647000    5.889000   -0.947000
     15          6           0        5.616000    6.579000   -2.160000
     16          6           0        5.506000    5.865000   -3.356000
     17          6           0        5.422000    4.472000   -3.337000
     18          6           0        4.369000   -0.856000   -0.024000
     19          6           0        5.607000   -0.587000    0.566000
     20          6           0        6.714000   -1.336000    0.172000
     21          6           0        6.578000   -2.338000   -0.793000
     22          6           0        5.332000   -2.602000   -1.367000
     23          6           0        4.215000   -1.859000   -0.983000
     24          8           0        1.752000   -0.622000   -0.031000
     25          1           0        3.599000    2.217000    0.243000
     26          1           0        2.925000    4.110000   -2.248000
     27          1           0        1.862000    3.781000   -0.832000
     28          1           0        1.661000    0.516000   -3.070000
     29          1           0        0.827000    0.826000   -1.512000
     30          1           0        3.772000    1.969000   -3.556000
     31          1           0        4.143000    0.554000   -2.597000
     32          1           0        6.114000    1.839000   -2.760000
     33          1           0        5.605000    1.908000   -1.089000
     34          1           0        5.589000    3.957000    0.009000
     35          1           0        5.739000    6.433000   -0.013000
     36          1           0        5.683000    7.661000   -2.175000
     37          1           0        5.490000    6.393000   -4.305000
     38          1           0        5.344000    3.927000   -4.274000
     39          1           0        5.700000    0.182000    1.324000
     40          1           0        7.681000   -1.141000    0.623000
     41          1           0        7.444000   -2.918000   -1.092000
     42          1           0        5.226000   -3.386000   -2.108000
     43          1           0        3.237000   -2.053000   -1.405000
 ---------------------------------------------------------------------
                    Distance matrix (angstroms):
                    1          2          3          4          5
     1  O    0.000000
     2  S    1.470335   0.000000
     3  N    2.476256   1.673800   0.000000
     4  C    3.903088   2.813073   1.473603   0.000000
     5  C    4.836406   4.055143   2.456282   1.573214   0.000000
     6  S    5.787810   4.774962   3.540059   2.408443   1.819497
     7  C    4.549104   3.302226   2.522490   1.567748   2.347033
     8  O    6.216712   5.403519   4.302903   3.541162   2.778086
     9  O    7.004777   5.871064   4.638111   3.262763   2.734968
    10  C    4.721307   3.553449   2.550577   1.544469   2.599196
    11  C    4.979659   4.137500   3.124360   2.640135   3.314107
    12  C    5.781772   5.151466   3.814288   3.283488   3.224478
    13  C    5.594928   5.317288   3.968334   3.871280   3.582489
    14  C    6.727310   6.557165   5.120383   4.959888   4.289482
    15  C    7.848069   7.498348   5.970349   5.488291   4.644399
    16  C    7.991131   7.390748   5.876158   5.096732   4.377528
    17  C    7.063485   6.317201   4.906194   4.048791   3.691678
    18  C    2.635301   1.789983   2.863505   3.594321   5.061571
    19  C    3.029064   2.759180   3.554698   4.390775   5.708219
    20  C    4.385738   4.051658   4.813888   5.431111   6.787554
    21  C    5.193825   4.558954   5.406228   5.775012   7.248511
    22  C    4.971484   4.048695   4.981486   5.201478   6.754375
    23  C    3.829909   2.750693   3.776089   4.097606   5.665052
    24  O    2.547794   1.469870   2.530613   3.181778   4.409469
    25  H    2.543268   2.239523   1.020526   2.100332   2.695742
    26  H    5.593780   4.854042   3.213467   2.278258   1.087173
    27  H    4.538697   4.058438   2.492630   2.235045   1.090536
    28  H    5.177909   3.789603   3.297485   2.272073   3.214438
    29  H    4.116446   2.987285   2.583592   2.230185   2.952604
    30  H    5.738825   4.524382   3.451108   2.144359   2.741532
    31  H    4.637975   3.332730   2.863352   2.148127   3.510630
    32  H    5.766147   4.860726   4.075414   3.522349   4.276849
    33  H    4.218491   3.588690   2.827496   2.894293   3.729457
    34  H    4.777580   4.712877   3.556118   3.863176   3.822073
    35  H    6.897227   6.951702   5.586565   5.653972   4.945369
    36  H    8.755749   8.478154   6.927593   6.464395   5.485771
    37  H    8.986500   8.311870   6.786362   5.869938   5.084014
    38  H    7.488152   6.562507   5.250483   4.184554   4.009092
    39  H    2.703348   2.895088   3.483529   4.529089   5.639313
    40  H    5.022737   4.906530   5.557420   6.220275   7.468636
    41  H    6.244316   5.643274   6.453046   6.748192   8.201833
    42  H    5.910321   4.899951   5.811322   5.859239   7.412657
    43  H    4.111574   2.866912   3.859537   4.002886   5.550044
                    6          7          8          9         10
     6  S    0.000000
     7  C    1.818472   0.000000
     8  O    1.475564   2.774667   0.000000
     9  O    1.478202   2.738377   2.533664   0.000000
    10  C    3.359809   2.562651   4.735284   3.605072   0.000000
    11  C    4.561496   3.994196   5.888170   4.763807   1.542151
    12  C    4.696378   4.691812   5.925048   4.808615   2.598031
    13  C    5.307555   5.381762   6.313352   5.677746   3.625476
    14  C    5.955926   6.378224   6.812488   6.230759   4.825817
    15  C    6.059472   6.752090   6.947334   6.025621   5.209565
    16  C    5.537584   6.224240   6.603066   5.217830   4.558073
    17  C    4.838927   5.202767   6.091279   4.550644   3.265720
    18  C    5.812788   4.204203   6.724025   6.602123   3.560177
    19  C    6.759520   5.317389   7.724929   7.503538   4.140683
    20  C    7.780456   6.310078   8.855458   8.347779   4.848837
    21  C    7.966744   6.386536   9.091202   8.390147   5.045478
    22  C    7.185350   5.500795   8.258934   7.602017   4.593638
    23  C    6.057056   4.315500   7.025357   6.655194   3.833090
    24  O    4.550767   2.918347   4.993302   5.654629   4.060999
    25  H    4.156182   3.422519   4.915752   5.188619   2.871039
    26  H    2.467338   3.213751   3.500180   2.859079   2.714870
    27  H    2.421895   2.948463   2.831518   3.576791   3.480791
    28  H    2.467378   1.088078   3.497165   2.865496   2.655927
    29  H    2.423507   1.087315   2.832549   3.580061   3.440813
    30  H    3.096102   2.718806   4.565367   2.895278   1.095454
    31  H    3.988802   2.755200   5.313998   4.226030   1.093790
    32  H    5.321419   4.686359   6.722143   5.293753   2.126092
    33  H    5.118617   4.330885   6.325643   5.564234   2.173158
    34  H    5.608349   5.420948   6.533065   6.199984   3.790312
    35  H    6.661688   7.082235   7.365981   7.077855   5.689077
    36  H    6.824741   7.673599   7.585879   6.752591   6.261893
    37  H    5.987615   6.837171   7.021120   5.428843   5.284141
    38  H    4.800233   5.109585   6.150558   4.236757   3.167329
    39  H    6.901417   5.631438   7.782653   7.746309   4.461187
    40  H    8.606091   7.231244   9.693714   9.155763   5.586114
    41  H    8.904281   7.350546  10.074969   9.224516   5.886440
    42  H    7.630157   5.941075   8.706458   7.917082   5.187237
    43  H    5.622421   3.819140   6.496227   6.220220   3.937692
                   11         12         13         14         15
    11  C    0.000000
    12  C    1.513916   0.000000
    13  C    2.530380   1.400259   0.000000
    14  C    3.821323   2.435462   1.396773   0.000000
    15  C    4.331679   2.817795   2.418526   1.395862   0.000000
    16  C    3.826468   2.433910   2.783146   2.413242   1.397252
    17  C    2.541828   1.403098   2.407069   2.787582   2.421242
    18  C    3.864169   5.189126   5.556958   6.926777   7.835607
    19  C    3.901833   5.120707   5.298956   6.650515   7.666989
    20  C    4.460686   5.739151   6.046116   7.388591   8.324125
    21  C    4.930053   6.351370   6.909855   8.280942   9.072322
    22  C    4.912130   6.414722   7.113851   8.507215   9.219559
    23  C    4.410870   5.869577   6.494978   7.879304   8.634117
    24  O    5.048213   6.102290   6.442046   7.642199   8.444971
    25  H    2.920461   3.375024   3.228023   4.369667   5.373057
    26  H    3.056412   2.540319   2.969519   3.502389   3.653106
    27  H    4.010538   3.803208   3.767679   4.333949   4.866714
    28  H    4.193912   5.073185   5.966334   7.018864   7.295896
    29  H    4.779242   5.504050   6.016389   7.013244   7.513417
    30  H    2.170230   2.839422   4.056169   5.068422   5.157640
    31  H    2.146314   3.496672   4.506100   5.783316   6.217823
    32  H    1.095966   2.139464   3.270402   4.461789   4.803707
    33  H    1.093688   2.134165   2.592030   3.983753   4.792223
    34  H    2.715351   2.146693   1.086064   2.156368   3.402965
    35  H    4.682864   3.413778   2.153167   1.084784   2.155471
    36  H    5.415854   3.901970   3.402759   2.156215   1.084176
    37  H    4.692855   3.413977   3.869231   3.399239   2.156733
    38  H    2.746758   2.158037   3.394831   3.874298   3.402364
    39  H    4.013315   4.980868   4.870332   6.142483   7.284705
    40  H    4.935105   6.054836   6.219918   7.484848   8.462134
    41  H    5.670901   7.055089   7.650293   8.989632   9.730119
    42  H    5.643380   7.156189   7.974960   9.356858   9.972764
    43  H    4.848399   6.264037   6.963797   8.312234   8.985605
                   16         17         18         19         20
    16  C    0.000000
    17  C    1.395660   0.000000
    18  C    7.587281   6.361789   0.000000
    19  C    7.551198   6.392270   1.397535   0.000000
    20  C    8.109282   6.907620   2.401633   1.393444   0.000000
    21  C    8.660679   7.361003   2.769001   2.419860   1.397757
    22  C    8.699223   7.343737   2.404066   2.805769   2.425119
    23  C    8.182786   6.861467   1.396211   2.440297   2.802241
    24  O    8.199348   7.095588   2.627450   3.901110   5.017215
    25  H    5.467847   4.607033   3.179232   3.463930   4.725682
    26  H    3.311986   2.748086   5.629606   6.097010   7.062000
    27  H    4.898200   4.407506   5.332887   5.921052   7.122753
    28  H    6.593756   5.465011   4.300438   5.477958   6.282776
    29  H    7.119333   6.143123   4.193928   5.400283   6.493602
    30  H    4.269142   3.005906   4.562023   5.185677   5.785877
    31  H    5.535393   4.187382   2.942704   3.667390   4.224867
    32  H    4.115040   2.782891   4.218263   4.147867   4.363170
    33  H    4.561462   3.414834   3.209613   2.994003   3.652881
    34  H    3.869183   3.389518   4.965326   4.578046   5.413690
    35  H    3.398906   3.872336   7.416640   7.045074   7.832127
    36  H    2.156781   3.404128   8.882155   8.691856   9.355072
    37  H    1.086113   2.152182   8.493033   8.512387   9.015495
    38  H    2.150538   1.086774   6.472265   6.623516   7.024456
    39  H    7.364545   6.340844   2.160118   1.083778   2.158616
    40  H    8.345484   7.231214   3.386617   2.147473   1.084673
    41  H    9.274838   7.983772   3.853322   3.399573   2.152515
    42  H    9.338999   7.955942   3.387979   3.889709   3.408085
    43  H    8.464602   7.147200   2.149743   3.413341   3.884655
                   21         22         23         24         25
    21  C    0.000000
    22  C    1.397028   0.000000
    23  C    2.418535   1.395419   0.000000
    24  O    5.178376   4.303684   2.915963   0.000000
    25  H    5.540376   5.368254   4.300733   3.398000   0.000000
    26  H    7.552360   7.184758   6.236448   5.355636   3.200438
    27  H    7.725564   7.284903   6.113020   4.476618   2.572720
    28  H    6.124290   5.108657   4.064371   3.246359   4.198239
    29  H    6.603170   5.662794   4.355182   2.268411   3.563550
    30  H    5.835928   5.302769   4.633591   4.818642   3.811015
    31  H    4.188950   3.589841   2.903920   3.699218   3.335732
    32  H    4.640228   4.719582   4.520966   5.703596   3.935241
    33  H    4.366104   4.526799   4.016668   4.729257   2.427703
    34  H    6.422488   6.706706   6.057871   5.974229   2.653763
    35  H    8.845494   9.144954   8.486503   8.103673   4.734954
    36  H   10.133654  10.300739   9.705992   9.415816   6.310857
    37  H    9.473555   9.463976   8.986479   9.024962   6.457489
    38  H    7.272575   7.146932   6.751527   7.183238   5.135408
    39  H    3.406314   3.889417   3.419526   4.250782   3.118331
    40  H    2.157423   3.407700   3.886890   5.987497   5.299367
    41  H    1.084323   2.153143   3.399971   6.228660   6.552440
    42  H    2.157645   1.083962   2.149296   4.901255   6.290305
    43  H    3.408526   2.166072   1.082684   2.478076   4.591280
                   26         27         28         29         30
    26  H    0.000000
    27  H    1.800907   0.000000
    28  H    3.897463   3.963492   0.000000
    29  H    3.965849   3.204005   1.794163   0.000000
    30  H    2.648047   3.788353   2.608395   3.762633   0.000000
    31  H    3.774978   4.328015   2.526954   3.499581   1.749156
    32  H    3.948330   5.056486   4.655710   5.525943   2.476990
    33  H    3.657114   4.193355   4.627868   4.917208   3.074036
    34  H    3.494904   3.824760   6.062170   5.898580   4.467981
    35  H    4.279036   4.768123   7.809368   7.603499   6.029033
    36  H    4.496832   5.608751   8.247941   8.410561   6.161002
    37  H    4.002819   5.660977   7.122190   7.780482   4.804612
    38  H    3.160653   4.898265   5.162269   6.135808   2.611603
    39  H    5.990742   5.686069   5.977651   5.674836   5.543009
    40  H    7.644291   7.759115   7.254261   7.443429   6.512789
    41  H    8.435074   8.723699   7.010558   7.614370   6.590724
    42  H    7.842462   8.019387   5.372176   6.119425   5.734705
    43  H    6.228207   6.021172   3.443220   3.756087   4.592332
                   31         32         33         34         35
    31  H    0.000000
    32  H    2.358524   0.000000
    33  H    2.498965   1.748166   0.000000
    34  H    4.523556   3.525466   2.324707   0.000000
    35  H    6.617168   5.365768   4.653102   2.480637   0.000000
    36  H    7.284170   5.867169   5.855125   4.300966   2.487039
    37  H    6.231019   4.849259   5.520064   4.955249   4.299403
    38  H    3.953715   2.691624   3.780041   4.290107   4.959051
    39  H    4.235195   4.426748   2.968277   3.999021   6.392503
    40  H    5.075320   4.772900   4.066586   5.544643   7.844829
    41  H    5.021594   5.213461   5.164514   7.205474   9.566215
    42  H    4.115290   5.339876   5.404483   7.650693  10.053107
    43  H    3.006351   5.026014   4.625668   6.606921   8.955996
                   36         37         38         39         40
    36  H    0.000000
    37  H    2.486357   0.000000
    38  H    4.296915   2.470513   0.000000
    39  H    8.257041   8.384883   6.744580   0.000000
    40  H    9.449657   9.265356   7.424743   2.483161   0.000000
    41  H   10.779112  10.041723   7.835123   4.299836   2.480952
    42  H   11.056652  10.026233   7.627939   4.973321   4.304116
    43  H   10.046771   9.209828   6.959239   4.302213   4.969272
                   41         42         43
    41  H    0.000000
    42  H    2.484110   0.000000
    43  H    4.306396   2.495440   0.000000
 Stoichiometry    C17H19NO4S2
 Framework group  C1[X(C17H19NO4S2)]
 Deg. of freedom   123
 Full point group                 C1      NOp   1
 Largest Abelian subgroup         C1      NOp   1
 Largest concise Abelian subgroup C1      NOp   1
                         Standard orientation:                         
 ---------------------------------------------------------------------
 Center     Atomic      Atomic             Coordinates (Angstroms)
 Number     Number       Type             X           Y           Z
 ---------------------------------------------------------------------
      1          8           0       -2.439977    0.513640    2.600835
      2         16           0       -2.110098    0.861515    1.210853
      3          7           0       -0.455248    0.625749    1.124309
      4          6           0        0.407623    0.875504   -0.043844
      5          6           0        1.874527    1.074561    0.488669
      6         16           0        2.005052    2.633949   -0.439686
      7          6           0        0.221611    2.324185   -0.613543
      8          8           0        2.341177    3.811172    0.383997
      9          8           0        2.724363    2.449126   -1.717776
     10          6           0        0.313652   -0.175197   -1.171932
     11          6           0        0.496149   -1.656867   -0.785176
     12          6           0        1.864992   -2.057540   -0.277562
     13          6           0        2.039555   -2.459451    1.052370
     14          6           0        3.295899   -2.835471    1.533185
     15          6           0        4.402922   -2.816434    0.683145
     16          6           0        4.241747   -2.427488   -0.649167
     17          6           0        2.983499   -2.055255   -1.124687
     18          6           0       -2.990974   -0.278477    0.148538
     19          6           0       -3.166380   -1.602760    0.559165
     20          6           0       -3.858793   -2.477219   -0.276043
     21          6           0       -4.367993   -2.027998   -1.497780
     22          6           0       -4.193124   -0.698762   -1.890514
     23          6           0       -3.500709    0.187776   -1.064798
     24          8           0       -2.379298    2.215318    0.705612
     25          1           0       -0.191778   -0.205741    1.654103
     26          1           0        2.605881    0.326211    0.193644
     27          1           0        1.912390    1.271629    1.560583
     28          1           0       -0.139578    2.400097   -1.637112
     29          1           0       -0.343953    2.973100    0.050762
     30          1           0        1.049282    0.097754   -1.936370
     31          1           0       -0.667117   -0.071166   -1.644843
     32          1           0        0.263707   -2.237868   -1.684926
     33          1           0       -0.252915   -1.942406   -0.041184
     34          1           0        1.176762   -2.478677    1.711727
     35          1           0        3.408517   -3.142280    2.567565
     36          1           0        5.380085   -3.107240    1.051959
     37          1           0        5.095857   -2.418127   -1.320025
     38          1           0        2.869030   -1.761505   -2.164728
     39          1           0       -2.780696   -1.938391    1.514766
     40          1           0       -4.005645   -3.507350    0.030192
     41          1           0       -4.907901   -2.714349   -2.140570
     42          1           0       -4.597121   -0.349227   -2.833692
     43          1           0       -3.362674    1.225181   -1.342182
 ---------------------------------------------------------------------
 Rotational constants (GHZ):      0.2604522      0.1613916      0.1226240
 Leave Link  202 at Fri Aug  7 23:53:17 2020, MaxMem=    33554432 cpu:         0.0
 (Enter /prod/apps/gaussian/g09d1/l301.exe)
 Standard basis: 6-31G(d) (6D, 7F)
 Ernie: Thresh=  0.10000D-02 Tol=  0.10000D-05 Strict=F.
 There are   406 symmetry adapted cartesian basis functions of A   symmetry.
 There are   406 symmetry adapted basis functions of A   symmetry.
   406 basis functions,   796 primitive gaussians,   406 cartesian basis functions
    96 alpha electrons       96 beta electrons
       nuclear repulsion energy      2511.7715681284 Hartrees.
 IExCor=  402 DFT=T Ex+Corr=B3LYP ExCW=0 ScaHFX=  0.200000
 ScaDFX=  0.800000  0.720000  1.000000  0.810000 ScalE2=  1.000000  1.000000
 IRadAn=      0 IRanWt=     -1 IRanGd=            0 ICorTp=0 IEmpDi=  4
 NAtoms=   43 NActive=   43 NUniq=   43 SFac= 1.00D+00 NAtFMM=   60 NAOKFM=F Big=F
 Integral buffers will be    131072 words long.
 Raffenetti 2 integral format.
 Two-electron integral symmetry is turned on.
 Leave Link  301 at Fri Aug  7 23:53:17 2020, MaxMem=    33554432 cpu:         0.0
 (Enter /prod/apps/gaussian/g09d1/l302.exe)
 NPDir=0 NMtPBC=     1 NCelOv=     1 NCel=       1 NClECP=     1 NCelD=      1
         NCelK=      1 NCelE2=     1 NClLst=     1 CellRange=     0.0.
 One-electron integrals computed using PRISM.
 NBasis=   406 RedAO= T EigKep=  4.69D-04  NBF=   406
 NBsUse=   406 1.00D-06 EigRej= -1.00D+00 NBFU=   406
 Precomputing XC quadrature grid using
 IXCGrd= 4 IRadAn=           0 IRanWt=          -1 IRanGd=           0 AccXCQ= 0.00D+00.
 Generated NRdTot=       0 NPtTot=           0 NUsed=           0 NTot=          32
 NSgBfM=   398   398   398   399   399 MxSgAt=    43 MxSgA2=    43.
 Leave Link  302 at Fri Aug  7 23:53:19 2020, MaxMem=    33554432 cpu:         1.6
 (Enter /prod/apps/gaussian/g09d1/l303.exe)
 DipDrv:  MaxL=1.
 Leave Link  303 at Fri Aug  7 23:53:19 2020, MaxMem=    33554432 cpu:         0.1
 (Enter /prod/apps/gaussian/g09d1/l401.exe)
 ExpMin= 1.17D-01 ExpMax= 2.19D+04 ExpMxC= 3.30D+03 IAcc=1 IRadAn=         1 AccDes= 0.00D+00
 Harris functional with IExCor=  402 and IRadAn=       1 diagonalized for initial guess.
 HarFok:  IExCor=  402 AccDes= 0.00D+00 IRadAn=         1 IDoV= 1 UseB2=F ITyADJ=14
 ICtDFT=  3500011 ScaDFX=  1.000000  1.000000  1.000000  1.000000
 FoFCou: FMM=F IPFlag=           0 FMFlag=      100000 FMFlg1=           0
         NFxFlg=           0 DoJE=T BraDBF=F KetDBF=T FulRan=T
         wScrn=  0.000000 ICntrl=     500 IOpCl=  0 I1Cent=   200000004 NGrid=           0
         NMat0=    1 NMatS0=      1 NMatT0=    0 NMatD0=    1 NMtDS0=    0 NMtDT0=    0
 Petite list used in FoFCou.
 Harris En= -1811.22871620719    
 JPrj=0 DoOrth=F DoCkMO=F.
 Leave Link  401 at Fri Aug  7 23:53:25 2020, MaxMem=    33554432 cpu:         6.8
 (Enter /prod/apps/gaussian/g09d1/l502.exe)
 Closed shell SCF:
 Using DIIS extrapolation, IDIIS=  1040.
 Integral symmetry usage will be decided dynamically.
 IVT=      518558 IEndB=      518558 NGot=    33554432 MDV=    33217757
 LenX=    33217757 LenY=    33052480
 Requested convergence on RMS density matrix=1.00D-08 within 128 cycles.
 Requested convergence on MAX density matrix=1.00D-06.
 Requested convergence on             energy=1.00D-06.
 No special actions if energy rises.
 Fock matrices will be formed incrementally for  20 cycles.
 Integral accuracy reduced to 1.0D-05 until final iterations.

 Cycle   1  Pass 0  IDiag  1:
 FoFJK:  IHMeth= 1 ICntrl=       0 DoSepK=F KAlg= 0 I1Cent=   0 FoldK=F
 IRaf= 750000000 NMat=   1 IRICut=       1 DoRegI=T DoRafI=F ISym2E= 0.
 FoFCou: FMM=F IPFlag=           0 FMFlag=      100000 FMFlg1=           0
         NFxFlg=           0 DoJE=F BraDBF=F KetDBF=F FulRan=T
         wScrn=  0.000000 ICntrl=       0 IOpCl=  0 I1Cent=           0 NGrid=           0
         NMat0=    1 NMatS0=      1 NMatT0=    0 NMatD0=    1 NMtDS0=    0 NMtDT0=    0
 Symmetry not used in FoFCou.
 E= -1810.23185962697    
 DIIS: error= 3.62D-02 at cycle   1 NSaved=   1.
 NSaved= 1 IEnMin= 1 EnMin= -1810.23185962697     IErMin= 1 ErrMin= 3.62D-02
 ErrMax= 3.62D-02  0.00D+00 EMaxC= 1.00D-01 BMatC= 1.02D+00 BMatP= 1.02D+00
 IDIUse=3 WtCom= 6.38D-01 WtEn= 3.62D-01
 Coeff-Com:  0.100D+01
 Coeff-En:   0.100D+01
 Coeff:      0.100D+01
 Gap=     0.287 Goal=   None    Shift=    0.000
 GapD=    0.287 DampG=1.000 DampE=0.500 DampFc=0.5000 IDamp=-1.
 Damping current iteration by 5.00D-01
 RMSDP=6.70D-03 MaxDP=5.86D-01              OVMax= 2.46D-01

 Cycle   2  Pass 0  IDiag  1:
 RMSU=  3.35D-03    CP:  9.97D-01
 E= -1810.40018305223     Delta-E=       -0.168323425260 Rises=F Damp=T
 DIIS: error= 1.77D-02 at cycle   2 NSaved=   2.
 NSaved= 2 IEnMin= 2 EnMin= -1810.40018305223     IErMin= 2 ErrMin= 1.77D-02
 ErrMax= 1.77D-02  0.00D+00 EMaxC= 1.00D-01 BMatC= 1.94D-01 BMatP= 1.02D+00
 IDIUse=3 WtCom= 8.23D-01 WtEn= 1.77D-01
 Coeff-Com:  0.259D+00 0.741D+00
 Coeff-En:   0.407D+00 0.593D+00
 Coeff:      0.285D+00 0.715D+00
 Gap=     0.244 Goal=   None    Shift=    0.000
 RMSDP=2.07D-03 MaxDP=1.41D-01 DE=-1.68D-01 OVMax= 2.15D-01

 Cycle   3  Pass 0  IDiag  1:
 RMSU=  1.62D-03    CP:  9.86D-01  6.20D-01
 E= -1811.01214084795     Delta-E=       -0.611957795718 Rises=F Damp=F
 DIIS: error= 1.01D-02 at cycle   3 NSaved=   3.
 NSaved= 3 IEnMin= 3 EnMin= -1811.01214084795     IErMin= 3 ErrMin= 1.01D-02
 ErrMax= 1.01D-02  0.00D+00 EMaxC= 1.00D-01 BMatC= 1.09D-01 BMatP= 1.94D-01
 IDIUse=3 WtCom= 8.99D-01 WtEn= 1.01D-01
 Coeff-Com:  0.103D+00 0.432D+00 0.465D+00
 Coeff-En:   0.000D+00 0.000D+00 0.100D+01
 Coeff:      0.925D-01 0.388D+00 0.519D+00
 Gap=     0.211 Goal=   None    Shift=    0.000
 RMSDP=1.25D-03 MaxDP=4.39D-02 DE=-6.12D-01 OVMax= 7.73D-02

 Cycle   4  Pass 0  IDiag  1:
 RMSU=  7.55D-04    CP:  9.92D-01  7.12D-01  4.17D-01
 E= -1811.10260114520     Delta-E=       -0.090460297257 Rises=F Damp=F
 DIIS: error= 3.60D-03 at cycle   4 NSaved=   4.
 NSaved= 4 IEnMin= 4 EnMin= -1811.10260114520     IErMin= 4 ErrMin= 3.60D-03
 ErrMax= 3.60D-03  0.00D+00 EMaxC= 1.00D-01 BMatC= 1.61D-02 BMatP= 1.09D-01
 IDIUse=3 WtCom= 9.64D-01 WtEn= 3.60D-02
 Coeff-Com:  0.134D-01 0.838D-01 0.290D+00 0.612D+00
 Coeff-En:   0.000D+00 0.000D+00 0.136D+00 0.864D+00
 Coeff:      0.130D-01 0.808D-01 0.285D+00 0.621D+00
 Gap=     0.202 Goal=   None    Shift=    0.000
 RMSDP=4.26D-04 MaxDP=1.76D-02 DE=-9.05D-02 OVMax= 3.11D-02

 Cycle   5  Pass 0  IDiag  1:
 RMSU=  1.92D-04    CP:  9.91D-01  6.90D-01  5.67D-01  6.26D-01
 E= -1811.11663161267     Delta-E=       -0.014030467467 Rises=F Damp=F
 DIIS: error= 1.26D-03 at cycle   5 NSaved=   5.
 NSaved= 5 IEnMin= 5 EnMin= -1811.11663161267     IErMin= 5 ErrMin= 1.26D-03
 ErrMax= 1.26D-03  0.00D+00 EMaxC= 1.00D-01 BMatC= 1.35D-03 BMatP= 1.61D-02
 IDIUse=3 WtCom= 9.87D-01 WtEn= 1.26D-02
 Coeff-Com: -0.105D-03 0.176D-01 0.122D+00 0.347D+00 0.514D+00
 Coeff-En:   0.000D+00 0.000D+00 0.000D+00 0.106D-01 0.989D+00
 Coeff:     -0.104D-03 0.174D-01 0.121D+00 0.342D+00 0.520D+00
 Gap=     0.202 Goal=   None    Shift=    0.000
 RMSDP=1.23D-04 MaxDP=4.84D-03 DE=-1.40D-02 OVMax= 1.14D-02

 Cycle   6  Pass 0  IDiag  1:
 RMSU=  6.19D-05    CP:  9.91D-01  6.95D-01  5.59D-01  6.94D-01  5.27D-01
 E= -1811.11787377083     Delta-E=       -0.001242158155 Rises=F Damp=F
 DIIS: error= 4.84D-04 at cycle   6 NSaved=   6.
 NSaved= 6 IEnMin= 6 EnMin= -1811.11787377083     IErMin= 6 ErrMin= 4.84D-04
 ErrMax= 4.84D-04  0.00D+00 EMaxC= 1.00D-01 BMatC= 1.48D-04 BMatP= 1.35D-03
 IDIUse=3 WtCom= 9.95D-01 WtEn= 4.84D-03
 Coeff-Com: -0.120D-02 0.253D-02 0.419D-01 0.135D+00 0.303D+00 0.519D+00
 Coeff-En:   0.000D+00 0.000D+00 0.000D+00 0.000D+00 0.555D-01 0.944D+00
 Coeff:     -0.120D-02 0.252D-02 0.417D-01 0.134D+00 0.302D+00 0.521D+00
 Gap=     0.202 Goal=   None    Shift=    0.000
 RMSDP=3.79D-05 MaxDP=1.55D-03 DE=-1.24D-03 OVMax= 3.38D-03

 Cycle   7  Pass 0  IDiag  1:
 RMSU=  2.32D-05    CP:  9.91D-01  6.94D-01  5.61D-01  6.92D-01  5.94D-01
                    CP:  5.70D-01
 E= -1811.11800493071     Delta-E=       -0.000131159884 Rises=F Damp=F
 DIIS: error= 1.24D-04 at cycle   7 NSaved=   7.
 NSaved= 7 IEnMin= 7 EnMin= -1811.11800493071     IErMin= 7 ErrMin= 1.24D-04
 ErrMax= 1.24D-04  0.00D+00 EMaxC= 1.00D-01 BMatC= 1.62D-05 BMatP= 1.48D-04
 IDIUse=3 WtCom= 9.99D-01 WtEn= 1.24D-03
 Coeff-Com: -0.706D-03-0.111D-03 0.138D-01 0.483D-01 0.136D+00 0.319D+00
 Coeff-Com:  0.483D+00
 Coeff-En:   0.000D+00 0.000D+00 0.000D+00 0.000D+00 0.000D+00 0.297D-01
 Coeff-En:   0.970D+00
 Coeff:     -0.705D-03-0.110D-03 0.138D-01 0.483D-01 0.136D+00 0.319D+00
 Coeff:      0.484D+00
 Gap=     0.202 Goal=   None    Shift=    0.000
 RMSDP=1.23D-05 MaxDP=6.13D-04 DE=-1.31D-04 OVMax= 7.59D-04

 Cycle   8  Pass 0  IDiag  1:
 RMSU=  6.57D-06    CP:  9.91D-01  6.94D-01  5.62D-01  6.92D-01  5.97D-01
                    CP:  6.15D-01  5.70D-01
 E= -1811.11801884561     Delta-E=       -0.000013914896 Rises=F Damp=F
 DIIS: error= 4.86D-05 at cycle   8 NSaved=   8.
 NSaved= 8 IEnMin= 8 EnMin= -1811.11801884561     IErMin= 8 ErrMin= 4.86D-05
 ErrMax= 4.86D-05  0.00D+00 EMaxC= 1.00D-01 BMatC= 1.32D-06 BMatP= 1.62D-05
 IDIUse=1 WtCom= 1.00D+00 WtEn= 0.00D+00
 Coeff-Com: -0.264D-03-0.391D-03 0.277D-02 0.114D-01 0.428D-01 0.122D+00
 Coeff-Com:  0.275D+00 0.547D+00
 Coeff:     -0.264D-03-0.391D-03 0.277D-02 0.114D-01 0.428D-01 0.122D+00
 Coeff:      0.275D+00 0.547D+00
 Gap=     0.202 Goal=   None    Shift=    0.000
 RMSDP=3.82D-06 MaxDP=1.62D-04 DE=-1.39D-05 OVMax= 2.69D-04

 Initial convergence to 1.0D-05 achieved.  Increase integral accuracy.
 Cycle   9  Pass 1  IDiag  1:
 E= -1811.11789082495     Delta-E=        0.000128020656 Rises=F Damp=F
 DIIS: error= 6.31D-05 at cycle   1 NSaved=   1.
 NSaved= 1 IEnMin= 1 EnMin= -1811.11789082495     IErMin= 1 ErrMin= 6.31D-05
 ErrMax= 6.31D-05  0.00D+00 EMaxC= 1.00D-01 BMatC= 1.13D-06 BMatP= 1.13D-06
 IDIUse=1 WtCom= 1.00D+00 WtEn= 0.00D+00
 Coeff-Com:  0.100D+01
 Coeff:      0.100D+01
 Gap=     0.202 Goal=   None    Shift=    0.000
 RMSDP=3.82D-06 MaxDP=1.62D-04 DE= 1.28D-04 OVMax= 2.90D-04

 Cycle  10  Pass 1  IDiag  1:
 RMSU=  2.70D-05    CP:  1.00D+00
 E= -1811.11789120390     Delta-E=       -0.000000378952 Rises=F Damp=F
 DIIS: error= 4.27D-05 at cycle   2 NSaved=   2.
 NSaved= 2 IEnMin= 2 EnMin= -1811.11789120390     IErMin= 2 ErrMin= 4.27D-05
 ErrMax= 4.27D-05  0.00D+00 EMaxC= 1.00D-01 BMatC= 8.62D-07 BMatP= 1.13D-06
 IDIUse=1 WtCom= 1.00D+00 WtEn= 0.00D+00
 Coeff-Com:  0.452D+00 0.548D+00
 Coeff:      0.452D+00 0.548D+00
 Gap=     0.202 Goal=   None    Shift=    0.000
 RMSDP=3.92D-06 MaxDP=2.07D-04 DE=-3.79D-07 OVMax= 3.58D-04

 Cycle  11  Pass 1  IDiag  1:
 RMSU=  3.91D-06    CP:  1.00D+00  9.90D-01
 E= -1811.11789151786     Delta-E=       -0.000000313963 Rises=F Damp=F
 DIIS: error= 3.59D-05 at cycle   3 NSaved=   3.
 NSaved= 3 IEnMin= 3 EnMin= -1811.11789151786     IErMin= 3 ErrMin= 3.59D-05
 ErrMax= 3.59D-05  0.00D+00 EMaxC= 1.00D-01 BMatC= 5.33D-07 BMatP= 8.62D-07
 IDIUse=1 WtCom= 1.00D+00 WtEn= 0.00D+00
 Coeff-Com:  0.811D-02 0.438D+00 0.554D+00
 Coeff:      0.811D-02 0.438D+00 0.554D+00
 Gap=     0.202 Goal=   None    Shift=    0.000
 RMSDP=1.79D-06 MaxDP=1.05D-04 DE=-3.14D-07 OVMax= 1.81D-04

 Cycle  12  Pass 1  IDiag  1:
 RMSU=  6.14D-07    CP:  1.00D+00  1.00D+00  5.80D-01
 E= -1811.11789195932     Delta-E=       -0.000000441454 Rises=F Damp=F
 DIIS: error= 3.97D-06 at cycle   4 NSaved=   4.
 NSaved= 4 IEnMin= 4 EnMin= -1811.11789195932     IErMin= 4 ErrMin= 3.97D-06
 ErrMax= 3.97D-06  0.00D+00 EMaxC= 1.00D-01 BMatC= 1.63D-08 BMatP= 5.33D-07
 IDIUse=1 WtCom= 1.00D+00 WtEn= 0.00D+00
 Coeff-Com: -0.631D-02 0.253D+00 0.337D+00 0.416D+00
 Coeff:     -0.631D-02 0.253D+00 0.337D+00 0.416D+00
 Gap=     0.202 Goal=   None    Shift=    0.000
 RMSDP=3.64D-07 MaxDP=1.18D-05 DE=-4.41D-07 OVMax= 3.11D-05

 Cycle  13  Pass 1  IDiag  1:
 RMSU=  1.75D-07    CP:  1.00D+00  1.00D+00  5.75D-01  4.82D-01
 E= -1811.11789197387     Delta-E=       -0.000000014556 Rises=F Damp=F
 DIIS: error= 1.42D-06 at cycle   5 NSaved=   5.
 NSaved= 5 IEnMin= 5 EnMin= -1811.11789197387     IErMin= 5 ErrMin= 1.42D-06
 ErrMax= 1.42D-06  0.00D+00 EMaxC= 1.00D-01 BMatC= 6.48D-10 BMatP= 1.63D-08
 IDIUse=1 WtCom= 1.00D+00 WtEn= 0.00D+00
 Coeff-Com: -0.398D-02 0.117D+00 0.157D+00 0.235D+00 0.495D+00
 Coeff:     -0.398D-02 0.117D+00 0.157D+00 0.235D+00 0.495D+00
 Gap=     0.202 Goal=   None    Shift=    0.000
 RMSDP=8.06D-08 MaxDP=4.85D-06 DE=-1.46D-08 OVMax= 9.78D-06

 Cycle  14  Pass 1  IDiag  1:
 RMSU=  6.25D-08    CP:  1.00D+00  1.00D+00  5.78D-01  5.12D-01  7.39D-01
 E= -1811.11789197443     Delta-E=       -0.000000000560 Rises=F Damp=F
 DIIS: error= 3.93D-07 at cycle   6 NSaved=   6.
 NSaved= 6 IEnMin= 6 EnMin= -1811.11789197443     IErMin= 6 ErrMin= 3.93D-07
 ErrMax= 3.93D-07  0.00D+00 EMaxC= 1.00D-01 BMatC= 5.46D-11 BMatP= 6.48D-10
 IDIUse=1 WtCom= 1.00D+00 WtEn= 0.00D+00
 Coeff-Com: -0.137D-02 0.318D-01 0.435D-01 0.770D-01 0.265D+00 0.584D+00
 Coeff:     -0.137D-02 0.318D-01 0.435D-01 0.770D-01 0.265D+00 0.584D+00
 Gap=     0.202 Goal=   None    Shift=    0.000
 RMSDP=2.58D-08 MaxDP=1.18D-06 DE=-5.60D-10 OVMax= 2.63D-06

 Cycle  15  Pass 1  IDiag  1:
 RMSU=  1.91D-08    CP:  1.00D+00  1.00D+00  5.77D-01  5.14D-01  7.88D-01
                    CP:  7.60D-01
 E= -1811.11789197456     Delta-E=       -0.000000000121 Rises=F Damp=F
 DIIS: error= 1.00D-07 at cycle   7 NSaved=   7.
 NSaved= 7 IEnMin= 7 EnMin= -1811.11789197456     IErMin= 7 ErrMin= 1.00D-07
 ErrMax= 1.00D-07  0.00D+00 EMaxC= 1.00D-01 BMatC= 8.33D-12 BMatP= 5.46D-11
 IDIUse=1 WtCom= 1.00D+00 WtEn= 0.00D+00
 Coeff-Com: -0.253D-03 0.292D-02 0.421D-02 0.135D-01 0.848D-01 0.332D+00
 Coeff-Com:  0.563D+00
 Coeff:     -0.253D-03 0.292D-02 0.421D-02 0.135D-01 0.848D-01 0.332D+00
 Coeff:      0.563D+00
 Gap=     0.202 Goal=   None    Shift=    0.000
 RMSDP=1.01D-08 MaxDP=7.83D-07 DE=-1.21D-10 OVMax= 5.88D-07

 Cycle  16  Pass 1  IDiag  1:
 RMSU=  6.45D-09    CP:  1.00D+00  1.00D+00  5.77D-01  5.17D-01  7.94D-01
                    CP:  8.07D-01  6.46D-01
 E= -1811.11789197461     Delta-E=       -0.000000000053 Rises=F Damp=F
 DIIS: error= 5.26D-08 at cycle   8 NSaved=   8.
 NSaved= 8 IEnMin= 8 EnMin= -1811.11789197461     IErMin= 8 ErrMin= 5.26D-08
 ErrMax= 5.26D-08  0.00D+00 EMaxC= 1.00D-01 BMatC= 1.52D-12 BMatP= 8.33D-12
 IDIUse=1 WtCom= 1.00D+00 WtEn= 0.00D+00
 Coeff-Com:  0.887D-05-0.211D-02-0.275D-02-0.967D-03 0.195D-01 0.134D+00
 Coeff-Com:  0.355D+00 0.498D+00
 Coeff:      0.887D-05-0.211D-02-0.275D-02-0.967D-03 0.195D-01 0.134D+00
 Coeff:      0.355D+00 0.498D+00
 Gap=     0.202 Goal=   None    Shift=    0.000
 RMSDP=3.63D-09 MaxDP=2.49D-07 DE=-5.28D-11 OVMax= 2.25D-07

 SCF Done:  E(RB3LYP) =  -1811.11789197     A.U. after   16 cycles
            NFock= 16  Conv=0.36D-08     -V/T= 2.0069
 KE= 1.798628161903D+03 PE=-9.272859165443D+03 EE= 3.151341543437D+03
 Leave Link  502 at Sat Aug  8 00:03:00 2020, MaxMem=    33554432 cpu:       574.7
 (Enter /prod/apps/gaussian/g09d1/l601.exe)
 Copying SCF densities to generalized density rwf, IOpCl= 0 IROHF=0.

 **********************************************************************

            Population analysis using the SCF density.

 **********************************************************************

 Orbital symmetries:
       Occupied  (A) (A) (A) (A) (A) (A) (A) (A) (A) (A) (A) (A)
                 (A) (A) (A) (A) (A) (A) (A) (A) (A) (A) (A) (A)
                 (A) (A) (A) (A) (A) (A) (A) (A) (A) (A) (A) (A)
                 (A) (A) (A) (A) (A) (A) (A) (A) (A) (A) (A) (A)
                 (A) (A) (A) (A) (A) (A) (A) (A) (A) (A) (A) (A)
                 (A) (A) (A) (A) (A) (A) (A) (A) (A) (A) (A) (A)
                 (A) (A) (A) (A) (A) (A) (A) (A) (A) (A) (A) (A)
                 (A) (A) (A) (A) (A) (A) (A) (A) (A) (A) (A) (A)
       Virtual   (A) (A) (A) (A) (A) (A) (A) (A) (A) (A) (A) (A)
                 (A) (A) (A) (A) (A) (A) (A) (A) (A) (A) (A) (A)
                 (A) (A) (A) (A) (A) (A) (A) (A) (A) (A) (A) (A)
                 (A) (A) (A) (A) (A) (A) (A) (A) (A) (A) (A) (A)
                 (A) (A) (A) (A) (A) (A) (A) (A) (A) (A) (A) (A)
                 (A) (A) (A) (A) (A) (A) (A) (A) (A) (A) (A) (A)
                 (A) (A) (A) (A) (A) (A) (A) (A) (A) (A) (A) (A)
                 (A) (A) (A) (A) (A) (A) (A) (A) (A) (A) (A) (A)
                 (A) (A) (A) (A) (A) (A) (A) (A) (A) (A) (A) (A)
                 (A) (A) (A) (A) (A) (A) (A) (A) (A) (A) (A) (A)
                 (A) (A) (A) (A) (A) (A) (A) (A) (A) (A) (A) (A)
                 (A) (A) (A) (A) (A) (A) (A) (A) (A) (A) (A) (A)
                 (A) (A) (A) (A) (A) (A) (A) (A) (A) (A) (A) (A)
                 (A) (A) (A) (A) (A) (A) (A) (A) (A) (A) (A) (A)
                 (A) (A) (A) (A) (A) (A) (A) (A) (A) (A) (A) (A)
                 (A) (A) (A) (A) (A) (A) (A) (A) (A) (A) (A) (A)
                 (A) (A) (A) (A) (A) (A) (A) (A) (A) (A) (A) (A)
                 (A) (A) (A) (A) (A) (A) (A) (A) (A) (A) (A) (A)
                 (A) (A) (A) (A) (A) (A) (A) (A) (A) (A) (A) (A)
                 (A) (A) (A) (A) (A) (A) (A) (A) (A) (A) (A) (A)
                 (A) (A) (A) (A) (A) (A) (A) (A) (A) (A) (A) (A)
                 (A) (A) (A) (A) (A) (A) (A) (A) (A) (A) (A) (A)
                 (A) (A) (A) (A) (A) (A) (A) (A) (A) (A) (A) (A)
                 (A) (A) (A) (A) (A) (A) (A) (A) (A) (A) (A) (A)
                 (A) (A) (A) (A) (A) (A) (A) (A) (A) (A) (A) (A)
                 (A) (A) (A) (A) (A) (A) (A) (A) (A) (A)
 The electronic state is 1-A.
 Alpha  occ. eigenvalues --  -89.12713 -89.08622 -19.15387 -19.15000 -19.13852
 Alpha  occ. eigenvalues --  -19.13766 -14.39005 -10.28491 -10.24631 -10.23154
 Alpha  occ. eigenvalues --  -10.22980 -10.22897 -10.22724 -10.22655 -10.22549
 Alpha  occ. eigenvalues --  -10.22484 -10.21570 -10.21464 -10.21392 -10.20705
 Alpha  occ. eigenvalues --  -10.20647 -10.20606 -10.20418 -10.20408  -8.15165
 Alpha  occ. eigenvalues --   -8.11666  -6.11678  -6.11577  -6.11479  -6.08080
 Alpha  occ. eigenvalues --   -6.08021  -6.07960  -1.12092  -1.09051  -1.00889
 Alpha  occ. eigenvalues --   -0.98581  -0.95562  -0.89241  -0.87363  -0.85861
 Alpha  occ. eigenvalues --   -0.80812  -0.79429  -0.78220  -0.75997  -0.75281
 Alpha  occ. eigenvalues --   -0.72656  -0.70052  -0.67775  -0.64173  -0.63928
 Alpha  occ. eigenvalues --   -0.62133  -0.61095  -0.59271  -0.57927  -0.57104
 Alpha  occ. eigenvalues --   -0.53881  -0.52936  -0.51917  -0.50689  -0.49578
 Alpha  occ. eigenvalues --   -0.48860  -0.48634  -0.47829  -0.47472  -0.46983
 Alpha  occ. eigenvalues --   -0.46058  -0.45764  -0.45358  -0.44898  -0.44332
 Alpha  occ. eigenvalues --   -0.43499  -0.43115  -0.42313  -0.41181  -0.40386
 Alpha  occ. eigenvalues --   -0.39940  -0.39319  -0.38461  -0.38109  -0.37895
 Alpha  occ. eigenvalues --   -0.36263  -0.35444  -0.35064  -0.34482  -0.32573
 Alpha  occ. eigenvalues --   -0.32321  -0.31914  -0.31198  -0.30604  -0.29992
 Alpha  occ. eigenvalues --   -0.28997  -0.28618  -0.28469  -0.27591  -0.26675
 Alpha  occ. eigenvalues --   -0.25758
 Alpha virt. eigenvalues --   -0.05522  -0.03697  -0.02230  -0.01749   0.02288
 Alpha virt. eigenvalues --    0.03905   0.05038   0.05464   0.06224   0.06805
 Alpha virt. eigenvalues --    0.07790   0.08711   0.09125   0.09372   0.09990
 Alpha virt. eigenvalues --    0.10739   0.11138   0.11884   0.12894   0.13141
 Alpha virt. eigenvalues --    0.13790   0.14149   0.14565   0.14919   0.15206
 Alpha virt. eigenvalues --    0.15671   0.16506   0.16843   0.17320   0.17457
 Alpha virt. eigenvalues --    0.18023   0.19005   0.19766   0.21022   0.21927
 Alpha virt. eigenvalues --    0.22193   0.22977   0.25456   0.26468   0.27240
 Alpha virt. eigenvalues --    0.28020   0.28663   0.29142   0.30168   0.30716
 Alpha virt. eigenvalues --    0.32593   0.32798   0.34077   0.34964   0.36050
 Alpha virt. eigenvalues --    0.37484   0.40216   0.40876   0.43835   0.44510
 Alpha virt. eigenvalues --    0.45604   0.47323   0.47854   0.48538   0.49157
 Alpha virt. eigenvalues --    0.50372   0.51824   0.52301   0.53224   0.53815
 Alpha virt. eigenvalues --    0.53957   0.54662   0.54981   0.55837   0.56309
 Alpha virt. eigenvalues --    0.56379   0.57666   0.57780   0.57828   0.58104
 Alpha virt. eigenvalues --    0.58369   0.58873   0.59530   0.59608   0.59828
 Alpha virt. eigenvalues --    0.60296   0.60564   0.61691   0.62357   0.62548
 Alpha virt. eigenvalues --    0.63253   0.63496   0.65262   0.66256   0.69209
 Alpha virt. eigenvalues --    0.70324   0.71088   0.71807   0.72182   0.73616
 Alpha virt. eigenvalues --    0.76148   0.76845   0.77577   0.78345   0.78971
 Alpha virt. eigenvalues --    0.79885   0.80013   0.81389   0.81705   0.82095
 Alpha virt. eigenvalues --    0.82202   0.82771   0.82986   0.83795   0.84254
 Alpha virt. eigenvalues --    0.84871   0.85151   0.85825   0.86735   0.87643
 Alpha virt. eigenvalues --    0.87813   0.88327   0.88649   0.89538   0.90021
 Alpha virt. eigenvalues --    0.90804   0.91633   0.92383   0.93289   0.93976
 Alpha virt. eigenvalues --    0.94757   0.95573   0.95739   0.97320   0.98506
 Alpha virt. eigenvalues --    0.99209   0.99652   1.01612   1.03312   1.03996
 Alpha virt. eigenvalues --    1.04979   1.05701   1.06770   1.07257   1.07407
 Alpha virt. eigenvalues --    1.08724   1.09678   1.10471   1.10903   1.12603
 Alpha virt. eigenvalues --    1.13326   1.14674   1.15000   1.16667   1.16687
 Alpha virt. eigenvalues --    1.17889   1.18447   1.18931   1.19668   1.20029
 Alpha virt. eigenvalues --    1.21413   1.22491   1.23415   1.24068   1.25560
 Alpha virt. eigenvalues --    1.26031   1.29452   1.29759   1.34377   1.36076
 Alpha virt. eigenvalues --    1.37973   1.40190   1.40631   1.41373   1.42781
 Alpha virt. eigenvalues --    1.43327   1.43674   1.44487   1.45588   1.46461
 Alpha virt. eigenvalues --    1.46771   1.47326   1.48592   1.49801   1.50558
 Alpha virt. eigenvalues --    1.54450   1.57433   1.58565   1.60528   1.63332
 Alpha virt. eigenvalues --    1.67295   1.69573   1.71037   1.73360   1.74009
 Alpha virt. eigenvalues --    1.75240   1.75718   1.77066   1.78453   1.79901
 Alpha virt. eigenvalues --    1.80204   1.80780   1.81147   1.81803   1.82334
 Alpha virt. eigenvalues --    1.83331   1.83414   1.84032   1.85443   1.85585
 Alpha virt. eigenvalues --    1.86297   1.87866   1.89046   1.89223   1.89432
 Alpha virt. eigenvalues --    1.90755   1.91155   1.93494   1.94595   1.95374
 Alpha virt. eigenvalues --    1.96172   1.96262   1.97460   1.98592   2.01845
 Alpha virt. eigenvalues --    2.03269   2.04089   2.04613   2.05580   2.07512
 Alpha virt. eigenvalues --    2.08189   2.09366   2.10319   2.10603   2.11539
 Alpha virt. eigenvalues --    2.12042   2.12382   2.12682   2.13377   2.13727
 Alpha virt. eigenvalues --    2.15232   2.15827   2.17263   2.19669   2.21595
 Alpha virt. eigenvalues --    2.22849   2.24945   2.26232   2.26865   2.27208
 Alpha virt. eigenvalues --    2.27784   2.29278   2.29538   2.29664   2.30440
 Alpha virt. eigenvalues --    2.31773   2.36025   2.38432   2.39540   2.41499
 Alpha virt. eigenvalues --    2.48077   2.49256   2.51689   2.54208   2.55917
 Alpha virt. eigenvalues --    2.57048   2.57636   2.61368   2.63307   2.63903
 Alpha virt. eigenvalues --    2.66975   2.68485   2.69754   2.70588   2.71242
 Alpha virt. eigenvalues --    2.71393   2.72664   2.73203   2.73851   2.74717
 Alpha virt. eigenvalues --    2.75002   2.76705   2.77418   2.80230   2.83150
 Alpha virt. eigenvalues --    2.87898   2.89252   3.00501   3.03936   3.35270
 Alpha virt. eigenvalues --    3.39231   3.75215   3.81230   3.92422   3.95680
 Alpha virt. eigenvalues --    3.97109   4.03077   4.06145   4.08475   4.08789
 Alpha virt. eigenvalues --    4.10052   4.11091   4.16196   4.17270   4.21075
 Alpha virt. eigenvalues --    4.24218   4.30815   4.32050   4.32870   4.35612
 Alpha virt. eigenvalues --    4.40623   4.53214   4.64074   4.68774   4.74787
          Condensed to atoms (all electrons):
               1          2          3          4          5          6
     1  O    8.230477   0.445749  -0.057448   0.002312  -0.000082   0.000007
     2  S    0.445749  13.738146   0.124316  -0.008394   0.000921   0.000153
     3  N   -0.057448   0.124316   7.367257   0.236921  -0.048769   0.004239
     4  C    0.002312  -0.008394   0.236921   4.866273   0.341962  -0.095282
     5  C   -0.000082   0.000921  -0.048769   0.341962   5.765207   0.114087
     6  S    0.000007   0.000153   0.004239  -0.095282   0.114087  13.903020
     7  C   -0.000033  -0.004218  -0.046454   0.356257  -0.181864   0.127379
     8  O    0.000000  -0.000027  -0.000163   0.002411  -0.045032   0.438124
     9  O    0.000000  -0.000004  -0.000028   0.001326  -0.045448   0.411977
    10  C   -0.000075  -0.008281  -0.065524   0.359313  -0.057037   0.006306
    11  C    0.000011  -0.000341  -0.003306  -0.034095  -0.003691  -0.000137
    12  C    0.000000  -0.000081  -0.001596  -0.002977  -0.000783   0.000106
    13  C    0.000000  -0.000061  -0.000339   0.001455   0.000364   0.000149
    14  C    0.000000   0.000000   0.000007  -0.000001   0.000420   0.000008
    15  C    0.000000   0.000000   0.000000   0.000007   0.000041  -0.000002
    16  C    0.000000   0.000000   0.000000  -0.000004  -0.000580  -0.000026
    17  C    0.000000  -0.000001   0.000004  -0.000893  -0.003880  -0.000037
    18  C   -0.060434   0.159052  -0.058332  -0.000201  -0.000118   0.000001
    19  C    0.003056  -0.020308  -0.001907   0.000144  -0.000010   0.000001
    20  C    0.000408   0.002598  -0.000077  -0.000005   0.000000   0.000000
    21  C   -0.000005  -0.000362   0.000001   0.000004   0.000000   0.000000
    22  C   -0.000046   0.002795  -0.000087   0.000049   0.000000   0.000000
    23  C    0.000949  -0.024844  -0.000908   0.000247  -0.000005   0.000005
    24  O   -0.043054   0.411209  -0.051373  -0.001398  -0.000116   0.000377
    25  H    0.002476  -0.004666   0.287448  -0.027520  -0.005750   0.000060
    26  H    0.000000  -0.000049   0.001349  -0.024737   0.336770  -0.009276
    27  H   -0.000022  -0.000025   0.000634  -0.026910   0.329073   0.000020
    28  H    0.000000  -0.000151   0.001602  -0.029498   0.009819  -0.012283
    29  H   -0.000134  -0.002534  -0.001125  -0.021520   0.003383  -0.000872
    30  H    0.000000   0.000280   0.004791  -0.028034  -0.005247   0.005818
    31  H   -0.000006   0.002445  -0.002859  -0.033995   0.005293  -0.000236
    32  H    0.000000  -0.000034   0.000128   0.004827  -0.000008   0.000023
    33  H   -0.000084   0.000690   0.006547  -0.010134  -0.000102  -0.000051
    34  H    0.000000   0.000027  -0.000023  -0.000096  -0.000027  -0.000001
    35  H    0.000000   0.000000   0.000000   0.000001  -0.000003   0.000000
    36  H    0.000000   0.000000   0.000000   0.000000   0.000000   0.000000
    37  H    0.000000   0.000000   0.000000   0.000000  -0.000006   0.000000
    38  H    0.000000   0.000000   0.000001   0.000117  -0.000027   0.000019
    39  H    0.006160   0.000166   0.000076   0.000014   0.000000   0.000000
    40  H    0.000001  -0.000043   0.000002   0.000000   0.000000   0.000000
    41  H    0.000000   0.000007   0.000000   0.000000   0.000000   0.000000
    42  H    0.000000  -0.000047   0.000001   0.000000   0.000000   0.000000
    43  H    0.000077  -0.004718   0.000208   0.000016   0.000002   0.000012
               7          8          9         10         11         12
     1  O   -0.000033   0.000000   0.000000  -0.000075   0.000011   0.000000
     2  S   -0.004218  -0.000027  -0.000004  -0.008281  -0.000341  -0.000081
     3  N   -0.046454  -0.000163  -0.000028  -0.065524  -0.003306  -0.001596
     4  C    0.356257   0.002411   0.001326   0.359313  -0.034095  -0.002977
     5  C   -0.181864  -0.045032  -0.045448  -0.057037  -0.003691  -0.000783
     6  S    0.127379   0.438124   0.411977   0.006306  -0.000137   0.000106
     7  C    5.710169  -0.045394  -0.046259  -0.053115   0.003824  -0.000026
     8  O   -0.045394   8.200984  -0.046876  -0.000065   0.000000   0.000000
     9  O   -0.046259  -0.046876   8.252897  -0.002416   0.000051  -0.000032
    10  C   -0.053115  -0.000065  -0.002416   5.184418   0.332320  -0.035960
    11  C    0.003824   0.000000   0.000051   0.332320   5.195352   0.344814
    12  C   -0.000026   0.000000  -0.000032  -0.035960   0.344814   4.677916
    13  C   -0.000006   0.000000   0.000000  -0.001577  -0.050005   0.546011
    14  C    0.000000   0.000000   0.000000  -0.000175   0.007307  -0.022236
    15  C    0.000000   0.000000   0.000000   0.000012   0.000331  -0.034984
    16  C    0.000000   0.000000  -0.000002   0.000097   0.006076  -0.019355
    17  C   -0.000021   0.000000   0.000024  -0.003162  -0.063781   0.536431
    18  C   -0.001144   0.000000   0.000000   0.001427  -0.001345   0.000056
    19  C    0.000007   0.000000   0.000000   0.000192  -0.001180   0.000112
    20  C    0.000000   0.000000   0.000000   0.000060  -0.000172   0.000013
    21  C    0.000000   0.000000   0.000000   0.000009   0.000013   0.000000
    22  C    0.000003   0.000000   0.000000  -0.000362   0.000058  -0.000001
    23  C   -0.000034   0.000000   0.000000  -0.002333   0.000177  -0.000001
    24  O   -0.002373   0.000000   0.000000  -0.000706   0.000011   0.000000
    25  H    0.004770   0.000002   0.000001  -0.002754   0.002716   0.000119
    26  H    0.008398   0.000567   0.000009  -0.003856  -0.001983   0.005910
    27  H    0.003849  -0.000128   0.001085   0.004069  -0.000008  -0.000105
    28  H    0.345007   0.000779  -0.000113  -0.003587   0.000201   0.000009
    29  H    0.328135   0.000089   0.001003   0.003631  -0.000094   0.000001
    30  H   -0.003650   0.000019   0.005659   0.354688  -0.032367  -0.006609
    31  H   -0.006140   0.000001   0.000051   0.353377  -0.031121   0.004290
    32  H   -0.000128   0.000000   0.000000  -0.034390   0.363191  -0.029607
    33  H    0.000065   0.000000   0.000000  -0.035782   0.353539  -0.038418
    34  H    0.000001   0.000000   0.000000   0.000212  -0.011590  -0.048493
    35  H    0.000000   0.000000   0.000000   0.000001  -0.000177   0.003814
    36  H    0.000000   0.000000   0.000000   0.000000   0.000007   0.000720
    37  H    0.000000   0.000000   0.000000   0.000001  -0.000174   0.003582
    38  H   -0.000002   0.000000   0.000007   0.000680  -0.008144  -0.048501
    39  H    0.000000   0.000000   0.000000  -0.000002  -0.000094   0.000003
    40  H    0.000000   0.000000   0.000000   0.000000  -0.000004   0.000000
    41  H    0.000000   0.000000   0.000000   0.000000   0.000000   0.000000
    42  H    0.000000   0.000000   0.000000  -0.000003   0.000000   0.000000
    43  H    0.000247   0.000000   0.000000  -0.000105   0.000005   0.000000
              13         14         15         16         17         18
     1  O    0.000000   0.000000   0.000000   0.000000   0.000000  -0.060434
     2  S   -0.000061   0.000000   0.000000   0.000000  -0.000001   0.159052
     3  N   -0.000339   0.000007   0.000000   0.000000   0.000004  -0.058332
     4  C    0.001455  -0.000001   0.000007  -0.000004  -0.000893  -0.000201
     5  C    0.000364   0.000420   0.000041  -0.000580  -0.003880  -0.000118
     6  S    0.000149   0.000008  -0.000002  -0.000026  -0.000037   0.000001
     7  C   -0.000006   0.000000   0.000000   0.000000  -0.000021  -0.001144
     8  O    0.000000   0.000000   0.000000   0.000000   0.000000   0.000000
     9  O    0.000000   0.000000   0.000000  -0.000002   0.000024   0.000000
    10  C   -0.001577  -0.000175   0.000012   0.000097  -0.003162   0.001427
    11  C   -0.050005   0.007307   0.000331   0.006076  -0.063781  -0.001345
    12  C    0.546011  -0.022236  -0.034984  -0.019355   0.536431   0.000056
    13  C    4.986638   0.519674  -0.036198  -0.046003  -0.042922  -0.000004
    14  C    0.519674   4.863769   0.552451  -0.026184  -0.046595   0.000000
    15  C   -0.036198   0.552451   4.852749   0.545521  -0.035562   0.000000
    16  C   -0.046003  -0.026184   0.545521   4.857255   0.526094   0.000000
    17  C   -0.042922  -0.046595  -0.035562   0.526094   4.977722   0.000000
    18  C   -0.000004   0.000000   0.000000   0.000000   0.000000   5.354081
    19  C   -0.000031   0.000000   0.000000   0.000000   0.000000   0.470601
    20  C   -0.000001   0.000000   0.000000   0.000000   0.000000  -0.027348
    21  C    0.000000   0.000000   0.000000   0.000000   0.000000  -0.038117
    22  C    0.000000   0.000000   0.000000   0.000000   0.000000  -0.030891
    23  C    0.000000   0.000000   0.000000   0.000000   0.000000   0.507122
    24  O    0.000000   0.000000   0.000000   0.000000   0.000000  -0.058929
    25  H    0.002472   0.000025   0.000000  -0.000003   0.000011  -0.000732
    26  H   -0.001423  -0.000397   0.000263   0.001800   0.006932   0.000002
    27  H    0.000099  -0.000047  -0.000010   0.000004   0.000066   0.000007
    28  H    0.000000   0.000000   0.000000   0.000000   0.000001   0.000000
    29  H    0.000000   0.000000   0.000000   0.000000   0.000000   0.000274
    30  H    0.000114   0.000007   0.000000  -0.000095   0.003485   0.000056
    31  H   -0.000084   0.000002   0.000000   0.000002   0.000052   0.001049
    32  H    0.002458  -0.000222   0.000026   0.000017  -0.005252  -0.000016
    33  H   -0.005498   0.000253   0.000001  -0.000185   0.004869   0.001656
    34  H    0.351078  -0.043996   0.004806   0.000336   0.006419  -0.000001
    35  H   -0.039201   0.357871  -0.041821   0.004530   0.000782   0.000000
    36  H    0.004685  -0.042460   0.360773  -0.041943   0.004652   0.000000
    37  H    0.000835   0.004515  -0.042004   0.359047  -0.038859   0.000000
    38  H    0.005852   0.000358   0.004726  -0.041928   0.358498   0.000000
    39  H   -0.000007   0.000000   0.000000   0.000000   0.000000  -0.050212
    40  H    0.000000   0.000000   0.000000   0.000000   0.000000   0.004858
    41  H    0.000000   0.000000   0.000000   0.000000   0.000000   0.000474
    42  H    0.000000   0.000000   0.000000   0.000000   0.000000   0.004751
    43  H    0.000000   0.000000   0.000000   0.000000   0.000000  -0.042538
              19         20         21         22         23         24
     1  O    0.003056   0.000408  -0.000005  -0.000046   0.000949  -0.043054
     2  S   -0.020308   0.002598  -0.000362   0.002795  -0.024844   0.411209
     3  N   -0.001907  -0.000077   0.000001  -0.000087  -0.000908  -0.051373
     4  C    0.000144  -0.000005   0.000004   0.000049   0.000247  -0.001398
     5  C   -0.000010   0.000000   0.000000   0.000000  -0.000005  -0.000116
     6  S    0.000001   0.000000   0.000000   0.000000   0.000005   0.000377
     7  C    0.000007   0.000000   0.000000   0.000003  -0.000034  -0.002373
     8  O    0.000000   0.000000   0.000000   0.000000   0.000000   0.000000
     9  O    0.000000   0.000000   0.000000   0.000000   0.000000   0.000000
    10  C    0.000192   0.000060   0.000009  -0.000362  -0.002333  -0.000706
    11  C   -0.001180  -0.000172   0.000013   0.000058   0.000177   0.000011
    12  C    0.000112   0.000013   0.000000  -0.000001  -0.000001   0.000000
    13  C   -0.000031  -0.000001   0.000000   0.000000   0.000000   0.000000
    14  C    0.000000   0.000000   0.000000   0.000000   0.000000   0.000000
    15  C    0.000000   0.000000   0.000000   0.000000   0.000000   0.000000
    16  C    0.000000   0.000000   0.000000   0.000000   0.000000   0.000000
    17  C    0.000000   0.000000   0.000000   0.000000   0.000000   0.000000
    18  C    0.470601  -0.027348  -0.038117  -0.030891   0.507122  -0.058929
    19  C    4.949825   0.511631  -0.030156  -0.036387  -0.039386   0.001985
    20  C    0.511631   4.874396   0.543129  -0.029743  -0.037726  -0.000043
    21  C   -0.030156   0.543129   4.841884   0.544223  -0.030206  -0.000006
    22  C   -0.036387  -0.029743   0.544223   4.886309   0.499118   0.000646
    23  C   -0.039386  -0.037726  -0.030206   0.499118   4.940636   0.002138
    24  O    0.001985  -0.000043  -0.000006   0.000646   0.002138   8.264141
    25  H    0.000183   0.000024   0.000000   0.000001   0.000014   0.001778
    26  H    0.000000   0.000000   0.000000   0.000000   0.000000   0.000000
    27  H    0.000000   0.000000   0.000000   0.000000   0.000000  -0.000012
    28  H    0.000000   0.000000   0.000000  -0.000002   0.000018  -0.000337
    29  H   -0.000004   0.000000   0.000000  -0.000001  -0.000039   0.009985
    30  H   -0.000004  -0.000001  -0.000001   0.000001   0.000014  -0.000009
    31  H   -0.000573  -0.000152   0.000029   0.000711   0.005665  -0.000064
    32  H    0.000032   0.000042   0.000020   0.000005  -0.000002   0.000000
    33  H    0.004722   0.000501  -0.000038  -0.000090  -0.000228  -0.000013
    34  H    0.000004   0.000000   0.000000   0.000000   0.000000   0.000000
    35  H    0.000000   0.000000   0.000000   0.000000   0.000000   0.000000
    36  H    0.000000   0.000000   0.000000   0.000000   0.000000   0.000000
    37  H    0.000000   0.000000   0.000000   0.000000   0.000000   0.000000
    38  H    0.000000   0.000000   0.000000   0.000000   0.000000   0.000000
    39  H    0.361521  -0.036059   0.004182   0.000380   0.004424   0.000079
    40  H   -0.041934   0.363464  -0.041038   0.004408   0.000644   0.000000
    41  H    0.004933  -0.041932   0.362589  -0.041913   0.004811   0.000000
    42  H    0.000660   0.004381  -0.041394   0.364160  -0.041853   0.000002
    43  H    0.004834   0.000266   0.004105  -0.036601   0.359194   0.011573
              25         26         27         28         29         30
     1  O    0.002476   0.000000  -0.000022   0.000000  -0.000134   0.000000
     2  S   -0.004666  -0.000049  -0.000025  -0.000151  -0.002534   0.000280
     3  N    0.287448   0.001349   0.000634   0.001602  -0.001125   0.004791
     4  C   -0.027520  -0.024737  -0.026910  -0.029498  -0.021520  -0.028034
     5  C   -0.005750   0.336770   0.329073   0.009819   0.003383  -0.005247
     6  S    0.000060  -0.009276   0.000020  -0.012283  -0.000872   0.005818
     7  C    0.004770   0.008398   0.003849   0.345007   0.328135  -0.003650
     8  O    0.000002   0.000567  -0.000128   0.000779   0.000089   0.000019
     9  O    0.000001   0.000009   0.001085  -0.000113   0.001003   0.005659
    10  C   -0.002754  -0.003856   0.004069  -0.003587   0.003631   0.354688
    11  C    0.002716  -0.001983  -0.000008   0.000201  -0.000094  -0.032367
    12  C    0.000119   0.005910  -0.000105   0.000009   0.000001  -0.006609
    13  C    0.002472  -0.001423   0.000099   0.000000   0.000000   0.000114
    14  C    0.000025  -0.000397  -0.000047   0.000000   0.000000   0.000007
    15  C    0.000000   0.000263  -0.000010   0.000000   0.000000   0.000000
    16  C   -0.000003   0.001800   0.000004   0.000000   0.000000  -0.000095
    17  C    0.000011   0.006932   0.000066   0.000001   0.000000   0.003485
    18  C   -0.000732   0.000002   0.000007   0.000000   0.000274   0.000056
    19  C    0.000183   0.000000   0.000000   0.000000  -0.000004  -0.000004
    20  C    0.000024   0.000000   0.000000   0.000000   0.000000  -0.000001
    21  C    0.000000   0.000000   0.000000   0.000000   0.000000  -0.000001
    22  C    0.000001   0.000000   0.000000  -0.000002  -0.000001   0.000001
    23  C    0.000014   0.000000   0.000000   0.000018  -0.000039   0.000014
    24  O    0.001778   0.000000  -0.000012  -0.000337   0.009985  -0.000009
    25  H    0.375898   0.000249   0.000926  -0.000097   0.000089  -0.000037
    26  H    0.000249   0.464406  -0.017599  -0.000281  -0.000194  -0.000191
    27  H    0.000926  -0.017599   0.487219  -0.000259   0.000067   0.000055
    28  H   -0.000097  -0.000281  -0.000259   0.497426  -0.016805  -0.000102
    29  H    0.000089  -0.000194   0.000067  -0.016805   0.437908   0.000075
    30  H   -0.000037  -0.000191   0.000055  -0.000102   0.000075   0.548877
    31  H   -0.000215   0.000176  -0.000121   0.003514   0.000031  -0.029893
    32  H    0.000007  -0.000026   0.000003  -0.000013   0.000002  -0.002744
    33  H    0.001481   0.000085  -0.000012   0.000003   0.000002   0.005178
    34  H    0.002824   0.000028   0.000013   0.000000   0.000000   0.000010
    35  H   -0.000003   0.000004   0.000001   0.000000   0.000000   0.000000
    36  H    0.000000   0.000000   0.000000   0.000000   0.000000   0.000000
    37  H    0.000000   0.000019   0.000000   0.000000   0.000000   0.000003
    38  H   -0.000001   0.000050   0.000001   0.000000   0.000000   0.002089
    39  H    0.000204   0.000000   0.000000   0.000000   0.000000   0.000000
    40  H    0.000000   0.000000   0.000000   0.000000   0.000000   0.000000
    41  H    0.000000   0.000000   0.000000   0.000000   0.000000   0.000000
    42  H    0.000000   0.000000   0.000000   0.000000   0.000000   0.000000
    43  H   -0.000013   0.000000   0.000000   0.000250  -0.000022  -0.000005
              31         32         33         34         35         36
     1  O   -0.000006   0.000000  -0.000084   0.000000   0.000000   0.000000
     2  S    0.002445  -0.000034   0.000690   0.000027   0.000000   0.000000
     3  N   -0.002859   0.000128   0.006547  -0.000023   0.000000   0.000000
     4  C   -0.033995   0.004827  -0.010134  -0.000096   0.000001   0.000000
     5  C    0.005293  -0.000008  -0.000102  -0.000027  -0.000003   0.000000
     6  S   -0.000236   0.000023  -0.000051  -0.000001   0.000000   0.000000
     7  C   -0.006140  -0.000128   0.000065   0.000001   0.000000   0.000000
     8  O    0.000001   0.000000   0.000000   0.000000   0.000000   0.000000
     9  O    0.000051   0.000000   0.000000   0.000000   0.000000   0.000000
    10  C    0.353377  -0.034390  -0.035782   0.000212   0.000001   0.000000
    11  C   -0.031121   0.363191   0.353539  -0.011590  -0.000177   0.000007
    12  C    0.004290  -0.029607  -0.038418  -0.048493   0.003814   0.000720
    13  C   -0.000084   0.002458  -0.005498   0.351078  -0.039201   0.004685
    14  C    0.000002  -0.000222   0.000253  -0.043996   0.357871  -0.042460
    15  C    0.000000   0.000026   0.000001   0.004806  -0.041821   0.360773
    16  C    0.000002   0.000017  -0.000185   0.000336   0.004530  -0.041943
    17  C    0.000052  -0.005252   0.004869   0.006419   0.000782   0.004652
    18  C    0.001049  -0.000016   0.001656  -0.000001   0.000000   0.000000
    19  C   -0.000573   0.000032   0.004722   0.000004   0.000000   0.000000
    20  C   -0.000152   0.000042   0.000501   0.000000   0.000000   0.000000
    21  C    0.000029   0.000020  -0.000038   0.000000   0.000000   0.000000
    22  C    0.000711   0.000005  -0.000090   0.000000   0.000000   0.000000
    23  C    0.005665  -0.000002  -0.000228   0.000000   0.000000   0.000000
    24  O   -0.000064   0.000000  -0.000013   0.000000   0.000000   0.000000
    25  H   -0.000215   0.000007   0.001481   0.002824  -0.000003   0.000000
    26  H    0.000176  -0.000026   0.000085   0.000028   0.000004   0.000000
    27  H   -0.000121   0.000003  -0.000012   0.000013   0.000001   0.000000
    28  H    0.003514  -0.000013   0.000003   0.000000   0.000000   0.000000
    29  H    0.000031   0.000002   0.000002   0.000000   0.000000   0.000000
    30  H   -0.029893  -0.002744   0.005178   0.000010   0.000000   0.000000
    31  H    0.580272  -0.003927  -0.003483  -0.000018   0.000000   0.000000
    32  H   -0.003927   0.570553  -0.032512   0.000088   0.000003   0.000000
    33  H   -0.003483  -0.032512   0.600472   0.007521  -0.000010   0.000000
    34  H   -0.000018   0.000088   0.007521   0.619377  -0.005544  -0.000179
    35  H    0.000000   0.000003  -0.000010  -0.005544   0.586908  -0.005442
    36  H    0.000000   0.000000   0.000000  -0.000179  -0.005442   0.585338
    37  H    0.000000  -0.000003   0.000003   0.000017  -0.000181  -0.005316
    38  H   -0.000108   0.002728   0.000040  -0.000181   0.000017  -0.000176
    39  H   -0.000002  -0.000001   0.000489   0.000072   0.000000   0.000000
    40  H    0.000001   0.000000   0.000015   0.000000   0.000000   0.000000
    41  H   -0.000001   0.000000  -0.000001   0.000000   0.000000   0.000000
    42  H    0.000012   0.000000   0.000000   0.000000   0.000000   0.000000
    43  H    0.000292   0.000000  -0.000004   0.000000   0.000000   0.000000
              37         38         39         40         41         42
     1  O    0.000000   0.000000   0.006160   0.000001   0.000000   0.000000
     2  S    0.000000   0.000000   0.000166  -0.000043   0.000007  -0.000047
     3  N    0.000000   0.000001   0.000076   0.000002   0.000000   0.000001
     4  C    0.000000   0.000117   0.000014   0.000000   0.000000   0.000000
     5  C   -0.000006  -0.000027   0.000000   0.000000   0.000000   0.000000
     6  S    0.000000   0.000019   0.000000   0.000000   0.000000   0.000000
     7  C    0.000000  -0.000002   0.000000   0.000000   0.000000   0.000000
     8  O    0.000000   0.000000   0.000000   0.000000   0.000000   0.000000
     9  O    0.000000   0.000007   0.000000   0.000000   0.000000   0.000000
    10  C    0.000001   0.000680  -0.000002   0.000000   0.000000  -0.000003
    11  C   -0.000174  -0.008144  -0.000094  -0.000004   0.000000   0.000000
    12  C    0.003582  -0.048501   0.000003   0.000000   0.000000   0.000000
    13  C    0.000835   0.005852  -0.000007   0.000000   0.000000   0.000000
    14  C    0.004515   0.000358   0.000000   0.000000   0.000000   0.000000
    15  C   -0.042004   0.004726   0.000000   0.000000   0.000000   0.000000
    16  C    0.359047  -0.041928   0.000000   0.000000   0.000000   0.000000
    17  C   -0.038859   0.358498   0.000000   0.000000   0.000000   0.000000
    18  C    0.000000   0.000000  -0.050212   0.004858   0.000474   0.004751
    19  C    0.000000   0.000000   0.361521  -0.041934   0.004933   0.000660
    20  C    0.000000   0.000000  -0.036059   0.363464  -0.041932   0.004381
    21  C    0.000000   0.000000   0.004182  -0.041038   0.362589  -0.041394
    22  C    0.000000   0.000000   0.000380   0.004408  -0.041913   0.364160
    23  C    0.000000   0.000000   0.004424   0.000644   0.004811  -0.041853
    24  O    0.000000   0.000000   0.000079   0.000000   0.000000   0.000002
    25  H    0.000000  -0.000001   0.000204   0.000000   0.000000   0.000000
    26  H    0.000019   0.000050   0.000000   0.000000   0.000000   0.000000
    27  H    0.000000   0.000001   0.000000   0.000000   0.000000   0.000000
    28  H    0.000000   0.000000   0.000000   0.000000   0.000000   0.000000
    29  H    0.000000   0.000000   0.000000   0.000000   0.000000   0.000000
    30  H    0.000003   0.002089   0.000000   0.000000   0.000000   0.000000
    31  H    0.000000  -0.000108  -0.000002   0.000001  -0.000001   0.000012
    32  H   -0.000003   0.002728  -0.000001   0.000000   0.000000   0.000000
    33  H    0.000003   0.000040   0.000489   0.000015  -0.000001   0.000000
    34  H    0.000017  -0.000181   0.000072   0.000000   0.000000   0.000000
    35  H   -0.000181   0.000017   0.000000   0.000000   0.000000   0.000000
    36  H   -0.005316  -0.000176   0.000000   0.000000   0.000000   0.000000
    37  H    0.581408  -0.005411   0.000000   0.000000   0.000000   0.000000
    38  H   -0.005411   0.591519   0.000000   0.000000   0.000000   0.000000
    39  H    0.000000   0.000000   0.541421  -0.005281  -0.000152   0.000015
    40  H    0.000000   0.000000  -0.005281   0.568734  -0.005363  -0.000166
    41  H    0.000000   0.000000  -0.000152  -0.005363   0.571422  -0.005347
    42  H    0.000000   0.000000   0.000015  -0.000166  -0.005347   0.566764
    43  H    0.000000   0.000000  -0.000148   0.000014  -0.000143  -0.004922
              43
     1  O    0.000077
     2  S   -0.004718
     3  N    0.000208
     4  C    0.000016
     5  C    0.000002
     6  S    0.000012
     7  C    0.000247
     8  O    0.000000
     9  O    0.000000
    10  C   -0.000105
    11  C    0.000005
    12  C    0.000000
    13  C    0.000000
    14  C    0.000000
    15  C    0.000000
    16  C    0.000000
    17  C    0.000000
    18  C   -0.042538
    19  C    0.004834
    20  C    0.000266
    21  C    0.004105
    22  C   -0.036601
    23  C    0.359194
    24  O    0.011573
    25  H   -0.000013
[...]
    40  H    0.000000   0.000000   0.000000   0.000000   0.000000   0.004815
    41  H    0.000000   0.000000   0.000000   0.000000   0.000000   0.000451
    42  H    0.000000   0.000000   0.000000   0.000000   0.000000   0.004759
    43  H    0.000000   0.000000   0.000000   0.000000   0.000000  -0.047591
              19         20         21         22         23         24
     1  O    0.003234   0.000389  -0.000005  -0.000044   0.000825  -0.041688
     2  S   -0.022447   0.002470  -0.000380   0.002637  -0.026416   0.414114
     3  N   -0.001749  -0.000063   0.000001  -0.000082  -0.000906  -0.052387
     4  C    0.000113  -0.000005   0.000004   0.000045   0.000273  -0.001132
     5  C   -0.000009   0.000000   0.000000   0.000000  -0.000005  -0.000120
     6  S    0.000001   0.000000   0.000000   0.000000   0.000005   0.000360
     7  C    0.000007   0.000000   0.000000   0.000003  -0.000030  -0.002619
     8  O    0.000000   0.000000   0.000000   0.000000   0.000000   0.000000
     9  O    0.000000   0.000000   0.000000   0.000000   0.000000   0.000000
    10  C    0.000186   0.000056   0.000007  -0.000354  -0.002207  -0.000725
    11  C   -0.001050  -0.000163   0.000012   0.000054   0.000167   0.000011
    12  C    0.000104   0.000012   0.000000  -0.000001  -0.000002   0.000000
    13  C   -0.000029  -0.000001   0.000000   0.000000   0.000000   0.000000
    14  C    0.000000   0.000000   0.000000   0.000000   0.000000   0.000000
    15  C    0.000000   0.000000   0.000000   0.000000   0.000000   0.000000
    16  C    0.000000   0.000000   0.000000   0.000000   0.000000   0.000000
    17  C    0.000000   0.000000   0.000000   0.000000   0.000000   0.000000
    18  C    0.466814  -0.029183  -0.038475  -0.031760   0.500307  -0.059935
    19  C    4.951609   0.517176  -0.031599  -0.037036  -0.035056   0.001808
    20  C    0.517176   4.873860   0.538435  -0.030365  -0.037852  -0.000043
    21  C   -0.031599   0.538435   4.855055   0.539720  -0.031901  -0.000005
    22  C   -0.037036  -0.030365   0.539720   4.884210   0.507402   0.000595
    23  C   -0.035056  -0.037852  -0.031901   0.507402   4.936300   0.001965
    24  O    0.001808  -0.000043  -0.000005   0.000595   0.001965   8.290427
    25  H    0.000186   0.000020   0.000000   0.000001   0.000009   0.001537
    26  H    0.000000   0.000000   0.000000   0.000000   0.000000   0.000000
    27  H    0.000000   0.000000   0.000000   0.000000   0.000000  -0.000012
    28  H    0.000000   0.000000   0.000000  -0.000001   0.000026  -0.000352
    29  H   -0.000004   0.000000   0.000000   0.000000  -0.000045   0.010161
    30  H   -0.000004  -0.000001  -0.000001   0.000001   0.000014  -0.000008
    31  H   -0.000609  -0.000139   0.000037   0.000694   0.005361  -0.000071
    32  H    0.000038   0.000041   0.000019   0.000006  -0.000001   0.000000
    33  H    0.004404   0.000485  -0.000034  -0.000081  -0.000234  -0.000012
    34  H    0.000007   0.000000   0.000000   0.000000   0.000000   0.000000
    35  H    0.000000   0.000000   0.000000   0.000000   0.000000   0.000000
    36  H    0.000000   0.000000   0.000000   0.000000   0.000000   0.000000
    37  H    0.000000   0.000000   0.000000   0.000000   0.000000   0.000000
    38  H    0.000000   0.000000   0.000000   0.000000   0.000000   0.000000
    39  H    0.364714  -0.031404   0.004126   0.000344   0.004027   0.000068
    40  H   -0.040445   0.366852  -0.039510   0.004253   0.000595   0.000000
    41  H    0.004888  -0.040515   0.365562  -0.040565   0.004778   0.000000
    42  H    0.000590   0.004247  -0.039823   0.367276  -0.040609   0.000002
    43  H    0.004540   0.000233   0.004173  -0.032737   0.362307   0.010582
              25         26         27         28         29         30
     1  O    0.001876   0.000000  -0.000022   0.000000  -0.000137   0.000000
     2  S   -0.004970  -0.000045   0.000040  -0.000082  -0.001770   0.000275
     3  N    0.290506   0.001320   0.000792   0.001504  -0.001353   0.004815
     4  C   -0.024629  -0.025645  -0.026053  -0.028091  -0.022973  -0.029823
     5  C   -0.005389   0.337963   0.331273   0.008925   0.003465  -0.005512
     6  S    0.000011  -0.009871  -0.000233  -0.011599  -0.000846   0.005826
     7  C    0.004284   0.008165   0.003698   0.348608   0.327806  -0.004095
     8  O    0.000002   0.000574  -0.000249   0.000721   0.000051   0.000016
     9  O    0.000001  -0.000079   0.001041  -0.000348   0.001011   0.004910
    10  C   -0.002481  -0.003755   0.003864  -0.003139   0.003680   0.356535
    11  C    0.002666  -0.001880  -0.000036   0.000169  -0.000092  -0.032270
    12  C    0.000092   0.006335  -0.000081   0.000010   0.000001  -0.006521
    13  C    0.002391  -0.001323   0.000066   0.000000   0.000000   0.000106
    14  C    0.000030  -0.000440  -0.000045   0.000000   0.000000   0.000008
    15  C    0.000000   0.000243  -0.000010   0.000000   0.000000  -0.000001
    16  C   -0.000003   0.001922   0.000004   0.000000   0.000000  -0.000099
    17  C    0.000009   0.007761   0.000061   0.000001   0.000000   0.003715
    18  C   -0.000920   0.000002   0.000007  -0.000002   0.000279   0.000049
    19  C    0.000186   0.000000   0.000000   0.000000  -0.000004  -0.000004
    20  C    0.000020   0.000000   0.000000   0.000000   0.000000  -0.000001
    21  C    0.000000   0.000000   0.000000   0.000000   0.000000  -0.000001
    22  C    0.000001   0.000000   0.000000  -0.000001   0.000000   0.000001
    23  C    0.000009   0.000000   0.000000   0.000026  -0.000045   0.000014
    24  O    0.001537   0.000000  -0.000012  -0.000352   0.010161  -0.000008
    25  H    0.332435   0.000235   0.000770  -0.000079   0.000083  -0.000024
    26  H    0.000235   0.451579  -0.014474  -0.000265  -0.000190  -0.000089
    27  H    0.000770  -0.014474   0.462418  -0.000231   0.000054   0.000042
    28  H   -0.000079  -0.000265  -0.000231   0.459731  -0.014894  -0.000018
    29  H    0.000083  -0.000190   0.000054  -0.014894   0.444283   0.000063
    30  H   -0.000024  -0.000089   0.000042  -0.000018   0.000063   0.549916
    31  H   -0.000208   0.000173  -0.000111   0.003204   0.000022  -0.028089
    32  H    0.000005  -0.000023   0.000003  -0.000013   0.000002  -0.002833
    33  H    0.001486   0.000089  -0.000007   0.000003   0.000002   0.005070
    34  H    0.002361   0.000027   0.000015   0.000000   0.000000   0.000009
    35  H   -0.000003   0.000005   0.000001   0.000000   0.000000   0.000000
    36  H    0.000000   0.000000   0.000000   0.000000   0.000000   0.000000
    37  H    0.000000   0.000019   0.000000   0.000000   0.000000   0.000003
    38  H   -0.000001   0.000054   0.000001   0.000000   0.000000   0.002036
    39  H    0.000156   0.000000   0.000000   0.000000   0.000000   0.000000
    40  H    0.000000   0.000000   0.000000   0.000000   0.000000   0.000000
    41  H    0.000000   0.000000   0.000000   0.000000   0.000000   0.000000
    42  H    0.000000   0.000000   0.000000   0.000000   0.000000   0.000000
    43  H   -0.000010   0.000000   0.000000   0.000221  -0.000020  -0.000005
              31         32         33         34         35         36
     1  O   -0.000005   0.000000  -0.000079  -0.000001   0.000000   0.000000
     2  S    0.002646  -0.000037   0.000680   0.000026   0.000000   0.000000
     3  N   -0.002945   0.000114   0.006111   0.000059   0.000000   0.000000
     4  C   -0.034116   0.004789  -0.010333  -0.000083   0.000001   0.000000
     5  C    0.005176  -0.000014  -0.000107  -0.000021  -0.000003   0.000000
     6  S   -0.000348   0.000022  -0.000038   0.000000   0.000000   0.000000
     7  C   -0.006028  -0.000122   0.000053   0.000001   0.000000   0.000000
     8  O    0.000001   0.000000   0.000000   0.000000   0.000000   0.000000
     9  O    0.000047   0.000000   0.000000   0.000000   0.000000   0.000000
    10  C    0.358546  -0.032960  -0.035668   0.000219   0.000001   0.000000
    11  C   -0.030326   0.365932   0.357169  -0.010704  -0.000170   0.000006
    12  C    0.004101  -0.028956  -0.038044  -0.046193   0.003734   0.000633
    13  C   -0.000086   0.002437  -0.004942   0.356764  -0.037968   0.004668
    14  C    0.000002  -0.000216   0.000269  -0.041395   0.360981  -0.041901
    15  C    0.000000   0.000026   0.000000   0.004612  -0.041714   0.363626
    16  C    0.000002   0.000023  -0.000180   0.000295   0.004483  -0.041788
    17  C    0.000063  -0.005090   0.004786   0.006102   0.000713   0.004625
    18  C    0.000905  -0.000018   0.001475  -0.000001   0.000000   0.000000
    19  C   -0.000609   0.000038   0.004404   0.000007   0.000000   0.000000
    20  C   -0.000139   0.000041   0.000485   0.000000   0.000000   0.000000
    21  C    0.000037   0.000019  -0.000034   0.000000   0.000000   0.000000
    22  C    0.000694   0.000006  -0.000081   0.000000   0.000000   0.000000
    23  C    0.005361  -0.000001  -0.000234   0.000000   0.000000   0.000000
    24  O   -0.000071   0.000000  -0.000012   0.000000   0.000000   0.000000
    25  H   -0.000208   0.000005   0.001486   0.002361  -0.000003   0.000000
    26  H    0.000173  -0.000023   0.000089   0.000027   0.000005   0.000000
    27  H   -0.000111   0.000003  -0.000007   0.000015   0.000001   0.000000
    28  H    0.003204  -0.000013   0.000003   0.000000   0.000000   0.000000
    29  H    0.000022   0.000002   0.000002   0.000000   0.000000   0.000000
    30  H   -0.028089  -0.002833   0.005070   0.000009   0.000000   0.000000
    31  H    0.558518  -0.004004  -0.003195  -0.000017   0.000000   0.000000
    32  H   -0.004004   0.549508  -0.030917   0.000099   0.000003   0.000000
    33  H   -0.003195  -0.030917   0.584722   0.006857  -0.000009   0.000000
    34  H   -0.000017   0.000099   0.006857   0.580458  -0.005118  -0.000165
    35  H    0.000000   0.000003  -0.000009  -0.005118   0.567040  -0.005224
    36  H    0.000000   0.000000   0.000000  -0.000165  -0.005224   0.568584
    37  H    0.000000  -0.000002   0.000003   0.000016  -0.000171  -0.005143
    38  H   -0.000100   0.002564   0.000032  -0.000166   0.000016  -0.000165
    39  H   -0.000002  -0.000001   0.000409   0.000062   0.000000   0.000000
    40  H    0.000000   0.000000   0.000014   0.000000   0.000000   0.000000
    41  H   -0.000001   0.000000  -0.000001   0.000000   0.000000   0.000000
    42  H    0.000011   0.000000   0.000000   0.000000   0.000000   0.000000
    43  H    0.000242   0.000000  -0.000003   0.000000   0.000000   0.000000
              37         38         39         40         41         42
     1  O    0.000000   0.000000   0.005507   0.000001   0.000000   0.000000
     2  S    0.000000   0.000000  -0.000360  -0.000051   0.000007  -0.000054
     3  N    0.000000   0.000001   0.000019   0.000001   0.000000   0.000001
     4  C    0.000000   0.000111   0.000016   0.000000   0.000000   0.000000
     5  C   -0.000006  -0.000027   0.000000   0.000000   0.000000   0.000000
     6  S    0.000000   0.000022   0.000000   0.000000   0.000000   0.000000
     7  C    0.000000  -0.000002   0.000000   0.000000   0.000000   0.000000
     8  O    0.000000   0.000000   0.000000   0.000000   0.000000   0.000000
     9  O    0.000000   0.000006   0.000000   0.000000   0.000000   0.000000
    10  C    0.000001   0.000650  -0.000002   0.000000   0.000000  -0.000003
    11  C   -0.000168  -0.007851  -0.000082  -0.000004   0.000000   0.000000
    12  C    0.003584  -0.047080   0.000002   0.000000   0.000000   0.000000
    13  C    0.000739   0.005782  -0.000005   0.000000   0.000000   0.000000
    14  C    0.004492   0.000281   0.000000   0.000000   0.000000   0.000000
    15  C   -0.041610   0.004670   0.000000   0.000000   0.000000   0.000000
    16  C    0.361651  -0.041963   0.000000   0.000000   0.000000   0.000000
    17  C   -0.038898   0.361137   0.000000   0.000000   0.000000   0.000000
    18  C    0.000000   0.000000  -0.053009   0.004815   0.000451   0.004759
    19  C    0.000000   0.000000   0.364714  -0.040445   0.004888   0.000590
    20  C    0.000000   0.000000  -0.031404   0.366852  -0.040515   0.004247
    21  C    0.000000   0.000000   0.004126  -0.039510   0.365562  -0.039823
    22  C    0.000000   0.000000   0.000344   0.004253  -0.040565   0.367276
    23  C    0.000000   0.000000   0.004027   0.000595   0.004778  -0.040609
    24  O    0.000000   0.000000   0.000068   0.000000   0.000000   0.000002
    25  H    0.000000  -0.000001   0.000156   0.000000   0.000000   0.000000
    26  H    0.000019   0.000054   0.000000   0.000000   0.000000   0.000000
    27  H    0.000000   0.000001   0.000000   0.000000   0.000000   0.000000
    28  H    0.000000   0.000000   0.000000   0.000000   0.000000   0.000000
    29  H    0.000000   0.000000   0.000000   0.000000   0.000000   0.000000
    30  H    0.000003   0.002036   0.000000   0.000000   0.000000   0.000000
    31  H    0.000000  -0.000100  -0.000002   0.000000  -0.000001   0.000011
    32  H   -0.000002   0.002564  -0.000001   0.000000   0.000000   0.000000
    33  H    0.000003   0.000032   0.000409   0.000014  -0.000001   0.000000
    34  H    0.000016  -0.000166   0.000062   0.000000   0.000000   0.000000
    35  H   -0.000171   0.000016   0.000000   0.000000   0.000000   0.000000
    36  H   -0.005143  -0.000165   0.000000   0.000000   0.000000   0.000000
    37  H    0.566974  -0.005191   0.000000   0.000000   0.000000   0.000000
    38  H   -0.005191   0.574382   0.000000   0.000000   0.000000   0.000000
    39  H    0.000000   0.000000   0.523221  -0.005126  -0.000141   0.000014
    40  H    0.000000   0.000000  -0.005126   0.540449  -0.005053  -0.000153
    41  H    0.000000   0.000000  -0.000141  -0.005053   0.543945  -0.005050
    42  H    0.000000   0.000000   0.000014  -0.000153  -0.005050   0.540727
    43  H    0.000000   0.000000  -0.000141   0.000013  -0.000136  -0.004952
              43
     1  O    0.000067
     2  S   -0.005036
     3  N    0.000176
     4  C    0.000011
     5  C    0.000002
     6  S    0.000010
     7  C    0.000218
     8  O    0.000000
     9  O    0.000000
    10  C   -0.000089
    11  C    0.000004
    12  C    0.000000
    13  C    0.000000
    14  C    0.000000
    15  C    0.000000
    16  C    0.000000
    17  C    0.000000
    18  C   -0.047591
    19  C    0.004540
    20  C    0.000233
    21  C    0.004173
    22  C   -0.032737
    23  C    0.362307
    24  O    0.010582
    25  H   -0.000010
    26  H    0.000000
    27  H    0.000000
    28  H    0.000221
    29  H   -0.000020
    30  H   -0.000005
    31  H    0.000242
    32  H    0.000000
    33  H   -0.000003
    34  H    0.000000
    35  H    0.000000
    36  H    0.000000
    37  H    0.000000
    38  H    0.000000
    39  H   -0.000141
    40  H    0.000013
    41  H   -0.000136
    42  H   -0.004952
    43  H    0.519515
 Mulliken charges:
               1
     1  O   -0.568437
     2  S    1.184377
     3  N   -0.709806
     4  C    0.166247
     5  C   -0.499683
     6  S    1.107290
     7  C   -0.495028
     8  O   -0.554179
     9  O   -0.570386
    10  C   -0.285902
    11  C   -0.369116
    12  C    0.154350
    13  C   -0.209086
    14  C   -0.141808
    15  C   -0.149712
    16  C   -0.142494
    17  C   -0.199259
    18  C   -0.141333
    19  C   -0.150379
    20  C   -0.134541
    21  C   -0.125419
    22  C   -0.134216
    23  C   -0.149098
    24  O   -0.572521
    25  H    0.397563
    26  H    0.241612
    27  H    0.237413
    28  H    0.235993
    29  H    0.251360
    30  H    0.175982
    31  H    0.170650
    32  H    0.179578
    33  H    0.149765
    34  H    0.145875
    35  H    0.153401
    36  H    0.152244
    37  H    0.153708
    38  H    0.150802
    39  H    0.187588
    40  H    0.173349
    41  H    0.171831
    42  H    0.173016
    43  H    0.188408
 Sum of Mulliken charges =   0.00000
 Mulliken charges with hydrogens summed into heavy atoms:
               1
     1  O   -0.568437
     2  S    1.184377
     3  N   -0.312243
     4  C    0.166247
     5  C   -0.020657
     6  S    1.107290
     7  C   -0.007675
     8  O   -0.554179
     9  O   -0.570386
    10  C    0.060731
    11  C   -0.039773
    12  C    0.154350
    13  C   -0.063210
    14  C    0.011593
    15  C    0.002532
    16  C    0.011214
    17  C   -0.048457
    18  C   -0.141333
    19  C    0.037209
    20  C    0.038807
    21  C    0.046412
    22  C    0.038800
    23  C    0.039310
    24  O   -0.572521
 Electronic spatial extent (au):  <R**2>=           9107.5190
 Charge=              0.0000 electrons
 Dipole moment (field-independent basis, Debye):
    X=             -2.9994    Y=            -10.3712    Z=             -3.3418  Tot=             11.3016
 Quadrupole moment (field-independent basis, Debye-Ang):
   XX=           -154.1194   YY=           -172.3237   ZZ=           -154.4828
   XY=             -5.5692   XZ=             24.9480   YZ=             -5.0745
 Traceless Quadrupole moment (field-independent basis, Debye-Ang):
   XX=              6.1892   YY=            -12.0151   ZZ=              5.8258
   XY=             -5.5692   XZ=             24.9480   YZ=             -5.0745
 Octapole moment (field-independent basis, Debye-Ang**2):
  XXX=            -18.4776  YYY=            -67.5948  ZZZ=            -21.2306  XYY=            -85.0336
  XXY=           -119.7218  XXZ=            -42.0766  XZZ=              2.4919  YZZ=            -22.0276
  YYZ=             -0.2240  XYZ=             13.6327
 Hexadecapole moment (field-independent basis, Debye-Ang**3):
 XXXX=          -6598.0917 YYYY=          -4153.1881 ZZZZ=          -1377.9785 XXXY=            -61.8983
 XXXZ=            275.9621 YYYX=            -44.2535 YYYZ=            -62.9742 ZZZX=            133.5234
 ZZZY=            -10.1797 XXYY=          -1828.4624 XXZZ=          -1328.6357 YYZZ=           -835.8737
 XXYZ=             40.3841 YYXZ=             71.5268 ZZXY=            -19.0716
 N-N= 2.511774750238D+03 E-N=-9.273003370511D+03  KE= 1.798651430826D+03
 No NMR shielding tensors so no spin-rotation constants.
 Leave Link  601 at Sat Aug  8 00:10:14 2020, MaxMem=    33554432 cpu:         0.4
 (Enter /prod/apps/gaussian/g09d1/l9999.exe)
 1\1\GINC-PIRINEUS28\SP\RB3LYP\6-31G(d)\C17H19N1O4S2\UBAFAR01\08-Aug-20
 20\0\\#p b3lyp/6-31G(d) scrf=(iefpcm,read,solvent=Water) geom=allcheck
  guess=read\\SM39.n.3.pdb.xyz\\0,1\O,0,3.068,0.372,1.911\S,0,2.934,0.0
 91,0.474\N,0,2.928,1.61,-0.229\C,0,2.768,1.914,-1.662\C,0,2.255,3.397,
 -1.774\S,0,0.89,2.849,-2.845\C,0,1.493,1.233,-2.269\O,0,-0.455,3.207,-
 2.355\O,0,1.194,3.074,-4.274\C,0,4.009,1.638,-2.539\C,0,5.35,2.256,-2.
 094\C,0,5.439,3.767,-2.124\C,0,5.56,4.495,-0.934\C,0,5.647,5.889,-0.94
 7\C,0,5.616,6.579,-2.16\C,0,5.506,5.865,-3.356\C,0,5.422,4.472,-3.337\
 C,0,4.369,-0.856,-0.024\C,0,5.607,-0.587,0.566\C,0,6.714,-1.336,0.172\
 C,0,6.578,-2.338,-0.793\C,0,5.332,-2.602,-1.367\C,0,4.215,-1.859,-0.98
 3\O,0,1.752,-0.622,-0.031\H,0,3.599,2.217,0.243\H,0,2.925,4.11,-2.248\
 H,0,1.862,3.781,-0.832\H,0,1.661,0.516,-3.07\H,0,0.827,0.826,-1.512\H,
 0,3.772,1.969,-3.556\H,0,4.143,0.554,-2.597\H,0,6.114,1.839,-2.76\H,0,
 5.605,1.908,-1.089\H,0,5.589,3.957,0.009\H,0,5.739,6.433,-0.013\H,0,5.
 683,7.661,-2.175\H,0,5.49,6.393,-4.305\H,0,5.344,3.927,-4.274\H,0,5.7,
 0.182,1.324\H,0,7.681,-1.141,0.623\H,0,7.444,-2.918,-1.092\H,0,5.226,-
 3.386,-2.108\H,0,3.237,-2.053,-1.405\\Version=AM64L-G09RevD.01\State=1
 -A\HF=-1811.1443216\RMSD=7.820e-09\Dipole=4.3827607,-0.6925833,-0.2863
 178\Quadrupole=-9.7104138,18.4008428,-8.690429,-2.1354792,-1.021675,13
 .246587\PG=C01 [X(C17H19N1O4S2)]\\@


 I FIND THAT THE THREE TRULY GREAT TIMES FOR THINKING THOUGHTS
 ARE WHEN I AM STANDING IN THE SHOWER, SITTING ON THE JOHN, OR WALKING.

                                    -- COLIN FLETCHER
 Job cpu time:       0 days  0 hours  7 minutes 13.5 seconds.
 File lengths (MBytes):  RWF=    301 Int=      0 D2E=      0 Chk=      9 Scr=      1
 Normal termination of Gaussian 09 at Sat Aug  8 00:10:15 2020.
