 Entering Gaussian System, Link 0=g09
 Initial command:
 /prod/apps/gaussian/g09d1/l1.exe "/tmp/ubafar01/1449027/Gau-152085.inp" -scrdir="/tmp/ubafar01/1449027/"
 Entering Link 1 = /prod/apps/gaussian/g09d1/l1.exe PID=    152087.
  
 Copyright (c) 1988,1990,1992,1993,1995,1998,2003,2009,2013,
            Gaussian, Inc.  All Rights Reserved.
  
 This is part of the Gaussian(R) 09 program.  It is based on
 the Gaussian(R) 03 system (copyright 2003, Gaussian, Inc.),
 the Gaussian(R) 98 system (copyright 1998, Gaussian, Inc.),
 the Gaussian(R) 94 system (copyright 1995, Gaussian, Inc.),
 the Gaussian 92(TM) system (copyright 1992, Gaussian, Inc.),
 the Gaussian 90(TM) system (copyright 1990, Gaussian, Inc.),
 the Gaussian 88(TM) system (copyright 1988, Gaussian, Inc.),
 the Gaussian 86(TM) system (copyright 1986, Carnegie Mellon
 University), and the Gaussian 82(TM) system (copyright 1983,
 Carnegie Mellon University). Gaussian is a federally registered
 trademark of Gaussian, Inc.
  
 This software contains proprietary and confidential information,
 including trade secrets, belonging to Gaussian, Inc.
  
 This software is provided under written license and may be
 used, copied, transmitted, or stored only in accord with that
 written license.
  
 The following legend is applicable only to US Government
 contracts under FAR:
  
                    RESTRICTED RIGHTS LEGEND
  
 Use, reproduction and disclosure by the US Government is
 subject to restrictions as set forth in subparagraphs (a)
 and (c) of the Commercial Computer Software - Restricted
 Rights clause in FAR 52.227-19.
  
 Gaussian, Inc.
 340 Quinnipiac St., Bldg. 40, Wallingford CT 06492
  
  
 ---------------------------------------------------------------
 Warning -- This program may not be used in any manner that
 competes with the business of Gaussian, Inc. or will provide
 assistance to any competitor of Gaussian, Inc.  The licensee
 of this program is prohibited from giving any competitor of
 Gaussian, Inc. access to this program.  By using this program,
 the user acknowledges that Gaussian, Inc. is engaged in the
 business of creating and licensing software in the field of
 computational chemistry and represents and warrants to the
 licensee that it is not a competitor of Gaussian, Inc. and that
 it will not use this program in any manner prohibited above.
 ---------------------------------------------------------------
  

 Cite this work as:
 Gaussian 09, Revision D.01,
 M. J. Frisch, G. W. Trucks, H. B. Schlegel, G. E. Scuseria, 
 M. A. Robb, J. R. Cheeseman, G. Scalmani, V. Barone, B. Mennucci, 
 G. A. Petersson, H. Nakatsuji, M. Caricato, X. Li, H. P. Hratchian, 
 A. F. Izmaylov, J. Bloino, G. Zheng, J. L. Sonnenberg, M. Hada, 
 M. Ehara, K. Toyota, R. Fukuda, J. Hasegawa, M. Ishida, T. Nakajima, 
 Y. Honda, O. Kitao, H. Nakai, T. Vreven, J. A. Montgomery, Jr., 
 J. E. Peralta, F. Ogliaro, M. Bearpark, J. J. Heyd, E. Brothers, 
 K. N. Kudin, V. N. Staroverov, T. Keith, R. Kobayashi, J. Normand, 
 K. Raghavachari, A. Rendell, J. C. Burant, S. S. Iyengar, J. Tomasi, 
 M. Cossi, N. Rega, J. M. Millam, M. Klene, J. E. Knox, J. B. Cross, 
 V. Bakken, C. Adamo, J. Jaramillo, R. Gomperts, R. E. Stratmann, 
 O. Yazyev, A. J. Austin, R. Cammi, C. Pomelli, J. W. Ochterski, 
 R. L. Martin, K. Morokuma, V. G. Zakrzewski, G. A. Voth, 
 P. Salvador, J. J. Dannenberg, S. Dapprich, A. D. Daniels, 
 O. Farkas, J. B. Foresman, J. V. Ortiz, J. Cioslowski, 
 and D. J. Fox, Gaussian, Inc., Wallingford CT, 2013.
 
 ******************************************
 Gaussian 09:  AM64L-G09RevD.01 24-Apr-2013
                 8-Aug-2020 
 ******************************************
 %nproc=1
 Will use up to    1 processors via shared memory.
 %Chk=SM39.n.13.pdb.xyz.mst.n.o.chk
 -----------------
 #p b3lyp/6-31G(d)
 -----------------
 1/38=1/1;
 2/12=2,17=6,18=5,40=1/2;
 3/5=1,6=6,7=1,11=2,16=1,25=1,30=1,74=-5/1,2,3;
 4//1;
 5/5=2,38=5/2;
 6/7=2,8=2,9=2,10=2,28=1/1;
 99/5=1,9=1/99;
 Leave Link    1 at Sat Aug  8 00:20:57 2020, MaxMem=           0 cpu:         0.0
 (Enter /prod/apps/gaussian/g09d1/l101.exe)
 -----------------
 SM39.n.13.pdb.xyz
 -----------------
 Symbolic Z-matrix:
 Charge =  0 Multiplicity = 1
 O                     0.446     2.25      0.765 
 S                     1.781     1.737     1.116 
 N                     2.66      1.352    -0.27 
 C                     2.384     1.9      -1.602 
 C                     2.31      3.463    -1.648 
 S                     0.918     3.342    -2.83 
 C                     0.953     1.633    -2.2 
 O                    -0.269     4.118    -2.447 
 O                     1.403     3.402    -4.221 
 C                     3.489     1.408    -2.557 
 C                     3.567    -0.117    -2.745 
 C                     4.607    -0.507    -3.772 
 C                     5.894    -0.889    -3.374 
 C                     6.866    -1.22     -4.319 
 C                     6.562    -1.174    -5.68 
 C                     5.282    -0.796    -6.089 
 C                     4.314    -0.466    -5.141 
 C                     2.694     3.093     1.84 
 C                     4.067     2.963     2.063 
 C                     4.744     4.005     2.691 
 C                     4.052     5.152     3.093 
 C                     2.679     5.263     2.87 
 C                     1.988     4.227     2.241 
 O                     1.914     0.549     1.967 
 H                     2.815     0.346    -0.264 
 H                     3.191     3.975    -2.033 
 H                     1.953     3.927    -0.728 
 H                     0.874     0.868    -2.971 
 H                     0.191     1.52     -1.43 
 H                     4.45      1.783    -2.189 
 H                     3.306     1.88     -3.527 
 H                     2.585    -0.499    -3.049 
 H                     3.817    -0.603    -1.795 
 H                     6.131    -0.931    -2.315 
 H                     7.857    -1.517    -3.991 
 H                     7.316    -1.434    -6.416 
 H                     5.035    -0.763    -7.145 
 H                     3.318    -0.178    -5.467 
 H                     4.593     2.073     1.74 
 H                     5.811     3.924     2.865 
 H                     4.587     5.959     3.58 
 H                     2.144     6.153     3.183 
 H                     0.923     4.289     2.054 
 
 NAtoms=     43 NQM=       43 NQMF=       0 NMMI=      0 NMMIF=      0
                NMic=       0 NMicF=      0.
                    Isotopes and Nuclear Properties:
 (Nuclear quadrupole moments (NQMom) in fm**2, nuclear magnetic moments (NMagM)
  in nuclear magnetons)

  Atom         1           2           3           4           5           6           7           8           9          10
 IAtWgt=          16          32          14          12          12          32          12          16          16          12
 AtmWgt=  15.9949146  31.9720718  14.0030740  12.0000000  12.0000000  31.9720718  12.0000000  15.9949146  15.9949146  12.0000000
 NucSpn=           0           0           2           0           0           0           0           0           0           0
 AtZEff=   0.0000000   0.0000000   0.0000000   0.0000000   0.0000000   0.0000000   0.0000000   0.0000000   0.0000000   0.0000000
 NQMom=    0.0000000   0.0000000   2.0440000   0.0000000   0.0000000   0.0000000   0.0000000   0.0000000   0.0000000   0.0000000
 NMagM=    0.0000000   0.0000000   0.4037610   0.0000000   0.0000000   0.0000000   0.0000000   0.0000000   0.0000000   0.0000000
 AtZNuc=   8.0000000  16.0000000   7.0000000   6.0000000   6.0000000  16.0000000   6.0000000   8.0000000   8.0000000   6.0000000

  Atom        11          12          13          14          15          16          17          18          19          20
 IAtWgt=          12          12          12          12          12          12          12          12          12          12
 AtmWgt=  12.0000000  12.0000000  12.0000000  12.0000000  12.0000000  12.0000000  12.0000000  12.0000000  12.0000000  12.0000000
 NucSpn=           0           0           0           0           0           0           0           0           0           0
 AtZEff=   0.0000000   0.0000000   0.0000000   0.0000000   0.0000000   0.0000000   0.0000000   0.0000000   0.0000000   0.0000000
 NQMom=    0.0000000   0.0000000   0.0000000   0.0000000   0.0000000   0.0000000   0.0000000   0.0000000   0.0000000   0.0000000
 NMagM=    0.0000000   0.0000000   0.0000000   0.0000000   0.0000000   0.0000000   0.0000000   0.0000000   0.0000000   0.0000000
 AtZNuc=   6.0000000   6.0000000   6.0000000   6.0000000   6.0000000   6.0000000   6.0000000   6.0000000   6.0000000   6.0000000

  Atom        21          22          23          24          25          26          27          28          29          30
 IAtWgt=          12          12          12          16           1           1           1           1           1           1
 AtmWgt=  12.0000000  12.0000000  12.0000000  15.9949146   1.0078250   1.0078250   1.0078250   1.0078250   1.0078250   1.0078250
 NucSpn=           0           0           0           0           1           1           1           1           1           1
 AtZEff=   0.0000000   0.0000000   0.0000000   0.0000000   0.0000000   0.0000000   0.0000000   0.0000000   0.0000000   0.0000000
 NQMom=    0.0000000   0.0000000   0.0000000   0.0000000   0.0000000   0.0000000   0.0000000   0.0000000   0.0000000   0.0000000
 NMagM=    0.0000000   0.0000000   0.0000000   0.0000000   2.7928460   2.7928460   2.7928460   2.7928460   2.7928460   2.7928460
 AtZNuc=   6.0000000   6.0000000   6.0000000   8.0000000   1.0000000   1.0000000   1.0000000   1.0000000   1.0000000   1.0000000

  Atom        31          32          33          34          35          36          37          38          39          40
 IAtWgt=           1           1           1           1           1           1           1           1           1           1
 AtmWgt=   1.0078250   1.0078250   1.0078250   1.0078250   1.0078250   1.0078250   1.0078250   1.0078250   1.0078250   1.0078250
 NucSpn=           1           1           1           1           1           1           1           1           1           1
 AtZEff=   0.0000000   0.0000000   0.0000000   0.0000000   0.0000000   0.0000000   0.0000000   0.0000000   0.0000000   0.0000000
 NQMom=    0.0000000   0.0000000   0.0000000   0.0000000   0.0000000   0.0000000   0.0000000   0.0000000   0.0000000   0.0000000
 NMagM=    2.7928460   2.7928460   2.7928460   2.7928460   2.7928460   2.7928460   2.7928460   2.7928460   2.7928460   2.7928460
 AtZNuc=   1.0000000   1.0000000   1.0000000   1.0000000   1.0000000   1.0000000   1.0000000   1.0000000   1.0000000   1.0000000

  Atom        41          42          43
 IAtWgt=           1           1           1
 AtmWgt=   1.0078250   1.0078250   1.0078250
 NucSpn=           1           1           1
 AtZEff=   0.0000000   0.0000000   0.0000000
 NQMom=    0.0000000   0.0000000   0.0000000
 NMagM=    2.7928460   2.7928460   2.7928460
 AtZNuc=   1.0000000   1.0000000   1.0000000
 Leave Link  101 at Sat Aug  8 00:20:57 2020, MaxMem=    33554432 cpu:         0.1
 (Enter /prod/apps/gaussian/g09d1/l202.exe)
                          Input orientation:                          
 ---------------------------------------------------------------------
 Center     Atomic      Atomic             Coordinates (Angstroms)
 Number     Number       Type             X           Y           Z
 ---------------------------------------------------------------------
      1          8           0        0.446000    2.250000    0.765000
      2         16           0        1.781000    1.737000    1.116000
      3          7           0        2.660000    1.352000   -0.270000
      4          6           0        2.384000    1.900000   -1.602000
      5          6           0        2.310000    3.463000   -1.648000
      6         16           0        0.918000    3.342000   -2.830000
      7          6           0        0.953000    1.633000   -2.200000
      8          8           0       -0.269000    4.118000   -2.447000
      9          8           0        1.403000    3.402000   -4.221000
     10          6           0        3.489000    1.408000   -2.557000
     11          6           0        3.567000   -0.117000   -2.745000
     12          6           0        4.607000   -0.507000   -3.772000
     13          6           0        5.894000   -0.889000   -3.374000
     14          6           0        6.866000   -1.220000   -4.319000
     15          6           0        6.562000   -1.174000   -5.680000
     16          6           0        5.282000   -0.796000   -6.089000
     17          6           0        4.314000   -0.466000   -5.141000
     18          6           0        2.694000    3.093000    1.840000
     19          6           0        4.067000    2.963000    2.063000
     20          6           0        4.744000    4.005000    2.691000
     21          6           0        4.052000    5.152000    3.093000
     22          6           0        2.679000    5.263000    2.870000
     23          6           0        1.988000    4.227000    2.241000
     24          8           0        1.914000    0.549000    1.967000
     25          1           0        2.815000    0.346000   -0.264000
     26          1           0        3.191000    3.975000   -2.033000
     27          1           0        1.953000    3.927000   -0.728000
     28          1           0        0.874000    0.868000   -2.971000
     29          1           0        0.191000    1.520000   -1.430000
     30          1           0        4.450000    1.783000   -2.189000
     31          1           0        3.306000    1.880000   -3.527000
     32          1           0        2.585000   -0.499000   -3.049000
     33          1           0        3.817000   -0.603000   -1.795000
     34          1           0        6.131000   -0.931000   -2.315000
     35          1           0        7.857000   -1.517000   -3.991000
     36          1           0        7.316000   -1.434000   -6.416000
     37          1           0        5.035000   -0.763000   -7.145000
     38          1           0        3.318000   -0.178000   -5.467000
     39          1           0        4.593000    2.073000    1.740000
     40          1           0        5.811000    3.924000    2.865000
     41          1           0        4.587000    5.959000    3.580000
     42          1           0        2.144000    6.153000    3.183000
     43          1           0        0.923000    4.289000    2.054000
 ---------------------------------------------------------------------
                    Distance matrix (angstroms):
                    1          2          3          4          5
     1  O    0.000000
     2  S    1.472615   0.000000
     3  N    2.603733   1.685782   0.000000
     4  C    3.079129   2.788853   1.466528   0.000000
     5  C    3.281529   3.301305   2.545134   1.565427   0.000000
     6  S    3.786723   4.346459   3.680797   2.395100   1.830145
     7  C    3.070662   3.419394   2.591855   1.573739   2.344153
     8  O    3.783860   4.750435   4.579206   3.559769   2.778249
     9  O    5.206068   5.603452   4.625251   3.174512   2.728864
    10  C    4.583066   4.064042   2.433258   1.541140   2.537587
    11  C    5.259604   4.640521   3.017654   2.602735   3.949666
    12  C    6.745320   6.075719   4.417091   3.929921   5.054551
    13  C    7.527639   6.631195   5.011552   4.820644   5.896103
    14  C    8.894063   8.008764   6.379657   6.099575   7.058461
    15  C    9.521936   8.804402   7.132628   6.598124   7.472503
    16  C    8.924255   8.401495   6.734207   5.983309   6.833326
    17  C    7.564319   7.100658   5.455958   4.674118   5.626198
    18  C    2.630547   1.787871   2.735752   3.656052   3.528527
    19  C    3.912137   2.761464   3.165100   4.170693   4.136251
    20  C    5.026162   4.050163   4.488762   5.332023   5.004502
    21  C    5.181160   4.552823   5.261885   5.949853   5.325821
    22  C    4.300638   4.039257   5.015564   5.603176   4.877344
    23  C    2.909445   2.740178   3.875865   4.510033   3.976393
    24  O    2.548182   1.467390   2.491083   3.844979   4.660090
    25  H    3.208772   2.215499   1.017889   2.095452   3.447633
    26  H    4.282459   4.112535   3.204724   2.267738   1.089280
    27  H    2.704150   2.868104   2.709287   2.249081   1.090479
    28  H    4.006345   4.275673   3.274058   2.284575   3.247530
    29  H    2.327219   3.009536   2.733091   2.232316   2.883216
    30  H    4.997622   4.248376   2.659403   2.150957   2.773929
    31  H    5.170857   4.889123   3.362164   2.134504   2.651141
    32  H    5.165164   4.795137   3.339860   2.808810   4.211398
    33  H    5.104591   4.253800   2.736110   2.890631   4.338780
    34  H    7.205858   6.149186   4.630546   4.750046   5.861072
    35  H    9.577721   8.578330   7.006127   6.880185   7.814042
    36  H   10.598845   9.870283   8.198381   7.656029   8.471981
    37  H    9.628353   9.224025   7.574924   6.696583   7.449947
    38  H    7.278832   7.026057   5.457350   4.486498   5.371937
    39  H    4.263750   2.899934   2.880352   4.009810   4.315406
    40  H    5.999625   4.907430   5.135388   5.982892   5.730331
    41  H    6.231275   5.636507   6.305575   6.941312   6.224687
    42  H    4.895236   4.889306   5.936250   6.406390   5.531927
    43  H    2.458978   2.851090   4.128452   4.605234   4.038669
                    6          7          8          9         10
     6  S    0.000000
     7  C    1.821759   0.000000
     8  O    1.468957   2.780201   0.000000
     9  O    1.474349   2.723289   2.540731   0.000000
    10  C    3.228765   2.570870   4.634519   3.331115   0.000000
    11  C    4.357649   3.192573   5.721794   4.386893   1.538523
    12  C    5.413953   4.516913   6.849936   5.074199   2.528512
    13  C    6.554226   5.670295   7.994495   6.268905   3.424576
    14  C    7.642491   6.898793   9.105320   7.156595   4.627651
    15  C    7.769909   7.172902   9.226056   7.048669   5.085586
    16  C    6.840221   6.305918   8.259852   6.013258   4.532934
    17  C    5.601286   4.934734   7.019586   4.927651   3.296901
    18  C    5.002507   4.635114   5.311155   6.204666   4.775443
    19  C    5.831063   5.444177   6.361998   6.839464   4.908820
    20  C    6.749762   6.627213   7.179274   7.700755   5.988400
    21  C    6.941180   7.071281   7.101535   7.973349   6.801250
    22  C    6.267485   6.469998   6.186454   7.441356   6.705927
    23  C    5.257677   5.246193   5.204159   6.540665   5.763728
    24  O    5.639510   4.411628   6.081665   6.833160   4.866732
    25  H    4.377097   2.978508   5.338963   5.195260   2.615333
    26  H    2.490467   3.243686   3.487613   2.883161   2.636829
    27  H    2.414923   2.903312   2.815799   3.574797   3.471296
    28  H    2.478405   1.088994   3.484756   2.874630   2.702077
    29  H    2.410023   1.089180   2.827630   3.577785   3.487044
    30  H    3.913615   3.500233   5.271409   4.004297   1.095249
    31  H    2.885446   2.712664   4.353811   2.533679   1.094154
    32  H    4.192867   2.815963   5.461173   4.241286   2.167009
    33  H    5.003844   3.655984   6.277606   5.268102   2.175396
    34  H    6.760113   5.779187   8.152903   6.690419   3.536898
    35  H    8.550294   7.797140  10.008448   8.118102   5.448982
    36  H    8.752370   8.226112  10.203425   7.947861   6.133088
    37  H    7.240162   6.845186   8.603940   6.252074   5.305950
    38  H    5.010406   4.421112   6.359448   4.246898   3.318544
    39  H    6.000074   5.382081   6.734392   6.890273   4.486117
    40  H    7.530817   7.382619   8.075975   8.361480   6.412490
    41  H    7.835710   8.082613   7.955800   8.805209   7.718807
    42  H    6.749886   7.129205   6.454510   7.933240   7.567804
    43  H    4.974966   5.015152   4.659303   6.355533   6.012141
                   11         12         13         14         15
    11  C    0.000000
    12  C    1.512755   0.000000
    13  C    2.531117   1.400249   0.000000
    14  C    3.818047   2.431185   1.395482   0.000000
    15  C    4.324523   2.812006   2.417661   1.395297   0.000000
    16  C    3.818979   2.430563   2.784676   2.412827   1.395910
    17  C    2.533895   1.400604   2.407824   2.785122   2.417703
    18  C    5.664667   6.936434   7.299460   8.598886   9.472017
    19  C    5.731777   6.810266   6.909182   8.127842   9.126546
    20  C    6.922883   7.883355   7.877688   8.996867  10.010035
    21  C    7.879075   8.914064   9.039288  10.171466  11.103329
    22  C    7.826951   9.007011   9.336534  10.547131  11.384865
    23  C    6.798807   8.088639   8.541576   9.823354  10.622359
    24  O    5.037748   6.426780   6.814288   8.195454   9.113136
    25  H    2.633483   4.030501   4.547259   5.941884   6.758954
    26  H    4.170466   5.011736   5.723896   6.761616   7.153772
    27  H    4.798669   5.997500   6.762149   7.970223   8.472626
    28  H    2.876378   4.058019   5.333841   6.486980   6.622823
    29  H    3.975723   5.393955   6.488962   7.772358   8.118484
    30  H    2.167677   2.788304   3.260206   4.403631   5.038995
    31  H    2.160475   2.729541   3.793219   4.786529   4.956194
    32  H    1.096660   2.147388   3.347717   4.523240   4.816048
    33  H    1.095991   2.131160   2.624684   4.005954   4.791064
    34  H    2.724260   2.150628   1.086008   2.154011   3.401181
    35  H    4.681519   3.410361   2.151381   1.085299   2.155782
    36  H    5.409781   3.897274   3.401893   2.155390   1.085270
    37  H    4.683198   3.409670   3.869651   3.398189   2.155661
    38  H    2.734046   2.154713   3.394399   3.871947   3.400135
    39  H    5.095488   6.085946   6.051367   7.260982   8.335249
    40  H    7.268928   8.070511   7.880164   8.898518   9.978508
    41  H    8.829711   9.790887   9.846901  10.914490  11.854447
    42  H    8.745228   9.939517  10.326980  11.529892  12.318946
    43  H    7.030930   8.397366   8.999206  10.309387  11.020773
                   16         17         18         19         20
    16  C    0.000000
    17  C    1.394499   0.000000
    18  C    9.202777   8.001577   0.000000
    19  C    9.058775   7.982272   1.397053   0.000000
    20  C   10.021349   9.028564   2.399676   1.392292   0.000000
    21  C   11.009120   9.971425   2.766524   2.419266   1.398598
    22  C   11.124332   9.983526   2.402088   2.804959   2.424630
    23  C   10.269852   9.051434   1.394702   2.439594   2.801307
    24  O    8.834681   7.570594   2.663919   3.236050   4.525153
    25  H    6.428132   5.166379   3.462292   3.719022   5.083439
    26  H    6.601959   5.535637   4.003132   4.309146   4.972815
    27  H    7.882214   6.659380   2.799868   3.631525   4.414219
    28  H    5.649892   4.280427   5.604351   6.318657   7.541612
    29  H    7.279314   5.891931   4.408201   5.413564   6.624777
    30  H    4.749049   3.713597   4.586118   4.429288   5.370114
    31  H    4.198737   3.020724   5.536299   5.744572   6.726589
    32  H    4.074754   2.714221   6.067674   6.349355   7.608870
    33  H    4.541135   3.385483   5.304222   5.259565   6.497476
    34  H    3.870672   3.391753   6.728266   6.212102   7.165745
    35  H    3.398834   3.870394   9.050372   8.431217   9.210449
    36  H    2.156648   3.402154  10.488954  10.088759  10.914914
    37  H    1.085004   2.150364  10.053817   9.980349  10.934597
    38  H    2.150838   1.086847   8.030010   8.193155   9.278143
    39  H    8.366548   7.339790   2.157916   1.083100   2.158663
    40  H   10.135697   9.252521   3.384801   2.146686   1.084125
    41  H   11.815355  10.835635   3.850325   3.398191   2.152460
    42  H   12.004400  10.853987   3.386702   3.889528   3.408221
    43  H   10.543555   9.266981   2.147709   3.412198   3.884130
                   21         22         23         24         25
    21  C    0.000000
    22  C    1.395414   0.000000
    23  C    2.416945   1.395141   0.000000
    24  O    5.198705   4.860291   3.688934   0.000000
    25  H    5.991432   5.832439   4.692666   2.414616   0.000000
    26  H    5.329402   5.095144   4.447223   5.419244   4.054674
    27  H    4.528407   3.906095   2.984323   4.321508   3.712398
    28  H    8.076165   7.529365   6.299906   5.056402   3.371619
    29  H    6.968233   6.220144   4.902377   3.930799   3.102130
    30  H    6.277586   6.390643   5.626676   5.022588   2.905825
    31  H    7.422055   7.263568   6.365167   5.821792   3.638874
    32  H    8.474081   8.260995   7.118679   5.168056   2.919443
    33  H    7.554323   7.580714   6.554650   4.370487   2.061205
    34  H    8.400690   8.784427   8.032842   6.189428   4.102827
    35  H   10.446848  10.947758  10.309050   8.665181   6.540876
    36  H   12.018743  12.352383  11.635212  10.168018   7.827803
    37  H   11.864660  11.923239  11.058088   9.720624   7.314810
    38  H   10.110453   9.975889   8.976981   7.600270   5.253455
    39  H    3.406396   3.887981   3.417125   3.090493   3.187449
    40  H    2.157325   3.406225   3.885423   5.232938   5.618607
    41  H    1.083809   2.151506   3.398168   6.246183   7.030085
    42  H    2.156517   1.084571   2.149692   5.739022   6.786258
    43  H    3.408069   2.167503   1.083069   3.870045   4.949751
                   26         27         28         29         30
    26  H    0.000000
    27  H    1.799437   0.000000
    28  H    3.987704   3.943700   0.000000
    29  H    3.923090   3.064490   1.807284   0.000000
    30  H    2.532643   3.600870   3.773132   4.334089   0.000000
    31  H    2.575711   3.722260   2.692193   3.772298   1.763062
    32  H    4.627761   5.037454   2.191414   3.525444   3.070073
    33  H    4.626727   5.013371   3.494004   4.217610   2.499784
    34  H    5.726426   6.601092   5.594889   6.486465   3.194907
    35  H    7.467756   8.668421   7.449222   8.634214   5.073939
    36  H    8.092193   9.479211   7.659412   9.184331   6.035775
    37  H    7.209821   8.524829   6.115256   7.831836   5.602346
    38  H    5.390352   6.416570   3.646542   5.381329   3.983997
    39  H    4.451824   4.061766   6.121806   5.452734   3.942282
    40  H    5.554944   5.271985   8.232375   7.470652   5.655008
    41  H    6.114805   5.442963   9.089568   8.008098   7.123139
    42  H    5.748613   4.504162   8.210715   6.823391   7.298830
    43  H    4.684655   2.988556   6.079167   4.510149   6.059935
                   31         32         33         34         35
    31  H    0.000000
    32  H    2.531396   0.000000
    33  H    3.070217   1.761010   0.000000
    34  H    4.165488   3.646847   2.394281   0.000000
    35  H    5.697939   5.451392   4.688221   2.476176   0.000000
    36  H    5.950548   5.881605   5.855528   4.298306   2.486000
    37  H    4.802584   4.780106   5.489228   4.955637   4.298827
    38  H    2.828269   2.546970   3.730042   4.291280   4.957219
    39  H    5.425395   5.794978   4.501042   5.275650   7.509072
    40  H    7.163144   8.058871   6.795982   7.106745   8.988622
    41  H    8.293892   9.468760   8.517240   9.198210  11.131196
    42  H    8.039457   9.125865   8.557041   9.813625  11.955482
    43  H    6.529129   7.192204   6.864525   8.570871  10.878052
                   36         37         38         39         40
    36  H    0.000000
    37  H    2.486894   0.000000
    38  H    4.296759   2.471032   0.000000
    39  H    9.286232   9.337103   7.657250   0.000000
    40  H   10.821744  11.080174   9.615804   2.485025   0.000000
    41  H   12.728861  12.665371  11.005514   4.299608   2.480046
    42  H   13.283560  12.761525  10.783429   4.972550   4.303075
    43  H   12.056703  11.271772   9.069485   4.298622   4.968248
                   41         42         43
    41  H    0.000000
    42  H    2.482639   0.000000
    43  H    4.306097   2.497995   0.000000
 Stoichiometry    C17H19NO4S2
 Framework group  C1[X(C17H19NO4S2)]
 Deg. of freedom   123
 Full point group                 C1      NOp   1
 Largest Abelian subgroup         C1      NOp   1
 Largest concise Abelian subgroup C1      NOp   1
                         Standard orientation:                         
 ---------------------------------------------------------------------
 Center     Atomic      Atomic             Coordinates (Angstroms)
 Number     Number       Type             X           Y           Z
 ---------------------------------------------------------------------
      1          8           0        2.562183    0.997844    1.617653
      2         16           0        2.151427   -0.403885    1.430487
      3          7           0        0.561223   -0.495179    0.878423
      4          6           0       -0.141583    0.598374    0.199519
      5          6           0        0.629630    1.190232   -1.027467
      6         16           0        0.074920    2.865416   -0.542201
      7          6           0       -0.288766    1.950758    0.990750
      8          8           0        1.157674    3.851938   -0.431517
      9          8           0       -1.167776    3.231884   -1.245846
     10          6           0       -1.513624    0.068579   -0.260847
     11          6           0       -2.454623   -0.391470    0.866064
     12          6           0       -3.812040   -0.799145    0.337243
     13          6           0       -4.103787   -2.145012    0.083818
     14          6           0       -5.343744   -2.522888   -0.432984
     15          6           0       -6.312471   -1.555757   -0.703314
     16          6           0       -6.033826   -0.210942   -0.453526
     17          6           0       -4.793269    0.161889    0.062848
     18          6           0        3.114517   -1.059598    0.074397
     19          6           0        2.780906   -2.299331   -0.476531
     20          6           0        3.586412   -2.821390   -1.485041
     21          6           0        4.709281   -2.113441   -1.925551
     22          6           0        5.033362   -0.879901   -1.359398
     23          6           0        4.234624   -0.344345   -0.348648
     24          8           0        2.194279   -1.341585    2.558368
     25          1           0        0.010956   -0.948255    1.605077
     26          1           0        0.290970    0.865457   -2.010503
     27          1           0        1.715980    1.140557   -0.946719
     28          1           0       -1.264687    2.167395    1.422669
     29          1           0        0.519840    2.110290    1.702803
     30          1           0       -1.343547   -0.758236   -0.958715
     31          1           0       -1.994705    0.874552   -0.823113
     32          1           0       -2.570078    0.416067    1.599015
     33          1           0       -2.018414   -1.244259    1.398668
     34          1           0       -3.353278   -2.899923    0.298898
     35          1           0       -5.552563   -3.571428   -0.619619
     36          1           0       -7.278314   -1.848397   -1.102464
     37          1           0       -6.783188    0.547334   -0.655288
     38          1           0       -4.585733    1.210383    0.259891
     39          1           0        1.904320   -2.834239   -0.132182
     40          1           0        3.337759   -3.778663   -1.929031
     41          1           0        5.330150   -2.526499   -2.712030
     42          1           0        5.904864   -0.332673   -1.701917
     43          1           0        4.462676    0.611969    0.105767
 ---------------------------------------------------------------------
 Rotational constants (GHZ):      0.2964150      0.1185141      0.0992468
 Leave Link  202 at Sat Aug  8 00:20:57 2020, MaxMem=    33554432 cpu:         0.0
 (Enter /prod/apps/gaussian/g09d1/l301.exe)
 Standard basis: 6-31G(d) (6D, 7F)
 Ernie: Thresh=  0.10000D-02 Tol=  0.10000D-05 Strict=F.
 There are   406 symmetry adapted cartesian basis functions of A   symmetry.
 There are   406 symmetry adapted basis functions of A   symmetry.
   406 basis functions,   796 primitive gaussians,   406 cartesian basis functions
    96 alpha electrons       96 beta electrons
       nuclear repulsion energy      2440.5873088443 Hartrees.
 IExCor=  402 DFT=T Ex+Corr=B3LYP ExCW=0 ScaHFX=  0.200000
 ScaDFX=  0.800000  0.720000  1.000000  0.810000 ScalE2=  1.000000  1.000000
 IRadAn=      0 IRanWt=     -1 IRanGd=            0 ICorTp=0 IEmpDi=  4
 NAtoms=   43 NActive=   43 NUniq=   43 SFac= 1.00D+00 NAtFMM=   60 NAOKFM=F Big=F
 Integral buffers will be    131072 words long.
 Raffenetti 2 integral format.
 Two-electron integral symmetry is turned on.
 Leave Link  301 at Sat Aug  8 00:20:57 2020, MaxMem=    33554432 cpu:         0.0
 (Enter /prod/apps/gaussian/g09d1/l302.exe)
 NPDir=0 NMtPBC=     1 NCelOv=     1 NCel=       1 NClECP=     1 NCelD=      1
         NCelK=      1 NCelE2=     1 NClLst=     1 CellRange=     0.0.
 One-electron integrals computed using PRISM.
 NBasis=   406 RedAO= T EigKep=  4.64D-04  NBF=   406
 NBsUse=   406 1.00D-06 EigRej= -1.00D+00 NBFU=   406
 Precomputing XC quadrature grid using
 IXCGrd= 4 IRadAn=           0 IRanWt=          -1 IRanGd=           0 AccXCQ= 0.00D+00.
 Generated NRdTot=       0 NPtTot=           0 NUsed=           0 NTot=          32
 NSgBfM=   398   398   398   398   399 MxSgAt=    43 MxSgA2=    43.
 Leave Link  302 at Sat Aug  8 00:20:59 2020, MaxMem=    33554432 cpu:         1.6
 (Enter /prod/apps/gaussian/g09d1/l303.exe)
 DipDrv:  MaxL=1.
 Leave Link  303 at Sat Aug  8 00:20:59 2020, MaxMem=    33554432 cpu:         0.1
 (Enter /prod/apps/gaussian/g09d1/l401.exe)
 ExpMin= 1.17D-01 ExpMax= 2.19D+04 ExpMxC= 3.30D+03 IAcc=1 IRadAn=         1 AccDes= 0.00D+00
 Harris functional with IExCor=  402 and IRadAn=       1 diagonalized for initial guess.
 HarFok:  IExCor=  402 AccDes= 0.00D+00 IRadAn=         1 IDoV= 1 UseB2=F ITyADJ=14
 ICtDFT=  3500011 ScaDFX=  1.000000  1.000000  1.000000  1.000000
 FoFCou: FMM=F IPFlag=           0 FMFlag=      100000 FMFlg1=           0
         NFxFlg=           0 DoJE=T BraDBF=F KetDBF=T FulRan=T
         wScrn=  0.000000 ICntrl=     500 IOpCl=  0 I1Cent=   200000004 NGrid=           0
         NMat0=    1 NMatS0=      1 NMatT0=    0 NMatD0=    1 NMtDS0=    0 NMtDT0=    0
 Petite list used in FoFCou.
 Harris En= -1811.22964413613    
 JPrj=0 DoOrth=F DoCkMO=F.
 Leave Link  401 at Sat Aug  8 00:21:05 2020, MaxMem=    33554432 cpu:         5.9
 (Enter /prod/apps/gaussian/g09d1/l502.exe)
 Closed shell SCF:
 Using DIIS extrapolation, IDIIS=  1040.
 Integral symmetry usage will be decided dynamically.
 IVT=      518558 IEndB=      518558 NGot=    33554432 MDV=    33217757
 LenX=    33217757 LenY=    33052480
 Requested convergence on RMS density matrix=1.00D-08 within 128 cycles.
 Requested convergence on MAX density matrix=1.00D-06.
 Requested convergence on             energy=1.00D-06.
 No special actions if energy rises.
 Fock matrices will be formed incrementally for  20 cycles.
 Integral accuracy reduced to 1.0D-05 until final iterations.

 Cycle   1  Pass 0  IDiag  1:
 FoFJK:  IHMeth= 1 ICntrl=       0 DoSepK=F KAlg= 0 I1Cent=   0 FoldK=F
 IRaf= 690000000 NMat=   1 IRICut=       1 DoRegI=T DoRafI=F ISym2E= 0.
 FoFCou: FMM=F IPFlag=           0 FMFlag=      100000 FMFlg1=           0
         NFxFlg=           0 DoJE=F BraDBF=F KetDBF=F FulRan=T
         wScrn=  0.000000 ICntrl=       0 IOpCl=  0 I1Cent=           0 NGrid=           0
         NMat0=    1 NMatS0=      1 NMatT0=    0 NMatD0=    1 NMtDS0=    0 NMtDT0=    0
 Symmetry not used in FoFCou.
 E= -1810.23547659447    
 DIIS: error= 3.78D-02 at cycle   1 NSaved=   1.
 NSaved= 1 IEnMin= 1 EnMin= -1810.23547659447     IErMin= 1 ErrMin= 3.78D-02
 ErrMax= 3.78D-02  0.00D+00 EMaxC= 1.00D-01 BMatC= 1.02D+00 BMatP= 1.02D+00
 IDIUse=3 WtCom= 6.22D-01 WtEn= 3.78D-01
 Coeff-Com:  0.100D+01
 Coeff-En:   0.100D+01
 Coeff:      0.100D+01
 Gap=     0.284 Goal=   None    Shift=    0.000
 GapD=    0.284 DampG=1.000 DampE=0.500 DampFc=0.5000 IDamp=-1.
 Damping current iteration by 5.00D-01
 RMSDP=6.56D-03 MaxDP=5.82D-01              OVMax= 2.34D-01

 Cycle   2  Pass 0  IDiag  1:
 RMSU=  3.28D-03    CP:  9.97D-01
 E= -1810.41804622033     Delta-E=       -0.182569625856 Rises=F Damp=T
 DIIS: error= 1.62D-02 at cycle   2 NSaved=   2.
 NSaved= 2 IEnMin= 2 EnMin= -1810.41804622033     IErMin= 2 ErrMin= 1.62D-02
 ErrMax= 1.62D-02  0.00D+00 EMaxC= 1.00D-01 BMatC= 1.83D-01 BMatP= 1.02D+00
 IDIUse=3 WtCom= 8.38D-01 WtEn= 1.62D-01
 Coeff-Com:  0.252D+00 0.748D+00
 Coeff-En:   0.397D+00 0.603D+00
 Coeff:      0.276D+00 0.724D+00
 Gap=     0.248 Goal=   None    Shift=    0.000
 RMSDP=2.01D-03 MaxDP=1.33D-01 DE=-1.83D-01 OVMax= 1.99D-01

 Cycle   3  Pass 0  IDiag  1:
 RMSU=  1.60D-03    CP:  9.86D-01  6.32D-01
 E= -1811.01542164340     Delta-E=       -0.597375423071 Rises=F Damp=F
 DIIS: error= 1.08D-02 at cycle   3 NSaved=   3.
 NSaved= 3 IEnMin= 3 EnMin= -1811.01542164340     IErMin= 3 ErrMin= 1.08D-02
 ErrMax= 1.08D-02  0.00D+00 EMaxC= 1.00D-01 BMatC= 1.10D-01 BMatP= 1.83D-01
 IDIUse=3 WtCom= 8.92D-01 WtEn= 1.08D-01
 Coeff-Com:  0.100D+00 0.441D+00 0.459D+00
 Coeff-En:   0.000D+00 0.000D+00 0.100D+01
 Coeff:      0.892D-01 0.393D+00 0.518D+00
 Gap=     0.199 Goal=   None    Shift=    0.000
 RMSDP=1.27D-03 MaxDP=4.06D-02 DE=-5.97D-01 OVMax= 8.12D-02

 Cycle   4  Pass 0  IDiag  1:
 RMSU=  7.48D-04    CP:  9.92D-01  7.28D-01  3.91D-01
 E= -1811.10515978593     Delta-E=       -0.089738142530 Rises=F Damp=F
 DIIS: error= 4.03D-03 at cycle   4 NSaved=   4.
 NSaved= 4 IEnMin= 4 EnMin= -1811.10515978593     IErMin= 4 ErrMin= 4.03D-03
 ErrMax= 4.03D-03  0.00D+00 EMaxC= 1.00D-01 BMatC= 1.75D-02 BMatP= 1.10D-01
 IDIUse=3 WtCom= 9.60D-01 WtEn= 4.03D-02
 Coeff-Com:  0.128D-01 0.811D-01 0.296D+00 0.610D+00
 Coeff-En:   0.000D+00 0.000D+00 0.151D+00 0.849D+00
 Coeff:      0.123D-01 0.778D-01 0.290D+00 0.620D+00
 Gap=     0.200 Goal=   None    Shift=    0.000
 RMSDP=4.30D-04 MaxDP=1.80D-02 DE=-8.97D-02 OVMax= 3.15D-02

 Cycle   5  Pass 0  IDiag  1:
 RMSU=  1.84D-04    CP:  9.91D-01  7.03D-01  5.56D-01  6.35D-01
 E= -1811.12042923637     Delta-E=       -0.015269450436 Rises=F Damp=F
 DIIS: error= 1.56D-03 at cycle   5 NSaved=   5.
 NSaved= 5 IEnMin= 5 EnMin= -1811.12042923637     IErMin= 5 ErrMin= 1.56D-03
 ErrMax= 1.56D-03  0.00D+00 EMaxC= 1.00D-01 BMatC= 1.25D-03 BMatP= 1.75D-02
 IDIUse=3 WtCom= 9.84D-01 WtEn= 1.56D-02
 Coeff-Com:  0.304D-04 0.160D-01 0.125D+00 0.341D+00 0.518D+00
 Coeff-En:   0.000D+00 0.000D+00 0.000D+00 0.000D+00 0.100D+01
 Coeff:      0.299D-04 0.158D-01 0.123D+00 0.336D+00 0.525D+00
 Gap=     0.199 Goal=   None    Shift=    0.000
 RMSDP=1.19D-04 MaxDP=5.20D-03 DE=-1.53D-02 OVMax= 1.27D-02

 Cycle   6  Pass 0  IDiag  1:
 RMSU=  6.22D-05    CP:  9.91D-01  7.08D-01  5.47D-01  6.93D-01  5.21D-01
 E= -1811.12154320516     Delta-E=       -0.001113968797 Rises=F Damp=F
 DIIS: error= 5.65D-04 at cycle   6 NSaved=   6.
 NSaved= 6 IEnMin= 6 EnMin= -1811.12154320516     IErMin= 6 ErrMin= 5.65D-04
 ErrMax= 5.65D-04  0.00D+00 EMaxC= 1.00D-01 BMatC= 1.54D-04 BMatP= 1.25D-03
 IDIUse=3 WtCom= 9.94D-01 WtEn= 5.65D-03
 Coeff-Com: -0.104D-02 0.234D-02 0.451D-01 0.136D+00 0.313D+00 0.505D+00
 Coeff-En:   0.000D+00 0.000D+00 0.000D+00 0.000D+00 0.687D-01 0.931D+00
 Coeff:     -0.104D-02 0.233D-02 0.449D-01 0.136D+00 0.311D+00 0.507D+00
 Gap=     0.199 Goal=   None    Shift=    0.000
 RMSDP=3.81D-05 MaxDP=2.11D-03 DE=-1.11D-03 OVMax= 4.04D-03

 Cycle   7  Pass 0  IDiag  1:
 RMSU=  2.34D-05    CP:  9.91D-01  7.07D-01  5.49D-01  6.93D-01  5.88D-01
                    CP:  5.67D-01
 E= -1811.12167447343     Delta-E=       -0.000131268269 Rises=F Damp=F
 DIIS: error= 1.65D-04 at cycle   7 NSaved=   7.
 NSaved= 7 IEnMin= 7 EnMin= -1811.12167447343     IErMin= 7 ErrMin= 1.65D-04
 ErrMax= 1.65D-04  0.00D+00 EMaxC= 1.00D-01 BMatC= 1.75D-05 BMatP= 1.54D-04
 IDIUse=3 WtCom= 9.98D-01 WtEn= 1.65D-03
 Coeff-Com: -0.626D-03-0.252D-03 0.144D-01 0.470D-01 0.139D+00 0.315D+00
 Coeff-Com:  0.485D+00
 Coeff-En:   0.000D+00 0.000D+00 0.000D+00 0.000D+00 0.000D+00 0.383D-01
 Coeff-En:   0.962D+00
 Coeff:     -0.625D-03-0.252D-03 0.143D-01 0.469D-01 0.139D+00 0.315D+00
 Coeff:      0.486D+00
 Gap=     0.199 Goal=   None    Shift=    0.000
 RMSDP=1.23D-05 MaxDP=7.83D-04 DE=-1.31D-04 OVMax= 9.08D-04

 Cycle   8  Pass 0  IDiag  1:
 RMSU=  6.50D-06    CP:  9.91D-01  7.07D-01  5.50D-01  6.92D-01  5.94D-01
                    CP:  6.12D-01  5.78D-01
 E= -1811.12168866398     Delta-E=       -0.000014190548 Rises=F Damp=F
 DIIS: error= 5.66D-05 at cycle   8 NSaved=   8.
 NSaved= 8 IEnMin= 8 EnMin= -1811.12168866398     IErMin= 8 ErrMin= 5.66D-05
 ErrMax= 5.66D-05  0.00D+00 EMaxC= 1.00D-01 BMatC= 1.34D-06 BMatP= 1.75D-05
 IDIUse=1 WtCom= 1.00D+00 WtEn= 0.00D+00
 Coeff-Com: -0.243D-03-0.433D-03 0.286D-02 0.109D-01 0.442D-01 0.123D+00
 Coeff-Com:  0.274D+00 0.546D+00
 Coeff:     -0.243D-03-0.433D-03 0.286D-02 0.109D-01 0.442D-01 0.123D+00
 Coeff:      0.274D+00 0.546D+00
 Gap=     0.199 Goal=   None    Shift=    0.000
 RMSDP=3.79D-06 MaxDP=1.63D-04 DE=-1.42D-05 OVMax= 2.86D-04

 Initial convergence to 1.0D-05 achieved.  Increase integral accuracy.
 Cycle   9  Pass 1  IDiag  1:
 E= -1811.12154736817     Delta-E=        0.000141295807 Rises=F Damp=F
 DIIS: error= 6.67D-05 at cycle   1 NSaved=   1.
 NSaved= 1 IEnMin= 1 EnMin= -1811.12154736817     IErMin= 1 ErrMin= 6.67D-05
 ErrMax= 6.67D-05  0.00D+00 EMaxC= 1.00D-01 BMatC= 1.30D-06 BMatP= 1.30D-06
 IDIUse=1 WtCom= 1.00D+00 WtEn= 0.00D+00
 Coeff-Com:  0.100D+01
 Coeff:      0.100D+01
 Gap=     0.199 Goal=   None    Shift=    0.000
 RMSDP=3.79D-06 MaxDP=1.63D-04 DE= 1.41D-04 OVMax= 3.31D-04

 Cycle  10  Pass 1  IDiag  1:
 RMSU=  3.02D-05    CP:  1.00D+00
 E= -1811.12154791469     Delta-E=       -0.000000546520 Rises=F Damp=F
 DIIS: error= 4.21D-05 at cycle   2 NSaved=   2.
 NSaved= 2 IEnMin= 2 EnMin= -1811.12154791469     IErMin= 2 ErrMin= 4.21D-05
 ErrMax= 4.21D-05  0.00D+00 EMaxC= 1.00D-01 BMatC= 9.16D-07 BMatP= 1.30D-06
 IDIUse=1 WtCom= 1.00D+00 WtEn= 0.00D+00
 Coeff-Com:  0.436D+00 0.564D+00
 Coeff:      0.436D+00 0.564D+00
 Gap=     0.199 Goal=   None    Shift=    0.000
 RMSDP=4.14D-06 MaxDP=2.45D-04 DE=-5.47D-07 OVMax= 3.58D-04

 Cycle  11  Pass 1  IDiag  1:
 RMSU=  4.14D-06    CP:  1.00D+00  9.93D-01
 E= -1811.12154817787     Delta-E=       -0.000000263174 Rises=F Damp=F
 DIIS: error= 3.78D-05 at cycle   3 NSaved=   3.
 NSaved= 3 IEnMin= 3 EnMin= -1811.12154817787     IErMin= 3 ErrMin= 3.78D-05
 ErrMax= 3.78D-05  0.00D+00 EMaxC= 1.00D-01 BMatC= 6.49D-07 BMatP= 9.16D-07
 IDIUse=1 WtCom= 1.00D+00 WtEn= 0.00D+00
 Coeff-Com:  0.174D-02 0.456D+00 0.542D+00
 Coeff:      0.174D-02 0.456D+00 0.542D+00
 Gap=     0.199 Goal=   None    Shift=    0.000
 RMSDP=1.89D-06 MaxDP=1.19D-04 DE=-2.63D-07 OVMax= 1.85D-04

 Cycle  12  Pass 1  IDiag  1:
 RMSU=  6.18D-07    CP:  1.00D+00  1.00D+00  5.77D-01
 E= -1811.12154870253     Delta-E=       -0.000000524665 Rises=F Damp=F
 DIIS: error= 5.31D-06 at cycle   4 NSaved=   4.
 NSaved= 4 IEnMin= 4 EnMin= -1811.12154870253     IErMin= 4 ErrMin= 5.31D-06
 ErrMax= 5.31D-06  0.00D+00 EMaxC= 1.00D-01 BMatC= 1.59D-08 BMatP= 6.49D-07
 IDIUse=1 WtCom= 1.00D+00 WtEn= 0.00D+00
 Coeff-Com: -0.759D-02 0.269D+00 0.331D+00 0.407D+00
 Coeff:     -0.759D-02 0.269D+00 0.331D+00 0.407D+00
 Gap=     0.199 Goal=   None    Shift=    0.000
 RMSDP=3.66D-07 MaxDP=1.59D-05 DE=-5.25D-07 OVMax= 4.25D-05

 Cycle  13  Pass 1  IDiag  1:
 RMSU=  1.82D-07    CP:  1.00D+00  1.01D+00  5.70D-01  4.89D-01
 E= -1811.12154871743     Delta-E=       -0.000000014903 Rises=F Damp=F
 DIIS: error= 1.19D-06 at cycle   5 NSaved=   5.
 NSaved= 5 IEnMin= 5 EnMin= -1811.12154871743     IErMin= 5 ErrMin= 1.19D-06
 ErrMax= 1.19D-06  0.00D+00 EMaxC= 1.00D-01 BMatC= 6.47D-10 BMatP= 1.59D-08
 IDIUse=1 WtCom= 1.00D+00 WtEn= 0.00D+00
 Coeff-Com: -0.445D-02 0.123D+00 0.152D+00 0.228D+00 0.501D+00
 Coeff:     -0.445D-02 0.123D+00 0.152D+00 0.228D+00 0.501D+00
 Gap=     0.199 Goal=   None    Shift=    0.000
 RMSDP=8.23D-08 MaxDP=5.23D-06 DE=-1.49D-08 OVMax= 9.19D-06

 Cycle  14  Pass 1  IDiag  1:
 RMSU=  6.51D-08    CP:  1.00D+00  1.01D+00  5.70D-01  5.13D-01  7.36D-01
 E= -1811.12154871798     Delta-E=       -0.000000000548 Rises=F Damp=F
 DIIS: error= 2.65D-07 at cycle   6 NSaved=   6.
 NSaved= 6 IEnMin= 6 EnMin= -1811.12154871798     IErMin= 6 ErrMin= 2.65D-07
 ErrMax= 2.65D-07  0.00D+00 EMaxC= 1.00D-01 BMatC= 6.08D-11 BMatP= 6.47D-10
 IDIUse=1 WtCom= 1.00D+00 WtEn= 0.00D+00
 Coeff-Com: -0.119D-02 0.265D-01 0.326D-01 0.608D-01 0.266D+00 0.616D+00
 Coeff:     -0.119D-02 0.265D-01 0.326D-01 0.608D-01 0.266D+00 0.616D+00
 Gap=     0.199 Goal=   None    Shift=    0.000
 RMSDP=2.64D-08 MaxDP=1.51D-06 DE=-5.48D-10 OVMax= 1.87D-06

 Cycle  15  Pass 1  IDiag  1:
 RMSU=  1.94D-08    CP:  1.00D+00  1.01D+00  5.69D-01  5.15D-01  7.94D-01
                    CP:  7.80D-01
 E= -1811.12154871810     Delta-E=       -0.000000000122 Rises=F Damp=F
 DIIS: error= 1.28D-07 at cycle   7 NSaved=   7.
 NSaved= 7 IEnMin= 7 EnMin= -1811.12154871810     IErMin= 7 ErrMin= 1.28D-07
 ErrMax= 1.28D-07  0.00D+00 EMaxC= 1.00D-01 BMatC= 1.18D-11 BMatP= 6.08D-11
 IDIUse=1 WtCom= 1.00D+00 WtEn= 0.00D+00
 Coeff-Com: -0.244D-03 0.200D-02 0.246D-02 0.105D-01 0.106D+00 0.376D+00
 Coeff-Com:  0.503D+00
 Coeff:     -0.244D-03 0.200D-02 0.246D-02 0.105D-01 0.106D+00 0.376D+00
 Coeff:      0.503D+00
 Gap=     0.199 Goal=   None    Shift=    0.000
 RMSDP=1.06D-08 MaxDP=8.21D-07 DE=-1.22D-10 OVMax= 5.52D-07

 Cycle  16  Pass 1  IDiag  1:
 RMSU=  5.79D-09    CP:  1.00D+00  1.01D+00  5.69D-01  5.16D-01  8.01D-01
                    CP:  8.10D-01  5.64D-01
 E= -1811.12154871805     Delta-E=        0.000000000051 Rises=F Damp=F
 DIIS: error= 4.63D-08 at cycle   8 NSaved=   8.
 NSaved= 8 IEnMin= 7 EnMin= -1811.12154871810     IErMin= 8 ErrMin= 4.63D-08
 ErrMax= 4.63D-08  0.00D+00 EMaxC= 1.00D-01 BMatC= 1.21D-12 BMatP= 1.18D-11
 IDIUse=1 WtCom= 1.00D+00 WtEn= 0.00D+00
 Coeff-Com: -0.278D-05-0.190D-02-0.229D-02-0.668D-03 0.337D-01 0.157D+00
 Coeff-Com:  0.300D+00 0.514D+00
 Coeff:     -0.278D-05-0.190D-02-0.229D-02-0.668D-03 0.337D-01 0.157D+00
 Coeff:      0.300D+00 0.514D+00
 Gap=     0.199 Goal=   None    Shift=    0.000
 RMSDP=3.25D-09 MaxDP=2.57D-07 DE= 5.09D-11 OVMax= 1.69D-07

 SCF Done:  E(RB3LYP) =  -1811.12154872     A.U. after   16 cycles
            NFock= 16  Conv=0.33D-08     -V/T= 2.0069
 KE= 1.798674649346D+03 PE=-9.130823555006D+03 EE= 3.080440048097D+03
 Leave Link  502 at Sat Aug  8 00:29:08 2020, MaxMem=    33554432 cpu:       482.8
 (Enter /prod/apps/gaussian/g09d1/l601.exe)
 Copying SCF densities to generalized density rwf, IOpCl= 0 IROHF=0.

 **********************************************************************

            Population analysis using the SCF density.

 **********************************************************************

 Orbital symmetries:
       Occupied  (A) (A) (A) (A) (A) (A) (A) (A) (A) (A) (A) (A)
                 (A) (A) (A) (A) (A) (A) (A) (A) (A) (A) (A) (A)
                 (A) (A) (A) (A) (A) (A) (A) (A) (A) (A) (A) (A)
                 (A) (A) (A) (A) (A) (A) (A) (A) (A) (A) (A) (A)
                 (A) (A) (A) (A) (A) (A) (A) (A) (A) (A) (A) (A)
                 (A) (A) (A) (A) (A) (A) (A) (A) (A) (A) (A) (A)
                 (A) (A) (A) (A) (A) (A) (A) (A) (A) (A) (A) (A)
                 (A) (A) (A) (A) (A) (A) (A) (A) (A) (A) (A) (A)
       Virtual   (A) (A) (A) (A) (A) (A) (A) (A) (A) (A) (A) (A)
                 (A) (A) (A) (A) (A) (A) (A) (A) (A) (A) (A) (A)
                 (A) (A) (A) (A) (A) (A) (A) (A) (A) (A) (A) (A)
                 (A) (A) (A) (A) (A) (A) (A) (A) (A) (A) (A) (A)
                 (A) (A) (A) (A) (A) (A) (A) (A) (A) (A) (A) (A)
                 (A) (A) (A) (A) (A) (A) (A) (A) (A) (A) (A) (A)
                 (A) (A) (A) (A) (A) (A) (A) (A) (A) (A) (A) (A)
                 (A) (A) (A) (A) (A) (A) (A) (A) (A) (A) (A) (A)
                 (A) (A) (A) (A) (A) (A) (A) (A) (A) (A) (A) (A)
                 (A) (A) (A) (A) (A) (A) (A) (A) (A) (A) (A) (A)
                 (A) (A) (A) (A) (A) (A) (A) (A) (A) (A) (A) (A)
                 (A) (A) (A) (A) (A) (A) (A) (A) (A) (A) (A) (A)
                 (A) (A) (A) (A) (A) (A) (A) (A) (A) (A) (A) (A)
                 (A) (A) (A) (A) (A) (A) (A) (A) (A) (A) (A) (A)
                 (A) (A) (A) (A) (A) (A) (A) (A) (A) (A) (A) (A)
                 (A) (A) (A) (A) (A) (A) (A) (A) (A) (A) (A) (A)
                 (A) (A) (A) (A) (A) (A) (A) (A) (A) (A) (A) (A)
                 (A) (A) (A) (A) (A) (A) (A) (A) (A) (A) (A) (A)
                 (A) (A) (A) (A) (A) (A) (A) (A) (A) (A) (A) (A)
                 (A) (A) (A) (A) (A) (A) (A) (A) (A) (A) (A) (A)
                 (A) (A) (A) (A) (A) (A) (A) (A) (A) (A) (A) (A)
                 (A) (A) (A) (A) (A) (A) (A) (A) (A) (A) (A) (A)
                 (A) (A) (A) (A) (A) (A) (A) (A) (A) (A) (A) (A)
                 (A) (A) (A) (A) (A) (A) (A) (A) (A) (A) (A) (A)
                 (A) (A) (A) (A) (A) (A) (A) (A) (A) (A) (A) (A)
                 (A) (A) (A) (A) (A) (A) (A) (A) (A) (A)
 The electronic state is 1-A.
 Alpha  occ. eigenvalues --  -89.12892 -89.08973 -19.15827 -19.15545 -19.14273
 Alpha  occ. eigenvalues --  -19.14112 -14.38708 -10.28417 -10.24350 -10.23436
 Alpha  occ. eigenvalues --  -10.22798 -10.22734 -10.22503 -10.22256 -10.22143
 Alpha  occ. eigenvalues --  -10.22024 -10.21255 -10.21201 -10.20654 -10.19721
 Alpha  occ. eigenvalues --  -10.19664 -10.19644 -10.19554 -10.19521  -8.15394
 Alpha  occ. eigenvalues --   -8.12015  -6.11915  -6.11806  -6.11683  -6.08431
 Alpha  occ. eigenvalues --   -6.08372  -6.08310  -1.12476  -1.09659  -1.01370
 Alpha  occ. eigenvalues --   -0.99292  -0.95581  -0.88945  -0.86639  -0.85929
 Alpha  occ. eigenvalues --   -0.80550  -0.79284  -0.77830  -0.75077  -0.74759
 Alpha  occ. eigenvalues --   -0.72693  -0.69956  -0.67342  -0.63918  -0.62962
 Alpha  occ. eigenvalues --   -0.61348  -0.61073  -0.58986  -0.57893  -0.56123
 Alpha  occ. eigenvalues --   -0.53798  -0.52798  -0.51884  -0.50003  -0.49963
 Alpha  occ. eigenvalues --   -0.49287  -0.48526  -0.47565  -0.47149  -0.46762
 Alpha  occ. eigenvalues --   -0.45961  -0.45413  -0.45281  -0.44477  -0.43718
 Alpha  occ. eigenvalues --   -0.43418  -0.42593  -0.42346  -0.41202  -0.40147
 Alpha  occ. eigenvalues --   -0.39462  -0.39249  -0.38436  -0.37702  -0.37122
 Alpha  occ. eigenvalues --   -0.36147  -0.35280  -0.34628  -0.34444  -0.33294
 Alpha  occ. eigenvalues --   -0.32622  -0.31931  -0.31522  -0.31175  -0.30389
 Alpha  occ. eigenvalues --   -0.29374  -0.28340  -0.28219  -0.27186  -0.25668
 Alpha  occ. eigenvalues --   -0.25040
 Alpha virt. eigenvalues --   -0.05108  -0.03177  -0.00931  -0.00767   0.02849
 Alpha virt. eigenvalues --    0.04605   0.05040   0.05685   0.06474   0.06915
 Alpha virt. eigenvalues --    0.07073   0.07914   0.08982   0.09408   0.10226
 Alpha virt. eigenvalues --    0.10741   0.10969   0.12088   0.12562   0.13333
 Alpha virt. eigenvalues --    0.14101   0.14538   0.14897   0.15236   0.15915
 Alpha virt. eigenvalues --    0.16742   0.16827   0.17515   0.18141   0.18314
 Alpha virt. eigenvalues --    0.18813   0.19074   0.19456   0.20113   0.23193
 Alpha virt. eigenvalues --    0.23929   0.24679   0.26427   0.26919   0.27599
 Alpha virt. eigenvalues --    0.28028   0.29449   0.29971   0.30652   0.31858
 Alpha virt. eigenvalues --    0.32693   0.33640   0.34854   0.35603   0.36024
 Alpha virt. eigenvalues --    0.37499   0.39776   0.43490   0.43936   0.44746
 Alpha virt. eigenvalues --    0.45634   0.47130   0.48923   0.49467   0.49744
 Alpha virt. eigenvalues --    0.50944   0.51694   0.52254   0.52441   0.53821
 Alpha virt. eigenvalues --    0.53916   0.54466   0.55016   0.55627   0.56279
 Alpha virt. eigenvalues --    0.57156   0.57526   0.58052   0.58277   0.58790
 Alpha virt. eigenvalues --    0.58902   0.59481   0.59717   0.60075   0.60267
 Alpha virt. eigenvalues --    0.60639   0.60980   0.61588   0.61751   0.62987
 Alpha virt. eigenvalues --    0.63829   0.64009   0.65743   0.66216   0.68538
 Alpha virt. eigenvalues --    0.69156   0.69650   0.71429   0.72925   0.74314
 Alpha virt. eigenvalues --    0.75751   0.76737   0.77126   0.79103   0.79442
 Alpha virt. eigenvalues --    0.80602   0.81057   0.81518   0.81820   0.82354
 Alpha virt. eigenvalues --    0.82510   0.82623   0.83442   0.83623   0.84222
 Alpha virt. eigenvalues --    0.84957   0.85666   0.85785   0.86318   0.86940
 Alpha virt. eigenvalues --    0.87194   0.87635   0.89628   0.90148   0.90623
 Alpha virt. eigenvalues --    0.91038   0.92365   0.92736   0.92790   0.93846
 Alpha virt. eigenvalues --    0.94066   0.94783   0.95023   0.96748   0.98600
 Alpha virt. eigenvalues --    0.99100   0.99503   1.00430   1.01228   1.02040
 Alpha virt. eigenvalues --    1.02450   1.03281   1.05153   1.05708   1.07986
 Alpha virt. eigenvalues --    1.08439   1.09094   1.10252   1.10755   1.11555
 Alpha virt. eigenvalues --    1.12654   1.13581   1.14036   1.15902   1.16087
 Alpha virt. eigenvalues --    1.17288   1.17999   1.19926   1.20301   1.21886
 Alpha virt. eigenvalues --    1.22818   1.23376   1.25160   1.25853   1.27731
 Alpha virt. eigenvalues --    1.30240   1.31637   1.34024   1.35312   1.37058
 Alpha virt. eigenvalues --    1.39194   1.40894   1.41560   1.41947   1.42032
 Alpha virt. eigenvalues --    1.42365   1.44401   1.46083   1.46897   1.47126
 Alpha virt. eigenvalues --    1.47638   1.47736   1.48478   1.49826   1.50449
 Alpha virt. eigenvalues --    1.50701   1.53879   1.60199   1.62305   1.65506
 Alpha virt. eigenvalues --    1.68084   1.70861   1.72595   1.73505   1.74465
 Alpha virt. eigenvalues --    1.76338   1.77106   1.77486   1.78795   1.79657
 Alpha virt. eigenvalues --    1.80133   1.80589   1.80986   1.81398   1.81613
 Alpha virt. eigenvalues --    1.82103   1.82654   1.83898   1.85647   1.86485
 Alpha virt. eigenvalues --    1.87577   1.87781   1.89458   1.90255   1.90813
 Alpha virt. eigenvalues --    1.92255   1.92683   1.93807   1.94441   1.96088
 Alpha virt. eigenvalues --    1.97069   1.98201   1.98532   2.00917   2.02514
 Alpha virt. eigenvalues --    2.03481   2.04096   2.04286   2.05342   2.07068
 Alpha virt. eigenvalues --    2.08597   2.08830   2.09332   2.11155   2.11691
 Alpha virt. eigenvalues --    2.12408   2.12914   2.13112   2.13630   2.14286
 Alpha virt. eigenvalues --    2.15177   2.15693   2.16923   2.19025   2.21795
 Alpha virt. eigenvalues --    2.22335   2.22884   2.25388   2.26365   2.27270
 Alpha virt. eigenvalues --    2.27879   2.28670   2.29718   2.30310   2.31513
 Alpha virt. eigenvalues --    2.33639   2.35783   2.38489   2.40312   2.41439
 Alpha virt. eigenvalues --    2.44041   2.49224   2.51512   2.55314   2.56167
 Alpha virt. eigenvalues --    2.57316   2.59200   2.61949   2.64117   2.65583
 Alpha virt. eigenvalues --    2.67425   2.68995   2.69898   2.71125   2.71632
 Alpha virt. eigenvalues --    2.72840   2.72935   2.73825   2.74053   2.74586
 Alpha virt. eigenvalues --    2.75970   2.77073   2.78662   2.82819   2.83444
 Alpha virt. eigenvalues --    2.85498   2.94235   3.00966   3.04367   3.35651
 Alpha virt. eigenvalues --    3.40504   3.73991   3.81407   3.95017   3.99393
 Alpha virt. eigenvalues --    3.99728   4.06030   4.07132   4.08469   4.09694
 Alpha virt. eigenvalues --    4.10854   4.12012   4.13564   4.15364   4.20703
 Alpha virt. eigenvalues --    4.24603   4.31424   4.31823   4.33040   4.35681
 Alpha virt. eigenvalues --    4.40149   4.51236   4.63733   4.69619   4.73434
          Condensed to atoms (all electrons):
               1          2          3          4          5          6
     1  O    8.288715   0.383869  -0.052863   0.006657  -0.005090   0.002184
     2  S    0.383869  13.743648   0.093251  -0.001288  -0.004012   0.000337
     3  N   -0.052863   0.093251   7.427200   0.236834  -0.036171   0.001373
     4  C    0.006657  -0.001288   0.236834   4.871899   0.337320  -0.090770
     5  C   -0.005090  -0.004012  -0.036171   0.337320   5.736352   0.130673
     6  S    0.002184   0.000337   0.001373  -0.090770   0.130673  13.870543
     7  C   -0.009355  -0.005619  -0.053961   0.349861  -0.194084   0.132768
     8  O   -0.000086  -0.000149  -0.000077   0.002107  -0.045722   0.443802
     9  O    0.000000   0.000005  -0.000041  -0.000403  -0.045445   0.401679
    10  C    0.000122   0.000685  -0.050448   0.325205  -0.045346   0.005726
    11  C   -0.000003  -0.000179  -0.005344  -0.030278   0.003898  -0.000572
    12  C    0.000000   0.000003   0.000211   0.003786  -0.000091   0.000022
    13  C    0.000000   0.000000  -0.000004   0.000055  -0.000002   0.000000
    14  C    0.000000   0.000000   0.000000   0.000002   0.000000   0.000000
    15  C    0.000000   0.000000   0.000000   0.000000   0.000000   0.000000
    16  C    0.000000   0.000000   0.000000   0.000002   0.000000   0.000000
    17  C    0.000000   0.000000  -0.000003   0.000156  -0.000006  -0.000038
    18  C   -0.059853   0.173083  -0.050837  -0.003775   0.001317   0.000040
    19  C    0.001660  -0.021494  -0.000037   0.000120   0.000338   0.000022
    20  C   -0.000045   0.002113   0.000109  -0.000006   0.000049   0.000000
    21  C   -0.000006  -0.000445   0.000011   0.000001   0.000009   0.000000
    22  C    0.000622   0.003381  -0.000107   0.000005  -0.000104  -0.000004
    23  C    0.002085  -0.037089   0.001397   0.000138  -0.001722  -0.000016
    24  O   -0.041924   0.462640  -0.057897   0.001996  -0.000063   0.000006
    25  H   -0.000135  -0.011352   0.291884  -0.027764   0.004702  -0.000210
    26  H    0.000100   0.000014   0.001181  -0.027105   0.343383  -0.010720
    27  H    0.003969   0.009308  -0.005603  -0.021937   0.322394  -0.002252
    28  H    0.000192   0.000275   0.001655  -0.028075   0.010179  -0.010566
    29  H    0.015284   0.000879  -0.004638  -0.020814   0.002517  -0.001291
    30  H    0.000003  -0.000114  -0.000462  -0.031776  -0.005937  -0.000216
    31  H    0.000002   0.000063   0.004224  -0.030927  -0.006354   0.009642
    32  H    0.000001  -0.000018  -0.000580  -0.003720   0.000088   0.000079
    33  H    0.000004   0.000048   0.002595  -0.007146  -0.000069  -0.000017
    34  H    0.000000   0.000000  -0.000002  -0.000036   0.000000   0.000000
    35  H    0.000000   0.000000   0.000000   0.000000   0.000000   0.000000
    36  H    0.000000   0.000000   0.000000   0.000000   0.000000   0.000000
    37  H    0.000000   0.000000   0.000000   0.000000   0.000000   0.000000
    38  H    0.000000   0.000000   0.000000  -0.000079   0.000003   0.000029
    39  H    0.000054  -0.002762   0.006859   0.000109  -0.000075   0.000001
    40  H    0.000000  -0.000064   0.000000   0.000000   0.000000   0.000000
    41  H    0.000000   0.000008   0.000000   0.000000   0.000000   0.000000
    42  H    0.000003  -0.000073   0.000000   0.000000  -0.000001   0.000000
    43  H    0.012368  -0.007973   0.000256  -0.000007  -0.000139   0.000046
               7          8          9         10         11         12
     1  O   -0.009355  -0.000086   0.000000   0.000122  -0.000003   0.000000
     2  S   -0.005619  -0.000149   0.000005   0.000685  -0.000179   0.000003
     3  N   -0.053961  -0.000077  -0.000041  -0.050448  -0.005344   0.000211
     4  C    0.349861   0.002107  -0.000403   0.325205  -0.030278   0.003786
     5  C   -0.194084  -0.045722  -0.045445  -0.045346   0.003898  -0.000091
     6  S    0.132768   0.443802   0.401679   0.005726  -0.000572   0.000022
     7  C    5.761226  -0.044582  -0.046164  -0.059822  -0.007973   0.000057
     8  O   -0.044582   8.185915  -0.043919  -0.000063   0.000000   0.000000
     9  O   -0.046164  -0.043919   8.260632  -0.005394   0.000052   0.000006
    10  C   -0.059822  -0.000063  -0.005394   5.196416   0.346895  -0.041323
    11  C   -0.007973   0.000000   0.000052   0.346895   5.209642   0.346925
    12  C    0.000057   0.000000   0.000006  -0.041323   0.346925   4.636677
    13  C   -0.000004   0.000000   0.000000  -0.003262  -0.056366   0.552102
    14  C    0.000000   0.000000   0.000000  -0.000080   0.007147  -0.019649
    15  C    0.000000   0.000000   0.000000   0.000012   0.000398  -0.034478
    16  C    0.000000   0.000000   0.000000   0.000037   0.006701  -0.018625
    17  C    0.000001   0.000000  -0.000026  -0.004384  -0.061772   0.546805
    18  C   -0.000267   0.000002   0.000000  -0.000331   0.000003   0.000000
    19  C    0.000008   0.000000   0.000000  -0.000045   0.000000   0.000000
    20  C    0.000000   0.000000   0.000000  -0.000001   0.000000   0.000000
    21  C    0.000000   0.000000   0.000000   0.000000   0.000000   0.000000
    22  C    0.000000   0.000000   0.000000   0.000000   0.000000   0.000000
    23  C    0.000009  -0.000002   0.000000  -0.000002   0.000000   0.000000
    24  O    0.000007   0.000000   0.000000  -0.000078  -0.000014   0.000000
    25  H   -0.000634   0.000002   0.000002  -0.011032   0.007156  -0.000119
    26  H    0.010252   0.000708  -0.000400  -0.005096   0.000162  -0.000012
    27  H    0.002520   0.000714   0.001179   0.003637  -0.000101   0.000001
    28  H    0.339666   0.000612  -0.000216  -0.006393   0.001388  -0.000105
    29  H    0.326403  -0.000014   0.001140   0.003685   0.000024   0.000004
    30  H    0.005797   0.000002   0.000144   0.356683  -0.036965  -0.001134
    31  H   -0.003613   0.000047   0.011911   0.360229  -0.034800  -0.002568
    32  H    0.003399   0.000001   0.000021  -0.043761   0.358074  -0.026622
    33  H    0.000243   0.000000  -0.000002  -0.037977   0.349541  -0.027631
    34  H    0.000000   0.000000   0.000000   0.000190  -0.011105  -0.047116
    35  H    0.000000   0.000000   0.000000   0.000000  -0.000190   0.003775
    36  H    0.000000   0.000000   0.000000   0.000000   0.000007   0.000737
    37  H    0.000000   0.000000   0.000000  -0.000001  -0.000191   0.003631
    38  H   -0.000013   0.000000   0.000055   0.000132  -0.009094  -0.047698
    39  H    0.000009   0.000000   0.000000  -0.000004  -0.000004   0.000000
    40  H    0.000000   0.000000   0.000000   0.000000   0.000000   0.000000
    41  H    0.000000   0.000000   0.000000   0.000000   0.000000   0.000000
    42  H    0.000000   0.000000   0.000000   0.000000   0.000000   0.000000
    43  H    0.000000   0.000006   0.000000   0.000000   0.000000   0.000000
              13         14         15         16         17         18
     1  O    0.000000   0.000000   0.000000   0.000000   0.000000  -0.059853
     2  S    0.000000   0.000000   0.000000   0.000000   0.000000   0.173083
     3  N   -0.000004   0.000000   0.000000   0.000000  -0.000003  -0.050837
     4  C    0.000055   0.000002   0.000000   0.000002   0.000156  -0.003775
     5  C   -0.000002   0.000000   0.000000   0.000000  -0.000006   0.001317
     6  S    0.000000   0.000000   0.000000   0.000000  -0.000038   0.000040
     7  C   -0.000004   0.000000   0.000000   0.000000   0.000001  -0.000267
     8  O    0.000000   0.000000   0.000000   0.000000   0.000000   0.000002
     9  O    0.000000   0.000000   0.000000   0.000000  -0.000026   0.000000
    10  C   -0.003262  -0.000080   0.000012   0.000037  -0.004384  -0.000331
    11  C   -0.056366   0.007147   0.000398   0.006701  -0.061772   0.000003
    12  C    0.552102  -0.019649  -0.034478  -0.018625   0.546805   0.000000
    13  C    4.955621   0.523230  -0.036141  -0.047082  -0.036200   0.000000
    14  C    0.523230   4.866120   0.551478  -0.025487  -0.047870   0.000000
    15  C   -0.036141   0.551478   4.850545   0.549324  -0.035938   0.000000
    16  C   -0.047082  -0.025487   0.549324   4.860414   0.526668   0.000000
    17  C   -0.036200  -0.047870  -0.035938   0.526668   4.955867   0.000000
    18  C    0.000000   0.000000   0.000000   0.000000   0.000000   5.340716
    19  C    0.000000   0.000000   0.000000   0.000000   0.000000   0.469768
    20  C    0.000000   0.000000   0.000000   0.000000   0.000000  -0.024295
    21  C    0.000000   0.000000   0.000000   0.000000   0.000000  -0.039697
    22  C    0.000000   0.000000   0.000000   0.000000   0.000000  -0.031129
    23  C    0.000000   0.000000   0.000000   0.000000   0.000000   0.515741
    24  O    0.000000   0.000000   0.000000   0.000000   0.000000  -0.061810
    25  H   -0.000012   0.000000   0.000000   0.000000   0.000005   0.002700
    26  H    0.000000   0.000000   0.000000   0.000000   0.000000  -0.000044
    27  H    0.000000   0.000000   0.000000   0.000000   0.000000   0.000524
    28  H    0.000001   0.000000   0.000000   0.000000   0.000018   0.000003
    29  H    0.000000   0.000000   0.000000   0.000000   0.000000   0.000060
    30  H    0.002900  -0.000098  -0.000005  -0.000015  -0.000129  -0.000008
    31  H    0.000013  -0.000012  -0.000003  -0.000143   0.004152  -0.000001
    32  H    0.003221  -0.000204   0.000014   0.000070  -0.004214   0.000000
    33  H   -0.004193   0.000091   0.000011  -0.000204   0.004146  -0.000001
    34  H    0.354420  -0.045534   0.004905   0.000332   0.006264   0.000000
    35  H   -0.039589   0.356848  -0.042714   0.004536   0.000858   0.000000
    36  H    0.004694  -0.043026   0.359501  -0.042622   0.004718   0.000000
    37  H    0.000907   0.004492  -0.042689   0.357393  -0.038639   0.000000
    38  H    0.005884   0.000379   0.004769  -0.042960   0.356642   0.000000
    39  H    0.000000   0.000000   0.000000   0.000000   0.000000  -0.049011
    40  H    0.000000   0.000000   0.000000   0.000000   0.000000   0.004851
    41  H    0.000000   0.000000   0.000000   0.000000   0.000000   0.000474
    42  H    0.000000   0.000000   0.000000   0.000000   0.000000   0.004945
    43  H    0.000000   0.000000   0.000000   0.000000   0.000000  -0.041373
              19         20         21         22         23         24
     1  O    0.001660  -0.000045  -0.000006   0.000622   0.002085  -0.041924
     2  S   -0.021494   0.002113  -0.000445   0.003381  -0.037089   0.462640
     3  N   -0.000037   0.000109   0.000011  -0.000107   0.001397  -0.057897
     4  C    0.000120  -0.000006   0.000001   0.000005   0.000138   0.001996
     5  C    0.000338   0.000049   0.000009  -0.000104  -0.001722  -0.000063
     6  S    0.000022   0.000000   0.000000  -0.000004  -0.000016   0.000006
     7  C    0.000008   0.000000   0.000000   0.000000   0.000009   0.000007
     8  O    0.000000   0.000000   0.000000   0.000000  -0.000002   0.000000
     9  O    0.000000   0.000000   0.000000   0.000000   0.000000   0.000000
    10  C   -0.000045  -0.000001   0.000000   0.000000  -0.000002  -0.000078
    11  C    0.000000   0.000000   0.000000   0.000000   0.000000  -0.000014
    12  C    0.000000   0.000000   0.000000   0.000000   0.000000   0.000000
    13  C    0.000000   0.000000   0.000000   0.000000   0.000000   0.000000
    14  C    0.000000   0.000000   0.000000   0.000000   0.000000   0.000000
    15  C    0.000000   0.000000   0.000000   0.000000   0.000000   0.000000
    16  C    0.000000   0.000000   0.000000   0.000000   0.000000   0.000000
    17  C    0.000000   0.000000   0.000000   0.000000   0.000000   0.000000
    18  C    0.469768  -0.024295  -0.039697  -0.031129   0.515741  -0.061810
    19  C    4.913307   0.524312  -0.030097  -0.038305  -0.031285   0.000355
    20  C    0.524312   4.868322   0.540502  -0.028257  -0.040360   0.000083
    21  C   -0.030097   0.540502   4.843094   0.544564  -0.028574  -0.000004
    22  C   -0.038305  -0.028257   0.544564   4.882202   0.501463  -0.000052
    23  C   -0.031285  -0.040360  -0.028574   0.501463   4.931874  -0.001408
    24  O    0.000355   0.000083  -0.000004  -0.000052  -0.001408   8.212756
    25  H   -0.000079   0.000003   0.000000   0.000002  -0.000046   0.008474
    26  H    0.000033   0.000001   0.000002   0.000001  -0.000012   0.000001
    27  H   -0.000454  -0.000140  -0.000013   0.000100   0.003779   0.000019
    28  H    0.000000   0.000000   0.000000   0.000000   0.000000   0.000001
    29  H   -0.000004   0.000000   0.000000   0.000000  -0.000001  -0.000221
    30  H    0.000031   0.000002   0.000000   0.000000   0.000001   0.000000
    31  H    0.000000   0.000000   0.000000   0.000000   0.000000   0.000000
    32  H    0.000000   0.000000   0.000000   0.000000   0.000000   0.000001
    33  H   -0.000003   0.000000   0.000000   0.000000   0.000000  -0.000023
    34  H    0.000000   0.000000   0.000000   0.000000   0.000000   0.000000
    35  H    0.000000   0.000000   0.000000   0.000000   0.000000   0.000000
    36  H    0.000000   0.000000   0.000000   0.000000   0.000000   0.000000
    37  H    0.000000   0.000000   0.000000   0.000000   0.000000   0.000000
    38  H    0.000000   0.000000   0.000000   0.000000   0.000000   0.000000
    39  H    0.362474  -0.037959   0.004381   0.000307   0.004802   0.000600
    40  H   -0.041855   0.363266  -0.041269   0.004440   0.000630   0.000001
    41  H    0.004895  -0.042146   0.362472  -0.041933   0.004881   0.000000
    42  H    0.000717   0.004321  -0.041616   0.364547  -0.041947   0.000000
    43  H    0.005007   0.000268   0.004089  -0.035432   0.360039  -0.000020
              25         26         27         28         29         30
     1  O   -0.000135   0.000100   0.003969   0.000192   0.015284   0.000003
     2  S   -0.011352   0.000014   0.009308   0.000275   0.000879  -0.000114
     3  N    0.291884   0.001181  -0.005603   0.001655  -0.004638  -0.000462
     4  C   -0.027764  -0.027105  -0.021937  -0.028075  -0.020814  -0.031776
     5  C    0.004702   0.343383   0.322394   0.010179   0.002517  -0.005937
     6  S   -0.000210  -0.010720  -0.002252  -0.010566  -0.001291  -0.000216
     7  C   -0.000634   0.010252   0.002520   0.339666   0.326403   0.005797
     8  O    0.000002   0.000708   0.000714   0.000612  -0.000014   0.000002
     9  O    0.000002  -0.000400   0.001179  -0.000216   0.001140   0.000144
    10  C   -0.011032  -0.005096   0.003637  -0.006393   0.003685   0.356683
    11  C    0.007156   0.000162  -0.000101   0.001388   0.000024  -0.036965
    12  C   -0.000119  -0.000012   0.000001  -0.000105   0.000004  -0.001134
    13  C   -0.000012   0.000000   0.000000   0.000001   0.000000   0.002900
    14  C    0.000000   0.000000   0.000000   0.000000   0.000000  -0.000098
    15  C    0.000000   0.000000   0.000000   0.000000   0.000000  -0.000005
    16  C    0.000000   0.000000   0.000000   0.000000   0.000000  -0.000015
    17  C    0.000005   0.000000   0.000000   0.000018   0.000000  -0.000129
    18  C    0.002700  -0.000044   0.000524   0.000003   0.000060  -0.000008
    19  C   -0.000079   0.000033  -0.000454   0.000000  -0.000004   0.000031
    20  C    0.000003   0.000001  -0.000140   0.000000   0.000000   0.000002
    21  C    0.000000   0.000002  -0.000013   0.000000   0.000000   0.000000
    22  C    0.000002   0.000001   0.000100   0.000000   0.000000   0.000000
    23  C   -0.000046  -0.000012   0.003779   0.000000  -0.000001   0.000001
    24  O    0.008474   0.000001   0.000019   0.000001  -0.000221   0.000000
    25  H    0.361036  -0.000047   0.000041   0.000355  -0.000130  -0.000048
    26  H   -0.000047   0.494934  -0.019280  -0.000263  -0.000254   0.004010
    27  H    0.000041  -0.019280   0.479664  -0.000244  -0.000007   0.000021
    28  H    0.000355  -0.000263  -0.000244   0.500553  -0.017543   0.000144
    29  H   -0.000130  -0.000254  -0.000007  -0.017543   0.446963  -0.000113
    30  H   -0.000048   0.004010   0.000021   0.000144  -0.000113   0.573289
    31  H    0.000167  -0.000172   0.000142  -0.000573   0.000111  -0.025898
    32  H    0.000147   0.000011   0.000000   0.006469  -0.000183   0.005645
    33  H    0.008237   0.000001   0.000001  -0.000029  -0.000017  -0.004663
    34  H    0.000021   0.000000   0.000000   0.000000   0.000000   0.000382
    35  H    0.000000   0.000000   0.000000   0.000000   0.000000   0.000002
    36  H    0.000000   0.000000   0.000000   0.000000   0.000000   0.000000
    37  H    0.000000   0.000000   0.000000   0.000000   0.000000   0.000000
    38  H    0.000001   0.000000   0.000000   0.000216   0.000000   0.000040
    39  H   -0.000310   0.000006  -0.000008   0.000000   0.000000   0.000109
    40  H    0.000000   0.000000   0.000001   0.000000   0.000000   0.000000
    41  H    0.000000   0.000000   0.000000   0.000000   0.000000   0.000000
    42  H    0.000000   0.000000   0.000004   0.000000   0.000000   0.000000
    43  H   -0.000004   0.000001   0.000407   0.000000   0.000001   0.000000
              31         32         33         34         35         36
     1  O    0.000002   0.000001   0.000004   0.000000   0.000000   0.000000
     2  S    0.000063  -0.000018   0.000048   0.000000   0.000000   0.000000
     3  N    0.004224  -0.000580   0.002595  -0.000002   0.000000   0.000000
     4  C   -0.030927  -0.003720  -0.007146  -0.000036   0.000000   0.000000
     5  C   -0.006354   0.000088  -0.000069   0.000000   0.000000   0.000000
     6  S    0.009642   0.000079  -0.000017   0.000000   0.000000   0.000000
     7  C   -0.003613   0.003399   0.000243   0.000000   0.000000   0.000000
     8  O    0.000047   0.000001   0.000000   0.000000   0.000000   0.000000
     9  O    0.011911   0.000021  -0.000002   0.000000   0.000000   0.000000
    10  C    0.360229  -0.043761  -0.037977   0.000190   0.000000   0.000000
    11  C   -0.034800   0.358074   0.349541  -0.011105  -0.000190   0.000007
    12  C   -0.002568  -0.026622  -0.027631  -0.047116   0.003775   0.000737
    13  C    0.000013   0.003221  -0.004193   0.354420  -0.039589   0.004694
    14  C   -0.000012  -0.000204   0.000091  -0.045534   0.356848  -0.043026
    15  C   -0.000003   0.000014   0.000011   0.004905  -0.042714   0.359501
    16  C   -0.000143   0.000070  -0.000204   0.000332   0.004536  -0.042622
    17  C    0.004152  -0.004214   0.004146   0.006264   0.000858   0.004718
    18  C   -0.000001   0.000000  -0.000001   0.000000   0.000000   0.000000
    19  C    0.000000   0.000000  -0.000003   0.000000   0.000000   0.000000
    20  C    0.000000   0.000000   0.000000   0.000000   0.000000   0.000000
    21  C    0.000000   0.000000   0.000000   0.000000   0.000000   0.000000
    22  C    0.000000   0.000000   0.000000   0.000000   0.000000   0.000000
    23  C    0.000000   0.000000   0.000000   0.000000   0.000000   0.000000
    24  O    0.000000   0.000001  -0.000023   0.000000   0.000000   0.000000
    25  H    0.000167   0.000147   0.008237   0.000021   0.000000   0.000000
    26  H   -0.000172   0.000011   0.000001   0.000000   0.000000   0.000000
    27  H    0.000142   0.000000   0.000001   0.000000   0.000000   0.000000
    28  H   -0.000573   0.006469  -0.000029   0.000000   0.000000   0.000000
    29  H    0.000111  -0.000183  -0.000017   0.000000   0.000000   0.000000
    30  H   -0.025898   0.005645  -0.004663   0.000382   0.000002   0.000000
    31  H    0.515819  -0.003444   0.004961   0.000028   0.000000   0.000000
    32  H   -0.003444   0.583320  -0.036309   0.000089   0.000003   0.000000
    33  H    0.004961  -0.036309   0.600647   0.006845  -0.000009   0.000000
    34  H    0.000028   0.000089   0.006845   0.614947  -0.005643  -0.000182
    35  H    0.000000   0.000003  -0.000009  -0.005643   0.595691  -0.005540
    36  H    0.000000   0.000000   0.000000  -0.000182  -0.005540   0.594455
    37  H    0.000005  -0.000005   0.000003   0.000018  -0.000188  -0.005441
    38  H    0.001181   0.004047   0.000067  -0.000179   0.000018  -0.000180
    39  H    0.000000   0.000000   0.000005   0.000000   0.000000   0.000000
    40  H    0.000000   0.000000   0.000000   0.000000   0.000000   0.000000
    41  H    0.000000   0.000000   0.000000   0.000000   0.000000   0.000000
    42  H    0.000000   0.000000   0.000000   0.000000   0.000000   0.000000
    43  H    0.000000   0.000000   0.000000   0.000000   0.000000   0.000000
              37         38         39         40         41         42
     1  O    0.000000   0.000000   0.000054   0.000000   0.000000   0.000003
     2  S    0.000000   0.000000  -0.002762  -0.000064   0.000008  -0.000073
     3  N    0.000000   0.000000   0.006859   0.000000   0.000000   0.000000
     4  C    0.000000  -0.000079   0.000109   0.000000   0.000000   0.000000
     5  C    0.000000   0.000003  -0.000075   0.000000   0.000000  -0.000001
     6  S    0.000000   0.000029   0.000001   0.000000   0.000000   0.000000
     7  C    0.000000  -0.000013   0.000009   0.000000   0.000000   0.000000
     8  O    0.000000   0.000000   0.000000   0.000000   0.000000   0.000000
     9  O    0.000000   0.000055   0.000000   0.000000   0.000000   0.000000
    10  C   -0.000001   0.000132  -0.000004   0.000000   0.000000   0.000000
    11  C   -0.000191  -0.009094  -0.000004   0.000000   0.000000   0.000000
    12  C    0.003631  -0.047698   0.000000   0.000000   0.000000   0.000000
    13  C    0.000907   0.005884   0.000000   0.000000   0.000000   0.000000
    14  C    0.004492   0.000379   0.000000   0.000000   0.000000   0.000000
    15  C   -0.042689   0.004769   0.000000   0.000000   0.000000   0.000000
    16  C    0.357393  -0.042960   0.000000   0.000000   0.000000   0.000000
    17  C   -0.038639   0.356642   0.000000   0.000000   0.000000   0.000000
    18  C    0.000000   0.000000  -0.049011   0.004851   0.000474   0.004945
    19  C    0.000000   0.000000   0.362474  -0.041855   0.004895   0.000717
    20  C    0.000000   0.000000  -0.037959   0.363266  -0.042146   0.004321
    21  C    0.000000   0.000000   0.004381  -0.041269   0.362472  -0.041616
    22  C    0.000000   0.000000   0.000307   0.004440  -0.041933   0.364547
    23  C    0.000000   0.000000   0.004802   0.000630   0.004881  -0.041947
    24  O    0.000000   0.000000   0.000600   0.000001   0.000000   0.000000
    25  H    0.000000   0.000001  -0.000310   0.000000   0.000000   0.000000
    26  H    0.000000   0.000000   0.000006   0.000000   0.000000   0.000000
    27  H    0.000000   0.000000  -0.000008   0.000001   0.000000   0.000004
    28  H    0.000000   0.000216   0.000000   0.000000   0.000000   0.000000
    29  H    0.000000   0.000000   0.000000   0.000000   0.000000   0.000000
    30  H    0.000000   0.000040   0.000109   0.000000   0.000000   0.000000
    31  H    0.000005   0.001181   0.000000   0.000000   0.000000   0.000000
    32  H   -0.000005   0.004047   0.000000   0.000000   0.000000   0.000000
    33  H    0.000003   0.000067   0.000005   0.000000   0.000000   0.000000
    34  H    0.000018  -0.000179   0.000000   0.000000   0.000000   0.000000
    35  H   -0.000188   0.000018   0.000000   0.000000   0.000000   0.000000
    36  H   -0.005441  -0.000180   0.000000   0.000000   0.000000   0.000000
    37  H    0.590104  -0.005495   0.000000   0.000000   0.000000   0.000000
    38  H   -0.005495   0.598501   0.000000   0.000000   0.000000   0.000000
    39  H    0.000000   0.000000   0.550749  -0.005449  -0.000153   0.000015
    40  H    0.000000   0.000000  -0.005449   0.571306  -0.005367  -0.000168
    41  H    0.000000   0.000000  -0.000153  -0.005367   0.572673  -0.005385
    42  H    0.000000   0.000000   0.000015  -0.000168  -0.005385   0.565416
    43  H    0.000000   0.000000  -0.000141   0.000013  -0.000140  -0.004835
              43
     1  O    0.012368
     2  S   -0.007973
     3  N    0.000256
     4  C   -0.000007
     5  C   -0.000139
     6  S    0.000046
     7  C    0.000000
     8  O    0.000006
     9  O    0.000000
    10  C    0.000000
    11  C    0.000000
    12  C    0.000000
    13  C    0.000000
    14  C    0.000000
    15  C    0.000000
    16  C    0.000000
    17  C    0.000000
    18  C   -0.041373
    19  C    0.005007
    20  C    0.000268
    21  C    0.004089
    22  C   -0.035432
    23  C    0.360039
    24  O   -0.000020
    25  H   -0.000004
[...]
    38  H    0.005867   0.000333   0.004782  -0.043013   0.358000   0.000000
    39  H    0.000000   0.000000   0.000000   0.000000   0.000000  -0.050525
    40  H    0.000000   0.000000   0.000000   0.000000   0.000000   0.004771
    41  H    0.000000   0.000000   0.000000   0.000000   0.000000   0.000466
    42  H    0.000000   0.000000   0.000000   0.000000   0.000000   0.004937
    43  H    0.000000   0.000000   0.000000   0.000000   0.000000  -0.045100
              19         20         21         22         23         24
     1  O    0.001607  -0.000045  -0.000005   0.000602   0.001932  -0.041455
     2  S   -0.021533   0.002103  -0.000441   0.003400  -0.037097   0.462278
     3  N   -0.000220   0.000109   0.000011  -0.000108   0.001401  -0.057985
     4  C    0.000110  -0.000005   0.000001   0.000005   0.000130   0.001971
     5  C    0.000353   0.000051   0.000009  -0.000105  -0.001773  -0.000064
     6  S    0.000022   0.000000   0.000000  -0.000004  -0.000017   0.000006
     7  C    0.000007   0.000000   0.000000   0.000000   0.000010   0.000008
     8  O    0.000000   0.000000   0.000000   0.000000  -0.000002   0.000000
     9  O    0.000000   0.000000   0.000000   0.000000   0.000000   0.000000
    10  C   -0.000043  -0.000001   0.000000   0.000000  -0.000002  -0.000078
    11  C    0.000000   0.000000   0.000000   0.000000   0.000000  -0.000013
    12  C    0.000000   0.000000   0.000000   0.000000   0.000000   0.000000
    13  C    0.000000   0.000000   0.000000   0.000000   0.000000   0.000000
    14  C    0.000000   0.000000   0.000000   0.000000   0.000000   0.000000
    15  C    0.000000   0.000000   0.000000   0.000000   0.000000   0.000000
    16  C    0.000000   0.000000   0.000000   0.000000   0.000000   0.000000
    17  C    0.000000   0.000000   0.000000   0.000000   0.000000   0.000000
    18  C    0.467182  -0.025607  -0.039707  -0.031040   0.509686  -0.062611
    19  C    4.918232   0.525899  -0.030907  -0.038544  -0.029962   0.000452
    20  C    0.525899   4.867842   0.538273  -0.028788  -0.040073   0.000085
    21  C   -0.030907   0.538273   4.848412   0.542338  -0.029502  -0.000004
    22  C   -0.038544  -0.028788   0.542338   4.881804   0.504562  -0.000049
    23  C   -0.029962  -0.040073  -0.029502   0.504562   4.933947  -0.001414
    24  O    0.000452   0.000085  -0.000004  -0.000049  -0.001414   8.232067
    25  H   -0.000097   0.000003   0.000000   0.000002  -0.000043   0.007822
    26  H    0.000030   0.000001   0.000002   0.000001  -0.000014   0.000001
    27  H   -0.000473  -0.000143  -0.000013   0.000112   0.003981   0.000019
    28  H    0.000000   0.000000   0.000000   0.000000   0.000000   0.000001
    29  H   -0.000004   0.000000   0.000000   0.000000  -0.000002  -0.000219
    30  H    0.000032   0.000002   0.000000   0.000000   0.000001   0.000000
    31  H    0.000000   0.000000   0.000000   0.000000   0.000000   0.000000
    32  H    0.000000   0.000000   0.000000   0.000000   0.000000   0.000001
    33  H   -0.000003   0.000000   0.000000   0.000000   0.000000  -0.000022
    34  H    0.000000   0.000000   0.000000   0.000000   0.000000   0.000000
    35  H    0.000000   0.000000   0.000000   0.000000   0.000000   0.000000
    36  H    0.000000   0.000000   0.000000   0.000000   0.000000   0.000000
    37  H    0.000000   0.000000   0.000000   0.000000   0.000000   0.000000
    38  H    0.000000   0.000000   0.000000   0.000000   0.000000   0.000000
    39  H    0.364166  -0.035182   0.004292   0.000298   0.004544   0.000506
    40  H   -0.040751   0.365487  -0.039854   0.004308   0.000619   0.000001
    41  H    0.004820  -0.040902   0.364482  -0.040913   0.004817   0.000000
    42  H    0.000673   0.004237  -0.040262   0.366351  -0.041556   0.000000
    43  H    0.004921   0.000238   0.004180  -0.034240   0.361322  -0.000020
              25         26         27         28         29         30
     1  O   -0.000158   0.000096   0.003890   0.000185   0.015454   0.000003
     2  S   -0.011051   0.000022   0.009247   0.000261   0.001009  -0.000123
     3  N    0.293121   0.001142  -0.005678   0.001546  -0.004821  -0.000657
     4  C   -0.027047  -0.026612  -0.022203  -0.027540  -0.021154  -0.031018
     5  C    0.004519   0.345901   0.322708   0.009801   0.002713  -0.005774
     6  S   -0.000225  -0.010748  -0.002540  -0.010903  -0.001862  -0.000278
     7  C   -0.000644   0.009843   0.002517   0.342434   0.326388   0.005702
     8  O    0.000002   0.000686   0.000664   0.000596  -0.000002   0.000001
     9  O    0.000002  -0.000500   0.001174  -0.000291   0.001157   0.000136
    10  C   -0.010604  -0.004778   0.003605  -0.006141   0.003687   0.359534
    11  C    0.007236   0.000152  -0.000099   0.001734   0.000011  -0.036263
    12  C   -0.000122  -0.000011   0.000001  -0.000122   0.000004  -0.001130
    13  C   -0.000010   0.000000   0.000000   0.000001   0.000000   0.002812
    14  C    0.000000   0.000000   0.000000   0.000000   0.000000  -0.000095
    15  C    0.000000   0.000000   0.000000   0.000000   0.000000  -0.000005
    16  C    0.000000   0.000000   0.000000   0.000000   0.000000  -0.000014
    17  C    0.000005   0.000000   0.000000   0.000021   0.000000  -0.000086
    18  C    0.002526  -0.000049   0.000572   0.000003   0.000057  -0.000007
    19  C   -0.000097   0.000030  -0.000473   0.000000  -0.000004   0.000032
    20  C    0.000003   0.000001  -0.000143   0.000000   0.000000   0.000002
    21  C    0.000000   0.000002  -0.000013   0.000000   0.000000   0.000000
    22  C    0.000002   0.000001   0.000112   0.000000   0.000000   0.000000
    23  C   -0.000043  -0.000014   0.003981   0.000000  -0.000002   0.000001
    24  O    0.007822   0.000001   0.000019   0.000001  -0.000219   0.000000
    25  H    0.347088  -0.000042   0.000035   0.000330  -0.000114  -0.000064
    26  H   -0.000042   0.473702  -0.017587  -0.000246  -0.000246   0.003811
    27  H    0.000035  -0.017587   0.475713  -0.000235  -0.000019   0.000016
    28  H    0.000330  -0.000246  -0.000235   0.480256  -0.015955   0.000148
    29  H   -0.000114  -0.000246  -0.000019  -0.015955   0.449262  -0.000110
    30  H   -0.000064   0.003811   0.000016   0.000148  -0.000110   0.558277
    31  H    0.000177  -0.000138   0.000136  -0.000529   0.000107  -0.025831
    32  H    0.000112   0.000011   0.000001   0.006245  -0.000169   0.005400
    33  H    0.007971   0.000001   0.000001  -0.000038  -0.000016  -0.004446
    34  H    0.000021   0.000000   0.000000   0.000000   0.000000   0.000365
    35  H    0.000000   0.000000   0.000000   0.000000   0.000000   0.000002
    36  H    0.000000   0.000000   0.000000   0.000000   0.000000   0.000000
    37  H    0.000000   0.000000   0.000000   0.000000   0.000000   0.000000
    38  H    0.000000   0.000000   0.000000   0.000211   0.000000   0.000040
    39  H   -0.000290   0.000005  -0.000008   0.000000   0.000000   0.000102
    40  H    0.000000   0.000000   0.000001   0.000000   0.000000   0.000000
    41  H    0.000000   0.000000   0.000000   0.000000   0.000000   0.000000
    42  H    0.000000   0.000000   0.000004   0.000000   0.000000   0.000000
    43  H   -0.000003   0.000001   0.000426   0.000000   0.000001   0.000000
              31         32         33         34         35         36
     1  O    0.000002   0.000001   0.000004   0.000000   0.000000   0.000000
     2  S    0.000056  -0.000022   0.000040   0.000000   0.000000   0.000000
     3  N    0.004268  -0.000571   0.002642  -0.000002   0.000000   0.000000
     4  C   -0.031489  -0.003835  -0.007132  -0.000036   0.000000   0.000000
     5  C   -0.006492   0.000081  -0.000066   0.000000   0.000000   0.000000
     6  S    0.009373   0.000037  -0.000013   0.000000   0.000000   0.000000
     7  C   -0.003771   0.003342   0.000224   0.000000   0.000000   0.000000
     8  O    0.000042   0.000001   0.000000   0.000000   0.000000   0.000000
     9  O    0.010950   0.000019  -0.000002   0.000000   0.000000   0.000000
    10  C    0.360368  -0.043228  -0.037254   0.000182   0.000000   0.000000
    11  C   -0.035657   0.360538   0.353234  -0.010533  -0.000185   0.000006
    12  C   -0.002565  -0.027125  -0.027719  -0.046110   0.003713   0.000694
    13  C    0.000042   0.003071  -0.003716   0.357241  -0.038740   0.004646
    14  C   -0.000012  -0.000202   0.000106  -0.044299   0.358934  -0.042460
    15  C   -0.000003   0.000014   0.000010   0.004805  -0.042315   0.361383
    16  C   -0.000148   0.000079  -0.000200   0.000307   0.004476  -0.042265
    17  C    0.004274  -0.003863   0.004008   0.006113   0.000823   0.004672
    18  C   -0.000001   0.000000  -0.000001   0.000000   0.000000   0.000000
    19  C    0.000000   0.000000  -0.000003   0.000000   0.000000   0.000000
    20  C    0.000000   0.000000   0.000000   0.000000   0.000000   0.000000
    21  C    0.000000   0.000000   0.000000   0.000000   0.000000   0.000000
    22  C    0.000000   0.000000   0.000000   0.000000   0.000000   0.000000
    23  C    0.000000   0.000000   0.000000   0.000000   0.000000   0.000000
    24  O    0.000000   0.000001  -0.000022   0.000000   0.000000   0.000000
    25  H    0.000177   0.000112   0.007971   0.000021   0.000000   0.000000
    26  H   -0.000138   0.000011   0.000001   0.000000   0.000000   0.000000
    27  H    0.000136   0.000001   0.000001   0.000000   0.000000   0.000000
    28  H   -0.000529   0.006245  -0.000038   0.000000   0.000000   0.000000
    29  H    0.000107  -0.000169  -0.000016   0.000000   0.000000   0.000000
    30  H   -0.025831   0.005400  -0.004446   0.000365   0.000002   0.000000
    31  H    0.525966  -0.003365   0.004926   0.000028   0.000000   0.000000
    32  H   -0.003365   0.570775  -0.034502   0.000089   0.000003   0.000000
    33  H    0.004926  -0.034502   0.582191   0.006507  -0.000009   0.000000
    34  H    0.000028   0.000089   0.006507   0.596338  -0.005399  -0.000174
    35  H    0.000000   0.000003  -0.000009  -0.005399   0.581791  -0.005359
    36  H    0.000000   0.000000   0.000000  -0.000174  -0.005359   0.582598
    37  H    0.000005  -0.000005   0.000003   0.000017  -0.000181  -0.005296
    38  H    0.001221   0.003924   0.000067  -0.000172   0.000017  -0.000175
    39  H    0.000000   0.000000   0.000005   0.000000   0.000000   0.000000
    40  H    0.000000   0.000000   0.000000   0.000000   0.000000   0.000000
    41  H    0.000000   0.000000   0.000000   0.000000   0.000000   0.000000
    42  H    0.000000   0.000000   0.000000   0.000000   0.000000   0.000000
    43  H    0.000000   0.000000   0.000000   0.000000   0.000000   0.000000
              37         38         39         40         41         42
     1  O    0.000000   0.000000   0.000051   0.000000   0.000000   0.000003
     2  S    0.000000   0.000000  -0.002406  -0.000070   0.000007  -0.000078
     3  N    0.000000   0.000000   0.006418   0.000000   0.000000   0.000000
     4  C    0.000000  -0.000079   0.000100   0.000000   0.000000   0.000000
     5  C    0.000000   0.000003  -0.000070   0.000000   0.000000  -0.000001
     6  S    0.000000   0.000026   0.000001   0.000000   0.000000   0.000000
     7  C    0.000000  -0.000011   0.000008   0.000000   0.000000   0.000000
     8  O    0.000000   0.000000   0.000000   0.000000   0.000000   0.000000
     9  O    0.000000   0.000053   0.000000   0.000000   0.000000   0.000000
    10  C   -0.000001   0.000113  -0.000002   0.000000   0.000000   0.000000
    11  C   -0.000187  -0.008856  -0.000004   0.000000   0.000000   0.000000
    12  C    0.003624  -0.047874   0.000000   0.000000   0.000000   0.000000
    13  C    0.000851   0.005867   0.000000   0.000000   0.000000   0.000000
    14  C    0.004463   0.000333   0.000000   0.000000   0.000000   0.000000
    15  C   -0.042250   0.004782   0.000000   0.000000   0.000000   0.000000
    16  C    0.359104  -0.043013   0.000000   0.000000   0.000000   0.000000
    17  C   -0.038556   0.358000   0.000000   0.000000   0.000000   0.000000
    18  C    0.000000   0.000000  -0.050525   0.004771   0.000466   0.004937
    19  C    0.000000   0.000000   0.364166  -0.040751   0.004820   0.000673
    20  C    0.000000   0.000000  -0.035182   0.365487  -0.040902   0.004237
    21  C    0.000000   0.000000   0.004292  -0.039854   0.364482  -0.040262
    22  C    0.000000   0.000000   0.000298   0.004308  -0.040913   0.366351
    23  C    0.000000   0.000000   0.004544   0.000619   0.004817  -0.041556
    24  O    0.000000   0.000000   0.000506   0.000001   0.000000   0.000000
    25  H    0.000000   0.000000  -0.000290   0.000000   0.000000   0.000000
    26  H    0.000000   0.000000   0.000005   0.000000   0.000000   0.000000
    27  H    0.000000   0.000000  -0.000008   0.000001   0.000000   0.000004
    28  H    0.000000   0.000211   0.000000   0.000000   0.000000   0.000000
    29  H    0.000000   0.000000   0.000000   0.000000   0.000000   0.000000
    30  H    0.000000   0.000040   0.000102   0.000000   0.000000   0.000000
    31  H    0.000005   0.001221   0.000000   0.000000   0.000000   0.000000
    32  H   -0.000005   0.003924   0.000000   0.000000   0.000000   0.000000
    33  H    0.000003   0.000067   0.000005   0.000000   0.000000   0.000000
    34  H    0.000017  -0.000172   0.000000   0.000000   0.000000   0.000000
    35  H   -0.000181   0.000017   0.000000   0.000000   0.000000   0.000000
    36  H   -0.005296  -0.000175   0.000000   0.000000   0.000000   0.000000
    37  H    0.580334  -0.005414   0.000000   0.000000   0.000000   0.000000
    38  H   -0.005414   0.593617   0.000000   0.000000   0.000000   0.000000
    39  H    0.000000   0.000000   0.538267  -0.005270  -0.000146   0.000014
    40  H    0.000000   0.000000  -0.005270   0.550986  -0.005113  -0.000159
    41  H    0.000000   0.000000  -0.000146  -0.005113   0.553465  -0.005166
    42  H    0.000000   0.000000   0.000014  -0.000159  -0.005166   0.550004
    43  H    0.000000   0.000000  -0.000139   0.000013  -0.000137  -0.004903
              43
     1  O    0.012109
     2  S   -0.007822
     3  N    0.000246
     4  C   -0.000007
     5  C   -0.000145
     6  S    0.000046
     7  C    0.000000
     8  O    0.000006
     9  O    0.000000
    10  C    0.000000
    11  C    0.000000
    12  C    0.000000
    13  C    0.000000
    14  C    0.000000
    15  C    0.000000
    16  C    0.000000
    17  C    0.000000
    18  C   -0.045100
    19  C    0.004921
    20  C    0.000238
    21  C    0.004180
    22  C   -0.034240
    23  C    0.361322
    24  O   -0.000020
    25  H   -0.000003
    26  H    0.000001
    27  H    0.000426
    28  H    0.000000
    29  H    0.000001
    30  H    0.000000
    31  H    0.000000
    32  H    0.000000
    33  H    0.000000
    34  H    0.000000
    35  H    0.000000
    36  H    0.000000
    37  H    0.000000
    38  H    0.000000
    39  H   -0.000139
    40  H    0.000013
    41  H   -0.000137
    42  H   -0.004903
    43  H    0.520326
 Mulliken charges:
               1
     1  O   -0.562386
     2  S    1.214916
     3  N   -0.747923
     4  C    0.188157
     5  C   -0.502592
     6  S    1.109324
     7  C   -0.501437
     8  O   -0.524577
     9  O   -0.550990
    10  C   -0.286137
    11  C   -0.388187
    12  C    0.168872
    13  C   -0.187644
    14  C   -0.138478
    15  C   -0.139507
    16  C   -0.138981
    17  C   -0.184589
    18  C   -0.155370
    19  C   -0.125971
    20  C   -0.133584
    21  C   -0.121305
    22  C   -0.129990
    23  C   -0.145493
    24  O   -0.541284
    25  H    0.379543
    26  H    0.225565
    27  H    0.224174
    28  H    0.218227
    29  H    0.244844
    30  H    0.169520
    31  H    0.188060
    32  H    0.163144
    33  H    0.153197
    34  H    0.134711
    35  H    0.142429
    36  H    0.141730
    37  H    0.143490
    38  H    0.137320
    39  H    0.175263
    40  H    0.165033
    41  H    0.164321
    42  H    0.165902
    43  H    0.188682
 Sum of Mulliken charges =   0.00000
 Mulliken charges with hydrogens summed into heavy atoms:
               1
     1  O   -0.562386
     2  S    1.214916
     3  N   -0.368380
     4  C    0.188157
     5  C   -0.052853
     6  S    1.109324
     7  C   -0.038366
     8  O   -0.524577
     9  O   -0.550990
    10  C    0.071443
    11  C   -0.071846
    12  C    0.168872
    13  C   -0.052932
    14  C    0.003951
    15  C    0.002223
    16  C    0.004510
    17  C   -0.047269
    18  C   -0.155370
    19  C    0.049291
    20  C    0.031450
    21  C    0.043015
    22  C    0.035912
    23  C    0.043189
    24  O   -0.541284
 Electronic spatial extent (au):  <R**2>=          10909.9812
 Charge=              0.0000 electrons
 Dipole moment (field-independent basis, Debye):
    X=             -0.6695    Y=             -6.9886    Z=             -2.7520  Tot=              7.5407
 Quadrupole moment (field-independent basis, Debye-Ang):
   XX=           -137.0426   YY=           -170.0964   ZZ=           -159.1481
   XY=             -5.5998   XZ=            -20.4001   YZ=             15.4296
 Traceless Quadrupole moment (field-independent basis, Debye-Ang):
   XX=             18.3864   YY=            -14.6674   ZZ=             -3.7190
   XY=             -5.5998   XZ=            -20.4001   YZ=             15.4296
 Octapole moment (field-independent basis, Debye-Ang**2):
  XXX=             50.3416  YYY=           -119.2333  ZZZ=            -18.1126  XYY=            -12.1530
  XXY=            -25.3469  XXZ=            -91.1859  XZZ=             10.4768  YZZ=              8.8289
  YYZ=              9.6204  XYZ=             10.5505
 Hexadecapole moment (field-independent basis, Debye-Ang**3):
 XXXX=          -9083.2110 YYYY=          -3510.8316 ZZZZ=          -1275.2391 XXXY=            -22.0868
 XXXZ=            -80.7577 YYYX=            -49.8207 YYYZ=            162.2178 ZZZX=            -91.8006
 ZZZY=             32.1712 XXYY=          -2144.6726 XXZZ=          -1921.7430 YYZZ=           -746.5094
 XXYZ=            163.1886 YYXZ=            -80.6551 ZZXY=            -30.9078
 N-N= 2.440567511407D+03 E-N=-9.131041340426D+03  KE= 1.798692632855D+03
 No NMR shielding tensors so no spin-rotation constants.
 Leave Link  601 at Sat Aug  8 00:35:15 2020, MaxMem=    33554432 cpu:         0.4
 (Enter /prod/apps/gaussian/g09d1/l9999.exe)
 1\1\GINC-PIRINEUS12\SP\RB3LYP\6-31G(d)\C17H19N1O4S2\UBAFAR01\08-Aug-20
 20\0\\#p b3lyp/6-31G(d) scrf=(iefpcm,read,solvent=n-Octanol) geom=allc
 heck guess=read\\SM39.n.13.pdb.xyz\\0,1\O,0,0.446,2.25,0.765\S,0,1.781
 ,1.737,1.116\N,0,2.66,1.352,-0.27\C,0,2.384,1.9,-1.602\C,0,2.31,3.463,
 -1.648\S,0,0.918,3.342,-2.83\C,0,0.953,1.633,-2.2\O,0,-0.269,4.118,-2.
 447\O,0,1.403,3.402,-4.221\C,0,3.489,1.408,-2.557\C,0,3.567,-0.117,-2.
 745\C,0,4.607,-0.507,-3.772\C,0,5.894,-0.889,-3.374\C,0,6.866,-1.22,-4
 .319\C,0,6.562,-1.174,-5.68\C,0,5.282,-0.796,-6.089\C,0,4.314,-0.466,-
 5.141\C,0,2.694,3.093,1.84\C,0,4.067,2.963,2.063\C,0,4.744,4.005,2.691
 \C,0,4.052,5.152,3.093\C,0,2.679,5.263,2.87\C,0,1.988,4.227,2.241\O,0,
 1.914,0.549,1.967\H,0,2.815,0.346,-0.264\H,0,3.191,3.975,-2.033\H,0,1.
 953,3.927,-0.728\H,0,0.874,0.868,-2.971\H,0,0.191,1.52,-1.43\H,0,4.45,
 1.783,-2.189\H,0,3.306,1.88,-3.527\H,0,2.585,-0.499,-3.049\H,0,3.817,-
 0.603,-1.795\H,0,6.131,-0.931,-2.315\H,0,7.857,-1.517,-3.991\H,0,7.316
 ,-1.434,-6.416\H,0,5.035,-0.763,-7.145\H,0,3.318,-0.178,-5.467\H,0,4.5
 93,2.073,1.74\H,0,5.811,3.924,2.865\H,0,4.587,5.959,3.58\H,0,2.144,6.1
 53,3.183\H,0,0.923,4.289,2.054\\Version=AM64L-G09RevD.01\State=1-A\HF=
 -1811.1548991\RMSD=5.298e-09\Dipole=2.8170155,-0.1608088,0.9166224\Qua
 drupole=-3.9125337,5.3423535,-1.4298198,6.7924501,2.6091282,21.4426466
 \PG=C01 [X(C17H19N1O4S2)]\\@


 CONFIDENCE IS WHAT YOU FEEL BEFORE YOU FULLY
 COMPREHEND THE SITUATION.
 Job cpu time:       0 days  0 hours  6 minutes  6.6 seconds.
 File lengths (MBytes):  RWF=    482 Int=      0 D2E=      0 Chk=      9 Scr=      1
 Normal termination of Gaussian 09 at Sat Aug  8 00:35:15 2020.
