 Entering Gaussian System, Link 0=g09
 Initial command:
 /prod/apps/gaussian/g09d1/l1.exe "/tmp/ubafar01/1449028/Gau-152086.inp" -scrdir="/tmp/ubafar01/1449028/"
 Entering Link 1 = /prod/apps/gaussian/g09d1/l1.exe PID=    152088.
  
 Copyright (c) 1988,1990,1992,1993,1995,1998,2003,2009,2013,
            Gaussian, Inc.  All Rights Reserved.
  
 This is part of the Gaussian(R) 09 program.  It is based on
 the Gaussian(R) 03 system (copyright 2003, Gaussian, Inc.),
 the Gaussian(R) 98 system (copyright 1998, Gaussian, Inc.),
 the Gaussian(R) 94 system (copyright 1995, Gaussian, Inc.),
 the Gaussian 92(TM) system (copyright 1992, Gaussian, Inc.),
 the Gaussian 90(TM) system (copyright 1990, Gaussian, Inc.),
 the Gaussian 88(TM) system (copyright 1988, Gaussian, Inc.),
 the Gaussian 86(TM) system (copyright 1986, Carnegie Mellon
 University), and the Gaussian 82(TM) system (copyright 1983,
 Carnegie Mellon University). Gaussian is a federally registered
 trademark of Gaussian, Inc.
  
 This software contains proprietary and confidential information,
 including trade secrets, belonging to Gaussian, Inc.
  
 This software is provided under written license and may be
 used, copied, transmitted, or stored only in accord with that
 written license.
  
 The following legend is applicable only to US Government
 contracts under FAR:
  
                    RESTRICTED RIGHTS LEGEND
  
 Use, reproduction and disclosure by the US Government is
 subject to restrictions as set forth in subparagraphs (a)
 and (c) of the Commercial Computer Software - Restricted
 Rights clause in FAR 52.227-19.
  
 Gaussian, Inc.
 340 Quinnipiac St., Bldg. 40, Wallingford CT 06492
  
  
 ---------------------------------------------------------------
 Warning -- This program may not be used in any manner that
 competes with the business of Gaussian, Inc. or will provide
 assistance to any competitor of Gaussian, Inc.  The licensee
 of this program is prohibited from giving any competitor of
 Gaussian, Inc. access to this program.  By using this program,
 the user acknowledges that Gaussian, Inc. is engaged in the
 business of creating and licensing software in the field of
 computational chemistry and represents and warrants to the
 licensee that it is not a competitor of Gaussian, Inc. and that
 it will not use this program in any manner prohibited above.
 ---------------------------------------------------------------
  

 Cite this work as:
 Gaussian 09, Revision D.01,
 M. J. Frisch, G. W. Trucks, H. B. Schlegel, G. E. Scuseria, 
 M. A. Robb, J. R. Cheeseman, G. Scalmani, V. Barone, B. Mennucci, 
 G. A. Petersson, H. Nakatsuji, M. Caricato, X. Li, H. P. Hratchian, 
 A. F. Izmaylov, J. Bloino, G. Zheng, J. L. Sonnenberg, M. Hada, 
 M. Ehara, K. Toyota, R. Fukuda, J. Hasegawa, M. Ishida, T. Nakajima, 
 Y. Honda, O. Kitao, H. Nakai, T. Vreven, J. A. Montgomery, Jr., 
 J. E. Peralta, F. Ogliaro, M. Bearpark, J. J. Heyd, E. Brothers, 
 K. N. Kudin, V. N. Staroverov, T. Keith, R. Kobayashi, J. Normand, 
 K. Raghavachari, A. Rendell, J. C. Burant, S. S. Iyengar, J. Tomasi, 
 M. Cossi, N. Rega, J. M. Millam, M. Klene, J. E. Knox, J. B. Cross, 
 V. Bakken, C. Adamo, J. Jaramillo, R. Gomperts, R. E. Stratmann, 
 O. Yazyev, A. J. Austin, R. Cammi, C. Pomelli, J. W. Ochterski, 
 R. L. Martin, K. Morokuma, V. G. Zakrzewski, G. A. Voth, 
 P. Salvador, J. J. Dannenberg, S. Dapprich, A. D. Daniels, 
 O. Farkas, J. B. Foresman, J. V. Ortiz, J. Cioslowski, 
 and D. J. Fox, Gaussian, Inc., Wallingford CT, 2013.
 
 ******************************************
 Gaussian 09:  AM64L-G09RevD.01 24-Apr-2013
                 8-Aug-2020 
 ******************************************
 %nproc=1
 Will use up to    1 processors via shared memory.
 %Chk=SM39.n.14.pdb.xyz.mst.n.o.chk
 -----------------
 #p b3lyp/6-31G(d)
 -----------------
 1/38=1/1;
 2/12=2,17=6,18=5,40=1/2;
 3/5=1,6=6,7=1,11=2,16=1,25=1,30=1,74=-5/1,2,3;
 4//1;
 5/5=2,38=5/2;
 6/7=2,8=2,9=2,10=2,28=1/1;
 99/5=1,9=1/99;
 Leave Link    1 at Sat Aug  8 00:20:57 2020, MaxMem=           0 cpu:         0.0
 (Enter /prod/apps/gaussian/g09d1/l101.exe)
 -----------------
 SM39.n.14.pdb.xyz
 -----------------
 Symbolic Z-matrix:
 Charge =  0 Multiplicity = 1
 O                     0.197     2.331     0.404 
 S                     1.537     1.892     0.826 
 N                     2.491     1.518    -0.513 
 C                     2.233     2.       -1.874 
 C                     2.054     3.551    -1.989 
 S                     0.721     3.284    -3.214 
 C                     0.848     1.607    -2.51 
 O                    -0.532     3.99     -2.909 
 O                     1.257     3.326    -4.588 
 C                     3.385     1.499    -2.766 
 C                     4.781     1.986    -2.346 
 C                     5.865     1.455    -3.256 
 C                     6.192     2.117    -4.447 
 C                     7.171     1.61     -5.301 
 C                     7.842     0.429    -4.977 
 C                     7.527    -0.239    -3.792 
 C                     6.546     0.273    -2.941 
 C                     2.351     3.306     1.557 
 C                     3.706     3.228     1.889 
 C                     4.306     4.318     2.514 
 C                     3.555     5.461     2.806 
 C                     2.201     5.521     2.475 
 C                     1.588     4.436     1.848 
 O                     1.691     0.734     1.714 
 H                     2.714     0.525    -0.47 
 H                     2.908     4.111    -2.365 
 H                     1.632     4.025    -1.104 
 H                     0.857     0.806    -3.249 
 H                     0.067     1.475    -1.764 
 H                     3.167     1.82     -3.79 
 H                     3.363     0.402    -2.773 
 H                     4.971     1.675    -1.315 
 H                     4.797     3.081    -2.352 
 H                     5.678     3.038    -4.704 
 H                     7.413     2.139    -6.217 
 H                     8.606     0.036    -5.639 
 H                     8.046    -1.154    -3.528 
 H                     6.309    -0.247    -2.018 
 H                     4.278     2.339     1.656 
 H                     5.358     4.277     2.774 
 H                     4.03      6.306     3.292 
 H                     1.621     6.408     2.704 
 H                     0.538     4.456     1.581 
 
 NAtoms=     43 NQM=       43 NQMF=       0 NMMI=      0 NMMIF=      0
                NMic=       0 NMicF=      0.
                    Isotopes and Nuclear Properties:
 (Nuclear quadrupole moments (NQMom) in fm**2, nuclear magnetic moments (NMagM)
  in nuclear magnetons)

  Atom         1           2           3           4           5           6           7           8           9          10
 IAtWgt=          16          32          14          12          12          32          12          16          16          12
 AtmWgt=  15.9949146  31.9720718  14.0030740  12.0000000  12.0000000  31.9720718  12.0000000  15.9949146  15.9949146  12.0000000
 NucSpn=           0           0           2           0           0           0           0           0           0           0
 AtZEff=   0.0000000   0.0000000   0.0000000   0.0000000   0.0000000   0.0000000   0.0000000   0.0000000   0.0000000   0.0000000
 NQMom=    0.0000000   0.0000000   2.0440000   0.0000000   0.0000000   0.0000000   0.0000000   0.0000000   0.0000000   0.0000000
 NMagM=    0.0000000   0.0000000   0.4037610   0.0000000   0.0000000   0.0000000   0.0000000   0.0000000   0.0000000   0.0000000
 AtZNuc=   8.0000000  16.0000000   7.0000000   6.0000000   6.0000000  16.0000000   6.0000000   8.0000000   8.0000000   6.0000000

  Atom        11          12          13          14          15          16          17          18          19          20
 IAtWgt=          12          12          12          12          12          12          12          12          12          12
 AtmWgt=  12.0000000  12.0000000  12.0000000  12.0000000  12.0000000  12.0000000  12.0000000  12.0000000  12.0000000  12.0000000
 NucSpn=           0           0           0           0           0           0           0           0           0           0
 AtZEff=   0.0000000   0.0000000   0.0000000   0.0000000   0.0000000   0.0000000   0.0000000   0.0000000   0.0000000   0.0000000
 NQMom=    0.0000000   0.0000000   0.0000000   0.0000000   0.0000000   0.0000000   0.0000000   0.0000000   0.0000000   0.0000000
 NMagM=    0.0000000   0.0000000   0.0000000   0.0000000   0.0000000   0.0000000   0.0000000   0.0000000   0.0000000   0.0000000
 AtZNuc=   6.0000000   6.0000000   6.0000000   6.0000000   6.0000000   6.0000000   6.0000000   6.0000000   6.0000000   6.0000000

  Atom        21          22          23          24          25          26          27          28          29          30
 IAtWgt=          12          12          12          16           1           1           1           1           1           1
 AtmWgt=  12.0000000  12.0000000  12.0000000  15.9949146   1.0078250   1.0078250   1.0078250   1.0078250   1.0078250   1.0078250
 NucSpn=           0           0           0           0           1           1           1           1           1           1
 AtZEff=   0.0000000   0.0000000   0.0000000   0.0000000   0.0000000   0.0000000   0.0000000   0.0000000   0.0000000   0.0000000
 NQMom=    0.0000000   0.0000000   0.0000000   0.0000000   0.0000000   0.0000000   0.0000000   0.0000000   0.0000000   0.0000000
 NMagM=    0.0000000   0.0000000   0.0000000   0.0000000   2.7928460   2.7928460   2.7928460   2.7928460   2.7928460   2.7928460
 AtZNuc=   6.0000000   6.0000000   6.0000000   8.0000000   1.0000000   1.0000000   1.0000000   1.0000000   1.0000000   1.0000000

  Atom        31          32          33          34          35          36          37          38          39          40
 IAtWgt=           1           1           1           1           1           1           1           1           1           1
 AtmWgt=   1.0078250   1.0078250   1.0078250   1.0078250   1.0078250   1.0078250   1.0078250   1.0078250   1.0078250   1.0078250
 NucSpn=           1           1           1           1           1           1           1           1           1           1
 AtZEff=   0.0000000   0.0000000   0.0000000   0.0000000   0.0000000   0.0000000   0.0000000   0.0000000   0.0000000   0.0000000
 NQMom=    0.0000000   0.0000000   0.0000000   0.0000000   0.0000000   0.0000000   0.0000000   0.0000000   0.0000000   0.0000000
 NMagM=    2.7928460   2.7928460   2.7928460   2.7928460   2.7928460   2.7928460   2.7928460   2.7928460   2.7928460   2.7928460
 AtZNuc=   1.0000000   1.0000000   1.0000000   1.0000000   1.0000000   1.0000000   1.0000000   1.0000000   1.0000000   1.0000000

  Atom        41          42          43
 IAtWgt=           1           1           1
 AtmWgt=   1.0078250   1.0078250   1.0078250
 NucSpn=           1           1           1
 AtZEff=   0.0000000   0.0000000   0.0000000
 NQMom=    0.0000000   0.0000000   0.0000000
 NMagM=    2.7928460   2.7928460   2.7928460
 AtZNuc=   1.0000000   1.0000000   1.0000000
 Leave Link  101 at Sat Aug  8 00:20:57 2020, MaxMem=    33554432 cpu:         0.1
 (Enter /prod/apps/gaussian/g09d1/l202.exe)
                          Input orientation:                          
 ---------------------------------------------------------------------
 Center     Atomic      Atomic             Coordinates (Angstroms)
 Number     Number       Type             X           Y           Z
 ---------------------------------------------------------------------
      1          8           0        0.197000    2.331000    0.404000
      2         16           0        1.537000    1.892000    0.826000
      3          7           0        2.491000    1.518000   -0.513000
      4          6           0        2.233000    2.000000   -1.874000
      5          6           0        2.054000    3.551000   -1.989000
      6         16           0        0.721000    3.284000   -3.214000
      7          6           0        0.848000    1.607000   -2.510000
      8          8           0       -0.532000    3.990000   -2.909000
      9          8           0        1.257000    3.326000   -4.588000
     10          6           0        3.385000    1.499000   -2.766000
     11          6           0        4.781000    1.986000   -2.346000
     12          6           0        5.865000    1.455000   -3.256000
     13          6           0        6.192000    2.117000   -4.447000
     14          6           0        7.171000    1.610000   -5.301000
     15          6           0        7.842000    0.429000   -4.977000
     16          6           0        7.527000   -0.239000   -3.792000
     17          6           0        6.546000    0.273000   -2.941000
     18          6           0        2.351000    3.306000    1.557000
     19          6           0        3.706000    3.228000    1.889000
     20          6           0        4.306000    4.318000    2.514000
     21          6           0        3.555000    5.461000    2.806000
     22          6           0        2.201000    5.521000    2.475000
     23          6           0        1.588000    4.436000    1.848000
     24          8           0        1.691000    0.734000    1.714000
     25          1           0        2.714000    0.525000   -0.470000
     26          1           0        2.908000    4.111000   -2.365000
     27          1           0        1.632000    4.025000   -1.104000
     28          1           0        0.857000    0.806000   -3.249000
     29          1           0        0.067000    1.475000   -1.764000
     30          1           0        3.167000    1.820000   -3.790000
     31          1           0        3.363000    0.402000   -2.773000
     32          1           0        4.971000    1.675000   -1.315000
     33          1           0        4.797000    3.081000   -2.352000
     34          1           0        5.678000    3.038000   -4.704000
     35          1           0        7.413000    2.139000   -6.217000
     36          1           0        8.606000    0.036000   -5.639000
     37          1           0        8.046000   -1.154000   -3.528000
     38          1           0        6.309000   -0.247000   -2.018000
     39          1           0        4.278000    2.339000    1.656000
     40          1           0        5.358000    4.277000    2.774000
     41          1           0        4.030000    6.306000    3.292000
     42          1           0        1.621000    6.408000    2.704000
     43          1           0        0.538000    4.456000    1.581000
 ---------------------------------------------------------------------
                    Distance matrix (angstroms):
                    1          2          3          4          5
     1  O    0.000000
     2  S    1.471871   0.000000
     3  N    2.600826   1.686094   0.000000
     4  C    3.073132   2.790355   1.466700   0.000000
     5  C    3.265471   3.308141   2.550026   1.565525   0.000000
     6  S    3.777924   4.350301   3.680633   2.393825   1.829973
     7  C    3.072356   3.418310   2.587543   1.573903   2.346276
     8  O    3.776201   4.757372   4.581499   3.560414   2.779661
     9  O    5.199393   5.607687   4.625716   3.174374   2.727753
    10  C    4.572140   4.058573   2.423965   1.540704   2.566319
    11  C    5.356732   4.538056   2.970356   2.591387   3.164365
    12  C    6.803617   5.965340   4.348781   3.924076   4.530146
    13  C    7.714792   7.037342   5.434387   4.723103   5.022068
    14  C    9.039001   8.328362   6.695955   6.023311   6.396914
    15  C    9.540377   8.692997   7.053114   6.599813   7.223294
    16  C    8.828376   7.857938   6.261005   6.059561   6.897002
    17  C    7.465533   6.473139   4.887559   4.766863   5.641777
    18  C    2.630542   1.787835   2.738876   3.673053   3.566840
    19  C    3.914450   2.760331   3.189033   4.223492   4.227566
    20  C    5.028335   4.049961   4.505214   5.378196   5.092819
    21  C    5.180991   4.553074   5.262614   5.968970   5.375233
    22  C    4.298972   4.041007   5.003624   5.595736   4.881578
    23  C    2.907068   2.742083   3.860629   4.494820   3.965218
    24  O    2.549224   1.467387   2.492827   3.843210   4.666848
    25  H    3.218820   2.221179   1.018640   2.092415   3.449585
    26  H    4.264420   4.121418   3.213634   2.270028   1.088252
    27  H    2.683827   2.878127   2.715182   2.248272   1.089029
    28  H    4.013183   4.271700   3.265363   2.282463   3.248913
    29  H    2.334494   3.007140   2.728118   2.231430   2.882459
    30  H    5.164461   4.895870   3.359600   2.139115   2.734727
    31  H    4.882410   4.301997   2.667103   2.153765   3.499191
    32  H    5.116285   4.052570   2.611178   2.813317   3.533064
    33  H    5.414613   4.705423   3.338042   2.823321   2.806549
    34  H    7.525482   7.003006   5.480132   4.577594   4.557167
    35  H    9.795160   9.175633   7.559586   6.761166   6.970553
    36  H   10.606420   9.757649   8.115752   7.658175   8.282900
    37  H    9.445245   8.402530   6.862058   6.817214   7.772362
    38  H    7.061778   5.952784   4.467368   4.656557   5.703566
    39  H    4.268739   2.898584   2.927793   4.093635   4.438597
    40  H    6.003311   4.907440   5.161021   6.046012   5.842060
    41  H    6.231618   5.637340   6.306464   6.961207   6.275632
    42  H    4.892822   4.891646   5.917608   6.384598   5.511278
    43  H    2.453005   2.853440   4.102547   4.565302   3.982735
                    6          7          8          9         10
     6  S    0.000000
     7  C    1.823204   0.000000
     8  O    1.470194   2.782497   0.000000
     9  O    1.475444   2.727696   2.541743   0.000000
    10  C    3.237874   2.552169   4.644181   3.344547   0.000000
    11  C    4.349923   3.954621   5.706221   4.386427   1.537005
    12  C    5.459647   5.074437   6.889720   5.148643   2.528327
    13  C    5.728352   5.707049   7.147430   5.082892   3.329705
    14  C    6.982861   6.911586   8.409654   6.199066   4.557668
    15  C    7.871965   7.509315   9.331732   7.204593   5.089034
    16  C    7.685522   7.047005   9.143938   7.256428   4.607546
    17  C    6.562871   5.867923   7.994698   6.325104   3.394941
    18  C    5.041808   4.656834   5.359543   6.241655   4.798201
    19  C    5.912188   5.490629   6.446867   6.925224   4.976094
    20  C    6.836034   6.674418   7.274803   7.792231   6.055857
    21  C    7.000806   7.102184   7.178345   8.031828   6.839117
    22  C    6.289618   6.480758   6.229021   7.456214   6.711663
    23  C    5.263329   5.248143   5.227080   6.539400   5.757098
    24  O    5.632813   4.394878   6.075804   6.828032   4.850285
    25  H    4.371918   2.968885   5.337739   5.189063   2.582738
    26  H    2.487509   3.245711   3.484850   2.878151   2.685307
    27  H    2.414767   2.904861   2.818181   3.573161   3.495129
    28  H    2.481976   1.089864   3.490384   2.881548   2.665393
    29  H    2.408879   1.088072   2.827552   3.580122   3.466079
    30  H    2.908262   2.657354   4.378089   2.559871   1.095053
    31  H    3.934535   2.801146   5.297477   4.034754   1.097243
    32  H    4.925199   4.293225   6.179245   5.218441   2.156797
    33  H    4.171094   4.218085   5.434590   4.194201   2.160524
    34  H    5.181936   5.494570   6.533944   4.431889   3.373754
    35  H    7.423739   7.558049   8.802959   6.477573   5.342638
    36  H    8.865853   8.511477  10.324246   8.120129   6.136232
    37  H    8.570301   7.776288  10.021276   8.202714   5.417008
    38  H    6.717449   5.788083   8.096007   6.700294   3.486803
    39  H    6.104275   5.445758   6.833822   7.006293   4.588805
    40  H    7.638322   7.442423   8.189686   8.480663   6.503969
    41  H    7.900000   8.115968   8.039160   8.869291   7.760325
    42  H    6.752192   7.129721   6.479807   7.924928   7.558497
    43  H    4.939544   4.994916   4.639198   6.312719   5.978768
                   11         12         13         14         15
    11  C    0.000000
    12  C    1.511660   0.000000
    13  C    2.534222   1.401304   0.000000
    14  C    3.819097   2.431396   1.394563   0.000000
    15  C    4.326214   2.814791   2.419245   1.396416   0.000000
    16  C    3.818646   2.432936   2.786034   2.413010   1.396307
    17  C    2.530537   1.400039   2.407008   2.783486   2.418522
    18  C    4.783378   6.240142   7.225996   8.552250   9.006740
    19  C    4.542402   5.854557   6.896333   8.143725   8.490162
    20  C    5.411418   6.627228   7.540353   8.753040   9.151104
    21  C    6.334178   7.624433   8.410833   9.676213  10.211488
    22  C    6.511119   7.924747   8.685009  10.023123  10.643385
    23  C    5.812692   7.295883   8.136437   9.500756  10.087080
    24  O    5.253494   6.530162   7.754329   8.944719   9.093806
    25  H    3.150617   4.307609   5.517923   6.661879   6.827785
    26  H    2.832687   4.073336   4.369830   5.748762   6.687602
    27  H    3.951745   5.399472   5.967387   7.357143   8.154474
    28  H    4.195901   5.049883   5.622824   6.687579   7.205438
    29  H    4.777200   5.986925   6.717610   7.936965   8.477506
    30  H    2.172024   2.774452   3.109740   4.284768   5.019908
    31  H    2.168435   2.757191   3.707660   4.727675   4.991972
    32  H    1.093518   2.148282   3.390520   4.553287   4.817198
    33  H    1.095133   2.145161   2.695245   4.061566   4.816197
    34  H    2.733400   2.153500   1.085581   2.150498   3.400633
    35  H    4.683532   3.410525   2.150401   1.085109   2.155398
    36  H    5.410820   3.899401   3.402767   2.156605   1.084615
    37  H    4.681554   3.411396   3.870571   3.398360   2.155715
    38  H    2.725556   2.150950   3.391493   3.869054   3.400404
    39  H    4.048904   5.237153   6.399944   7.569725   7.768326
    40  H    5.638795   6.676948   7.583139   8.695141   9.003075
    41  H    7.142370   8.353187   9.061682  10.283868  10.837289
    42  H    7.419042   8.835460   9.510180  10.858330  11.551928
    43  H    6.286913   7.796121   8.589262   9.972880  10.610019
                   16         17         18         19         20
    16  C    0.000000
    17  C    1.395961   0.000000
    18  C    8.244380   6.857778   0.000000
    19  C    7.674236   6.334550   1.397259   0.000000
    20  C    8.420613   7.150989   2.400420   1.392381   0.000000
    21  C    9.581252   8.299966   2.766522   2.418673   1.398468
    22  C   10.040875   8.703654   2.402384   2.804687   2.424821
    23  C    9.430639   8.052754   1.394184   2.438620   2.800893
    24  O    8.082182   6.741852   2.659969   3.211057   4.508135
    25  H    5.897826   4.566571   3.460413   3.722251   5.081886
    26  H    6.503383   5.319498   4.042321   4.417353   5.079556
    27  H    7.756163   6.449765   2.848656   3.727564   4.508442
    28  H    6.773166   5.722209   5.619579   6.354678   7.579044
    29  H    7.918471   6.693846   4.426992   5.446076   6.659809
    30  H    4.821730   3.812040   5.609319   5.875715   6.875881
    31  H    4.334529   3.190040   5.310957   5.462433   6.646554
    32  H    4.041294   2.662725   4.215797   3.778578   4.699885
    33  H    4.533089   3.360176   4.616690   4.381549   5.044721
    34  H    3.871598   3.392170   7.095130   6.884223   7.457902
    35  H    3.398309   3.868568   9.349910   8.979700   9.520076
    36  H    2.156681   3.402789  10.079699   9.532557  10.163510
    37  H    1.084565   2.151952   8.842050   8.208618   8.968620
    38  H    2.151898   1.085586   6.408603   5.840880   6.737229
    39  H    6.847101   5.526716   2.158291   1.082494   2.157172
    40  H    8.259006   7.078459   3.386145   2.147727   1.084428
    41  H   10.259098   9.032034   3.850879   3.398157   2.152581
    42  H   11.011878   9.682968   3.386874   3.888939   3.407848
    43  H    9.987906   8.604768   2.147102   3.411608   3.884245
                   21         22         23         24         25
    21  C    0.000000
    22  C    1.395162   0.000000
    23  C    2.416087   1.395035   0.000000
    24  O    5.197258   4.873868   3.705856   0.000000
    25  H    5.983607   5.822045   4.683687   2.420757   0.000000
    26  H    5.383340   5.090535   4.426894   5.433549   4.060549
    27  H    4.587824   3.920589   2.980799   4.333046   3.717886
    28  H    8.100077   7.536693   6.300053   5.033101   3.354139
    29  H    6.995659   6.236441   4.911976   3.909340   3.095730
    30  H    7.544179   7.340353   6.412780   5.801033   3.592302
    31  H    7.533630   7.422662   6.385720   4.799893   2.395859
    32  H    5.772477   6.068667   5.391881   4.562754   2.670313
    33  H    5.814802   5.999395   5.456529   5.629210   3.796571
    34  H    8.171790   8.354212   7.849281   7.899070   5.746931
    35  H   10.360231  10.684275  10.210341   9.880085   7.596947
    36  H   11.236603  11.702403  11.165460  10.117857   7.853238
    37  H   10.200336  10.712407  10.092336   8.451576   6.371862
    38  H    7.964719   8.386450   7.691832   6.017982   3.989525
    39  H    3.404719   3.887134   3.416193   3.044989   3.202588
    40  H    2.157241   3.406404   3.885313   5.208007   5.620656
    41  H    1.084364   2.151501   3.397852   6.245654   7.021714
    42  H    2.155822   1.084256   2.150025   5.760145   6.773375
    43  H    3.407776   2.167725   1.083600   3.898767   4.939062
                   26         27         28         29         30
    26  H    0.000000
    27  H    1.796021   0.000000
    28  H    3.988870   3.945074   0.000000
    29  H    3.921859   3.063874   1.810217   0.000000
    30  H    2.710422   3.799059   2.580112   3.719368   0.000000
    31  H    3.759012   4.348339   2.582601   3.610128   1.755970
    32  H    3.360441   4.088513   4.628230   4.928571   3.066116
    33  H    2.151602   3.530703   4.637223   5.029700   2.512940
    34  H    3.780893   5.504933   5.508257   6.524561   2.936672
    35  H    6.246736   7.944792   7.318951   8.615905   4.901082
    36  H    7.732523   9.225780   8.145674   9.486879   6.015329
    37  H    7.447942   8.592858   7.456619   8.584159   5.719962
    38  H    5.538896   6.399977   5.687572   6.480152   4.157480
    39  H    4.602752   4.178697   6.173520   5.493216   5.582347
    40  H    5.695558   5.383815   8.281508   7.512611   7.343257
    41  H    6.170783   5.502561   9.116063   8.037852   8.427555
    42  H    5.712035   4.492179   8.210013   6.834649   8.100117
    43  H    4.615933   2.931181   6.062439   4.505244   6.535119
                   31         32         33         34         35
    31  H    0.000000
    32  H    2.516338   0.000000
    33  H    3.067676   1.755700   0.000000
    34  H    4.004558   3.720610   2.511954   0.000000
    35  H    5.592925   5.496205   4.761202   2.471355   0.000000
    36  H    5.986398   5.881881   5.880891   4.296442   2.485949
    37  H    4.992159   4.728238   5.465730   4.956134   4.298286
    38  H    3.109685   2.445105   3.670597   4.289986   4.954131
    39  H    4.919882   3.122176   4.109013   6.549672   8.476577
    40  H    7.054421   4.862108   5.293488   7.586699   9.467426
    41  H    8.490367   6.599704   6.545506   8.793847  10.919233
    42  H    8.312889   7.055221   6.835133   9.093658  11.461059
    43  H    6.585807   5.980992   5.958036   8.242060  10.650959
                   36         37         38         39         40
    36  H    0.000000
    37  H    2.487171   0.000000
    38  H    4.297434   2.473847   0.000000
    39  H    8.789335   7.298817   4.930581   0.000000
    40  H    9.965649   8.742786   6.658396   2.484385   0.000000
    41  H   11.832812  10.876224   8.736804   4.298266   2.479667
    42  H   12.609451  11.717606   9.410826   4.971390   4.302468
    43  H   11.694333  10.674458   8.268945   4.298245   4.968671
                   41         42         43
    41  H    0.000000
    42  H    2.481820   0.000000
    43  H    4.306284   2.498864   0.000000
 Stoichiometry    C17H19NO4S2
 Framework group  C1[X(C17H19NO4S2)]
 Deg. of freedom   123
 Full point group                 C1      NOp   1
 Largest Abelian subgroup         C1      NOp   1
 Largest concise Abelian subgroup C1      NOp   1
                         Standard orientation:                         
 ---------------------------------------------------------------------
 Center     Atomic      Atomic             Coordinates (Angstroms)
 Number     Number       Type             X           Y           Z
 ---------------------------------------------------------------------
      1          8           0        2.906588    1.031612    1.247350
      2         16           0        2.262371   -0.280955    1.416336
      3          7           0        0.591531   -0.153496    1.229357
      4          6           0       -0.082336    0.950345    0.537513
      5          6           0        0.458072    1.238068   -0.903334
      6         16           0        0.279269    3.031807   -0.588167
      7          6           0        0.156283    2.394642    1.115644
      8          8           0        1.488615    3.819403   -0.868604
      9          8           0       -1.027437    3.519826   -1.069097
     10          6           0       -1.589454    0.630897    0.519682
     11          6           0       -1.960391   -0.676751   -0.197848
     12          6           0       -3.449743   -0.934412   -0.174269
     13          6           0       -4.291435   -0.375847   -1.145461
     14          6           0       -5.669027   -0.589034   -1.105493
     15          6           0       -6.229785   -1.367354   -0.090728
     16          6           0       -5.401659   -1.931424    0.881746
     17          6           0       -4.023382   -1.714522    0.836908
     18          6           0        2.775745   -1.302949    0.042171
     19          6           0        2.177313   -2.550457   -0.152598
     20          6           0        2.634264   -3.357375   -1.191253
     21          6           0        3.678192   -2.920413   -2.012832
     22          6           0        4.270756   -1.675209   -1.801145
     23          6           0        3.821824   -0.856881   -0.764360
     24          8           0        2.429754   -1.032291    2.665616
     25          1           0        0.158179   -0.400046    2.117640
     26          1           0       -0.141661    0.862323   -1.730032
     27          1           0        1.512683    1.006912   -1.045976
     28          1           0       -0.653052    2.827992    1.703000
     29          1           0        1.123660    2.495961    1.603310
     30          1           0       -2.095989    1.477458    0.044396
     31          1           0       -1.946642    0.597516    1.556622
     32          1           0       -1.428620   -1.506120    0.276651
     33          1           0       -1.609715   -0.630473   -1.234285
     34          1           0       -3.862849    0.226898   -1.940130
     35          1           0       -6.304059   -0.151248   -1.868736
     36          1           0       -7.300720   -1.536482   -0.061048
     37          1           0       -5.826162   -2.542210    1.671062
     38          1           0       -3.383268   -2.160200    1.591972
     39          1           0        1.368362   -2.877303    0.488155
     40          1           0        2.177793   -4.326402   -1.360385
     41          1           0        4.027588   -3.554404   -2.820189
     42          1           0        5.080938   -1.339796   -2.438885
     43          1           0        4.265012    0.114131   -0.577519
 ---------------------------------------------------------------------
 Rotational constants (GHZ):      0.2592640      0.1321633      0.1060759
 Leave Link  202 at Sat Aug  8 00:20:57 2020, MaxMem=    33554432 cpu:         0.0
 (Enter /prod/apps/gaussian/g09d1/l301.exe)
 Standard basis: 6-31G(d) (6D, 7F)
 Ernie: Thresh=  0.10000D-02 Tol=  0.10000D-05 Strict=F.
 There are   406 symmetry adapted cartesian basis functions of A   symmetry.
 There are   406 symmetry adapted basis functions of A   symmetry.
   406 basis functions,   796 primitive gaussians,   406 cartesian basis functions
    96 alpha electrons       96 beta electrons
       nuclear repulsion energy      2453.7820534251 Hartrees.
 IExCor=  402 DFT=T Ex+Corr=B3LYP ExCW=0 ScaHFX=  0.200000
 ScaDFX=  0.800000  0.720000  1.000000  0.810000 ScalE2=  1.000000  1.000000
 IRadAn=      0 IRanWt=     -1 IRanGd=            0 ICorTp=0 IEmpDi=  4
 NAtoms=   43 NActive=   43 NUniq=   43 SFac= 1.00D+00 NAtFMM=   60 NAOKFM=F Big=F
 Integral buffers will be    131072 words long.
 Raffenetti 2 integral format.
 Two-electron integral symmetry is turned on.
 Leave Link  301 at Sat Aug  8 00:20:57 2020, MaxMem=    33554432 cpu:         0.1
 (Enter /prod/apps/gaussian/g09d1/l302.exe)
 NPDir=0 NMtPBC=     1 NCelOv=     1 NCel=       1 NClECP=     1 NCelD=      1
         NCelK=      1 NCelE2=     1 NClLst=     1 CellRange=     0.0.
 One-electron integrals computed using PRISM.
 NBasis=   406 RedAO= T EigKep=  4.66D-04  NBF=   406
 NBsUse=   406 1.00D-06 EigRej= -1.00D+00 NBFU=   406
 Precomputing XC quadrature grid using
 IXCGrd= 4 IRadAn=           0 IRanWt=          -1 IRanGd=           0 AccXCQ= 0.00D+00.
 Generated NRdTot=       0 NPtTot=           0 NUsed=           0 NTot=          32
 NSgBfM=   398   398   398   398   399 MxSgAt=    43 MxSgA2=    43.
 Leave Link  302 at Sat Aug  8 00:20:59 2020, MaxMem=    33554432 cpu:         1.6
 (Enter /prod/apps/gaussian/g09d1/l303.exe)
 DipDrv:  MaxL=1.
 Leave Link  303 at Sat Aug  8 00:20:59 2020, MaxMem=    33554432 cpu:         0.1
 (Enter /prod/apps/gaussian/g09d1/l401.exe)
 ExpMin= 1.17D-01 ExpMax= 2.19D+04 ExpMxC= 3.30D+03 IAcc=1 IRadAn=         1 AccDes= 0.00D+00
 Harris functional with IExCor=  402 and IRadAn=       1 diagonalized for initial guess.
 HarFok:  IExCor=  402 AccDes= 0.00D+00 IRadAn=         1 IDoV= 1 UseB2=F ITyADJ=14
 ICtDFT=  3500011 ScaDFX=  1.000000  1.000000  1.000000  1.000000
 FoFCou: FMM=F IPFlag=           0 FMFlag=      100000 FMFlg1=           0
         NFxFlg=           0 DoJE=T BraDBF=F KetDBF=T FulRan=T
         wScrn=  0.000000 ICntrl=     500 IOpCl=  0 I1Cent=   200000004 NGrid=           0
         NMat0=    1 NMatS0=      1 NMatT0=    0 NMatD0=    1 NMtDS0=    0 NMtDT0=    0
 Petite list used in FoFCou.
 Harris En= -1811.23213688023    
 JPrj=0 DoOrth=F DoCkMO=F.
 Leave Link  401 at Sat Aug  8 00:21:05 2020, MaxMem=    33554432 cpu:         6.0
 (Enter /prod/apps/gaussian/g09d1/l502.exe)
 Closed shell SCF:
 Using DIIS extrapolation, IDIIS=  1040.
 Integral symmetry usage will be decided dynamically.
 IVT=      518558 IEndB=      518558 NGot=    33554432 MDV=    33217757
 LenX=    33217757 LenY=    33052480
 Requested convergence on RMS density matrix=1.00D-08 within 128 cycles.
 Requested convergence on MAX density matrix=1.00D-06.
 Requested convergence on             energy=1.00D-06.
 No special actions if energy rises.
 Fock matrices will be formed incrementally for  20 cycles.
 Integral accuracy reduced to 1.0D-05 until final iterations.

 Cycle   1  Pass 0  IDiag  1:
 FoFJK:  IHMeth= 1 ICntrl=       0 DoSepK=F KAlg= 0 I1Cent=   0 FoldK=F
 IRaf= 700000000 NMat=   1 IRICut=       1 DoRegI=T DoRafI=F ISym2E= 0.
 FoFCou: FMM=F IPFlag=           0 FMFlag=      100000 FMFlg1=           0
         NFxFlg=           0 DoJE=F BraDBF=F KetDBF=F FulRan=T
         wScrn=  0.000000 ICntrl=       0 IOpCl=  0 I1Cent=           0 NGrid=           0
         NMat0=    1 NMatS0=      1 NMatT0=    0 NMatD0=    1 NMtDS0=    0 NMtDT0=    0
 Symmetry not used in FoFCou.
 E= -1810.23451531137    
 DIIS: error= 3.12D-02 at cycle   1 NSaved=   1.
 NSaved= 1 IEnMin= 1 EnMin= -1810.23451531137     IErMin= 1 ErrMin= 3.12D-02
 ErrMax= 3.12D-02  0.00D+00 EMaxC= 1.00D-01 BMatC= 1.02D+00 BMatP= 1.02D+00
 IDIUse=3 WtCom= 6.88D-01 WtEn= 3.12D-01
 Coeff-Com:  0.100D+01
 Coeff-En:   0.100D+01
 Coeff:      0.100D+01
 Gap=     0.281 Goal=   None    Shift=    0.000
 GapD=    0.281 DampG=1.000 DampE=0.500 DampFc=0.5000 IDamp=-1.
 Damping current iteration by 5.00D-01
 RMSDP=6.57D-03 MaxDP=5.83D-01              OVMax= 2.39D-01

 Cycle   2  Pass 0  IDiag  1:
 RMSU=  3.28D-03    CP:  9.97D-01
 E= -1810.41692470012     Delta-E=       -0.182409388756 Rises=F Damp=T
 DIIS: error= 1.51D-02 at cycle   2 NSaved=   2.
 NSaved= 2 IEnMin= 2 EnMin= -1810.41692470012     IErMin= 2 ErrMin= 1.51D-02
 ErrMax= 1.51D-02  0.00D+00 EMaxC= 1.00D-01 BMatC= 1.84D-01 BMatP= 1.02D+00
 IDIUse=3 WtCom= 8.49D-01 WtEn= 1.51D-01
 Coeff-Com:  0.253D+00 0.747D+00
 Coeff-En:   0.397D+00 0.603D+00
 Coeff:      0.274D+00 0.726D+00
 Gap=     0.245 Goal=   None    Shift=    0.000
 RMSDP=2.03D-03 MaxDP=1.34D-01 DE=-1.82D-01 OVMax= 1.98D-01

 Cycle   3  Pass 0  IDiag  1:
 RMSU=  1.61D-03    CP:  9.86D-01  6.29D-01
 E= -1811.01449153468     Delta-E=       -0.597566834562 Rises=F Damp=F
 DIIS: error= 1.01D-02 at cycle   3 NSaved=   3.
 NSaved= 3 IEnMin= 3 EnMin= -1811.01449153468     IErMin= 3 ErrMin= 1.01D-02
 ErrMax= 1.01D-02  0.00D+00 EMaxC= 1.00D-01 BMatC= 1.12D-01 BMatP= 1.84D-01
 IDIUse=3 WtCom= 8.99D-01 WtEn= 1.01D-01
 Coeff-Com:  0.992D-01 0.443D+00 0.458D+00
 Coeff-En:   0.000D+00 0.000D+00 0.100D+01
 Coeff:      0.892D-01 0.398D+00 0.513D+00
 Gap=     0.200 Goal=   None    Shift=    0.000
 RMSDP=1.27D-03 MaxDP=4.21D-02 DE=-5.98D-01 OVMax= 8.28D-02

 Cycle   4  Pass 0  IDiag  1:
 RMSU=  7.46D-04    CP:  9.92D-01  7.26D-01  3.95D-01
 E= -1811.10640975116     Delta-E=       -0.091918216474 Rises=F Damp=F
 DIIS: error= 4.89D-03 at cycle   4 NSaved=   4.
 NSaved= 4 IEnMin= 4 EnMin= -1811.10640975116     IErMin= 4 ErrMin= 4.89D-03
 ErrMax= 4.89D-03  0.00D+00 EMaxC= 1.00D-01 BMatC= 1.68D-02 BMatP= 1.12D-01
 IDIUse=3 WtCom= 9.51D-01 WtEn= 4.89D-02
 Coeff-Com:  0.121D-01 0.838D-01 0.292D+00 0.612D+00
 Coeff-En:   0.000D+00 0.000D+00 0.143D+00 0.857D+00
 Coeff:      0.115D-01 0.797D-01 0.285D+00 0.624D+00
 Gap=     0.197 Goal=   None    Shift=    0.000
 RMSDP=4.29D-04 MaxDP=1.76D-02 DE=-9.19D-02 OVMax= 3.10D-02

 Cycle   5  Pass 0  IDiag  1:
 RMSU=  1.89D-04    CP:  9.91D-01  7.02D-01  5.57D-01  6.34D-01
 E= -1811.12099638123     Delta-E=       -0.014586630075 Rises=F Damp=F
 DIIS: error= 1.87D-03 at cycle   5 NSaved=   5.
 NSaved= 5 IEnMin= 5 EnMin= -1811.12099638123     IErMin= 5 ErrMin= 1.87D-03
 ErrMax= 1.87D-03  0.00D+00 EMaxC= 1.00D-01 BMatC= 1.33D-03 BMatP= 1.68D-02
 IDIUse=3 WtCom= 9.81D-01 WtEn= 1.87D-02
 Coeff-Com: -0.431D-03 0.171D-01 0.122D+00 0.346D+00 0.515D+00
 Coeff-En:   0.000D+00 0.000D+00 0.000D+00 0.448D-02 0.996D+00
 Coeff:     -0.423D-03 0.168D-01 0.120D+00 0.340D+00 0.524D+00
 Gap=     0.196 Goal=   None    Shift=    0.000
 RMSDP=1.23D-04 MaxDP=5.16D-03 DE=-1.46D-02 OVMax= 1.28D-02

 Cycle   6  Pass 0  IDiag  1:
 RMSU=  6.25D-05    CP:  9.91D-01  7.08D-01  5.47D-01  6.97D-01  5.17D-01
 E= -1811.12218352794     Delta-E=       -0.001187146710 Rises=F Damp=F
 DIIS: error= 6.16D-04 at cycle   6 NSaved=   6.
 NSaved= 6 IEnMin= 6 EnMin= -1811.12218352794     IErMin= 6 ErrMin= 6.16D-04
 ErrMax= 6.16D-04  0.00D+00 EMaxC= 1.00D-01 BMatC= 1.59D-04 BMatP= 1.33D-03
 IDIUse=3 WtCom= 9.94D-01 WtEn= 6.16D-03
 Coeff-Com: -0.124D-02 0.274D-02 0.438D-01 0.139D+00 0.312D+00 0.504D+00
 Coeff-En:   0.000D+00 0.000D+00 0.000D+00 0.000D+00 0.653D-01 0.935D+00
 Coeff:     -0.124D-02 0.272D-02 0.436D-01 0.138D+00 0.311D+00 0.506D+00
 Gap=     0.197 Goal=   None    Shift=    0.000
 RMSDP=3.87D-05 MaxDP=2.17D-03 DE=-1.19D-03 OVMax= 3.99D-03

 Cycle   7  Pass 0  IDiag  1:
 RMSU=  2.37D-05    CP:  9.91D-01  7.07D-01  5.49D-01  6.96D-01  5.85D-01
                    CP:  5.64D-01
 E= -1811.12231865941     Delta-E=       -0.000135131466 Rises=F Damp=F
 DIIS: error= 1.65D-04 at cycle   7 NSaved=   7.
 NSaved= 7 IEnMin= 7 EnMin= -1811.12231865941     IErMin= 7 ErrMin= 1.65D-04
 ErrMax= 1.65D-04  0.00D+00 EMaxC= 1.00D-01 BMatC= 1.81D-05 BMatP= 1.59D-04
 IDIUse=3 WtCom= 9.98D-01 WtEn= 1.65D-03
 Coeff-Com: -0.709D-03-0.105D-03 0.140D-01 0.484D-01 0.140D+00 0.316D+00
 Coeff-Com:  0.482D+00
 Coeff-En:   0.000D+00 0.000D+00 0.000D+00 0.000D+00 0.000D+00 0.405D-01
 Coeff-En:   0.960D+00
 Coeff:     -0.708D-03-0.105D-03 0.139D-01 0.483D-01 0.140D+00 0.316D+00
 Coeff:      0.483D+00
 Gap=     0.197 Goal=   None    Shift=    0.000
 RMSDP=1.25D-05 MaxDP=7.85D-04 DE=-1.35D-04 OVMax= 9.39D-04

 Cycle   8  Pass 0  IDiag  1:
 RMSU=  6.57D-06    CP:  9.91D-01  7.06D-01  5.50D-01  6.96D-01  5.90D-01
                    CP:  6.11D-01  5.76D-01
 E= -1811.12233351228     Delta-E=       -0.000014852867 Rises=F Damp=F
 DIIS: error= 4.78D-05 at cycle   8 NSaved=   8.
 NSaved= 8 IEnMin= 8 EnMin= -1811.12233351228     IErMin= 8 ErrMin= 4.78D-05
 ErrMax= 4.78D-05  0.00D+00 EMaxC= 1.00D-01 BMatC= 1.33D-06 BMatP= 1.81D-05
 IDIUse=1 WtCom= 1.00D+00 WtEn= 0.00D+00
 Coeff-Com: -0.267D-03-0.395D-03 0.274D-02 0.113D-01 0.443D-01 0.123D+00
 Coeff-Com:  0.271D+00 0.549D+00
 Coeff:     -0.267D-03-0.395D-03 0.274D-02 0.113D-01 0.443D-01 0.123D+00
 Coeff:      0.271D+00 0.549D+00
 Gap=     0.197 Goal=   None    Shift=    0.000
 RMSDP=3.81D-06 MaxDP=1.65D-04 DE=-1.49D-05 OVMax= 2.89D-04

 Initial convergence to 1.0D-05 achieved.  Increase integral accuracy.
 Cycle   9  Pass 1  IDiag  1:
 E= -1811.12208153220     Delta-E=        0.000251980072 Rises=F Damp=F
 DIIS: error= 7.49D-05 at cycle   1 NSaved=   1.
 NSaved= 1 IEnMin= 1 EnMin= -1811.12208153220     IErMin= 1 ErrMin= 7.49D-05
 ErrMax= 7.49D-05  0.00D+00 EMaxC= 1.00D-01 BMatC= 1.28D-06 BMatP= 1.28D-06
 IDIUse=1 WtCom= 1.00D+00 WtEn= 0.00D+00
 Coeff-Com:  0.100D+01
 Coeff:      0.100D+01
 Gap=     0.197 Goal=   None    Shift=    0.000
 RMSDP=3.81D-06 MaxDP=1.65D-04 DE= 2.52D-04 OVMax= 3.36D-04

 Cycle  10  Pass 1  IDiag  1:
 RMSU=  3.47D-05    CP:  1.00D+00
 E= -1811.12208197571     Delta-E=       -0.000000443507 Rises=F Damp=F
 DIIS: error= 4.66D-05 at cycle   2 NSaved=   2.
 NSaved= 2 IEnMin= 2 EnMin= -1811.12208197571     IErMin= 2 ErrMin= 4.66D-05
 ErrMax= 4.66D-05  0.00D+00 EMaxC= 1.00D-01 BMatC= 1.02D-06 BMatP= 1.28D-06
 IDIUse=1 WtCom= 1.00D+00 WtEn= 0.00D+00
 Coeff-Com:  0.459D+00 0.541D+00
 Coeff:      0.459D+00 0.541D+00
 Gap=     0.197 Goal=   None    Shift=    0.000
 RMSDP=4.13D-06 MaxDP=2.40D-04 DE=-4.44D-07 OVMax= 3.65D-04

 Cycle  11  Pass 1  IDiag  1:
 RMSU=  4.13D-06    CP:  1.00D+00  9.95D-01
 E= -1811.12208234966     Delta-E=       -0.000000373944 Rises=F Damp=F
 DIIS: error= 3.93D-05 at cycle   3 NSaved=   3.
 NSaved= 3 IEnMin= 3 EnMin= -1811.12208234966     IErMin= 3 ErrMin= 3.93D-05
 ErrMax= 3.93D-05  0.00D+00 EMaxC= 1.00D-01 BMatC= 6.05D-07 BMatP= 1.02D-06
 IDIUse=1 WtCom= 1.00D+00 WtEn= 0.00D+00
 Coeff-Com:  0.764D-02 0.433D+00 0.559D+00
 Coeff:      0.764D-02 0.433D+00 0.559D+00
 Gap=     0.197 Goal=   None    Shift=    0.000
 RMSDP=1.87D-06 MaxDP=1.12D-04 DE=-3.74D-07 OVMax= 1.78D-04

 Cycle  12  Pass 1  IDiag  1:
 RMSU=  6.29D-07    CP:  1.00D+00  1.01D+00  5.84D-01
 E= -1811.12208283310     Delta-E=       -0.000000483446 Rises=F Damp=F
 DIIS: error= 6.86D-06 at cycle   4 NSaved=   4.
 NSaved= 4 IEnMin= 4 EnMin= -1811.12208283310     IErMin= 4 ErrMin= 6.86D-06
 ErrMax= 6.86D-06  0.00D+00 EMaxC= 1.00D-01 BMatC= 1.60D-08 BMatP= 6.05D-07
 IDIUse=1 WtCom= 1.00D+00 WtEn= 0.00D+00
 Coeff-Com: -0.530D-02 0.253D+00 0.341D+00 0.412D+00
 Coeff:     -0.530D-02 0.253D+00 0.341D+00 0.412D+00
 Gap=     0.197 Goal=   None    Shift=    0.000
 RMSDP=3.70D-07 MaxDP=1.47D-05 DE=-4.83D-07 OVMax= 4.34D-05

 Cycle  13  Pass 1  IDiag  1:
 RMSU=  1.82D-07    CP:  1.00D+00  1.01D+00  5.80D-01  4.89D-01
 E= -1811.12208284796     Delta-E=       -0.000000014858 Rises=F Damp=F
 DIIS: error= 1.68D-06 at cycle   5 NSaved=   5.
 NSaved= 5 IEnMin= 5 EnMin= -1811.12208284796     IErMin= 5 ErrMin= 1.68D-06
 ErrMax= 1.68D-06  0.00D+00 EMaxC= 1.00D-01 BMatC= 7.31D-10 BMatP= 1.60D-08
 IDIUse=1 WtCom= 1.00D+00 WtEn= 0.00D+00
 Coeff-Com: -0.346D-02 0.119D+00 0.162D+00 0.238D+00 0.484D+00
 Coeff:     -0.346D-02 0.119D+00 0.162D+00 0.238D+00 0.484D+00
 Gap=     0.197 Goal=   None    Shift=    0.000
 RMSDP=8.25D-08 MaxDP=3.88D-06 DE=-1.49D-08 OVMax= 9.52D-06

 Cycle  14  Pass 1  IDiag  1:
 RMSU=  6.21D-08    CP:  1.00D+00  1.01D+00  5.80D-01  5.19D-01  7.22D-01
 E= -1811.12208284864     Delta-E=       -0.000000000679 Rises=F Damp=F
 DIIS: error= 2.72D-07 at cycle   6 NSaved=   6.
 NSaved= 6 IEnMin= 6 EnMin= -1811.12208284864     IErMin= 6 ErrMin= 2.72D-07
 ErrMax= 2.72D-07  0.00D+00 EMaxC= 1.00D-01 BMatC= 5.25D-11 BMatP= 7.31D-10
 IDIUse=1 WtCom= 1.00D+00 WtEn= 0.00D+00
 Coeff-Com: -0.115D-02 0.318D-01 0.438D-01 0.752D-01 0.251D+00 0.599D+00
 Coeff:     -0.115D-02 0.318D-01 0.438D-01 0.752D-01 0.251D+00 0.599D+00
 Gap=     0.197 Goal=   None    Shift=    0.000
 RMSDP=2.51D-08 MaxDP=1.52D-06 DE=-6.79D-10 OVMax= 1.62D-06

 Cycle  15  Pass 1  IDiag  1:
 RMSU=  2.03D-08    CP:  1.00D+00  1.01D+00  5.80D-01  5.21D-01  7.65D-01
                    CP:  7.98D-01
 E= -1811.12208284862     Delta-E=        0.000000000019 Rises=F Damp=F
 DIIS: error= 1.37D-07 at cycle   7 NSaved=   7.
 NSaved= 7 IEnMin= 6 EnMin= -1811.12208284864     IErMin= 7 ErrMin= 1.37D-07
 ErrMax= 1.37D-07  0.00D+00 EMaxC= 1.00D-01 BMatC= 9.97D-12 BMatP= 5.25D-11
 IDIUse=1 WtCom= 1.00D+00 WtEn= 0.00D+00
 Coeff-Com: -0.252D-03 0.382D-02 0.548D-02 0.141D-01 0.870D-01 0.356D+00
 Coeff-Com:  0.534D+00
 Coeff:     -0.252D-03 0.382D-02 0.548D-02 0.141D-01 0.870D-01 0.356D+00
 Coeff:      0.534D+00
 Gap=     0.197 Goal=   None    Shift=    0.000
 RMSDP=1.05D-08 MaxDP=9.34D-07 DE= 1.91D-11 OVMax= 5.86D-07

 Cycle  16  Pass 1  IDiag  1:
 RMSU=  6.48D-09    CP:  1.00D+00  1.01D+00  5.81D-01  5.23D-01  7.74D-01
                    CP:  8.40D-01  6.42D-01
 E= -1811.12208284868     Delta-E=       -0.000000000060 Rises=F Damp=F
 DIIS: error= 4.36D-08 at cycle   8 NSaved=   8.
 NSaved= 8 IEnMin= 8 EnMin= -1811.12208284868     IErMin= 8 ErrMin= 4.36D-08
 ErrMax= 4.36D-08  0.00D+00 EMaxC= 1.00D-01 BMatC= 1.39D-12 BMatP= 9.97D-12
 IDIUse=1 WtCom= 1.00D+00 WtEn= 0.00D+00
 Coeff-Com:  0.122D-04-0.222D-02-0.295D-02-0.199D-02 0.176D-01 0.134D+00
 Coeff-Com:  0.324D+00 0.531D+00
 Coeff:      0.122D-04-0.222D-02-0.295D-02-0.199D-02 0.176D-01 0.134D+00
 Coeff:      0.324D+00 0.531D+00
 Gap=     0.197 Goal=   None    Shift=    0.000
 RMSDP=3.47D-09 MaxDP=2.58D-07 DE=-6.00D-11 OVMax= 2.03D-07

 SCF Done:  E(RB3LYP) =  -1811.12208285     A.U. after   16 cycles
            NFock= 16  Conv=0.35D-08     -V/T= 2.0069
 KE= 1.798671866284D+03 PE=-9.157211778048D+03 EE= 3.093635775490D+03
 Leave Link  502 at Sat Aug  8 00:29:17 2020, MaxMem=    33554432 cpu:       491.8
 (Enter /prod/apps/gaussian/g09d1/l601.exe)
 Copying SCF densities to generalized density rwf, IOpCl= 0 IROHF=0.

 **********************************************************************

            Population analysis using the SCF density.

 **********************************************************************

 Orbital symmetries:
       Occupied  (A) (A) (A) (A) (A) (A) (A) (A) (A) (A) (A) (A)
                 (A) (A) (A) (A) (A) (A) (A) (A) (A) (A) (A) (A)
                 (A) (A) (A) (A) (A) (A) (A) (A) (A) (A) (A) (A)
                 (A) (A) (A) (A) (A) (A) (A) (A) (A) (A) (A) (A)
                 (A) (A) (A) (A) (A) (A) (A) (A) (A) (A) (A) (A)
                 (A) (A) (A) (A) (A) (A) (A) (A) (A) (A) (A) (A)
                 (A) (A) (A) (A) (A) (A) (A) (A) (A) (A) (A) (A)
                 (A) (A) (A) (A) (A) (A) (A) (A) (A) (A) (A) (A)
       Virtual   (A) (A) (A) (A) (A) (A) (A) (A) (A) (A) (A) (A)
                 (A) (A) (A) (A) (A) (A) (A) (A) (A) (A) (A) (A)
                 (A) (A) (A) (A) (A) (A) (A) (A) (A) (A) (A) (A)
                 (A) (A) (A) (A) (A) (A) (A) (A) (A) (A) (A) (A)
                 (A) (A) (A) (A) (A) (A) (A) (A) (A) (A) (A) (A)
                 (A) (A) (A) (A) (A) (A) (A) (A) (A) (A) (A) (A)
                 (A) (A) (A) (A) (A) (A) (A) (A) (A) (A) (A) (A)
                 (A) (A) (A) (A) (A) (A) (A) (A) (A) (A) (A) (A)
                 (A) (A) (A) (A) (A) (A) (A) (A) (A) (A) (A) (A)
                 (A) (A) (A) (A) (A) (A) (A) (A) (A) (A) (A) (A)
                 (A) (A) (A) (A) (A) (A) (A) (A) (A) (A) (A) (A)
                 (A) (A) (A) (A) (A) (A) (A) (A) (A) (A) (A) (A)
                 (A) (A) (A) (A) (A) (A) (A) (A) (A) (A) (A) (A)
                 (A) (A) (A) (A) (A) (A) (A) (A) (A) (A) (A) (A)
                 (A) (A) (A) (A) (A) (A) (A) (A) (A) (A) (A) (A)
                 (A) (A) (A) (A) (A) (A) (A) (A) (A) (A) (A) (A)
                 (A) (A) (A) (A) (A) (A) (A) (A) (A) (A) (A) (A)
                 (A) (A) (A) (A) (A) (A) (A) (A) (A) (A) (A) (A)
                 (A) (A) (A) (A) (A) (A) (A) (A) (A) (A) (A) (A)
                 (A) (A) (A) (A) (A) (A) (A) (A) (A) (A) (A) (A)
                 (A) (A) (A) (A) (A) (A) (A) (A) (A) (A) (A) (A)
                 (A) (A) (A) (A) (A) (A) (A) (A) (A) (A) (A) (A)
                 (A) (A) (A) (A) (A) (A) (A) (A) (A) (A) (A) (A)
                 (A) (A) (A) (A) (A) (A) (A) (A) (A) (A) (A) (A)
                 (A) (A) (A) (A) (A) (A) (A) (A) (A) (A) (A) (A)
                 (A) (A) (A) (A) (A) (A) (A) (A) (A) (A)
 The electronic state is 1-A.
 Alpha  occ. eigenvalues --  -89.13002 -89.09001 -19.15952 -19.15651 -19.14288
 Alpha  occ. eigenvalues --  -19.14128 -14.38875 -10.28508 -10.24419 -10.23509
 Alpha  occ. eigenvalues --  -10.22870 -10.22780 -10.22566 -10.22310 -10.22200
 Alpha  occ. eigenvalues --  -10.22079 -10.21357 -10.20530 -10.20425 -10.19630
 Alpha  occ. eigenvalues --  -10.19551 -10.19542 -10.19435 -10.19416  -8.15505
 Alpha  occ. eigenvalues --   -8.12040  -6.12027  -6.11917  -6.11793  -6.08455
 Alpha  occ. eigenvalues --   -6.08397  -6.08336  -1.12603  -1.09608  -1.01511
 Alpha  occ. eigenvalues --   -0.99244  -0.95703  -0.89011  -0.86538  -0.85900
 Alpha  occ. eigenvalues --   -0.80332  -0.79352  -0.77892  -0.74957  -0.74753
 Alpha  occ. eigenvalues --   -0.72780  -0.69926  -0.67133  -0.63940  -0.63064
 Alpha  occ. eigenvalues --   -0.61290  -0.61089  -0.58826  -0.58084  -0.56293
 Alpha  occ. eigenvalues --   -0.53344  -0.52863  -0.52085  -0.50484  -0.50022
 Alpha  occ. eigenvalues --   -0.48762  -0.48372  -0.47746  -0.47124  -0.46662
 Alpha  occ. eigenvalues --   -0.45929  -0.45451  -0.45305  -0.44516  -0.43731
 Alpha  occ. eigenvalues --   -0.43335  -0.42500  -0.42226  -0.41432  -0.40157
 Alpha  occ. eigenvalues --   -0.39558  -0.39040  -0.38659  -0.37762  -0.36900
 Alpha  occ. eigenvalues --   -0.35865  -0.35304  -0.34454  -0.34303  -0.33421
 Alpha  occ. eigenvalues --   -0.32688  -0.31973  -0.31634  -0.31168  -0.30480
 Alpha  occ. eigenvalues --   -0.29402  -0.28418  -0.28282  -0.27241  -0.25568
 Alpha  occ. eigenvalues --   -0.24854
 Alpha virt. eigenvalues --   -0.05182  -0.03241  -0.00775  -0.00691   0.02805
 Alpha virt. eigenvalues --    0.04386   0.04727   0.05675   0.06448   0.06589
 Alpha virt. eigenvalues --    0.07185   0.08186   0.08786   0.09138   0.10093
 Alpha virt. eigenvalues --    0.10695   0.10937   0.12566   0.12727   0.13379
 Alpha virt. eigenvalues --    0.14062   0.14505   0.14616   0.15037   0.15801
 Alpha virt. eigenvalues --    0.16100   0.16871   0.17745   0.17946   0.18199
 Alpha virt. eigenvalues --    0.18619   0.19487   0.19569   0.20285   0.23394
 Alpha virt. eigenvalues --    0.23612   0.25151   0.25804   0.26812   0.27588
 Alpha virt. eigenvalues --    0.28083   0.29422   0.30027   0.30680   0.31370
 Alpha virt. eigenvalues --    0.33038   0.33694   0.34693   0.35530   0.36055
 Alpha virt. eigenvalues --    0.36852   0.38894   0.43204   0.43831   0.44594
 Alpha virt. eigenvalues --    0.45822   0.47568   0.47862   0.49323   0.50578
 Alpha virt. eigenvalues --    0.51431   0.51822   0.52300   0.53217   0.53443
 Alpha virt. eigenvalues --    0.54117   0.54421   0.54660   0.55549   0.55878
 Alpha virt. eigenvalues --    0.56400   0.57720   0.58003   0.58226   0.58681
 Alpha virt. eigenvalues --    0.58985   0.59444   0.59731   0.59829   0.60203
 Alpha virt. eigenvalues --    0.60789   0.60872   0.61541   0.61824   0.62113
 Alpha virt. eigenvalues --    0.63557   0.64629   0.66190   0.66845   0.67788
 Alpha virt. eigenvalues --    0.69124   0.69522   0.71530   0.72276   0.74458
 Alpha virt. eigenvalues --    0.75572   0.76941   0.77416   0.78707   0.79568
 Alpha virt. eigenvalues --    0.80544   0.81122   0.81907   0.81924   0.82303
 Alpha virt. eigenvalues --    0.82921   0.83184   0.83434   0.83714   0.84440
 Alpha virt. eigenvalues --    0.85013   0.85070   0.85915   0.86733   0.86903
 Alpha virt. eigenvalues --    0.87790   0.88395   0.89154   0.90188   0.90666
 Alpha virt. eigenvalues --    0.90921   0.91885   0.92811   0.92901   0.93552
 Alpha virt. eigenvalues --    0.93830   0.94627   0.95311   0.96863   0.97167
 Alpha virt. eigenvalues --    0.99398   0.99941   1.00131   1.01235   1.01505
 Alpha virt. eigenvalues --    1.02656   1.03751   1.05441   1.06813   1.08008
 Alpha virt. eigenvalues --    1.08109   1.08650   1.10583   1.11038   1.11616
 Alpha virt. eigenvalues --    1.12413   1.13162   1.14517   1.15877   1.16328
 Alpha virt. eigenvalues --    1.17585   1.17688   1.19526   1.20232   1.21022
 Alpha virt. eigenvalues --    1.22801   1.23852   1.25137   1.25288   1.27464
 Alpha virt. eigenvalues --    1.29314   1.30622   1.33828   1.34588   1.36070
 Alpha virt. eigenvalues --    1.39604   1.40735   1.41487   1.41747   1.42152
 Alpha virt. eigenvalues --    1.43340   1.44371   1.45567   1.46072   1.47588
 Alpha virt. eigenvalues --    1.47759   1.48399   1.48862   1.49928   1.50689
 Alpha virt. eigenvalues --    1.50849   1.55245   1.58763   1.62265   1.65350
 Alpha virt. eigenvalues --    1.67476   1.71081   1.72753   1.73375   1.74457
 Alpha virt. eigenvalues --    1.76069   1.77059   1.77352   1.78903   1.79649
 Alpha virt. eigenvalues --    1.79911   1.80594   1.80901   1.81335   1.81632
 Alpha virt. eigenvalues --    1.82210   1.82718   1.83740   1.85694   1.86306
 Alpha virt. eigenvalues --    1.87391   1.88131   1.88962   1.90576   1.91337
 Alpha virt. eigenvalues --    1.91911   1.92844   1.93937   1.94375   1.96366
 Alpha virt. eigenvalues --    1.97223   1.97645   1.98112   2.00991   2.02028
 Alpha virt. eigenvalues --    2.03592   2.04258   2.04531   2.05407   2.06953
 Alpha virt. eigenvalues --    2.08442   2.08511   2.09417   2.11142   2.12172
 Alpha virt. eigenvalues --    2.12342   2.12597   2.13056   2.13555   2.14668
 Alpha virt. eigenvalues --    2.14885   2.16140   2.17118   2.18047   2.20585
 Alpha virt. eigenvalues --    2.22639   2.23634   2.25406   2.26239   2.27342
 Alpha virt. eigenvalues --    2.28003   2.28463   2.29881   2.30359   2.31138
 Alpha virt. eigenvalues --    2.33604   2.37539   2.38136   2.40582   2.41610
 Alpha virt. eigenvalues --    2.44387   2.49483   2.51314   2.54820   2.56060
 Alpha virt. eigenvalues --    2.57402   2.58395   2.61921   2.64006   2.65672
 Alpha virt. eigenvalues --    2.67783   2.68944   2.69584   2.71584   2.71872
 Alpha virt. eigenvalues --    2.72818   2.73324   2.73708   2.74110   2.74270
 Alpha virt. eigenvalues --    2.76354   2.76637   2.78772   2.82742   2.83450
 Alpha virt. eigenvalues --    2.85731   2.93764   3.01096   3.04412   3.35627
 Alpha virt. eigenvalues --    3.40530   3.73319   3.81324   3.94926   3.99564
 Alpha virt. eigenvalues --    4.00723   4.05946   4.06874   4.08525   4.09623
 Alpha virt. eigenvalues --    4.10937   4.12251   4.13760   4.15082   4.20390
 Alpha virt. eigenvalues --    4.24297   4.31302   4.32279   4.33334   4.35355
 Alpha virt. eigenvalues --    4.40563   4.51535   4.63699   4.69794   4.73395
          Condensed to atoms (all electrons):
               1          2          3          4          5          6
     1  O    8.288198   0.383463  -0.052664   0.006547  -0.005239   0.002141
     2  S    0.383463  13.734865   0.094355  -0.001182  -0.003677   0.000336
     3  N   -0.052664   0.094355   7.412665   0.237013  -0.037967   0.001352
     4  C    0.006547  -0.001182   0.237013   4.876872   0.332112  -0.091364
     5  C   -0.005239  -0.003677  -0.037967   0.332112   5.747618   0.129368
     6  S    0.002141   0.000336   0.001352  -0.091364   0.129368  13.871770
     7  C   -0.009219  -0.005439  -0.051694   0.354542  -0.193862   0.133632
     8  O   -0.000086  -0.000151  -0.000077   0.002130  -0.045816   0.442831
     9  O    0.000000   0.000006  -0.000039  -0.000327  -0.045856   0.402386
    10  C    0.000123   0.000660  -0.053096   0.323772  -0.049755   0.005842
    11  C   -0.000001  -0.000121  -0.006084  -0.033401  -0.007749  -0.000716
    12  C    0.000000  -0.000005   0.000290   0.003502   0.000078   0.000023
    13  C    0.000000   0.000000  -0.000004   0.000110   0.000008  -0.000024
    14  C    0.000000   0.000000   0.000000   0.000003   0.000000   0.000000
    15  C    0.000000   0.000000   0.000000   0.000000   0.000000   0.000000
    16  C    0.000000   0.000000   0.000000   0.000002   0.000000   0.000000
    17  C    0.000000   0.000000  -0.000011   0.000070  -0.000003  -0.000001
    18  C   -0.059486   0.174354  -0.051790  -0.003762   0.001473   0.000060
    19  C    0.001699  -0.020909   0.000542   0.000087   0.000278   0.000017
    20  C   -0.000045   0.002257   0.000097  -0.000004   0.000036   0.000000
    21  C   -0.000006  -0.000446   0.000008   0.000001   0.000007   0.000000
    22  C    0.000630   0.003363  -0.000103   0.000005  -0.000106  -0.000004
    23  C    0.001830  -0.035690   0.001106   0.000139  -0.001633  -0.000021
    24  O   -0.041568   0.464233  -0.056676   0.001951  -0.000064   0.000006
    25  H    0.000148  -0.012272   0.296284  -0.027775   0.005073  -0.000226
    26  H    0.000113   0.000039   0.001276  -0.026519   0.341986  -0.010736
    27  H    0.004245   0.009189  -0.005895  -0.021916   0.323119  -0.002234
    28  H    0.000183   0.000260   0.001504  -0.028866   0.010362  -0.010832
    29  H    0.014938   0.001085  -0.004300  -0.020742   0.002533  -0.001013
    30  H    0.000002   0.000075   0.004184  -0.029167  -0.006019   0.009660
    31  H    0.000001  -0.000222  -0.006102  -0.032398   0.005608  -0.000208
    32  H    0.000002   0.000140   0.009830  -0.008191  -0.000343   0.000003
    33  H    0.000000  -0.000064   0.000027  -0.004617   0.002465   0.000082
    34  H    0.000000   0.000000   0.000000  -0.000066  -0.000012   0.000011
    35  H    0.000000   0.000000   0.000000   0.000000   0.000000   0.000000
    36  H    0.000000   0.000000   0.000000   0.000000   0.000000   0.000000
    37  H    0.000000   0.000000   0.000000   0.000000   0.000000   0.000000
    38  H    0.000000   0.000000  -0.000004  -0.000055   0.000000   0.000000
    39  H    0.000051  -0.002007   0.004798   0.000093  -0.000049   0.000001
    40  H    0.000000  -0.000061   0.000001   0.000000   0.000000   0.000000
    41  H    0.000000   0.000007   0.000000   0.000000   0.000000   0.000000
    42  H    0.000003  -0.000071   0.000000   0.000000  -0.000001   0.000000
    43  H    0.012402  -0.008173   0.000257  -0.000004  -0.000183   0.000050
               7          8          9         10         11         12
     1  O   -0.009219  -0.000086   0.000000   0.000123  -0.000001   0.000000
     2  S   -0.005439  -0.000151   0.000006   0.000660  -0.000121  -0.000005
     3  N   -0.051694  -0.000077  -0.000039  -0.053096  -0.006084   0.000290
     4  C    0.354542   0.002130  -0.000327   0.323772  -0.033401   0.003502
     5  C   -0.193862  -0.045816  -0.045856  -0.049755  -0.007749   0.000078
     6  S    0.133632   0.442831   0.402386   0.005842  -0.000716   0.000023
     7  C    5.745514  -0.044363  -0.045805  -0.054930   0.004128  -0.000071
     8  O   -0.044363   8.187349  -0.044009  -0.000065   0.000000   0.000000
     9  O   -0.045805  -0.044009   8.260095  -0.004999   0.000039   0.000004
    10  C   -0.054930  -0.000065  -0.004999   5.212989   0.343931  -0.040039
    11  C    0.004128   0.000000   0.000039   0.343931   5.183162   0.346259
    12  C   -0.000071   0.000000   0.000004  -0.040039   0.346259   4.642338
    13  C   -0.000006   0.000000  -0.000012  -0.003527  -0.059077   0.544958
    14  C    0.000000   0.000000   0.000000  -0.000013   0.006505  -0.018873
    15  C    0.000000   0.000000   0.000000   0.000018   0.000401  -0.034516
    16  C    0.000000   0.000000   0.000000  -0.000084   0.006902  -0.019606
    17  C   -0.000003   0.000000   0.000000  -0.004160  -0.055772   0.550640
    18  C   -0.000289   0.000002   0.000000  -0.000263  -0.000018   0.000000
    19  C    0.000004   0.000000   0.000000  -0.000042  -0.000045   0.000004
    20  C    0.000000   0.000000   0.000000   0.000000  -0.000005   0.000000
    21  C    0.000000   0.000000   0.000000   0.000000   0.000000   0.000000
    22  C    0.000000   0.000000   0.000000   0.000000   0.000000   0.000000
    23  C    0.000008  -0.000003   0.000000  -0.000002   0.000001   0.000000
    24  O    0.000018   0.000000   0.000000  -0.000095   0.000001   0.000000
    25  H   -0.000762   0.000002   0.000002  -0.005715  -0.000231  -0.000099
    26  H    0.009943   0.000627  -0.000021  -0.007239   0.001521  -0.000070
    27  H    0.002432   0.000768   0.001193   0.003934   0.000025   0.000000
    28  H    0.341838   0.000675  -0.000533  -0.004295   0.000137  -0.000012
    29  H    0.325526  -0.000058   0.001124   0.003378  -0.000096   0.000001
    30  H   -0.003735   0.000043   0.011274   0.362118  -0.031969  -0.001552
    31  H   -0.005716   0.000001   0.000149   0.356619  -0.040320  -0.000830
    32  H    0.000167   0.000000  -0.000002  -0.037895   0.360651  -0.030074
    33  H    0.000085   0.000001   0.000021  -0.042381   0.357791  -0.026798
    34  H    0.000002   0.000000   0.000020   0.000241  -0.008997  -0.047514
    35  H    0.000000   0.000000   0.000000  -0.000001  -0.000184   0.003668
    36  H    0.000000   0.000000   0.000000   0.000000   0.000007   0.000738
    37  H    0.000000   0.000000   0.000000  -0.000001  -0.000185   0.003777
    38  H    0.000001   0.000000   0.000000   0.000260  -0.010046  -0.048344
    39  H    0.000005   0.000000   0.000000  -0.000036   0.000046   0.000004
    40  H    0.000000   0.000000   0.000000   0.000000   0.000000   0.000000
    41  H    0.000000   0.000000   0.000000   0.000000   0.000000   0.000000
    42  H    0.000000   0.000000   0.000000   0.000000   0.000000   0.000000
    43  H   -0.000001   0.000007   0.000000   0.000000   0.000000   0.000000
              13         14         15         16         17         18
     1  O    0.000000   0.000000   0.000000   0.000000   0.000000  -0.059486
     2  S    0.000000   0.000000   0.000000   0.000000   0.000000   0.174354
     3  N   -0.000004   0.000000   0.000000   0.000000  -0.000011  -0.051790
     4  C    0.000110   0.000003   0.000000   0.000002   0.000070  -0.003762
     5  C    0.000008   0.000000   0.000000   0.000000  -0.000003   0.001473
     6  S   -0.000024   0.000000   0.000000   0.000000  -0.000001   0.000060
     7  C   -0.000006   0.000000   0.000000   0.000000  -0.000003  -0.000289
     8  O    0.000000   0.000000   0.000000   0.000000   0.000000   0.000002
     9  O   -0.000012   0.000000   0.000000   0.000000   0.000000   0.000000
    10  C   -0.003527  -0.000013   0.000018  -0.000084  -0.004160  -0.000263
    11  C   -0.059077   0.006505   0.000401   0.006902  -0.055772  -0.000018
    12  C    0.544958  -0.018873  -0.034516  -0.019606   0.550640   0.000000
    13  C    4.959301   0.525801  -0.035834  -0.047262  -0.037893   0.000000
    14  C    0.525801   4.862000   0.549549  -0.025873  -0.046853   0.000000
    15  C   -0.035834   0.549549   4.852140   0.550973  -0.036069   0.000000
    16  C   -0.047262  -0.025873   0.550973   4.865980   0.523510   0.000000
    17  C   -0.037893  -0.046853  -0.036069   0.523510   4.960755   0.000000
    18  C    0.000000   0.000000   0.000000   0.000000   0.000000   5.337271
    19  C    0.000000   0.000000   0.000000   0.000000   0.000000   0.468860
    20  C    0.000000   0.000000   0.000000   0.000000   0.000000  -0.024344
    21  C    0.000000   0.000000   0.000000   0.000000   0.000000  -0.039434
    22  C    0.000000   0.000000   0.000000   0.000000   0.000000  -0.031850
    23  C    0.000000   0.000000   0.000000   0.000000   0.000000   0.518416
    24  O    0.000000   0.000000   0.000000   0.000000   0.000000  -0.062200
    25  H    0.000001   0.000000   0.000000   0.000000   0.000005   0.002852
    26  H    0.000000   0.000000   0.000000   0.000000   0.000001  -0.000058
    27  H    0.000000   0.000000   0.000000   0.000000   0.000000   0.000143
    28  H    0.000000   0.000000   0.000000   0.000000   0.000000   0.000003
    29  H    0.000000   0.000000   0.000000   0.000000   0.000000   0.000062
    30  H    0.003582  -0.000115  -0.000003  -0.000009   0.000024   0.000000
    31  H   -0.000021  -0.000019  -0.000006  -0.000120   0.003436   0.000003
    32  H    0.003932  -0.000193   0.000010   0.000126  -0.004317  -0.000065
    33  H   -0.004468   0.000070   0.000014  -0.000213   0.003520   0.000009
    34  H    0.356377  -0.043825   0.004800   0.000380   0.005968   0.000000
    35  H   -0.038956   0.357316  -0.042941   0.004530   0.000884   0.000000
    36  H    0.004686  -0.042675   0.359430  -0.042995   0.004686   0.000000
    37  H    0.000855   0.004546  -0.042867   0.356841  -0.039620   0.000000
    38  H    0.006288   0.000343   0.004941  -0.045640   0.353943   0.000000
    39  H    0.000000   0.000000   0.000000   0.000000  -0.000001  -0.049189
    40  H    0.000000   0.000000   0.000000   0.000000   0.000000   0.004837
    41  H    0.000000   0.000000   0.000000   0.000000   0.000000   0.000480
    42  H    0.000000   0.000000   0.000000   0.000000   0.000000   0.004922
    43  H    0.000000   0.000000   0.000000   0.000000   0.000000  -0.041080
              19         20         21         22         23         24
     1  O    0.001699  -0.000045  -0.000006   0.000630   0.001830  -0.041568
     2  S   -0.020909   0.002257  -0.000446   0.003363  -0.035690   0.464233
     3  N    0.000542   0.000097   0.000008  -0.000103   0.001106  -0.056676
     4  C    0.000087  -0.000004   0.000001   0.000005   0.000139   0.001951
     5  C    0.000278   0.000036   0.000007  -0.000106  -0.001633  -0.000064
     6  S    0.000017   0.000000   0.000000  -0.000004  -0.000021   0.000006
     7  C    0.000004   0.000000   0.000000   0.000000   0.000008   0.000018
     8  O    0.000000   0.000000   0.000000   0.000000  -0.000003   0.000000
     9  O    0.000000   0.000000   0.000000   0.000000   0.000000   0.000000
    10  C   -0.000042   0.000000   0.000000   0.000000  -0.000002  -0.000095
    11  C   -0.000045  -0.000005   0.000000   0.000000   0.000001   0.000001
    12  C    0.000004   0.000000   0.000000   0.000000   0.000000   0.000000
    13  C    0.000000   0.000000   0.000000   0.000000   0.000000   0.000000
    14  C    0.000000   0.000000   0.000000   0.000000   0.000000   0.000000
    15  C    0.000000   0.000000   0.000000   0.000000   0.000000   0.000000
    16  C    0.000000   0.000000   0.000000   0.000000   0.000000   0.000000
    17  C    0.000000   0.000000   0.000000   0.000000   0.000000   0.000000
    18  C    0.468860  -0.024344  -0.039434  -0.031850   0.518416  -0.062200
    19  C    4.915006   0.523710  -0.029929  -0.037796  -0.032429   0.000566
    20  C    0.523710   4.868222   0.540526  -0.028727  -0.040025   0.000108
    21  C   -0.029929   0.540526   4.842790   0.545242  -0.028881  -0.000005
    22  C   -0.037796  -0.028727   0.545242   4.881278   0.501818  -0.000051
    23  C   -0.032429  -0.040025  -0.028881   0.501818   4.931290  -0.001177
    24  O    0.000566   0.000108  -0.000005  -0.000051  -0.001177   8.212567
    25  H   -0.000111   0.000003   0.000000   0.000002  -0.000050   0.006134
    26  H    0.000003   0.000000   0.000002   0.000003  -0.000014   0.000001
    27  H   -0.000352  -0.000110  -0.000010   0.000104   0.003864   0.000017
    28  H    0.000000   0.000000   0.000000   0.000000   0.000000   0.000001
    29  H   -0.000004   0.000000   0.000000   0.000000  -0.000002  -0.000244
    30  H    0.000000   0.000000   0.000000   0.000000   0.000000   0.000000
    31  H    0.000001   0.000000   0.000000   0.000000   0.000000  -0.000005
    32  H    0.000212   0.000005   0.000001   0.000000   0.000000  -0.000004
    33  H    0.000042   0.000003   0.000000   0.000000  -0.000001   0.000000
    34  H    0.000000   0.000000   0.000000   0.000000   0.000000   0.000000
    35  H    0.000000   0.000000   0.000000   0.000000   0.000000   0.000000
    36  H    0.000000   0.000000   0.000000   0.000000   0.000000   0.000000
    37  H    0.000000   0.000000   0.000000   0.000000   0.000000   0.000000
    38  H    0.000000   0.000000   0.000000   0.000000   0.000000   0.000000
    39  H    0.363000  -0.037741   0.004344   0.000351   0.004665   0.000967
    40  H   -0.041675   0.363330  -0.041182   0.004427   0.000631   0.000001
    41  H    0.004914  -0.042113   0.362379  -0.041920   0.004878   0.000000
    42  H    0.000705   0.004337  -0.041631   0.364626  -0.041909   0.000000
    43  H    0.005014   0.000265   0.004088  -0.035414   0.359703  -0.000008
              25         26         27         28         29         30
     1  O    0.000148   0.000113   0.004245   0.000183   0.014938   0.000002
     2  S   -0.012272   0.000039   0.009189   0.000260   0.001085   0.000075
     3  N    0.296284   0.001276  -0.005895   0.001504  -0.004300   0.004184
     4  C   -0.027775  -0.026519  -0.021916  -0.028866  -0.020742  -0.029167
     5  C    0.005073   0.341986   0.323119   0.010362   0.002533  -0.006019
     6  S   -0.000226  -0.010736  -0.002234  -0.010832  -0.001013   0.009660
     7  C   -0.000762   0.009943   0.002432   0.341838   0.325526  -0.003735
     8  O    0.000002   0.000627   0.000768   0.000675  -0.000058   0.000043
     9  O    0.000002  -0.000021   0.001193  -0.000533   0.001124   0.011274
    10  C   -0.005715  -0.007239   0.003934  -0.004295   0.003378   0.362118
    11  C   -0.000231   0.001521   0.000025   0.000137  -0.000096  -0.031969
    12  C   -0.000099  -0.000070   0.000000  -0.000012   0.000001  -0.001552
    13  C    0.000001   0.000000   0.000000   0.000000   0.000000   0.003582
    14  C    0.000000   0.000000   0.000000   0.000000   0.000000  -0.000115
    15  C    0.000000   0.000000   0.000000   0.000000   0.000000  -0.000003
    16  C    0.000000   0.000000   0.000000   0.000000   0.000000  -0.000009
    17  C    0.000005   0.000001   0.000000   0.000000   0.000000   0.000024
    18  C    0.002852  -0.000058   0.000143   0.000003   0.000062   0.000000
    19  C   -0.000111   0.000003  -0.000352   0.000000  -0.000004   0.000000
    20  C    0.000003   0.000000  -0.000110   0.000000   0.000000   0.000000
    21  C    0.000000   0.000002  -0.000010   0.000000   0.000000   0.000000
    22  C    0.000002   0.000003   0.000104   0.000000   0.000000   0.000000
    23  C   -0.000050  -0.000014   0.003864   0.000000  -0.000002   0.000000
    24  O    0.006134   0.000001   0.000017   0.000001  -0.000244   0.000000
    25  H    0.371422  -0.000046   0.000017   0.000436  -0.000070   0.000004
    26  H   -0.000046   0.493646  -0.019012  -0.000259  -0.000253  -0.000214
    27  H    0.000017  -0.019012   0.478360  -0.000245  -0.000014   0.000064
    28  H    0.000436  -0.000259  -0.000245   0.500264  -0.017756  -0.000420
    29  H   -0.000070  -0.000253  -0.000014  -0.017756   0.448446   0.000186
    30  H    0.000004  -0.000214   0.000064  -0.000420   0.000186   0.509833
    31  H    0.006183   0.000185  -0.000118   0.003721   0.000017  -0.027342
    32  H    0.000185   0.000050  -0.000051  -0.000004   0.000002   0.004799
    33  H    0.000103   0.007071  -0.000170   0.000009   0.000000  -0.003809
    34  H    0.000000   0.000133   0.000000   0.000000   0.000000   0.000862
    35  H    0.000000   0.000000   0.000000   0.000000   0.000000   0.000003
    36  H    0.000000   0.000000   0.000000   0.000000   0.000000   0.000000
    37  H    0.000000   0.000000   0.000000   0.000000   0.000000   0.000000
    38  H    0.000049   0.000000   0.000000   0.000000   0.000000   0.000030
    39  H   -0.000313   0.000001  -0.000009   0.000000   0.000000   0.000000
    40  H    0.000000   0.000000   0.000001   0.000000   0.000000   0.000000
    41  H    0.000000   0.000000   0.000000   0.000000   0.000000   0.000000
    42  H    0.000000   0.000000   0.000004   0.000000   0.000000   0.000000
    43  H   -0.000005   0.000001   0.000530   0.000000   0.000002   0.000000
              31         32         33         34         35         36
     1  O    0.000001   0.000002   0.000000   0.000000   0.000000   0.000000
     2  S   -0.000222   0.000140  -0.000064   0.000000   0.000000   0.000000
     3  N   -0.006102   0.009830   0.000027   0.000000   0.000000   0.000000
     4  C   -0.032398  -0.008191  -0.004617  -0.000066   0.000000   0.000000
     5  C    0.005608  -0.000343   0.002465  -0.000012   0.000000   0.000000
     6  S   -0.000208   0.000003   0.000082   0.000011   0.000000   0.000000
     7  C   -0.005716   0.000167   0.000085   0.000002   0.000000   0.000000
     8  O    0.000001   0.000000   0.000001   0.000000   0.000000   0.000000
     9  O    0.000149  -0.000002   0.000021   0.000020   0.000000   0.000000
    10  C    0.356619  -0.037895  -0.042381   0.000241  -0.000001   0.000000
    11  C   -0.040320   0.360651   0.357791  -0.008997  -0.000184   0.000007
    12  C   -0.000830  -0.030074  -0.026798  -0.047514   0.003668   0.000738
    13  C   -0.000021   0.003932  -0.004468   0.356377  -0.038956   0.004686
    14  C   -0.000019  -0.000193   0.000070  -0.043825   0.357316  -0.042675
    15  C   -0.000006   0.000010   0.000014   0.004800  -0.042941   0.359430
    16  C   -0.000120   0.000126  -0.000213   0.000380   0.004530  -0.042995
    17  C    0.003436  -0.004317   0.003520   0.005968   0.000884   0.004686
    18  C    0.000003  -0.000065   0.000009   0.000000   0.000000   0.000000
    19  C    0.000001   0.000212   0.000042   0.000000   0.000000   0.000000
    20  C    0.000000   0.000005   0.000003   0.000000   0.000000   0.000000
    21  C    0.000000   0.000001   0.000000   0.000000   0.000000   0.000000
    22  C    0.000000   0.000000   0.000000   0.000000   0.000000   0.000000
    23  C    0.000000   0.000000  -0.000001   0.000000   0.000000   0.000000
    24  O   -0.000005  -0.000004   0.000000   0.000000   0.000000   0.000000
    25  H    0.006183   0.000185   0.000103   0.000000   0.000000   0.000000
    26  H    0.000185   0.000050   0.007071   0.000133   0.000000   0.000000
    27  H   -0.000118  -0.000051  -0.000170   0.000000   0.000000   0.000000
    28  H    0.003721  -0.000004   0.000009   0.000000   0.000000   0.000000
    29  H    0.000017   0.000002   0.000000   0.000000   0.000000   0.000000
    30  H   -0.027342   0.004799  -0.003809   0.000862   0.000003   0.000000
    31  H    0.589000  -0.004341   0.005669   0.000047   0.000000   0.000000
    32  H   -0.004341   0.577242  -0.033403   0.000053   0.000003   0.000000
    33  H    0.005669  -0.033403   0.586492   0.004707  -0.000006   0.000000
    34  H    0.000047   0.000053   0.004707   0.601749  -0.005564  -0.000181
    35  H    0.000000   0.000003  -0.000006  -0.005564   0.592427  -0.005480
    36  H    0.000000   0.000000   0.000000  -0.000181  -0.005480   0.595202
    37  H    0.000003  -0.000008   0.000003   0.000018  -0.000189  -0.005496
    38  H    0.000558   0.005980   0.000080  -0.000183   0.000018  -0.000185
    39  H   -0.000002   0.000933   0.000003   0.000000   0.000000   0.000000
    40  H    0.000000  -0.000002   0.000000   0.000000   0.000000   0.000000
    41  H    0.000000   0.000000   0.000000   0.000000   0.000000   0.000000
    42  H    0.000000   0.000000   0.000000   0.000000   0.000000   0.000000
    43  H    0.000000   0.000000   0.000000   0.000000   0.000000   0.000000
              37         38         39         40         41         42
     1  O    0.000000   0.000000   0.000051   0.000000   0.000000   0.000003
     2  S    0.000000   0.000000  -0.002007  -0.000061   0.000007  -0.000071
     3  N    0.000000  -0.000004   0.004798   0.000001   0.000000   0.000000
     4  C    0.000000  -0.000055   0.000093   0.000000   0.000000   0.000000
     5  C    0.000000   0.000000  -0.000049   0.000000   0.000000  -0.000001
     6  S    0.000000   0.000000   0.000001   0.000000   0.000000   0.000000
     7  C    0.000000   0.000001   0.000005   0.000000   0.000000   0.000000
     8  O    0.000000   0.000000   0.000000   0.000000   0.000000   0.000000
     9  O    0.000000   0.000000   0.000000   0.000000   0.000000   0.000000
    10  C   -0.000001   0.000260  -0.000036   0.000000   0.000000   0.000000
    11  C   -0.000185  -0.010046   0.000046   0.000000   0.000000   0.000000
    12  C    0.003777  -0.048344   0.000004   0.000000   0.000000   0.000000
    13  C    0.000855   0.006288   0.000000   0.000000   0.000000   0.000000
    14  C    0.004546   0.000343   0.000000   0.000000   0.000000   0.000000
    15  C   -0.042867   0.004941   0.000000   0.000000   0.000000   0.000000
    16  C    0.356841  -0.045640   0.000000   0.000000   0.000000   0.000000
    17  C   -0.039620   0.353943  -0.000001   0.000000   0.000000   0.000000
    18  C    0.000000   0.000000  -0.049189   0.004837   0.000480   0.004922
    19  C    0.000000   0.000000   0.363000  -0.041675   0.004914   0.000705
    20  C    0.000000   0.000000  -0.037741   0.363330  -0.042113   0.004337
    21  C    0.000000   0.000000   0.004344  -0.041182   0.362379  -0.041631
    22  C    0.000000   0.000000   0.000351   0.004427  -0.041920   0.364626
    23  C    0.000000   0.000000   0.004665   0.000631   0.004878  -0.041909
    24  O    0.000000   0.000000   0.000967   0.000001   0.000000   0.000000
    25  H    0.000000   0.000049  -0.000313   0.000000   0.000000   0.000000
    26  H    0.000000   0.000000   0.000001   0.000000   0.000000   0.000000
    27  H    0.000000   0.000000  -0.000009   0.000001   0.000000   0.000004
    28  H    0.000000   0.000000   0.000000   0.000000   0.000000   0.000000
    29  H    0.000000   0.000000   0.000000   0.000000   0.000000   0.000000
    30  H    0.000000   0.000030   0.000000   0.000000   0.000000   0.000000
    31  H    0.000003   0.000558  -0.000002   0.000000   0.000000   0.000000
    32  H   -0.000008   0.005980   0.000933  -0.000002   0.000000   0.000000
    33  H    0.000003   0.000080   0.000003   0.000000   0.000000   0.000000
    34  H    0.000018  -0.000183   0.000000   0.000000   0.000000   0.000000
    35  H   -0.000189   0.000018   0.000000   0.000000   0.000000   0.000000
    36  H   -0.005496  -0.000185   0.000000   0.000000   0.000000   0.000000
    37  H    0.596388  -0.005716   0.000000   0.000000   0.000000   0.000000
    38  H   -0.005716   0.619383   0.000001   0.000000   0.000000   0.000000
    39  H    0.000000   0.000001   0.549283  -0.005426  -0.000154   0.000015
    40  H    0.000000   0.000000  -0.005426   0.570117  -0.005365  -0.000168
    41  H    0.000000   0.000000  -0.000154  -0.005365   0.572538  -0.005396
    42  H    0.000000   0.000000   0.000015  -0.000168  -0.005396   0.565195
    43  H    0.000000   0.000000  -0.000141   0.000013  -0.000140  -0.004829
              43
     1  O    0.012402
     2  S   -0.008173
     3  N    0.000257
     4  C   -0.000004
     5  C   -0.000183
     6  S    0.000050
     7  C   -0.000001
     8  O    0.000007
     9  O    0.000000
    10  C    0.000000
    11  C    0.000000
    12  C    0.000000
    13  C    0.000000
    14  C    0.000000
    15  C    0.000000
    16  C    0.000000
    17  C    0.000000
    18  C   -0.041080
    19  C    0.005014
    20  C    0.000265
    21  C    0.004088
    22  C   -0.035414
    23  C    0.359703
    24  O   -0.000008
    25  H   -0.000005
[...]
    39  H    0.000000   0.000000   0.000000   0.000000  -0.000001  -0.050620
    40  H    0.000000   0.000000   0.000000   0.000000   0.000000   0.004761
    41  H    0.000000   0.000000   0.000000   0.000000   0.000000   0.000472
    42  H    0.000000   0.000000   0.000000   0.000000   0.000000   0.004913
    43  H    0.000000   0.000000   0.000000   0.000000   0.000000  -0.044833
              19         20         21         22         23         24
     1  O    0.001644  -0.000045  -0.000005   0.000610   0.001682  -0.041062
     2  S   -0.020979   0.002238  -0.000444   0.003371  -0.035725   0.464232
     3  N    0.000321   0.000102   0.000008  -0.000105   0.001136  -0.056800
     4  C    0.000073  -0.000003   0.000001   0.000005   0.000130   0.001931
     5  C    0.000293   0.000037   0.000006  -0.000106  -0.001682  -0.000065
     6  S    0.000016   0.000000   0.000000  -0.000004  -0.000022   0.000006
     7  C    0.000003   0.000000   0.000000   0.000000   0.000009   0.000019
     8  O    0.000000   0.000000   0.000000   0.000000  -0.000003   0.000000
     9  O    0.000000   0.000000   0.000000   0.000000   0.000000   0.000000
    10  C   -0.000041   0.000000   0.000000   0.000000  -0.000002  -0.000095
    11  C   -0.000043  -0.000005   0.000000   0.000000   0.000001   0.000001
    12  C    0.000004   0.000000   0.000000   0.000000   0.000000   0.000000
    13  C    0.000000   0.000000   0.000000   0.000000   0.000000   0.000000
    14  C    0.000000   0.000000   0.000000   0.000000   0.000000   0.000000
    15  C    0.000000   0.000000   0.000000   0.000000   0.000000   0.000000
    16  C    0.000000   0.000000   0.000000   0.000000   0.000000   0.000000
    17  C    0.000000   0.000000   0.000000   0.000000   0.000000   0.000000
    18  C    0.466628  -0.025676  -0.039462  -0.031694   0.512432  -0.062948
    19  C    4.920716   0.525142  -0.030725  -0.038090  -0.031038   0.000670
    20  C    0.525142   4.868192   0.538320  -0.029234  -0.039747   0.000109
    21  C   -0.030725   0.538320   4.848317   0.543079  -0.029805  -0.000004
    22  C   -0.038090  -0.029234   0.543079   4.881006   0.504767  -0.000048
    23  C   -0.031038  -0.039747  -0.029805   0.504767   4.933033  -0.001189
    24  O    0.000670   0.000109  -0.000004  -0.000048  -0.001189   8.231604
    25  H   -0.000117   0.000003   0.000000   0.000002  -0.000046   0.005421
    26  H    0.000002   0.000000   0.000002   0.000003  -0.000015   0.000001
    27  H   -0.000364  -0.000112  -0.000010   0.000116   0.004042   0.000016
    28  H    0.000000   0.000000   0.000000   0.000000   0.000000   0.000001
    29  H   -0.000004   0.000000   0.000000   0.000000  -0.000002  -0.000241
    30  H    0.000000   0.000000   0.000000   0.000000   0.000000   0.000000
    31  H    0.000001   0.000000   0.000000   0.000000   0.000000  -0.000005
    32  H    0.000230   0.000005   0.000001   0.000000  -0.000001  -0.000005
    33  H    0.000041   0.000003   0.000000   0.000000  -0.000001   0.000000
    34  H    0.000000   0.000000   0.000000   0.000000   0.000000   0.000000
    35  H    0.000000   0.000000   0.000000   0.000000   0.000000   0.000000
    36  H    0.000000   0.000000   0.000000   0.000000   0.000000   0.000000
    37  H    0.000000   0.000000   0.000000   0.000000   0.000000   0.000000
    38  H    0.000000   0.000000   0.000000   0.000000   0.000000   0.000000
    39  H    0.364552  -0.035117   0.004258   0.000339   0.004420   0.000856
    40  H   -0.040658   0.365463  -0.039849   0.004301   0.000620   0.000001
    41  H    0.004842  -0.040940   0.364350  -0.040915   0.004814   0.000000
    42  H    0.000662   0.004256  -0.040330   0.366386  -0.041499   0.000000
    43  H    0.004937   0.000237   0.004182  -0.034269   0.360961  -0.000007
              25         26         27         28         29         30
     1  O    0.000105   0.000110   0.004185   0.000176   0.015148   0.000002
     2  S   -0.011457   0.000042   0.009098   0.000251   0.001217   0.000066
     3  N    0.298054   0.001248  -0.005995   0.001406  -0.004490   0.004228
     4  C   -0.026149  -0.026370  -0.022134  -0.027922  -0.021016  -0.029799
     5  C    0.004718   0.344237   0.323594   0.009940   0.002727  -0.006162
     6  S   -0.000235  -0.010805  -0.002487  -0.011221  -0.001686   0.009424
     7  C   -0.000729   0.009623   0.002430   0.344478   0.325407  -0.003860
     8  O    0.000001   0.000611   0.000718   0.000659  -0.000043   0.000038
     9  O    0.000002  -0.000123   0.001187  -0.000608   0.001144   0.010344
    10  C   -0.005240  -0.007014   0.003912  -0.003944   0.003379   0.361818
    11  C   -0.000248   0.001822   0.000011   0.000128  -0.000095  -0.033026
    12  C   -0.000091  -0.000082   0.000000  -0.000012   0.000001  -0.001520
    13  C    0.000001   0.000003   0.000000   0.000000   0.000000   0.003668
    14  C    0.000000   0.000000   0.000000   0.000000   0.000000  -0.000119
    15  C    0.000000   0.000000   0.000000   0.000000   0.000000  -0.000003
    16  C    0.000000   0.000000   0.000000   0.000000   0.000000  -0.000009
    17  C    0.000005   0.000001   0.000000   0.000000   0.000000   0.000038
    18  C    0.002567  -0.000064   0.000212   0.000003   0.000060   0.000000
    19  C   -0.000117   0.000002  -0.000364   0.000000  -0.000004   0.000000
    20  C    0.000003   0.000000  -0.000112   0.000000   0.000000   0.000000
    21  C    0.000000   0.000002  -0.000010   0.000000   0.000000   0.000000
    22  C    0.000002   0.000003   0.000116   0.000000   0.000000   0.000000
    23  C   -0.000046  -0.000015   0.004042   0.000000  -0.000002   0.000000
    24  O    0.005421   0.000001   0.000016   0.000001  -0.000241   0.000000
    25  H    0.346602  -0.000039   0.000014   0.000389  -0.000059   0.000019
    26  H   -0.000039   0.474599  -0.017347  -0.000244  -0.000247  -0.000190
    27  H    0.000014  -0.017347   0.473860  -0.000235  -0.000026   0.000058
    28  H    0.000389  -0.000244  -0.000235   0.479813  -0.016146  -0.000365
    29  H   -0.000059  -0.000247  -0.000026  -0.016146   0.451445   0.000184
    30  H    0.000019  -0.000190   0.000058  -0.000365   0.000184   0.521913
    31  H    0.005433   0.000183  -0.000113   0.003495   0.000014  -0.027269
    32  H    0.000231   0.000035  -0.000049  -0.000004   0.000002   0.004822
    33  H    0.000089   0.006901  -0.000159   0.000009   0.000000  -0.003811
    34  H    0.000000   0.000130   0.000000   0.000000   0.000000   0.000887
    35  H    0.000000   0.000000   0.000000   0.000000   0.000000   0.000003
    36  H    0.000000   0.000000   0.000000   0.000000   0.000000   0.000000
    37  H    0.000000   0.000000   0.000000   0.000000   0.000000   0.000000
    38  H    0.000042   0.000000   0.000000   0.000000   0.000000   0.000029
    39  H   -0.000282   0.000001  -0.000009   0.000000   0.000000   0.000000
    40  H    0.000000   0.000000   0.000001   0.000000   0.000000   0.000000
    41  H    0.000000   0.000000   0.000000   0.000000   0.000000   0.000000
    42  H    0.000000   0.000000   0.000004   0.000000   0.000000   0.000000
    43  H   -0.000004   0.000001   0.000553   0.000000   0.000001   0.000000
              31         32         33         34         35         36
     1  O    0.000001   0.000002   0.000000   0.000000   0.000000   0.000000
     2  S   -0.000193   0.000124  -0.000065   0.000000   0.000000   0.000000
     3  N   -0.005706   0.009380   0.000006   0.000000   0.000000   0.000000
     4  C   -0.031000  -0.008216  -0.004659  -0.000065   0.000000   0.000000
     5  C    0.005435  -0.000324   0.002565  -0.000011   0.000000   0.000000
     6  S   -0.000273   0.000008   0.000049   0.000010   0.000000   0.000000
     7  C   -0.005545   0.000161   0.000076   0.000002   0.000000   0.000000
     8  O    0.000001   0.000000   0.000001   0.000000   0.000000   0.000000
     9  O    0.000139  -0.000002   0.000021   0.000020   0.000000   0.000000
    10  C    0.360937  -0.037192  -0.042018   0.000228  -0.000001   0.000000
    11  C   -0.038954   0.362336   0.359503  -0.008780  -0.000180   0.000006
    12  C   -0.000855  -0.029560  -0.027114  -0.047520   0.003649   0.000693
    13  C    0.000010   0.003877  -0.004165   0.357934  -0.038793   0.004646
    14  C   -0.000018  -0.000191   0.000080  -0.043753   0.359048  -0.042331
    15  C   -0.000006   0.000010   0.000014   0.004800  -0.042529   0.361295
    16  C   -0.000115   0.000129  -0.000211   0.000334   0.004500  -0.042498
    17  C    0.003301  -0.004104   0.003412   0.005941   0.000828   0.004639
    18  C    0.000003  -0.000066   0.000009   0.000000   0.000000   0.000000
    19  C    0.000001   0.000230   0.000041   0.000000   0.000000   0.000000
    20  C    0.000000   0.000005   0.000003   0.000000   0.000000   0.000000
    21  C    0.000000   0.000001   0.000000   0.000000   0.000000   0.000000
    22  C    0.000000   0.000000   0.000000   0.000000   0.000000   0.000000
    23  C    0.000000  -0.000001  -0.000001   0.000000   0.000000   0.000000
    24  O   -0.000005  -0.000005   0.000000   0.000000   0.000000   0.000000
    25  H    0.005433   0.000231   0.000089   0.000000   0.000000   0.000000
    26  H    0.000183   0.000035   0.006901   0.000130   0.000000   0.000000
    27  H   -0.000113  -0.000049  -0.000159   0.000000   0.000000   0.000000
    28  H    0.003495  -0.000004   0.000009   0.000000   0.000000   0.000000
    29  H    0.000014   0.000002   0.000000   0.000000   0.000000   0.000000
    30  H   -0.027269   0.004822  -0.003811   0.000887   0.000003   0.000000
    31  H    0.565235  -0.004172   0.005400   0.000045   0.000000   0.000000
    32  H   -0.004172   0.565827  -0.032520   0.000056   0.000003   0.000000
    33  H    0.005400  -0.032520   0.577392   0.004560  -0.000005   0.000000
    34  H    0.000045   0.000056   0.004560   0.595105  -0.005460  -0.000176
    35  H    0.000000   0.000003  -0.000005  -0.005460   0.582462  -0.005334
    36  H    0.000000   0.000000   0.000000  -0.000176  -0.005334   0.583753
    37  H    0.000003  -0.000007   0.000003   0.000017  -0.000182  -0.005326
    38  H    0.000516   0.005701   0.000081  -0.000175   0.000017  -0.000176
    39  H   -0.000002   0.000880   0.000003   0.000000   0.000000   0.000000
    40  H    0.000000  -0.000001   0.000000   0.000000   0.000000   0.000000
    41  H    0.000000   0.000000   0.000000   0.000000   0.000000   0.000000
    42  H    0.000000   0.000000   0.000000   0.000000   0.000000   0.000000
    43  H    0.000000   0.000000   0.000000   0.000000   0.000000   0.000000
              37         38         39         40         41         42
     1  O    0.000000   0.000000   0.000048   0.000000   0.000000   0.000003
     2  S    0.000000   0.000000  -0.001690  -0.000067   0.000007  -0.000075
     3  N    0.000000  -0.000003   0.004499   0.000001   0.000000   0.000000
     4  C    0.000000  -0.000052   0.000083   0.000000   0.000000   0.000000
     5  C    0.000000   0.000000  -0.000045   0.000000   0.000000  -0.000001
     6  S    0.000000   0.000000   0.000001   0.000000   0.000000   0.000000
     7  C    0.000000   0.000001   0.000004   0.000000   0.000000   0.000000
     8  O    0.000000   0.000000   0.000000   0.000000   0.000000   0.000000
     9  O    0.000000   0.000000   0.000000   0.000000   0.000000   0.000000
    10  C   -0.000001   0.000261  -0.000034   0.000000   0.000000   0.000000
    11  C   -0.000181  -0.009639   0.000050   0.000000   0.000000   0.000000
    12  C    0.003710  -0.046757   0.000004   0.000000   0.000000   0.000000
    13  C    0.000819   0.006143   0.000000   0.000000   0.000000   0.000000
    14  C    0.004492   0.000315   0.000000   0.000000   0.000000   0.000000
    15  C   -0.042528   0.004830   0.000000   0.000000   0.000000   0.000000
    16  C    0.358878  -0.044547   0.000000   0.000000   0.000000   0.000000
    17  C   -0.038829   0.356920  -0.000001   0.000000   0.000000   0.000000
    18  C    0.000000   0.000000  -0.050620   0.004761   0.000472   0.004913
    19  C    0.000000   0.000000   0.364552  -0.040658   0.004842   0.000662
    20  C    0.000000   0.000000  -0.035117   0.365463  -0.040940   0.004256
    21  C    0.000000   0.000000   0.004258  -0.039849   0.364350  -0.040330
    22  C    0.000000   0.000000   0.000339   0.004301  -0.040915   0.366386
    23  C    0.000000   0.000000   0.004420   0.000620   0.004814  -0.041499
    24  O    0.000000   0.000000   0.000856   0.000001   0.000000   0.000000
    25  H    0.000000   0.000042  -0.000282   0.000000   0.000000   0.000000
    26  H    0.000000   0.000000   0.000001   0.000000   0.000000   0.000000
    27  H    0.000000   0.000000  -0.000009   0.000001   0.000000   0.000004
    28  H    0.000000   0.000000   0.000000   0.000000   0.000000   0.000000
    29  H    0.000000   0.000000   0.000000   0.000000   0.000000   0.000000
    30  H    0.000000   0.000029   0.000000   0.000000   0.000000   0.000000
    31  H    0.000003   0.000516  -0.000002   0.000000   0.000000   0.000000
    32  H   -0.000007   0.005701   0.000880  -0.000001   0.000000   0.000000
    33  H    0.000003   0.000081   0.000003   0.000000   0.000000   0.000000
    34  H    0.000017  -0.000175   0.000000   0.000000   0.000000   0.000000
    35  H   -0.000182   0.000017   0.000000   0.000000   0.000000   0.000000
    36  H   -0.005326  -0.000176   0.000000   0.000000   0.000000   0.000000
    37  H    0.583199  -0.005454   0.000000   0.000000   0.000000   0.000000
    38  H   -0.005454   0.599165   0.000001   0.000000   0.000000   0.000000
    39  H    0.000000   0.000001   0.537310  -0.005252  -0.000147   0.000014
    40  H    0.000000   0.000000  -0.005252   0.550749  -0.005123  -0.000160
    41  H    0.000000   0.000000  -0.000147  -0.005123   0.553886  -0.005183
    42  H    0.000000   0.000000   0.000014  -0.000160  -0.005183   0.550142
    43  H    0.000000   0.000000  -0.000139   0.000013  -0.000138  -0.004902
              43
     1  O    0.012174
     2  S   -0.008004
     3  N    0.000248
     4  C   -0.000003
     5  C   -0.000191
     6  S    0.000051
     7  C   -0.000001
     8  O    0.000007
     9  O    0.000000
    10  C    0.000000
    11  C    0.000000
    12  C    0.000000
    13  C    0.000000
    14  C    0.000000
    15  C    0.000000
    16  C    0.000000
    17  C    0.000000
    18  C   -0.044833
    19  C    0.004937
    20  C    0.000237
    21  C    0.004182
    22  C   -0.034269
    23  C    0.360961
    24  O   -0.000007
    25  H   -0.000004
    26  H    0.000001
    27  H    0.000553
    28  H    0.000000
    29  H    0.000001
    30  H    0.000000
    31  H    0.000000
    32  H    0.000000
    33  H    0.000000
    34  H    0.000000
    35  H    0.000000
    36  H    0.000000
    37  H    0.000000
    38  H    0.000000
    39  H   -0.000139
    40  H    0.000013
    41  H   -0.000138
    42  H   -0.004902
    43  H    0.520614
 Mulliken charges:
               1
     1  O   -0.563174
     2  S    1.217598
     3  N   -0.741446
     4  C    0.191447
     5  C   -0.503860
     6  S    1.108724
     7  C   -0.495881
     8  O   -0.525735
     9  O   -0.551784
    10  C   -0.307763
    11  C   -0.360302
    12  C    0.167895
    13  C   -0.186693
    14  C   -0.138595
    15  C   -0.140758
    16  C   -0.138368
    17  C   -0.189746
    18  C   -0.153002
    19  C   -0.128716
    20  C   -0.133228
    21  C   -0.121888
    22  C   -0.129518
    23  C   -0.147270
    24  O   -0.542400
    25  H    0.381000
    26  H    0.222988
    27  H    0.225029
    28  H    0.219951
    29  H    0.243323
    30  H    0.188590
    31  H    0.164072
    32  H    0.162600
    33  H    0.154512
    34  H    0.135871
    35  H    0.141975
    36  H    0.140809
    37  H    0.141387
    38  H    0.132782
    39  H    0.176016
    40  H    0.165201
    41  H    0.164075
    42  H    0.165768
    43  H    0.188515
 Sum of Mulliken charges =   0.00000
 Mulliken charges with hydrogens summed into heavy atoms:
               1
     1  O   -0.563174
     2  S    1.217598
     3  N   -0.360445
     4  C    0.191447
     5  C   -0.055843
     6  S    1.108724
     7  C   -0.032606
     8  O   -0.525735
     9  O   -0.551784
    10  C    0.044899
    11  C   -0.043191
    12  C    0.167895
    13  C   -0.050823
    14  C    0.003380
    15  C    0.000050
    16  C    0.003019
    17  C   -0.056964
    18  C   -0.153002
    19  C    0.047300
    20  C    0.031974
    21  C    0.042187
    22  C    0.036250
    23  C    0.041244
    24  O   -0.542400
 Electronic spatial extent (au):  <R**2>=          10400.8004
 Charge=              0.0000 electrons
 Dipole moment (field-independent basis, Debye):
    X=             -2.0721    Y=             -7.2552    Z=             -1.2421  Tot=              7.6469
 Quadrupole moment (field-independent basis, Debye-Ang):
   XX=           -150.3321   YY=           -170.9756   ZZ=           -151.8530
   XY=             -7.9542   XZ=            -20.0018   YZ=             15.2953
 Traceless Quadrupole moment (field-independent basis, Debye-Ang):
   XX=              7.3881   YY=            -13.2554   ZZ=              5.8672
   XY=             -7.9542   XZ=            -20.0018   YZ=             15.2953
 Octapole moment (field-independent basis, Debye-Ang**2):
  XXX=            -15.8152  YYY=           -113.3670  ZZZ=            -16.8174  XYY=             12.8765
  XXY=            -41.3019  XXZ=            -66.5655  XZZ=             -9.4054  YZZ=              4.1330
  YYZ=             34.0795  XYZ=             40.5892
 Hexadecapole moment (field-independent basis, Debye-Ang**3):
 XXXX=          -8053.9556 YYYY=          -3953.9256 ZZZZ=          -1427.1450 XXXY=             49.4759
 XXXZ=           -188.1932 YYYX=           -145.6541 YYYZ=            214.4485 ZZZX=            -92.9252
 ZZZY=             32.0248 XXYY=          -2143.8998 XXZZ=          -1644.9783 YYZZ=           -824.8206
 XXYZ=             23.5971 YYXZ=           -113.7151 ZZXY=            -24.2063
 N-N= 2.453762504204D+03 E-N=-9.157391400337D+03  KE= 1.798688411920D+03
 No NMR shielding tensors so no spin-rotation constants.
 Leave Link  601 at Sat Aug  8 00:35:30 2020, MaxMem=    33554432 cpu:         0.4
 (Enter /prod/apps/gaussian/g09d1/l9999.exe)
 1\1\GINC-PIRINEUS12\SP\RB3LYP\6-31G(d)\C17H19N1O4S2\UBAFAR01\08-Aug-20
 20\0\\#p b3lyp/6-31G(d) scrf=(iefpcm,read,solvent=n-Octanol) geom=allc
 heck guess=read\\SM39.n.14.pdb.xyz\\0,1\O,0,0.197,2.331,0.404\S,0,1.53
 7,1.892,0.826\N,0,2.491,1.518,-0.513\C,0,2.233,2.,-1.874\C,0,2.054,3.5
 51,-1.989\S,0,0.721,3.284,-3.214\C,0,0.848,1.607,-2.51\O,0,-0.532,3.99
 ,-2.909\O,0,1.257,3.326,-4.588\C,0,3.385,1.499,-2.766\C,0,4.781,1.986,
 -2.346\C,0,5.865,1.455,-3.256\C,0,6.192,2.117,-4.447\C,0,7.171,1.61,-5
 .301\C,0,7.842,0.429,-4.977\C,0,7.527,-0.239,-3.792\C,0,6.546,0.273,-2
 .941\C,0,2.351,3.306,1.557\C,0,3.706,3.228,1.889\C,0,4.306,4.318,2.514
 \C,0,3.555,5.461,2.806\C,0,2.201,5.521,2.475\C,0,1.588,4.436,1.848\O,0
 ,1.691,0.734,1.714\H,0,2.714,0.525,-0.47\H,0,2.908,4.111,-2.365\H,0,1.
 632,4.025,-1.104\H,0,0.857,0.806,-3.249\H,0,0.067,1.475,-1.764\H,0,3.1
 67,1.82,-3.79\H,0,3.363,0.402,-2.773\H,0,4.971,1.675,-1.315\H,0,4.797,
 3.081,-2.352\H,0,5.678,3.038,-4.704\H,0,7.413,2.139,-6.217\H,0,8.606,0
 .036,-5.639\H,0,8.046,-1.154,-3.528\H,0,6.309,-0.247,-2.018\H,0,4.278,
 2.339,1.656\H,0,5.358,4.277,2.774\H,0,4.03,6.306,3.292\H,0,1.621,6.408
 ,2.704\H,0,0.538,4.456,1.581\\Version=AM64L-G09RevD.01\State=1-A\HF=-1
 811.1561335\RMSD=5.549e-09\Dipole=2.7784997,0.0465243,1.1528019\Quadru
 pole=-8.9550354,12.5158975,-3.5608621,2.8028269,-1.8833173,17.9562617\
 PG=C01 [X(C17H19N1O4S2)]\\@


 ANYONE WHO IS NOT SHOCKED BY QUANTUM THEORY HAS
 NOT UNDERSTOOD IT. -- NIELS BOHR(1885-1962)
 Job cpu time:       0 days  0 hours  6 minutes 12.4 seconds.
 File lengths (MBytes):  RWF=    475 Int=      0 D2E=      0 Chk=      9 Scr=      1
 Normal termination of Gaussian 09 at Sat Aug  8 00:35:30 2020.
