 Entering Gaussian System, Link 0=g09
 Initial command:
 /prod/apps/gaussian/g09d1/l1.exe "/tmp/ubafar01/1462886/Gau-71131.inp" -scrdir="/tmp/ubafar01/1462886/"
 Entering Link 1 = /prod/apps/gaussian/g09d1/l1.exe PID=     71133.
  
 Copyright (c) 1988,1990,1992,1993,1995,1998,2003,2009,2013,
            Gaussian, Inc.  All Rights Reserved.
  
 This is part of the Gaussian(R) 09 program.  It is based on
 the Gaussian(R) 03 system (copyright 2003, Gaussian, Inc.),
 the Gaussian(R) 98 system (copyright 1998, Gaussian, Inc.),
 the Gaussian(R) 94 system (copyright 1995, Gaussian, Inc.),
 the Gaussian 92(TM) system (copyright 1992, Gaussian, Inc.),
 the Gaussian 90(TM) system (copyright 1990, Gaussian, Inc.),
 the Gaussian 88(TM) system (copyright 1988, Gaussian, Inc.),
 the Gaussian 86(TM) system (copyright 1986, Carnegie Mellon
 University), and the Gaussian 82(TM) system (copyright 1983,
 Carnegie Mellon University). Gaussian is a federally registered
 trademark of Gaussian, Inc.
  
 This software contains proprietary and confidential information,
 including trade secrets, belonging to Gaussian, Inc.
  
 This software is provided under written license and may be
 used, copied, transmitted, or stored only in accord with that
 written license.
  
 The following legend is applicable only to US Government
 contracts under FAR:
  
                    RESTRICTED RIGHTS LEGEND
  
 Use, reproduction and disclosure by the US Government is
 subject to restrictions as set forth in subparagraphs (a)
 and (c) of the Commercial Computer Software - Restricted
 Rights clause in FAR 52.227-19.
  
 Gaussian, Inc.
 340 Quinnipiac St., Bldg. 40, Wallingford CT 06492
  
  
 ---------------------------------------------------------------
 Warning -- This program may not be used in any manner that
 competes with the business of Gaussian, Inc. or will provide
 assistance to any competitor of Gaussian, Inc.  The licensee
 of this program is prohibited from giving any competitor of
 Gaussian, Inc. access to this program.  By using this program,
 the user acknowledges that Gaussian, Inc. is engaged in the
 business of creating and licensing software in the field of
 computational chemistry and represents and warrants to the
 licensee that it is not a competitor of Gaussian, Inc. and that
 it will not use this program in any manner prohibited above.
 ---------------------------------------------------------------
  

 Cite this work as:
 Gaussian 09, Revision D.01,
 M. J. Frisch, G. W. Trucks, H. B. Schlegel, G. E. Scuseria, 
 M. A. Robb, J. R. Cheeseman, G. Scalmani, V. Barone, B. Mennucci, 
 G. A. Petersson, H. Nakatsuji, M. Caricato, X. Li, H. P. Hratchian, 
 A. F. Izmaylov, J. Bloino, G. Zheng, J. L. Sonnenberg, M. Hada, 
 M. Ehara, K. Toyota, R. Fukuda, J. Hasegawa, M. Ishida, T. Nakajima, 
 Y. Honda, O. Kitao, H. Nakai, T. Vreven, J. A. Montgomery, Jr., 
 J. E. Peralta, F. Ogliaro, M. Bearpark, J. J. Heyd, E. Brothers, 
 K. N. Kudin, V. N. Staroverov, T. Keith, R. Kobayashi, J. Normand, 
 K. Raghavachari, A. Rendell, J. C. Burant, S. S. Iyengar, J. Tomasi, 
 M. Cossi, N. Rega, J. M. Millam, M. Klene, J. E. Knox, J. B. Cross, 
 V. Bakken, C. Adamo, J. Jaramillo, R. Gomperts, R. E. Stratmann, 
 O. Yazyev, A. J. Austin, R. Cammi, C. Pomelli, J. W. Ochterski, 
 R. L. Martin, K. Morokuma, V. G. Zakrzewski, G. A. Voth, 
 P. Salvador, J. J. Dannenberg, S. Dapprich, A. D. Daniels, 
 O. Farkas, J. B. Foresman, J. V. Ortiz, J. Cioslowski, 
 and D. J. Fox, Gaussian, Inc., Wallingford CT, 2013.
 
 ******************************************
 Gaussian 09:  AM64L-G09RevD.01 24-Apr-2013
                 2-Oct-2020 
 ******************************************
 %nproc=1
 Will use up to    1 processors via shared memory.
 %Chk=SM40.n.21.pdb.xyz.mst.n.w.chk
 %mem=16GB
 -----------------
 #p b3lyp/6-31G(d)
 -----------------
 1/38=1/1;
 2/12=2,17=6,18=5,40=1/2;
 3/5=1,6=6,7=1,11=2,16=1,25=1,30=1,74=-5/1,2,3;
 4//1;
 5/5=2,38=5/2;
 6/7=2,8=2,9=2,10=2,28=1/1;
 99/5=1,9=1/99;
 Leave Link    1 at Fri Oct  2 02:31:40 2020, MaxMem=  2147483648 cpu:         0.0
 (Enter /prod/apps/gaussian/g09d1/l101.exe)
 -----------------
 SM40.n.21.pdb.xyz
 -----------------
 Symbolic Z-matrix:
 Charge =  0 Multiplicity = 1
 C                     3.827     1.067    -0.176 
 N                     2.797     0.034    -0.368 
 C                     1.59      0.513    -1.062 
 S                     3.38     -1.442    -0.893 
 O                     2.208    -2.27     -1.222 
 O                     4.435    -1.343    -1.915 
 N                     4.124    -1.912     0.542 
 C                     5.074    -3.057     0.554 
 C                     4.485    -4.355    -0.111 
 S                     4.008    -4.985     1.532 
 O                     2.594    -4.695     1.847 
 O                     4.536    -6.324     1.854 
 C                     5.102    -3.603     2.019 
 C                     6.448    -2.564     0.052 
 C                     7.585    -3.597    -0.083 
 C                     7.532    -4.495    -1.306 
 C                     7.36     -3.959    -2.591 
 C                     7.349    -4.782    -3.717 
 C                     7.512    -6.164    -3.579 
 C                     7.685    -6.711    -2.307 
 C                     7.695    -5.882    -1.183 
 H                     3.375     1.872     0.407 
 H                     4.19      1.472    -1.127 
 H                     4.658     0.648     0.388 
 H                     1.184     1.331    -0.464 
 H                     0.857    -0.289    -1.115 
 H                     1.806     0.886    -2.07 
 H                     3.392    -1.979     1.252 
 H                     5.242    -5.007    -0.545 
 H                     3.645    -4.216    -0.789 
 H                     6.077    -3.996     2.309 
 H                     4.705    -2.955     2.8 
 H                     6.762    -1.787     0.756 
 H                     6.291    -2.071    -0.907 
 H                     7.669    -4.217     0.817 
 H                     8.515    -3.018    -0.123 
 H                     7.231    -2.888    -2.71 
 H                     7.215    -4.346    -4.702 
 H                     7.503    -6.806    -4.454 
 H                     7.812    -7.782    -2.187 
 H                     7.828    -6.314    -0.195 
 
 NAtoms=     41 NQM=       41 NQMF=       0 NMMI=      0 NMMIF=      0
                NMic=       0 NMicF=      0.
                    Isotopes and Nuclear Properties:
 (Nuclear quadrupole moments (NQMom) in fm**2, nuclear magnetic moments (NMagM)
  in nuclear magnetons)

  Atom         1           2           3           4           5           6           7           8           9          10
 IAtWgt=          12          14          12          32          16          16          14          12          12          32
 AtmWgt=  12.0000000  14.0030740  12.0000000  31.9720718  15.9949146  15.9949146  14.0030740  12.0000000  12.0000000  31.9720718
 NucSpn=           0           2           0           0           0           0           2           0           0           0
 AtZEff=   0.0000000   0.0000000   0.0000000   0.0000000   0.0000000   0.0000000   0.0000000   0.0000000   0.0000000   0.0000000
 NQMom=    0.0000000   2.0440000   0.0000000   0.0000000   0.0000000   0.0000000   2.0440000   0.0000000   0.0000000   0.0000000
 NMagM=    0.0000000   0.4037610   0.0000000   0.0000000   0.0000000   0.0000000   0.4037610   0.0000000   0.0000000   0.0000000
 AtZNuc=   6.0000000   7.0000000   6.0000000  16.0000000   8.0000000   8.0000000   7.0000000   6.0000000   6.0000000  16.0000000

  Atom        11          12          13          14          15          16          17          18          19          20
 IAtWgt=          16          16          12          12          12          12          12          12          12          12
 AtmWgt=  15.9949146  15.9949146  12.0000000  12.0000000  12.0000000  12.0000000  12.0000000  12.0000000  12.0000000  12.0000000
 NucSpn=           0           0           0           0           0           0           0           0           0           0
 AtZEff=   0.0000000   0.0000000   0.0000000   0.0000000   0.0000000   0.0000000   0.0000000   0.0000000   0.0000000   0.0000000
 NQMom=    0.0000000   0.0000000   0.0000000   0.0000000   0.0000000   0.0000000   0.0000000   0.0000000   0.0000000   0.0000000
 NMagM=    0.0000000   0.0000000   0.0000000   0.0000000   0.0000000   0.0000000   0.0000000   0.0000000   0.0000000   0.0000000
 AtZNuc=   8.0000000   8.0000000   6.0000000   6.0000000   6.0000000   6.0000000   6.0000000   6.0000000   6.0000000   6.0000000

  Atom        21          22          23          24          25          26          27          28          29          30
 IAtWgt=          12           1           1           1           1           1           1           1           1           1
 AtmWgt=  12.0000000   1.0078250   1.0078250   1.0078250   1.0078250   1.0078250   1.0078250   1.0078250   1.0078250   1.0078250
 NucSpn=           0           1           1           1           1           1           1           1           1           1
 AtZEff=   0.0000000   0.0000000   0.0000000   0.0000000   0.0000000   0.0000000   0.0000000   0.0000000   0.0000000   0.0000000
 NQMom=    0.0000000   0.0000000   0.0000000   0.0000000   0.0000000   0.0000000   0.0000000   0.0000000   0.0000000   0.0000000
 NMagM=    0.0000000   2.7928460   2.7928460   2.7928460   2.7928460   2.7928460   2.7928460   2.7928460   2.7928460   2.7928460
 AtZNuc=   6.0000000   1.0000000   1.0000000   1.0000000   1.0000000   1.0000000   1.0000000   1.0000000   1.0000000   1.0000000

  Atom        31          32          33          34          35          36          37          38          39          40
 IAtWgt=           1           1           1           1           1           1           1           1           1           1
 AtmWgt=   1.0078250   1.0078250   1.0078250   1.0078250   1.0078250   1.0078250   1.0078250   1.0078250   1.0078250   1.0078250
 NucSpn=           1           1           1           1           1           1           1           1           1           1
 AtZEff=   0.0000000   0.0000000   0.0000000   0.0000000   0.0000000   0.0000000   0.0000000   0.0000000   0.0000000   0.0000000
 NQMom=    0.0000000   0.0000000   0.0000000   0.0000000   0.0000000   0.0000000   0.0000000   0.0000000   0.0000000   0.0000000
 NMagM=    2.7928460   2.7928460   2.7928460   2.7928460   2.7928460   2.7928460   2.7928460   2.7928460   2.7928460   2.7928460
 AtZNuc=   1.0000000   1.0000000   1.0000000   1.0000000   1.0000000   1.0000000   1.0000000   1.0000000   1.0000000   1.0000000

  Atom        41
 IAtWgt=           1
 AtmWgt=   1.0078250
 NucSpn=           1
 AtZEff=   0.0000000
 NQMom=    0.0000000
 NMagM=    2.7928460
 AtZNuc=   1.0000000
 Leave Link  101 at Fri Oct  2 02:31:48 2020, MaxMem=  2147483648 cpu:         6.7
 (Enter /prod/apps/gaussian/g09d1/l202.exe)
                          Input orientation:                          
 ---------------------------------------------------------------------
 Center     Atomic      Atomic             Coordinates (Angstroms)
 Number     Number       Type             X           Y           Z
 ---------------------------------------------------------------------
      1          6           0        3.827000    1.067000   -0.176000
      2          7           0        2.797000    0.034000   -0.368000
      3          6           0        1.590000    0.513000   -1.062000
      4         16           0        3.380000   -1.442000   -0.893000
      5          8           0        2.208000   -2.270000   -1.222000
      6          8           0        4.435000   -1.343000   -1.915000
      7          7           0        4.124000   -1.912000    0.542000
      8          6           0        5.074000   -3.057000    0.554000
      9          6           0        4.485000   -4.355000   -0.111000
     10         16           0        4.008000   -4.985000    1.532000
     11          8           0        2.594000   -4.695000    1.847000
     12          8           0        4.536000   -6.324000    1.854000
     13          6           0        5.102000   -3.603000    2.019000
     14          6           0        6.448000   -2.564000    0.052000
     15          6           0        7.585000   -3.597000   -0.083000
     16          6           0        7.532000   -4.495000   -1.306000
     17          6           0        7.360000   -3.959000   -2.591000
     18          6           0        7.349000   -4.782000   -3.717000
     19          6           0        7.512000   -6.164000   -3.579000
     20          6           0        7.685000   -6.711000   -2.307000
     21          6           0        7.695000   -5.882000   -1.183000
     22          1           0        3.375000    1.872000    0.407000
     23          1           0        4.190000    1.472000   -1.127000
     24          1           0        4.658000    0.648000    0.388000
     25          1           0        1.184000    1.331000   -0.464000
     26          1           0        0.857000   -0.289000   -1.115000
     27          1           0        1.806000    0.886000   -2.070000
     28          1           0        3.392000   -1.979000    1.252000
     29          1           0        5.242000   -5.007000   -0.545000
     30          1           0        3.645000   -4.216000   -0.789000
     31          1           0        6.077000   -3.996000    2.309000
     32          1           0        4.705000   -2.955000    2.800000
     33          1           0        6.762000   -1.787000    0.756000
     34          1           0        6.291000   -2.071000   -0.907000
     35          1           0        7.669000   -4.217000    0.817000
     36          1           0        8.515000   -3.018000   -0.123000
     37          1           0        7.231000   -2.888000   -2.710000
     38          1           0        7.215000   -4.346000   -4.702000
     39          1           0        7.503000   -6.806000   -4.454000
     40          1           0        7.812000   -7.782000   -2.187000
     41          1           0        7.828000   -6.314000   -0.195000
 ---------------------------------------------------------------------
                    Distance matrix (angstroms):
                    1          2          3          4          5
     1  C    0.000000
     2  N    1.471344   0.000000
     3  C    2.469024   1.472388   0.000000
     4  S    2.647448   1.671553   2.656066   0.000000
     5  O    3.853680   2.526787   2.855278   1.472212   0.000000
     6  O    3.033461   2.640527   3.502338   1.472179   2.509802
     7  N    3.078664   2.525063   3.856760   1.683348   2.628862
     8  C    4.369815   3.948303   5.243530   2.751667   3.462297
     9  C    5.462167   4.709428   5.743070   3.212183   3.281200
    10  S    6.291004   5.501535   6.542443   4.339108   4.265647
    11  O    6.230045   5.225981   6.049261   4.325206   3.930443
    12  O    7.697432   6.955974   7.995407   5.719814   5.596095
    13  C    5.315313   4.923268   6.226408   4.014343   4.544910
    14  C    4.483948   4.500645   5.857396   3.400667   4.437016
    15  C    5.990335   6.015840   7.334205   4.793970   5.654235
    16  C    6.777888   6.619057   7.774765   5.170153   5.770845
    17  C    6.601136   6.458076   7.458520   5.005886   5.591957
    18  C    7.691162   7.424982   8.261485   5.906229   6.242199
    19  C    8.800397   8.423595   9.272955   6.825343   6.989356
    20  C    8.939945   8.552619   9.533374   6.949445   7.134230
    21  C    8.016488   7.723580   8.842041   6.198139   6.569264
    22  H    1.091887   2.076765   2.681616   3.559862   4.601271
    23  H    1.095534   2.141115   2.771986   3.033521   4.235553
    24  H    1.088218   2.100441   3.396078   2.764479   4.136342
    25  H    2.671720   2.072002   1.091588   3.563143   3.819730
    26  H    3.397257   2.103791   1.087797   2.782844   2.400211
    27  H    2.775687   2.145877   1.096289   3.046701   3.292574
    28  H    3.392127   2.651527   3.848618   2.211230   2.758118
    29  H    6.247548   5.605447   6.638885   4.037000   4.141818
    30  H    5.321558   4.354176   5.163429   2.788569   2.457514
    31  H    6.072207   5.845137   7.199159   4.904032   5.515088
    32  H    5.079758   4.755082   6.053536   4.205121   4.783379
    33  H    4.198591   4.505623   5.945142   3.778379   4.988456
    34  H    4.056193   4.114557   5.366608   2.978214   4.099965
    35  H    6.608152   6.573554   7.928290   5.387044   6.145799
    36  H    6.218310   6.486159   7.829771   5.426316   6.445584
    37  H    5.800896   5.803741   6.789962   4.496955   5.275092
    38  H    7.827119   7.581997   8.276479   6.135872   6.441291
    39  H    9.684957   9.253509  10.001850   7.645413   7.684930
    40  H    9.911062   9.463025  10.430050   7.843001   7.919481
    41  H    8.395685   8.101728   9.288286   6.633875   6.999505
                    6          7          8          9         10
     6  O    0.000000
     7  N    2.541128   0.000000
     8  C    3.072796   1.487840   0.000000
     9  C    3.511276   2.554404   1.572880   0.000000
    10  S    5.032723   3.230617   2.410399   1.823151   0.000000
    11  O    5.364497   3.433513   3.241187   2.743218   1.477403
    12  O    6.247073   4.621345   3.557068   2.782227   1.474920
    13  C    4.585722   2.448978   1.563690   2.341601   1.828641
    14  C    3.067914   2.462962   1.543674   2.662258   3.742358
    15  C    4.284768   3.899791   2.646222   3.191449   4.162895
    16  C    4.460650   4.658482   3.401354   3.275948   4.551145
    17  C    3.981966   4.947484   3.991294   3.817439   5.411812
    18  C    4.854413   6.064372   5.137382   4.624723   6.225391
    19  C    5.956414   6.822074   5.716553   4.945931   6.307961
    20  C    6.287415   6.620266   5.324881   4.540171   5.589036
    21  C    5.636129   5.611467   4.226989   3.712817   4.665812
    22  H    4.105059   3.859777   5.215674   6.346334   6.977447
    23  H    2.933461   3.773774   4.911116   5.922264   6.985432
    24  H    3.052478   2.619632   3.731975   5.030799   5.784628
    25  H    4.452491   4.491401   5.951720   6.584209   7.200753
    26  H    3.814839   4.006628   5.313236   5.541007   6.244023
    27  H    3.450233   4.474871   5.754342   6.203451   7.231310
    28  H    3.394442   1.021965   2.116226   2.949202   3.081216
    29  H    3.994126   3.465619   2.244666   1.089270   2.416023
    30  H    3.185295   2.703594   2.277931   1.088396   2.471876
    31  H    5.251357   3.358505   2.228846   2.918860   2.421283
    32  H    4.990257   2.554207   2.278394   3.237641   2.492897
    33  H    3.570197   2.649616   2.122039   3.539921   4.291142
    34  H    2.234006   2.611661   2.141916   3.018594   4.433081
    35  H    5.116880   4.237414   2.854609   3.319350   3.808408
    36  H    4.760598   4.576717   3.507183   4.246011   5.188561
    37  H    3.291909   4.602340   3.915981   4.055540   5.725356
    38  H    4.951139   6.555774   5.819874   5.341373   7.039597
    39  H    6.760437   7.767168   6.710820   5.829011   7.166817
    40  H    7.275908   7.450214   6.110266   5.207978   6.010373
    41  H    6.259528   5.800034   4.330539   3.875614   4.397860
                   11         12         13         14         15
    11  O    0.000000
    12  O    2.534769   0.000000
    13  C    2.740823   2.784138   0.000000
    14  C    4.755681   4.586998   2.600063   0.000000
    15  C    5.462654   4.526025   3.253264   1.542103   0.000000
    16  C    5.862188   4.723014   4.213809   2.597688   1.518204
    17  C    6.553800   5.772887   5.145619   3.124615   2.543960
    18  C    7.319542   6.428590   6.272220   4.465052   3.829605
    19  C    7.469013   6.196746   6.610932   5.222668   4.337837
    20  C    6.873009   5.232580   5.919952   4.928758   3.827946
    21  C    6.050626   4.404318   4.708534   3.753579   2.538371
    22  H    6.768238   8.403341   5.962944   5.408091   6.919116
    23  H    7.030205   8.353663   6.040255   4.772620   6.189566
    24  H    5.910704   7.125505   4.574746   3.692417   5.177760
    25  H    6.606171   8.672258   6.772028   6.568636   8.087221
    26  H    5.586005   7.666239   6.230937   6.147910   7.567950
    27  H    6.863774   8.650710   6.909027   6.160645   7.579070
    28  H    2.892661   4.533229   2.479872   3.334870   4.688432
    29  H    3.582026   2.826327   2.926587   2.789103   2.773300
    30  H    2.877940   3.496140   3.222341   3.360535   4.050333
    31  H    3.582364   2.828655   1.090493   2.698576   2.855684
    32  H    2.896917   3.503375   1.089713   3.277565   4.125319
    33  H    5.197977   5.171562   2.765615   1.094505   2.158089
    34  H    5.304498   5.365739   3.510302   1.089669   2.163813
    35  H    5.200482   3.915419   2.900222   2.192824   1.096109
    36  H    6.461538   5.538105   4.071727   2.123495   1.096239
    37  H    6.747834   6.316583   5.235199   2.889067   2.743925
    38  H    8.022770   7.353276   7.084395   5.134621   4.693939
    39  H    8.261792   6.987580   7.610765   6.277868   5.423103
    40  H    7.282187   5.402557   6.519093   5.839618   4.689624
    41  H    5.846852   3.877598   4.436484   4.003487   2.730143
                   16         17         18         19         20
    16  C    0.000000
    17  C    1.402892   0.000000
    18  C    2.434908   1.394749   0.000000
    19  C    2.820016   2.421007   1.398405   0.000000
    20  C    2.436404   2.785639   2.412890   1.395393   0.000000
    21  C    1.401951   2.406786   2.784039   2.419469   1.396681
    22  H    7.794466   7.672600   8.779281   9.878272   9.980470
    23  H    6.841498   6.456621   7.469933   8.680811   8.976019
    24  H    6.130250   6.115529   7.319659   8.383660   8.401228
    25  H    8.657271   8.405427   9.271354  10.291833  10.503971
    26  H    7.891929   7.611602   8.312853   9.212814   9.449049
    27  H    7.894678   7.388666   8.097140   9.194456   9.609018
    28  H    5.478432   5.868055   6.943027   7.604419   7.313560
    29  H    2.466853   3.125755   3.814664   3.961907   3.460709
    30  H    3.931145   4.136965   4.755329   5.150970   4.985073
    31  H    3.928645   5.065319   6.208740   6.436458   5.591453
    32  H    5.217544   6.092612   7.266358   7.672586   7.004954
    33  H    3.489700   4.034550   5.415009   6.205873   5.871940
    34  H    2.752282   2.746482   4.045366   5.038162   5.043098
    35  H    2.145503   3.431692   4.580260   4.810434   3.997458
    36  H    2.132442   2.882799   4.169903   4.779881   4.370012
    37  H    2.155056   1.085285   2.148304   3.400926   3.870898
    38  H    3.414016   2.151073   1.085485   2.157420   3.398551
    39  H    3.905313   3.405382   2.159505   1.085297   2.156793
    40  H    3.414518   3.870769   3.399304   2.155363   1.085159
    41  H    2.151906   3.392030   3.870523   3.402031   2.153741
                   21         22         23         24         25
    21  C    0.000000
    22  H    9.017484   0.000000
    23  H    8.146746   1.782521   0.000000
    24  H    7.371045   1.773309   1.786960   0.000000
    25  H    9.743585   2.419050   3.081475   3.641575   0.000000
    26  H    8.834281   3.650579   3.769636   4.193397   1.776269
    27  H    9.015149   3.093459   2.629848   3.772574   1.778804
    28  H    6.299083   3.942653   4.266831   3.041444   4.333131
    29  H    2.681395   7.191150   6.589603   5.761126   7.526232
    30  H    4.396964   6.210238   5.724038   5.105878   6.077117
    31  H    4.285905   6.734377   6.727993   5.222120   7.746477
    32  H    5.776826   5.549349   5.940108   4.336077   6.435910
    33  H    4.625931   4.998185   4.558723   3.239053   6.505721
    34  H    4.070763   5.077096   4.124979   3.425883   6.152341
    35  H    2.602480   7.462068   6.946027   5.737455   8.629976
    36  H    3.162040   7.114253   6.314566   5.345758   8.530747
    37  H    3.392795   6.873283   5.546456   5.359219   7.707833
    38  H    3.869503   8.916894   7.468626   7.575380   9.303867
    39  H    3.404421  10.769280   9.516837   9.332797  11.048105
    40  H    2.152140  10.936888   9.993948   9.361797  11.399381
    41  H    1.086488   9.338212   8.644389   7.671912  10.132182
                   26         27         28         29         30
    26  H    0.000000
    27  H    1.786967   0.000000
    28  H    3.858110   4.664687   0.000000
    29  H    6.466270   6.989933   3.977498   0.000000
    30  H    4.827064   5.572548   3.038727   1.798785   0.000000
    31  H    7.260442   7.826302   3.520620   3.140806   3.944696
    32  H    6.102613   6.846487   2.252299   3.960820   3.949005
    33  H    6.372886   6.300249   3.411712   3.790963   4.242965
    34  H    5.722512   5.496512   3.615791   3.138716   3.408264
    35  H    8.097231   8.291571   4.846710   2.893004   4.332645
    36  H    8.190023   8.002669   5.405116   3.853146   5.059215
    37  H    7.065883   6.639526   5.591211   3.624018   4.279395
    38  H    8.351645   7.972360   7.461108   4.648688   5.298431
    39  H    9.888859   9.864387   8.529870   4.860947   5.918149
    40  H   10.279409  10.546087   8.064610   4.123310   5.659916
    41  H    9.259690   9.571839   6.368998   2.918586   4.717195
                   31         32         33         34         35
    31  H    0.000000
    32  H    1.790851   0.000000
    33  H    2.785806   3.126245   0.000000
    34  H    3.754208   4.127796   1.751590   0.000000
    35  H    2.193027   3.782886   2.594469   3.078372   0.000000
    36  H    3.579798   4.802499   2.315386   2.541189   1.742675
    37  H    5.267802   6.061787   3.666786   2.191323   3.794445
    38  H    7.111376   8.032122   6.045118   4.520113   5.539144
    39  H    7.461082   8.676377   7.272107   6.039071   5.874855
    40  H    6.128461   7.604180   6.760457   6.047095   4.664085
    41  H    3.835250   5.477776   4.747050   4.568628   2.333845
                   36         37         38         39         40
    36  H    0.000000
    37  H    2.891042   0.000000
    38  H    4.941743   2.468620   0.000000
    39  H    5.842144   4.297237   2.489186   0.000000
    40  H    5.239275   4.956039   4.299736   2.487438   0.000000
    41  H    3.367606   4.291749   4.955991   4.299624   2.474539
                   41
    41  H    0.000000
 Stoichiometry    C13H20N2O4S2
 Framework group  C1[X(C13H20N2O4S2)]
 Deg. of freedom   117
 Full point group                 C1      NOp   1
 Largest Abelian subgroup         C1      NOp   1
 Largest concise Abelian subgroup C1      NOp   1
                         Standard orientation:                         
 ---------------------------------------------------------------------
 Center     Atomic      Atomic             Coordinates (Angstroms)
 Number     Number       Type             X           Y           Z
 ---------------------------------------------------------------------
      1          6           0        3.935642   -1.506699    1.397236
      2          7           0        3.789514   -0.818147    0.105185
      3          6           0        4.796506   -1.204676   -0.897056
      4         16           0        2.219931   -0.728026   -0.462598
      5          8           0        2.293421   -0.201348   -1.835412
      6          8           0        1.435732   -1.957506   -0.260807
      7          7           0        1.648474    0.409506    0.638818
      8          6           0        0.186909    0.651354    0.776676
      9          6           0       -0.524041    0.936500   -0.597075
     10         16           0       -0.395828    2.729975   -0.295599
     11          8           0        0.782674    3.320632   -0.962666
     12          8           0       -1.676674    3.458036   -0.364519
     13          6           0        0.022639    2.090518    1.365698
     14          6           0       -0.414508   -0.454365    1.670328
     15          6           0       -1.938429   -0.448306    1.906356
     16          6           0       -2.793515   -0.987632    0.773705
     17          6           0       -2.512354   -2.227895    0.181420
     18          6           0       -3.321008   -2.738974   -0.833570
     19          6           0       -4.433031   -2.016377   -1.277188
     20          6           0       -4.725368   -0.781672   -0.696529
     21          6           0       -3.911949   -0.274766    0.319401
     22          1           0        4.930484   -1.270700    1.780398
     23          1           0        3.835902   -2.593451    1.301228
     24          1           0        3.191091   -1.127851    2.094614
     25          1           0        5.774272   -0.978268   -0.467781
     26          1           0        4.657499   -0.614774   -1.800380
     27          1           0        4.756844   -2.272715   -1.141126
     28          1           0        2.194005    1.262478    0.500084
     29          1           0       -1.573362    0.644828   -0.616138
     30          1           0       -0.003213    0.603302   -1.492799
     31          1           0       -0.843630    2.186686    2.021062
     32          1           0        0.900327    2.543885    1.825694
     33          1           0        0.090393   -0.364514    2.637253
     34          1           0       -0.116885   -1.415139    1.251147
     35          1           0       -2.294685    0.550444    2.183908
     36          1           0       -2.108765   -1.072286    2.791441
     37          1           0       -1.651012   -2.796736    0.516610
     38          1           0       -3.085333   -3.701064   -1.277547
     39          1           0       -5.062971   -2.412194   -2.067361
     40          1           0       -5.585251   -0.211350   -1.032540
     41          1           0       -4.143461    0.688162    0.766199
 ---------------------------------------------------------------------
 Rotational constants (GHZ):      0.3556776      0.1916990      0.1485189
 Leave Link  202 at Fri Oct  2 02:31:48 2020, MaxMem=  2147483648 cpu:         0.0
 (Enter /prod/apps/gaussian/g09d1/l301.exe)
 Standard basis: 6-31G(d) (6D, 7F)
 Ernie: Thresh=  0.10000D-02 Tol=  0.10000D-05 Strict=F.
 There are   363 symmetry adapted cartesian basis functions of A   symmetry.
 There are   363 symmetry adapted basis functions of A   symmetry.
   363 basis functions,   716 primitive gaussians,   363 cartesian basis functions
    88 alpha electrons       88 beta electrons
       nuclear repulsion energy      2203.7307879276 Hartrees.
 IExCor=  402 DFT=T Ex+Corr=B3LYP ExCW=0 ScaHFX=  0.200000
 ScaDFX=  0.800000  0.720000  1.000000  0.810000 ScalE2=  1.000000  1.000000
 IRadAn=      0 IRanWt=     -1 IRanGd=            0 ICorTp=0 IEmpDi=  4
 NAtoms=   41 NActive=   41 NUniq=   41 SFac= 1.00D+00 NAtFMM=   60 NAOKFM=F Big=F
 Integral buffers will be    131072 words long.
 Raffenetti 2 integral format.
 Two-electron integral symmetry is turned on.
 Leave Link  301 at Fri Oct  2 02:31:48 2020, MaxMem=  2147483648 cpu:         0.0
 (Enter /prod/apps/gaussian/g09d1/l302.exe)
 NPDir=0 NMtPBC=     1 NCelOv=     1 NCel=       1 NClECP=     1 NCelD=      1
         NCelK=      1 NCelE2=     1 NClLst=     1 CellRange=     0.0.
 One-electron integrals computed using PRISM.
 NBasis=   363 RedAO= T EigKep=  4.69D-04  NBF=   363
 NBsUse=   363 1.00D-06 EigRej= -1.00D+00 NBFU=   363
 Precomputing XC quadrature grid using
 IXCGrd= 4 IRadAn=           0 IRanWt=          -1 IRanGd=           0 AccXCQ= 0.00D+00.
 Generated NRdTot=       0 NPtTot=           0 NUsed=           0 NTot=          32
 NSgBfM=   359   359   359   359   359 MxSgAt=    41 MxSgA2=    41.
 Leave Link  302 at Fri Oct  2 02:31:49 2020, MaxMem=  2147483648 cpu:         1.3
 (Enter /prod/apps/gaussian/g09d1/l303.exe)
 DipDrv:  MaxL=1.
 Leave Link  303 at Fri Oct  2 02:31:49 2020, MaxMem=  2147483648 cpu:         0.1
 (Enter /prod/apps/gaussian/g09d1/l401.exe)
 ExpMin= 1.17D-01 ExpMax= 2.19D+04 ExpMxC= 3.30D+03 IAcc=1 IRadAn=         1 AccDes= 0.00D+00
 Harris functional with IExCor=  402 and IRadAn=       1 diagonalized for initial guess.
 HarFok:  IExCor=  402 AccDes= 0.00D+00 IRadAn=         1 IDoV= 1 UseB2=F ITyADJ=14
 ICtDFT=  3500011 ScaDFX=  1.000000  1.000000  1.000000  1.000000
 FoFCou: FMM=F IPFlag=           0 FMFlag=      100000 FMFlg1=           0
         NFxFlg=           0 DoJE=T BraDBF=F KetDBF=T FulRan=T
         wScrn=  0.000000 ICntrl=     500 IOpCl=  0 I1Cent=   200000004 NGrid=           0
         NMat0=    1 NMatS0=      1 NMatT0=    0 NMatD0=    1 NMtDS0=    0 NMtDT0=    0
 Petite list used in FoFCou.
 Harris En= -1714.14413765291    
 JPrj=0 DoOrth=F DoCkMO=F.
 Leave Link  401 at Fri Oct  2 02:31:54 2020, MaxMem=  2147483648 cpu:         4.8
 (Enter /prod/apps/gaussian/g09d1/l502.exe)
 Closed shell SCF:
 Using DIIS extrapolation, IDIIS=  1040.
 Integral symmetry usage will be decided dynamically.
 IVT=      418784 IEndB=      418784 NGot=  2147483648 MDV=  2147213637
 LenX=  2147213637 LenY=  2147081427
 Requested convergence on RMS density matrix=1.00D-08 within 128 cycles.
 Requested convergence on MAX density matrix=1.00D-06.
 Requested convergence on             energy=1.00D-06.
 No special actions if energy rises.
 Fock matrices will be formed incrementally for  20 cycles.
 Integral accuracy reduced to 1.0D-05 until final iterations.

 Cycle   1  Pass 0  IDiag  1:
 FoFJK:  IHMeth= 1 ICntrl=       0 DoSepK=F KAlg= 0 I1Cent=   0 FoldK=F
 IRaf= 760000000 NMat=   1 IRICut=       1 DoRegI=T DoRafI=F ISym2E= 0.
 FoFCou: FMM=F IPFlag=           0 FMFlag=      100000 FMFlg1=           0
         NFxFlg=           0 DoJE=F BraDBF=F KetDBF=F FulRan=T
         wScrn=  0.000000 ICntrl=       0 IOpCl=  0 I1Cent=           0 NGrid=           0
         NMat0=    1 NMatS0=      1 NMatT0=    0 NMatD0=    1 NMtDS0=    0 NMtDT0=    0
 Symmetry not used in FoFCou.
 E= -1713.19087512917    
 DIIS: error= 3.35D-02 at cycle   1 NSaved=   1.
 NSaved= 1 IEnMin= 1 EnMin= -1713.19087512917     IErMin= 1 ErrMin= 3.35D-02
 ErrMax= 3.35D-02  0.00D+00 EMaxC= 1.00D-01 BMatC= 9.96D-01 BMatP= 9.96D-01
 IDIUse=3 WtCom= 6.65D-01 WtEn= 3.35D-01
 Coeff-Com:  0.100D+01
 Coeff-En:   0.100D+01
 Coeff:      0.100D+01
 Gap=     0.369 Goal=   None    Shift=    0.000
 GapD=    0.369 DampG=1.000 DampE=0.500 DampFc=0.5000 IDamp=-1.
 Damping current iteration by 5.00D-01
 RMSDP=7.11D-03 MaxDP=6.03D-01              OVMax= 2.41D-01

 Cycle   2  Pass 0  IDiag  1:
 RMSU=  3.55D-03    CP:  9.99D-01
 E= -1713.36010351565     Delta-E=       -0.169228386479 Rises=F Damp=T
 DIIS: error= 1.92D-02 at cycle   2 NSaved=   2.
 NSaved= 2 IEnMin= 2 EnMin= -1713.36010351565     IErMin= 2 ErrMin= 1.92D-02
 ErrMax= 1.92D-02  0.00D+00 EMaxC= 1.00D-01 BMatC= 1.76D-01 BMatP= 9.96D-01
 IDIUse=3 WtCom= 8.08D-01 WtEn= 1.92D-01
 Coeff-Com:  0.254D+00 0.746D+00
 Coeff-En:   0.402D+00 0.598D+00
 Coeff:      0.282D+00 0.718D+00
 Gap=     0.294 Goal=   None    Shift=    0.000
 RMSDP=2.06D-03 MaxDP=1.27D-01 DE=-1.69D-01 OVMax= 2.04D-01

 Cycle   3  Pass 0  IDiag  1:
 RMSU=  1.62D-03    CP:  9.90D-01  6.46D-01
 E= -1713.94717110567     Delta-E=       -0.587067590021 Rises=F Damp=F
 DIIS: error= 1.11D-02 at cycle   3 NSaved=   3.
 NSaved= 3 IEnMin= 3 EnMin= -1713.94717110567     IErMin= 3 ErrMin= 1.11D-02
 ErrMax= 1.11D-02  0.00D+00 EMaxC= 1.00D-01 BMatC= 9.53D-02 BMatP= 1.76D-01
 IDIUse=3 WtCom= 8.89D-01 WtEn= 1.11D-01
 Coeff-Com:  0.108D+00 0.430D+00 0.462D+00
 Coeff-En:   0.000D+00 0.000D+00 0.100D+01
 Coeff:      0.958D-01 0.382D+00 0.522D+00
 Gap=     0.240 Goal=   None    Shift=    0.000
 RMSDP=1.25D-03 MaxDP=4.63D-02 DE=-5.87D-01 OVMax= 7.90D-02

 Cycle   4  Pass 0  IDiag  1:
 RMSU=  7.51D-04    CP:  9.95D-01  7.18D-01  4.05D-01
 E= -1714.02398919005     Delta-E=       -0.076818084374 Rises=F Damp=F
 DIIS: error= 3.66D-03 at cycle   4 NSaved=   4.
 NSaved= 4 IEnMin= 4 EnMin= -1714.02398919005     IErMin= 4 ErrMin= 3.66D-03
 ErrMax= 3.66D-03  0.00D+00 EMaxC= 1.00D-01 BMatC= 1.43D-02 BMatP= 9.53D-02
 IDIUse=3 WtCom= 9.63D-01 WtEn= 3.66D-02
 Coeff-Com:  0.130D-01 0.724D-01 0.289D+00 0.626D+00
 Coeff-En:   0.000D+00 0.000D+00 0.132D+00 0.868D+00
 Coeff:      0.125D-01 0.697D-01 0.283D+00 0.634D+00
 Gap=     0.238 Goal=   None    Shift=    0.000
 RMSDP=4.00D-04 MaxDP=1.87D-02 DE=-7.68D-02 OVMax= 2.25D-02

 Cycle   5  Pass 0  IDiag  1:
 RMSU=  1.68D-04    CP:  9.95D-01  7.04D-01  5.55D-01  6.48D-01
 E= -1714.03606896745     Delta-E=       -0.012079777403 Rises=F Damp=F
 DIIS: error= 7.40D-04 at cycle   5 NSaved=   5.
 NSaved= 5 IEnMin= 5 EnMin= -1714.03606896745     IErMin= 5 ErrMin= 7.40D-04
 ErrMax= 7.40D-04  0.00D+00 EMaxC= 1.00D-01 BMatC= 8.34D-04 BMatP= 1.43D-02
 IDIUse=3 WtCom= 9.93D-01 WtEn= 7.40D-03
 Coeff-Com:  0.109D-03 0.134D-01 0.115D+00 0.326D+00 0.545D+00
 Coeff-En:   0.000D+00 0.000D+00 0.000D+00 0.000D+00 0.100D+01
 Coeff:      0.108D-03 0.133D-01 0.115D+00 0.324D+00 0.548D+00
 Gap=     0.238 Goal=   None    Shift=    0.000
 RMSDP=1.02D-04 MaxDP=6.86D-03 DE=-1.21D-02 OVMax= 5.03D-03

 Cycle   6  Pass 0  IDiag  1:
 RMSU=  5.45D-05    CP:  9.95D-01  7.06D-01  5.49D-01  7.03D-01  5.55D-01
 E= -1714.03674688644     Delta-E=       -0.000677918990 Rises=F Damp=F
 DIIS: error= 4.08D-04 at cycle   6 NSaved=   6.
 NSaved= 6 IEnMin= 6 EnMin= -1714.03674688644     IErMin= 6 ErrMin= 4.08D-04
 ErrMax= 4.08D-04  0.00D+00 EMaxC= 1.00D-01 BMatC= 9.89D-05 BMatP= 8.34D-04
 IDIUse=3 WtCom= 9.96D-01 WtEn= 4.08D-03
 Coeff-Com: -0.884D-03 0.229D-02 0.433D-01 0.134D+00 0.319D+00 0.502D+00
 Coeff-En:   0.000D+00 0.000D+00 0.000D+00 0.000D+00 0.275D-01 0.973D+00
 Coeff:     -0.880D-03 0.228D-02 0.431D-01 0.134D+00 0.318D+00 0.504D+00
 Gap=     0.238 Goal=   None    Shift=    0.000
 RMSDP=3.38D-05 MaxDP=1.59D-03 DE=-6.78D-04 OVMax= 2.46D-03

 Cycle   7  Pass 0  IDiag  1:
 RMSU=  2.26D-05    CP:  9.95D-01  7.05D-01  5.50D-01  7.02D-01  6.08D-01
                    CP:  5.70D-01
 E= -1714.03681605869     Delta-E=       -0.000069172243 Rises=F Damp=F
 DIIS: error= 2.08D-04 at cycle   7 NSaved=   7.
 NSaved= 7 IEnMin= 7 EnMin= -1714.03681605869     IErMin= 7 ErrMin= 2.08D-04
 ErrMax= 2.08D-04  0.00D+00 EMaxC= 1.00D-01 BMatC= 1.78D-05 BMatP= 9.89D-05
 IDIUse=3 WtCom= 9.98D-01 WtEn= 2.08D-03
 Coeff-Com: -0.618D-03-0.258D-03 0.137D-01 0.467D-01 0.145D+00 0.339D+00
 Coeff-Com:  0.457D+00
 Coeff-En:   0.000D+00 0.000D+00 0.000D+00 0.000D+00 0.000D+00 0.134D+00
 Coeff-En:   0.866D+00
 Coeff:     -0.617D-03-0.258D-03 0.137D-01 0.466D-01 0.144D+00 0.339D+00
 Coeff:      0.457D+00
 Gap=     0.238 Goal=   None    Shift=    0.000
 RMSDP=1.24D-05 MaxDP=6.15D-04 DE=-6.92D-05 OVMax= 9.65D-04

 Cycle   8  Pass 0  IDiag  1:
 RMSU=  6.12D-06    CP:  9.95D-01  7.05D-01  5.51D-01  7.02D-01  6.12D-01
                    CP:  6.25D-01  5.47D-01
 E= -1714.03683052032     Delta-E=       -0.000014461631 Rises=F Damp=F
 DIIS: error= 3.97D-05 at cycle   8 NSaved=   8.
 NSaved= 8 IEnMin= 8 EnMin= -1714.03683052032     IErMin= 8 ErrMin= 3.97D-05
 ErrMax= 3.97D-05  0.00D+00 EMaxC= 1.00D-01 BMatC= 7.07D-07 BMatP= 1.78D-05
 IDIUse=1 WtCom= 1.00D+00 WtEn= 0.00D+00
 Coeff-Com: -0.213D-03-0.348D-03 0.202D-02 0.830D-02 0.384D-01 0.116D+00
 Coeff-Com:  0.227D+00 0.609D+00
 Coeff:     -0.213D-03-0.348D-03 0.202D-02 0.830D-02 0.384D-01 0.116D+00
 Coeff:      0.227D+00 0.609D+00
 Gap=     0.238 Goal=   None    Shift=    0.000
 RMSDP=3.20D-06 MaxDP=1.41D-04 DE=-1.45D-05 OVMax= 1.98D-04

 Initial convergence to 1.0D-05 achieved.  Increase integral accuracy.
 Cycle   9  Pass 1  IDiag  1:
 E= -1714.03686553491     Delta-E=       -0.000035014592 Rises=F Damp=F
 DIIS: error= 6.15D-05 at cycle   1 NSaved=   1.
 NSaved= 1 IEnMin= 1 EnMin= -1714.03686553491     IErMin= 1 ErrMin= 6.15D-05
 ErrMax= 6.15D-05  0.00D+00 EMaxC= 1.00D-01 BMatC= 9.10D-07 BMatP= 9.10D-07
 IDIUse=1 WtCom= 1.00D+00 WtEn= 0.00D+00
 Coeff-Com:  0.100D+01
 Coeff:      0.100D+01
 Gap=     0.238 Goal=   None    Shift=    0.000
 RMSDP=3.20D-06 MaxDP=1.41D-04 DE=-3.50D-05 OVMax= 3.05D-04

 Cycle  10  Pass 1  IDiag  1:
 RMSU=  2.73D-05    CP:  1.00D+00
 E= -1714.03686606665     Delta-E=       -0.000000531740 Rises=F Damp=F
 DIIS: error= 2.74D-05 at cycle   2 NSaved=   2.
 NSaved= 2 IEnMin= 2 EnMin= -1714.03686606665     IErMin= 2 ErrMin= 2.74D-05
 ErrMax= 2.74D-05  0.00D+00 EMaxC= 1.00D-01 BMatC= 5.07D-07 BMatP= 9.10D-07
 IDIUse=1 WtCom= 1.00D+00 WtEn= 0.00D+00
 Coeff-Com:  0.393D+00 0.607D+00
 Coeff:      0.393D+00 0.607D+00
 Gap=     0.238 Goal=   None    Shift=    0.000
 RMSDP=3.64D-06 MaxDP=1.71D-04 DE=-5.32D-07 OVMax= 3.39D-04

 Cycle  11  Pass 1  IDiag  1:
 RMSU=  3.63D-06    CP:  1.00D+00  9.95D-01
 E= -1714.03686617166     Delta-E=       -0.000000105010 Rises=F Damp=F
 DIIS: error= 2.76D-05 at cycle   3 NSaved=   3.
 NSaved= 3 IEnMin= 3 EnMin= -1714.03686617166     IErMin= 2 ErrMin= 2.74D-05
 ErrMax= 2.76D-05  0.00D+00 EMaxC= 1.00D-01 BMatC= 4.08D-07 BMatP= 5.07D-07
 IDIUse=1 WtCom= 1.00D+00 WtEn= 0.00D+00
 Coeff-Com:  0.388D-02 0.472D+00 0.524D+00
 Coeff:      0.388D-02 0.472D+00 0.524D+00
 Gap=     0.238 Goal=   None    Shift=    0.000
 RMSDP=1.80D-06 MaxDP=8.91D-05 DE=-1.05D-07 OVMax= 1.44D-04

 Cycle  12  Pass 1  IDiag  1:
 RMSU=  6.36D-07    CP:  1.00D+00  1.01D+00  5.46D-01
 E= -1714.03686652087     Delta-E=       -0.000000349213 Rises=F Damp=F
 DIIS: error= 4.97D-06 at cycle   4 NSaved=   4.
 NSaved= 4 IEnMin= 4 EnMin= -1714.03686652087     IErMin= 4 ErrMin= 4.97D-06
 ErrMax= 4.97D-06  0.00D+00 EMaxC= 1.00D-01 BMatC= 1.58D-08 BMatP= 4.08D-07
 IDIUse=1 WtCom= 1.00D+00 WtEn= 0.00D+00
 Coeff-Com: -0.893D-02 0.280D+00 0.331D+00 0.398D+00
 Coeff:     -0.893D-02 0.280D+00 0.331D+00 0.398D+00
 Gap=     0.238 Goal=   None    Shift=    0.000
 RMSDP=3.77D-07 MaxDP=1.80D-05 DE=-3.49D-07 OVMax= 2.42D-05

 Cycle  13  Pass 1  IDiag  1:
 RMSU=  1.76D-07    CP:  1.00D+00  1.01D+00  5.46D-01  4.76D-01
 E= -1714.03686653404     Delta-E=       -0.000000013168 Rises=F Damp=F
 DIIS: error= 9.54D-07 at cycle   5 NSaved=   5.
 NSaved= 5 IEnMin= 5 EnMin= -1714.03686653404     IErMin= 5 ErrMin= 9.54D-07
 ErrMax= 9.54D-07  0.00D+00 EMaxC= 1.00D-01 BMatC= 6.07D-10 BMatP= 1.58D-08
 IDIUse=1 WtCom= 1.00D+00 WtEn= 0.00D+00
 Coeff-Com: -0.554D-02 0.136D+00 0.164D+00 0.231D+00 0.474D+00
 Coeff:     -0.554D-02 0.136D+00 0.164D+00 0.231D+00 0.474D+00
 Gap=     0.238 Goal=   None    Shift=    0.000
 RMSDP=8.28D-08 MaxDP=5.46D-06 DE=-1.32D-08 OVMax= 6.84D-06

 Cycle  14  Pass 1  IDiag  1:
 RMSU=  6.66D-08    CP:  1.00D+00  1.01D+00  5.48D-01  4.96D-01  7.35D-01
 E= -1714.03686653455     Delta-E=       -0.000000000514 Rises=F Damp=F
 DIIS: error= 2.41D-07 at cycle   6 NSaved=   6.
 NSaved= 6 IEnMin= 6 EnMin= -1714.03686653455     IErMin= 6 ErrMin= 2.41D-07
 ErrMax= 2.41D-07  0.00D+00 EMaxC= 1.00D-01 BMatC= 4.59D-11 BMatP= 6.07D-10
 IDIUse=1 WtCom= 1.00D+00 WtEn= 0.00D+00
 Coeff-Com: -0.129D-02 0.248D-01 0.307D-01 0.536D-01 0.240D+00 0.652D+00
 Coeff:     -0.129D-02 0.248D-01 0.307D-01 0.536D-01 0.240D+00 0.652D+00
 Gap=     0.238 Goal=   None    Shift=    0.000
 RMSDP=2.45D-08 MaxDP=1.30D-06 DE=-5.14D-10 OVMax= 1.68D-06

 Cycle  15  Pass 1  IDiag  1:
 RMSU=  1.82D-08    CP:  1.00D+00  1.01D+00  5.48D-01  4.98D-01  7.95D-01
                    CP:  8.14D-01
 E= -1714.03686653453     Delta-E=        0.000000000026 Rises=F Damp=F
 DIIS: error= 1.08D-07 at cycle   7 NSaved=   7.
 NSaved= 7 IEnMin= 6 EnMin= -1714.03686653455     IErMin= 7 ErrMin= 1.08D-07
 ErrMax= 1.08D-07  0.00D+00 EMaxC= 1.00D-01 BMatC= 8.73D-12 BMatP= 4.59D-11
 IDIUse=1 WtCom= 1.00D+00 WtEn= 0.00D+00
 Coeff-Com: -0.145D-03-0.110D-02-0.756D-03 0.496D-02 0.872D-01 0.386D+00
 Coeff-Com:  0.524D+00
 Coeff:     -0.145D-03-0.110D-02-0.756D-03 0.496D-02 0.872D-01 0.386D+00
 Coeff:      0.524D+00
 Gap=     0.238 Goal=   None    Shift=    0.000
 RMSDP=9.69D-09 MaxDP=7.70D-07 DE= 2.64D-11 OVMax= 3.78D-07

 SCF Done:  E(RB3LYP) =  -1714.03686653     A.U. after   15 cycles
            NFock= 15  Conv=0.97D-08     -V/T= 2.0068
 KE= 1.702474693421D+03 PE=-8.433615719227D+03 EE= 2.813373371344D+03
 Leave Link  502 at Fri Oct  2 02:38:04 2020, MaxMem=  2147483648 cpu:       370.0
 (Enter /prod/apps/gaussian/g09d1/l601.exe)
 Copying SCF densities to generalized density rwf, IOpCl= 0 IROHF=0.

 **********************************************************************

            Population analysis using the SCF density.

 **********************************************************************

 Orbital symmetries:
       Occupied  (A) (A) (A) (A) (A) (A) (A) (A) (A) (A) (A) (A)
                 (A) (A) (A) (A) (A) (A) (A) (A) (A) (A) (A) (A)
                 (A) (A) (A) (A) (A) (A) (A) (A) (A) (A) (A) (A)
                 (A) (A) (A) (A) (A) (A) (A) (A) (A) (A) (A) (A)
                 (A) (A) (A) (A) (A) (A) (A) (A) (A) (A) (A) (A)
                 (A) (A) (A) (A) (A) (A) (A) (A) (A) (A) (A) (A)
                 (A) (A) (A) (A) (A) (A) (A) (A) (A) (A) (A) (A)
                 (A) (A) (A) (A)
       Virtual   (A) (A) (A) (A) (A) (A) (A) (A) (A) (A) (A) (A)
                 (A) (A) (A) (A) (A) (A) (A) (A) (A) (A) (A) (A)
                 (A) (A) (A) (A) (A) (A) (A) (A) (A) (A) (A) (A)
                 (A) (A) (A) (A) (A) (A) (A) (A) (A) (A) (A) (A)
                 (A) (A) (A) (A) (A) (A) (A) (A) (A) (A) (A) (A)
                 (A) (A) (A) (A) (A) (A) (A) (A) (A) (A) (A) (A)
                 (A) (A) (A) (A) (A) (A) (A) (A) (A) (A) (A) (A)
                 (A) (A) (A) (A) (A) (A) (A) (A) (A) (A) (A) (A)
                 (A) (A) (A) (A) (A) (A) (A) (A) (A) (A) (A) (A)
                 (A) (A) (A) (A) (A) (A) (A) (A) (A) (A) (A) (A)
                 (A) (A) (A) (A) (A) (A) (A) (A) (A) (A) (A) (A)
                 (A) (A) (A) (A) (A) (A) (A) (A) (A) (A) (A) (A)
                 (A) (A) (A) (A) (A) (A) (A) (A) (A) (A) (A) (A)
                 (A) (A) (A) (A) (A) (A) (A) (A) (A) (A) (A) (A)
                 (A) (A) (A) (A) (A) (A) (A) (A) (A) (A) (A) (A)
                 (A) (A) (A) (A) (A) (A) (A) (A) (A) (A) (A) (A)
                 (A) (A) (A) (A) (A) (A) (A) (A) (A) (A) (A) (A)
                 (A) (A) (A) (A) (A) (A) (A) (A) (A) (A) (A) (A)
                 (A) (A) (A) (A) (A) (A) (A) (A) (A) (A) (A) (A)
                 (A) (A) (A) (A) (A) (A) (A) (A) (A) (A) (A) (A)
                 (A) (A) (A) (A) (A) (A) (A) (A) (A) (A) (A) (A)
                 (A) (A) (A) (A) (A) (A) (A) (A) (A) (A) (A) (A)
                 (A) (A) (A) (A) (A) (A) (A) (A) (A) (A) (A)
 The electronic state is 1-A.
 Alpha  occ. eigenvalues --  -89.13802 -89.08863 -19.15257 -19.15023 -19.14234
 Alpha  occ. eigenvalues --  -19.14057 -14.38729 -14.38601 -10.28408 -10.23985
 Alpha  occ. eigenvalues --  -10.23485 -10.23205 -10.22310 -10.20630 -10.20438
 Alpha  occ. eigenvalues --  -10.20219 -10.19290 -10.19281 -10.19173 -10.19131
 Alpha  occ. eigenvalues --  -10.19060  -8.16060  -8.11914  -6.12533  -6.12503
 Alpha  occ. eigenvalues --   -6.12434  -6.08331  -6.08273  -6.08198  -1.12797
 Alpha  occ. eigenvalues --   -1.09377  -1.00576  -0.98964  -0.96018  -0.94746
 Alpha  occ. eigenvalues --   -0.86262  -0.85321  -0.79846  -0.74865  -0.74504
 Alpha  occ. eigenvalues --   -0.73831  -0.72758  -0.72245  -0.67714  -0.62790
 Alpha  occ. eigenvalues --   -0.60966  -0.60230  -0.58656  -0.57137  -0.55554
 Alpha  occ. eigenvalues --   -0.52769  -0.51883  -0.51060  -0.50245  -0.49210
 Alpha  occ. eigenvalues --   -0.48779  -0.47614  -0.46556  -0.46462  -0.45634
 Alpha  occ. eigenvalues --   -0.44842  -0.44624  -0.44018  -0.42790  -0.42596
 Alpha  occ. eigenvalues --   -0.42184  -0.42080  -0.41522  -0.40645  -0.39971
 Alpha  occ. eigenvalues --   -0.39425  -0.37577  -0.37095  -0.35539  -0.35458
 Alpha  occ. eigenvalues --   -0.34883  -0.34156  -0.33829  -0.32448  -0.31581
 Alpha  occ. eigenvalues --   -0.31041  -0.30729  -0.29433  -0.28928  -0.28148
 Alpha  occ. eigenvalues --   -0.26682  -0.25263  -0.24498
 Alpha virt. eigenvalues --   -0.00682  -0.00499   0.03214   0.03855   0.05069
 Alpha virt. eigenvalues --    0.05770   0.06724   0.06925   0.07368   0.08348
 Alpha virt. eigenvalues --    0.09267   0.09748   0.09959   0.10215   0.10711
 Alpha virt. eigenvalues --    0.12537   0.13718   0.14184   0.14295   0.14944
 Alpha virt. eigenvalues --    0.15195   0.15471   0.15958   0.16752   0.17036
 Alpha virt. eigenvalues --    0.17258   0.17649   0.18377   0.18653   0.19178
 Alpha virt. eigenvalues --    0.20303   0.20772   0.21794   0.22422   0.23722
 Alpha virt. eigenvalues --    0.24274   0.25428   0.26159   0.29560   0.30381
 Alpha virt. eigenvalues --    0.32163   0.34694   0.34973   0.35390   0.36506
 Alpha virt. eigenvalues --    0.36735   0.39765   0.42365   0.42928   0.45009
 Alpha virt. eigenvalues --    0.45499   0.46870   0.48025   0.48463   0.49266
 Alpha virt. eigenvalues --    0.51118   0.52246   0.52884   0.53368   0.53662
 Alpha virt. eigenvalues --    0.54667   0.55603   0.55854   0.57045   0.58053
 Alpha virt. eigenvalues --    0.58556   0.59107   0.59825   0.60339   0.60940
 Alpha virt. eigenvalues --    0.61205   0.61618   0.62430   0.63505   0.63943
 Alpha virt. eigenvalues --    0.65442   0.66471   0.66650   0.68135   0.70751
 Alpha virt. eigenvalues --    0.72361   0.72974   0.73882   0.75269   0.76161
 Alpha virt. eigenvalues --    0.76604   0.77374   0.78534   0.79435   0.80572
 Alpha virt. eigenvalues --    0.81189   0.81469   0.82127   0.82641   0.83290
 Alpha virt. eigenvalues --    0.84152   0.84337   0.85331   0.85780   0.86595
 Alpha virt. eigenvalues --    0.87193   0.87535   0.88094   0.88924   0.89813
 Alpha virt. eigenvalues --    0.90194   0.90616   0.91159   0.91780   0.92118
 Alpha virt. eigenvalues --    0.93075   0.94432   0.94466   0.95145   0.96007
 Alpha virt. eigenvalues --    0.96355   0.98412   0.99015   1.00589   1.02180
 Alpha virt. eigenvalues --    1.02532   1.03789   1.04344   1.05517   1.05992
 Alpha virt. eigenvalues --    1.06180   1.07166   1.09131   1.09799   1.10839
 Alpha virt. eigenvalues --    1.12793   1.14133   1.14637   1.16271   1.16463
 Alpha virt. eigenvalues --    1.17699   1.17841   1.18954   1.21029   1.22424
 Alpha virt. eigenvalues --    1.22610   1.24425   1.26148   1.26866   1.29786
 Alpha virt. eigenvalues --    1.30973   1.34447   1.37232   1.38871   1.41617
 Alpha virt. eigenvalues --    1.42337   1.43352   1.44421   1.45513   1.46476
 Alpha virt. eigenvalues --    1.46829   1.48254   1.49001   1.51090   1.51649
 Alpha virt. eigenvalues --    1.54352   1.57025   1.60520   1.63358   1.64087
 Alpha virt. eigenvalues --    1.67839   1.71069   1.71629   1.74532   1.76417
 Alpha virt. eigenvalues --    1.77759   1.77898   1.78741   1.79198   1.80088
 Alpha virt. eigenvalues --    1.81172   1.81249   1.82102   1.82316   1.83230
 Alpha virt. eigenvalues --    1.83887   1.84628   1.86418   1.87347   1.88116
 Alpha virt. eigenvalues --    1.89756   1.90859   1.91060   1.93129   1.93363
 Alpha virt. eigenvalues --    1.94382   1.95241   1.96185   1.97639   1.98073
 Alpha virt. eigenvalues --    1.99330   2.00496   2.02388   2.03763   2.04902
 Alpha virt. eigenvalues --    2.06985   2.07603   2.08493   2.09592   2.10062
 Alpha virt. eigenvalues --    2.11215   2.12177   2.13167   2.14106   2.14654
 Alpha virt. eigenvalues --    2.16050   2.17366   2.18323   2.18562   2.20026
 Alpha virt. eigenvalues --    2.21696   2.23424   2.23993   2.25843   2.29557
 Alpha virt. eigenvalues --    2.30581   2.31246   2.31814   2.32129   2.33798
 Alpha virt. eigenvalues --    2.34549   2.38377   2.41092   2.41324   2.43391
 Alpha virt. eigenvalues --    2.45711   2.46396   2.49427   2.52543   2.57974
 Alpha virt. eigenvalues --    2.58509   2.58968   2.63906   2.65323   2.69636
 Alpha virt. eigenvalues --    2.71071   2.72051   2.72526   2.73341   2.74414
 Alpha virt. eigenvalues --    2.76051   2.76891   2.79661   2.82548   2.83537
 Alpha virt. eigenvalues --    2.88339   2.90388   3.05832   3.40459   3.78725
 Alpha virt. eigenvalues --    3.82670   3.87659   3.95281   3.96595   3.99089
 Alpha virt. eigenvalues --    4.04632   4.09288   4.12115   4.15719   4.19095
 Alpha virt. eigenvalues --    4.20659   4.23876   4.24781   4.30567   4.33190
 Alpha virt. eigenvalues --    4.35900   4.43472   4.50381   4.69363   4.75149
          Condensed to atoms (all electrons):
               1          2          3          4          5          6
     1  C    4.986003   0.271136  -0.049625  -0.008756   0.001489   0.003487
     2  N    0.271136   7.218454   0.292046   0.124493  -0.054508  -0.054378
     3  C   -0.049625   0.292046   4.983589  -0.029175  -0.002165  -0.002102
     4  S   -0.008756   0.124493  -0.029175  13.662869   0.421457   0.421842
     5  O    0.001489  -0.054508  -0.002165   0.421457   8.249313  -0.049390
     6  O    0.003487  -0.054378  -0.002102   0.421842  -0.049390   8.261906
     7  N   -0.009534  -0.048632   0.002056   0.128878  -0.053098  -0.055240
     8  C   -0.000325   0.003913  -0.000046  -0.019449  -0.004429   0.004659
     9  C   -0.000011  -0.000223   0.000007  -0.002098  -0.003699  -0.000798
    10  S    0.000004  -0.000028  -0.000001   0.000488  -0.000076   0.000045
    11  O    0.000000   0.000000   0.000000  -0.000119   0.000006   0.000000
    12  O    0.000000   0.000000   0.000000   0.000006   0.000000   0.000000
    13  C    0.000002  -0.000125   0.000001   0.001124  -0.000164   0.000074
    14  C    0.000045  -0.000232  -0.000001  -0.004385  -0.000062  -0.009281
    15  C    0.000000   0.000000   0.000000   0.000091   0.000001   0.000184
    16  C    0.000000   0.000000   0.000000  -0.000002   0.000000  -0.000005
    17  C    0.000000   0.000000   0.000000   0.000027  -0.000001  -0.000201
    18  C    0.000000   0.000000   0.000000   0.000001   0.000000  -0.000021
    19  C    0.000000   0.000000   0.000000   0.000000   0.000000   0.000000
    20  C    0.000000   0.000000   0.000000   0.000000   0.000000   0.000000
    21  C    0.000000   0.000000   0.000000  -0.000001   0.000000   0.000000
    22  H    0.373835  -0.035770  -0.003908   0.002812  -0.000047   0.000066
    23  H    0.376634  -0.046326  -0.001462  -0.007153  -0.000030   0.004535
    24  H    0.374923  -0.032379   0.004613  -0.002154   0.000037  -0.001874
    25  H   -0.002759  -0.040146   0.377603   0.001713   0.000314  -0.000101
    26  H    0.004277  -0.030083   0.378529  -0.003153   0.010898  -0.000056
    27  H   -0.001661  -0.047528   0.373307  -0.002760  -0.000522   0.001711
    28  H   -0.000075   0.004788  -0.000100  -0.005811  -0.000590   0.001597
    29  H    0.000000   0.000000   0.000000  -0.000046   0.000104  -0.000183
    30  H   -0.000005   0.000041   0.000006   0.005172   0.016032  -0.001290
    31  H    0.000000   0.000001   0.000000   0.000020   0.000000   0.000001
    32  H   -0.000008  -0.000015   0.000000   0.000120   0.000008  -0.000001
    33  H   -0.000134   0.000008   0.000000   0.000372   0.000003   0.000134
    34  H    0.000029  -0.000083   0.000003   0.001126  -0.000023   0.014276
    35  H    0.000000   0.000000   0.000000  -0.000009   0.000000  -0.000004
    36  H    0.000000   0.000000   0.000000  -0.000007   0.000000   0.000001
    37  H    0.000000   0.000001   0.000000   0.000121   0.000001   0.000950
    38  H    0.000000   0.000000   0.000000   0.000000   0.000000  -0.000001
    39  H    0.000000   0.000000   0.000000   0.000000   0.000000   0.000000
    40  H    0.000000   0.000000   0.000000   0.000000   0.000000   0.000000
    41  H    0.000000   0.000000   0.000000   0.000000   0.000000   0.000000
               7          8          9         10         11         12
     1  C   -0.009534  -0.000325  -0.000011   0.000004   0.000000   0.000000
     2  N   -0.048632   0.003913  -0.000223  -0.000028   0.000000   0.000000
     3  C    0.002056  -0.000046   0.000007  -0.000001   0.000000   0.000000
     4  S    0.128878  -0.019449  -0.002098   0.000488  -0.000119   0.000006
     5  O   -0.053098  -0.004429  -0.003699  -0.000076   0.000006   0.000000
     6  O   -0.055240   0.004659  -0.000798   0.000045   0.000000   0.000000
     7  N    7.390132   0.231654  -0.066159   0.008732  -0.001789  -0.000040
     8  C    0.231654   4.874138   0.344269  -0.099698   0.001599   0.002261
     9  C   -0.066159   0.344269   5.788352   0.132523  -0.045241  -0.045653
    10  S    0.008732  -0.099698   0.132523  13.918996   0.412611   0.434272
    11  O   -0.001789   0.001599  -0.045241   0.412611   8.242070  -0.046712
    12  O   -0.000040   0.002261  -0.045653   0.434272  -0.046712   8.209379
    13  C   -0.045942   0.340665  -0.199671   0.110502  -0.045892  -0.045335
    14  C   -0.061050   0.384262  -0.046474   0.003751  -0.000054  -0.000177
    15  C    0.003337  -0.032297  -0.001175  -0.000266  -0.000001   0.000018
    16  C   -0.000036  -0.003480  -0.004365   0.000277   0.000000  -0.000050
    17  C   -0.000031  -0.001078   0.000519   0.000070   0.000000   0.000000
    18  C    0.000000  -0.000044   0.000243  -0.000003   0.000000   0.000000
    19  C    0.000000   0.000003   0.000065   0.000000   0.000000   0.000000
    20  C    0.000000   0.000004  -0.000324  -0.000011   0.000000   0.000000
    21  C   -0.000003   0.000691  -0.005632   0.000357   0.000000  -0.000062
    22  H   -0.000086  -0.000004   0.000000   0.000000   0.000000   0.000000
    23  H    0.000144   0.000046   0.000000   0.000000   0.000000   0.000000
    24  H    0.012899  -0.000655   0.000035   0.000000   0.000000   0.000000
    25  H   -0.000075   0.000000   0.000000   0.000000   0.000000   0.000000
    26  H    0.000079  -0.000004   0.000001   0.000001   0.000000   0.000000
    27  H   -0.000058   0.000006   0.000000   0.000000   0.000000   0.000000
    28  H    0.286145  -0.025127  -0.000336   0.007498   0.004986   0.000014
    29  H    0.003526  -0.023289   0.312464  -0.003052   0.001160   0.000958
    30  H   -0.008138  -0.022242   0.339337  -0.011822  -0.000021   0.000490
    31  H    0.003432  -0.026988   0.004542  -0.003866   0.001239   0.000915
    32  H   -0.003878  -0.022197   0.010553  -0.012280  -0.000504   0.000664
    33  H    0.001515  -0.039396   0.005725   0.000010   0.000001   0.000002
    34  H   -0.003548  -0.031906  -0.004115  -0.000152   0.000001   0.000001
    35  H    0.000037  -0.006692  -0.000075  -0.000256   0.000002   0.000024
    36  H   -0.000108   0.004532  -0.000046   0.000017   0.000000   0.000000
    37  H    0.000000   0.000182  -0.000038   0.000001   0.000000   0.000000
    38  H    0.000000   0.000000   0.000000   0.000000   0.000000   0.000000
    39  H    0.000000   0.000000   0.000000   0.000000   0.000000   0.000000
    40  H    0.000000   0.000000  -0.000005  -0.000001   0.000000   0.000000
    41  H    0.000000  -0.000003  -0.000135   0.000414   0.000000   0.000252
              13         14         15         16         17         18
     1  C    0.000002   0.000045   0.000000   0.000000   0.000000   0.000000
     2  N   -0.000125  -0.000232   0.000000   0.000000   0.000000   0.000000
     3  C    0.000001  -0.000001   0.000000   0.000000   0.000000   0.000000
     4  S    0.001124  -0.004385   0.000091  -0.000002   0.000027   0.000001
     5  O   -0.000164  -0.000062   0.000001   0.000000  -0.000001   0.000000
     6  O    0.000074  -0.009281   0.000184  -0.000005  -0.000201  -0.000021
     7  N   -0.045942  -0.061050   0.003337  -0.000036  -0.000031   0.000000
     8  C    0.340665   0.384262  -0.032297  -0.003480  -0.001078  -0.000044
     9  C   -0.199671  -0.046474  -0.001175  -0.004365   0.000519   0.000243
    10  S    0.110502   0.003751  -0.000266   0.000277   0.000070  -0.000003
    11  O   -0.045892  -0.000054  -0.000001   0.000000   0.000000   0.000000
    12  O   -0.045335  -0.000177   0.000018  -0.000050   0.000000   0.000000
    13  C    5.767648  -0.036233  -0.005989  -0.000359   0.000012   0.000001
    14  C   -0.036233   5.113111   0.329668  -0.034254  -0.002906   0.000380
    15  C   -0.005989   0.329668   5.200919   0.347342  -0.067987   0.006168
    16  C   -0.000359  -0.034254   0.347342   4.677089   0.541493  -0.018053
    17  C    0.000012  -0.002906  -0.067987   0.541493   4.972737   0.527861
    18  C    0.000001   0.000380   0.006168  -0.018053   0.527861   4.858261
    19  C    0.000000  -0.000006   0.000353  -0.034869  -0.035132   0.545486
    20  C    0.000000  -0.000167   0.007029  -0.022680  -0.046793  -0.025872
    21  C   -0.000040   0.001322  -0.052228   0.540592  -0.042119  -0.045667
    22  H    0.000000  -0.000001   0.000000   0.000000   0.000000   0.000000
    23  H   -0.000001   0.000008   0.000000   0.000000   0.000000   0.000000
    24  H    0.000001   0.000228   0.000003   0.000000   0.000000   0.000000
    25  H    0.000000   0.000000   0.000000   0.000000   0.000000   0.000000
    26  H    0.000000   0.000000   0.000000   0.000000   0.000000   0.000000
    27  H    0.000000   0.000000   0.000000   0.000000   0.000000   0.000000
    28  H   -0.007621   0.004341  -0.000089   0.000001   0.000001   0.000000
    29  H    0.004335  -0.006996  -0.001669   0.010096  -0.000639  -0.000513
    30  H    0.008136   0.000777   0.000109  -0.000051   0.000001  -0.000005
    31  H    0.332151  -0.006637   0.001792   0.000131   0.000005   0.000000
    32  H    0.337647   0.000031   0.000160  -0.000001   0.000000   0.000000
    33  H   -0.008542   0.355524  -0.029439   0.004205   0.000183  -0.000001
    34  H    0.004711   0.371157  -0.033703  -0.007532   0.003267  -0.000021
    35  H    0.001307  -0.038915   0.358686  -0.037038   0.004947  -0.000142
    36  H    0.000098  -0.033316   0.360088  -0.027359  -0.004633  -0.000085
    37  H    0.000001   0.000734  -0.009138  -0.047742   0.355471  -0.040573
    38  H    0.000000   0.000003  -0.000183   0.003590  -0.039112   0.358227
    39  H    0.000000   0.000000   0.000007   0.000719   0.004742  -0.042616
    40  H    0.000000   0.000001  -0.000177   0.003781   0.000777   0.004576
    41  H   -0.000046   0.000154  -0.011343  -0.044902   0.006323   0.000322
              19         20         21         22         23         24
     1  C    0.000000   0.000000   0.000000   0.373835   0.376634   0.374923
     2  N    0.000000   0.000000   0.000000  -0.035770  -0.046326  -0.032379
     3  C    0.000000   0.000000   0.000000  -0.003908  -0.001462   0.004613
     4  S    0.000000   0.000000  -0.000001   0.002812  -0.007153  -0.002154
     5  O    0.000000   0.000000   0.000000  -0.000047  -0.000030   0.000037
     6  O    0.000000   0.000000   0.000000   0.000066   0.004535  -0.001874
     7  N    0.000000   0.000000  -0.000003  -0.000086   0.000144   0.012899
     8  C    0.000003   0.000004   0.000691  -0.000004   0.000046  -0.000655
     9  C    0.000065  -0.000324  -0.005632   0.000000   0.000000   0.000035
    10  S    0.000000  -0.000011   0.000357   0.000000   0.000000   0.000000
    11  O    0.000000   0.000000   0.000000   0.000000   0.000000   0.000000
    12  O    0.000000   0.000000  -0.000062   0.000000   0.000000   0.000000
    13  C    0.000000   0.000000  -0.000040   0.000000  -0.000001   0.000001
    14  C   -0.000006  -0.000167   0.001322  -0.000001   0.000008   0.000228
    15  C    0.000353   0.007029  -0.052228   0.000000   0.000000   0.000003
    16  C   -0.034869  -0.022680   0.540592   0.000000   0.000000   0.000000
    17  C   -0.035132  -0.046793  -0.042119   0.000000   0.000000   0.000000
    18  C    0.545486  -0.025872  -0.045667   0.000000   0.000000   0.000000
    19  C    4.856711   0.551230  -0.035801   0.000000   0.000000   0.000000
    20  C    0.551230   4.864059   0.519710   0.000000   0.000000   0.000000
    21  C   -0.035801   0.519710   4.981689   0.000000   0.000000   0.000000
    22  H    0.000000   0.000000   0.000000   0.551542  -0.037513  -0.023195
    23  H    0.000000   0.000000   0.000000  -0.037513   0.563978  -0.029972
    24  H    0.000000   0.000000   0.000000  -0.023195  -0.029972   0.508263
    25  H    0.000000   0.000000   0.000000   0.005399  -0.001872   0.000084
    26  H    0.000000   0.000000   0.000000   0.000011  -0.000168  -0.000182
    27  H    0.000000   0.000000   0.000000  -0.001390   0.008047  -0.000200
    28  H    0.000000   0.000000   0.000000  -0.000033   0.000021  -0.000300
    29  H   -0.000133   0.000813   0.009948   0.000000   0.000000   0.000000
    30  H   -0.000003   0.000002   0.000038   0.000000   0.000000   0.000001
    31  H    0.000000   0.000000  -0.000038   0.000000   0.000000   0.000000
    32  H    0.000000   0.000000   0.000000   0.000000   0.000000   0.000025
    33  H    0.000000   0.000002  -0.000113   0.000002  -0.000008   0.000845
    34  H    0.000000   0.000002   0.000143   0.000000  -0.000010   0.000024
    35  H   -0.000004   0.000210  -0.004585   0.000000   0.000000   0.000000
    36  H    0.000042  -0.000235   0.000748   0.000000   0.000000  -0.000001
    37  H    0.004676   0.000365   0.005884   0.000000   0.000000   0.000000
    38  H   -0.042941   0.004549   0.000842   0.000000   0.000000   0.000000
    39  H    0.359646  -0.043000   0.004697   0.000000   0.000000   0.000000
    40  H   -0.042997   0.357959  -0.038934   0.000000   0.000000   0.000000
    41  H    0.004770  -0.043883   0.354896   0.000000   0.000000   0.000000
              25         26         27         28         29         30
     1  C   -0.002759   0.004277  -0.001661  -0.000075   0.000000  -0.000005
     2  N   -0.040146  -0.030083  -0.047528   0.004788   0.000000   0.000041
     3  C    0.377603   0.378529   0.373307  -0.000100   0.000000   0.000006
     4  S    0.001713  -0.003153  -0.002760  -0.005811  -0.000046   0.005172
     5  O    0.000314   0.010898  -0.000522  -0.000590   0.000104   0.016032
     6  O   -0.000101  -0.000056   0.001711   0.001597  -0.000183  -0.001290
     7  N   -0.000075   0.000079  -0.000058   0.286145   0.003526  -0.008138
     8  C    0.000000  -0.000004   0.000006  -0.025127  -0.023289  -0.022242
     9  C    0.000000   0.000001   0.000000  -0.000336   0.312464   0.339337
    10  S    0.000000   0.000001   0.000000   0.007498  -0.003052  -0.011822
    11  O    0.000000   0.000000   0.000000   0.004986   0.001160  -0.000021
    12  O    0.000000   0.000000   0.000000   0.000014   0.000958   0.000490
    13  C    0.000000   0.000000   0.000000  -0.007621   0.004335   0.008136
    14  C    0.000000   0.000000   0.000000   0.004341  -0.006996   0.000777
    15  C    0.000000   0.000000   0.000000  -0.000089  -0.001669   0.000109
    16  C    0.000000   0.000000   0.000000   0.000001   0.010096  -0.000051
    17  C    0.000000   0.000000   0.000000   0.000001  -0.000639   0.000001
    18  C    0.000000   0.000000   0.000000   0.000000  -0.000513  -0.000005
    19  C    0.000000   0.000000   0.000000   0.000000  -0.000133  -0.000003
    20  C    0.000000   0.000000   0.000000   0.000000   0.000813   0.000002
    21  C    0.000000   0.000000   0.000000   0.000000   0.009948   0.000038
    22  H    0.005399   0.000011  -0.001390  -0.000033   0.000000   0.000000
    23  H   -0.001872  -0.000168   0.008047   0.000021   0.000000   0.000000
    24  H    0.000084  -0.000182  -0.000200  -0.000300   0.000000   0.000001
    25  H    0.554944  -0.020408  -0.042443  -0.000009   0.000000   0.000000
    26  H   -0.020408   0.475815  -0.028987  -0.000028   0.000000   0.000000
    27  H   -0.042443  -0.028987   0.578241   0.000011   0.000000   0.000000
    28  H   -0.000009  -0.000028   0.000011   0.362338  -0.000060  -0.000235
    29  H    0.000000   0.000000   0.000000  -0.000060   0.478541  -0.012973
    30  H    0.000000   0.000000   0.000000  -0.000235  -0.012973   0.434371
    31  H    0.000000   0.000000   0.000000   0.000234  -0.000006  -0.000210
    32  H    0.000000   0.000000   0.000000   0.002087  -0.000271  -0.000256
    33  H    0.000000   0.000000   0.000000  -0.000064   0.000061  -0.000075
    34  H    0.000000   0.000000   0.000000  -0.000008   0.000318   0.000096
    35  H    0.000000   0.000000   0.000000  -0.000002   0.000082   0.000001
    36  H    0.000000   0.000000   0.000000   0.000003   0.000182   0.000000
    37  H    0.000000   0.000000   0.000000   0.000000   0.000053   0.000001
    38  H    0.000000   0.000000   0.000000   0.000000   0.000000   0.000000
    39  H    0.000000   0.000000   0.000000   0.000000  -0.000001   0.000000
    40  H    0.000000   0.000000   0.000000   0.000000   0.000017   0.000000
    41  H    0.000000   0.000000   0.000000   0.000000   0.000073   0.000002
              31         32         33         34         35         36
     1  C    0.000000  -0.000008  -0.000134   0.000029   0.000000   0.000000
     2  N    0.000001  -0.000015   0.000008  -0.000083   0.000000   0.000000
     3  C    0.000000   0.000000   0.000000   0.000003   0.000000   0.000000
     4  S    0.000020   0.000120   0.000372   0.001126  -0.000009  -0.000007
     5  O    0.000000   0.000008   0.000003  -0.000023   0.000000   0.000000
     6  O    0.000001  -0.000001   0.000134   0.014276  -0.000004   0.000001
     7  N    0.003432  -0.003878   0.001515  -0.003548   0.000037  -0.000108
     8  C   -0.026988  -0.022197  -0.039396  -0.031906  -0.006692   0.004532
     9  C    0.004542   0.010553   0.005725  -0.004115  -0.000075  -0.000046
    10  S   -0.003866  -0.012280   0.000010  -0.000152  -0.000256   0.000017
    11  O    0.001239  -0.000504   0.000001   0.000001   0.000002   0.000000
    12  O    0.000915   0.000664   0.000002   0.000001   0.000024   0.000000
    13  C    0.332151   0.337647  -0.008542   0.004711   0.001307   0.000098
    14  C   -0.006637   0.000031   0.355524   0.371157  -0.038915  -0.033316
    15  C    0.001792   0.000160  -0.029439  -0.033703   0.358686   0.360088
    16  C    0.000131  -0.000001   0.004205  -0.007532  -0.037038  -0.027359
    17  C    0.000005   0.000000   0.000183   0.003267   0.004947  -0.004633
    18  C    0.000000   0.000000  -0.000001  -0.000021  -0.000142  -0.000085
    19  C    0.000000   0.000000   0.000000   0.000000  -0.000004   0.000042
    20  C    0.000000   0.000000   0.000002   0.000002   0.000210  -0.000235
    21  C   -0.000038   0.000000  -0.000113   0.000143  -0.004585   0.000748
    22  H    0.000000   0.000000   0.000002   0.000000   0.000000   0.000000
    23  H    0.000000   0.000000  -0.000008  -0.000010   0.000000   0.000000
    24  H    0.000000   0.000025   0.000845   0.000024   0.000000  -0.000001
    25  H    0.000000   0.000000   0.000000   0.000000   0.000000   0.000000
    26  H    0.000000   0.000000   0.000000   0.000000   0.000000   0.000000
    27  H    0.000000   0.000000   0.000000   0.000000   0.000000   0.000000
    28  H    0.000234   0.002087  -0.000064  -0.000008  -0.000002   0.000003
    29  H   -0.000006  -0.000271   0.000061   0.000318   0.000082   0.000182
    30  H   -0.000210  -0.000256  -0.000075   0.000096   0.000001   0.000000
    31  H    0.490107  -0.018185   0.000518   0.000217   0.007216  -0.000263
    32  H   -0.018185   0.499593   0.000808  -0.000101  -0.000011  -0.000004
    33  H    0.000518   0.000808   0.601094  -0.030413  -0.001262  -0.005595
    34  H    0.000217  -0.000101  -0.030413   0.494485   0.004351  -0.001495
    35  H    0.007216  -0.000011  -0.001262   0.004351   0.594580  -0.033665
    36  H   -0.000263  -0.000004  -0.005595  -0.001495  -0.033665   0.572563
    37  H    0.000000   0.000000  -0.000150   0.005127   0.000012   0.001374
    38  H    0.000000   0.000000   0.000000   0.000007   0.000003   0.000000
    39  H    0.000000   0.000000   0.000000   0.000000   0.000000   0.000000
    40  H    0.000000   0.000000   0.000000   0.000000  -0.000010   0.000003
    41  H    0.000027   0.000000  -0.000007   0.000007   0.007751   0.000196
              37         38         39         40         41
     1  C    0.000000   0.000000   0.000000   0.000000   0.000000
     2  N    0.000001   0.000000   0.000000   0.000000   0.000000
     3  C    0.000000   0.000000   0.000000   0.000000   0.000000
     4  S    0.000121   0.000000   0.000000   0.000000   0.000000
     5  O    0.000001   0.000000   0.000000   0.000000   0.000000
     6  O    0.000950  -0.000001   0.000000   0.000000   0.000000
     7  N    0.000000   0.000000   0.000000   0.000000   0.000000
     8  C    0.000182   0.000000   0.000000   0.000000  -0.000003
     9  C   -0.000038   0.000000   0.000000  -0.000005  -0.000135
    10  S    0.000001   0.000000   0.000000  -0.000001   0.000414
    11  O    0.000000   0.000000   0.000000   0.000000   0.000000
    12  O    0.000000   0.000000   0.000000   0.000000   0.000252
    13  C    0.000001   0.000000   0.000000   0.000000  -0.000046
    14  C    0.000734   0.000003   0.000000   0.000001   0.000154
    15  C   -0.009138  -0.000183   0.000007  -0.000177  -0.011343
    16  C   -0.047742   0.003590   0.000719   0.003781  -0.044902
    17  C    0.355471  -0.039112   0.004742   0.000777   0.006323
    18  C   -0.040573   0.358227  -0.042616   0.004576   0.000322
    19  C    0.004676  -0.042941   0.359646  -0.042997   0.004770
    20  C    0.000365   0.004549  -0.043000   0.357959  -0.043883
    21  C    0.005884   0.000842   0.004697  -0.038934   0.354896
    22  H    0.000000   0.000000   0.000000   0.000000   0.000000
    23  H    0.000000   0.000000   0.000000   0.000000   0.000000
    24  H    0.000000   0.000000   0.000000   0.000000   0.000000
    25  H    0.000000   0.000000   0.000000   0.000000   0.000000
    26  H    0.000000   0.000000   0.000000   0.000000   0.000000
    27  H    0.000000   0.000000   0.000000   0.000000   0.000000
    28  H    0.000000   0.000000   0.000000   0.000000   0.000000
    29  H    0.000053   0.000000  -0.000001   0.000017   0.000073
    30  H    0.000001   0.000000   0.000000   0.000000   0.000002
    31  H    0.000000   0.000000   0.000000   0.000000   0.000027
    32  H    0.000000   0.000000   0.000000   0.000000   0.000000
    33  H   -0.000150   0.000000   0.000000   0.000000  -0.000007
    34  H    0.005127   0.000007   0.000000   0.000000   0.000007
    35  H    0.000012   0.000003   0.000000  -0.000010   0.007751
    36  H    0.001374   0.000000   0.000000   0.000003   0.000196
    37  H    0.586978  -0.005441  -0.000176   0.000017  -0.000174
    38  H   -0.005441   0.590005  -0.005379  -0.000184   0.000017
    39  H   -0.000176  -0.005379   0.593879  -0.005519  -0.000175
    40  H    0.000017  -0.000184  -0.005519   0.590028  -0.005500
    41  H   -0.000174   0.000017  -0.000175  -0.005500   0.595840
 Mulliken charges:
               1
     1  C   -0.318970
     2  N   -0.524423
     3  C   -0.323176
     4  S    1.312347
     5  O   -0.530861
     6  O   -0.540539
     7  N   -0.715120
     8  C    0.166462
     9  C   -0.512362
    10  S    1.100944
    11  O   -0.523342
    12  O   -0.511226
    13  C   -0.512456
    14  C   -0.284348
    15  C   -0.370272
    16  C    0.153463
    17  C   -0.177803
    18  C   -0.127908
    19  C   -0.131094
    20  C   -0.122970
    21  C   -0.196335
    22  H    0.168280
    23  H    0.171104
    24  H    0.188933
    25  H    0.167756
    26  H    0.213460
    27  H    0.164228
    28  H    0.366423
    29  H    0.227097
    30  H    0.252714
    31  H    0.213644
    32  H    0.206018
    33  H    0.144188
    34  H    0.213763
    35  H    0.143463
    36  H    0.166964
    37  H    0.141487
    38  H    0.136000
    39  H    0.133176
    40  H    0.136167
    41  H    0.135124
 Sum of Mulliken charges =   0.00000
 Mulliken charges with hydrogens summed into heavy atoms:
               1
     1  C    0.209347
     2  N   -0.524423
     3  C    0.222267
     4  S    1.312347
     5  O   -0.530861
     6  O   -0.540539
     7  N   -0.348697
     8  C    0.166462
     9  C   -0.032551
    10  S    1.100944
    11  O   -0.523342
    12  O   -0.511226
    13  C   -0.092794
    14  C    0.073603
    15  C   -0.059845
    16  C    0.153463
    17  C   -0.036316
    18  C    0.008093
    19  C    0.002082
    20  C    0.013197
    21  C   -0.061212
 Electronic spatial extent (au):  <R**2>=           7580.6038
 Charge=              0.0000 electrons
 Dipole moment (field-independent basis, Debye):
    X=              2.3127    Y=             -3.5774    Z=              4.9453  Tot=              6.5271
 Quadrupole moment (field-independent basis, Debye-Ang):
   XX=           -118.5337   YY=           -155.8718   ZZ=           -136.1189
   XY=             -1.0048   XZ=              7.7232   YZ=              9.6769
 Traceless Quadrupole moment (field-independent basis, Debye-Ang):
   XX=             18.3078   YY=            -19.0303   ZZ=              0.7225
   XY=             -1.0048   XZ=              7.7232   YZ=              9.6769
 Octapole moment (field-independent basis, Debye-Ang**2):
  XXX=            120.5779  YYY=            -66.6039  ZZZ=              5.2572  XYY=             29.9574
  XXY=            -32.8181  XXZ=            -14.3940  XZZ=              1.3735  YZZ=              3.4726
  YYZ=             23.3111  XYZ=            -10.3901
 Hexadecapole moment (field-independent basis, Debye-Ang**3):
 XXXX=          -5542.2242 YYYY=          -3024.5482 ZZZZ=          -1013.8911 XXXY=           -215.7702
 XXXZ=            110.4314 YYYX=             37.0395 YYYZ=            114.8035 ZZZX=              9.3062
 ZZZY=             -4.1751 XXYY=          -1506.0384 XXZZ=          -1154.3406 YYZZ=           -610.9960
 XXYZ=             62.5571 YYXZ=             39.0460 ZZXY=            -14.9831
 N-N= 2.203730787928D+03 E-N=-8.433615782837D+03  KE= 1.702474693421D+03
 No NMR shielding tensors so no spin-rotation constants.
 Leave Link  601 at Fri Oct  2 02:38:05 2020, MaxMem=  2147483648 cpu:         0.3
 (Enter /prod/apps/gaussian/g09d1/l9999.exe)
 1\1\GINC-PIRINEUS7\SP\RB3LYP\6-31G(d)\C13H20N2O4S2\UBAFAR01\02-Oct-202
 0\0\\#p b3lyp/6-31G(d)\\SM40.n.21.pdb.xyz\\0,1\C,0,3.827,1.067,-0.176\
 N,0,2.797,0.034,-0.368\C,0,1.59,0.513,-1.062\S,0,3.38,-1.442,-0.893\O,
 0,2.208,-2.27,-1.222\O,0,4.435,-1.343,-1.915\N,0,4.124,-1.912,0.542\C,
 0,5.074,-3.057,0.554\C,0,4.485,-4.355,-0.111\S,0,4.008,-4.985,1.532\O,
 0,2.594,-4.695,1.847\O,0,4.536,-6.324,1.854\C,0,5.102,-3.603,2.019\C,0
 ,6.448,-2.564,0.052\C,0,7.585,-3.597,-0.083\C,0,7.532,-4.495,-1.306\C,
 0,7.36,-3.959,-2.591\C,0,7.349,-4.782,-3.717\C,0,7.512,-6.164,-3.579\C
 ,0,7.685,-6.711,-2.307\C,0,7.695,-5.882,-1.183\H,0,3.375,1.872,0.407\H
 ,0,4.19,1.472,-1.127\H,0,4.658,0.648,0.388\H,0,1.184,1.331,-0.464\H,0,
 0.857,-0.289,-1.115\H,0,1.806,0.886,-2.07\H,0,3.392,-1.979,1.252\H,0,5
 .242,-5.007,-0.545\H,0,3.645,-4.216,-0.789\H,0,6.077,-3.996,2.309\H,0,
 4.705,-2.955,2.8\H,0,6.762,-1.787,0.756\H,0,6.291,-2.071,-0.907\H,0,7.
 669,-4.217,0.817\H,0,8.515,-3.018,-0.123\H,0,7.231,-2.888,-2.71\H,0,7.
 215,-4.346,-4.702\H,0,7.503,-6.806,-4.454\H,0,7.812,-7.782,-2.187\H,0,
 7.828,-6.314,-0.195\\Version=AM64L-G09RevD.01\State=1-A\HF=-1714.03686
 65\RMSD=9.689e-09\Dipole=1.2337865,2.2493261,0.1123524\Quadrupole=-4.5
 002382,5.7156333,-1.2153951,-10.9022429,4.2486375,10.6795301\PG=C01 [X
 (C13H20N2O4S2)]\\@


 Other things may change us, but we start and end with family.
 -- Anthony Brandt
 Job cpu time:       0 days  0 hours  6 minutes 23.5 seconds.
 File lengths (MBytes):  RWF=     73 Int=      0 D2E=      0 Chk=      6 Scr=      1
 Normal termination of Gaussian 09 at Fri Oct  2 02:38:05 2020.
 Initial command:
 /prod/apps/gaussian/g09d1/l1.exe "/tmp/ubafar01/1462886/Gau-71131.inp" -scrdir="/tmp/ubafar01/1462886/"
 Entering Link 1 = /prod/apps/gaussian/g09d1/l1.exe PID=     71968.
  
 Copyright (c) 1988,1990,1992,1993,1995,1998,2003,2009,2013,
            Gaussian, Inc.  All Rights Reserved.
  
 This is part of the Gaussian(R) 09 program.  It is based on
 the Gaussian(R) 03 system (copyright 2003, Gaussian, Inc.),
 the Gaussian(R) 98 system (copyright 1998, Gaussian, Inc.),
 the Gaussian(R) 94 system (copyright 1995, Gaussian, Inc.),
 the Gaussian 92(TM) system (copyright 1992, Gaussian, Inc.),
 the Gaussian 90(TM) system (copyright 1990, Gaussian, Inc.),
[...]
     8  C    0.336545   0.382590  -0.032675  -0.003416  -0.001089  -0.000046
     9  C   -0.190319  -0.046175  -0.000990  -0.004547   0.000524   0.000248
    10  S    0.137855   0.004012  -0.000193   0.000305   0.000072  -0.000003
    11  O   -0.046496  -0.000061  -0.000001   0.000000   0.000000   0.000000
    12  O   -0.045573  -0.000183   0.000020  -0.000048   0.000000   0.000000
    13  C    5.717078  -0.035009  -0.005967  -0.000346   0.000014   0.000001
    14  C   -0.035009   5.100783   0.331381  -0.033671  -0.003087   0.000370
    15  C   -0.005967   0.331381   5.188763   0.347943  -0.066747   0.005968
    16  C   -0.000346  -0.033671   0.347943   4.689544   0.538850  -0.019816
    17  C    0.000014  -0.003087  -0.066747   0.538850   4.994258   0.523484
    18  C    0.000001   0.000370   0.005968  -0.019816   0.523484   4.888717
    19  C    0.000000  -0.000005   0.000315  -0.034894  -0.037385   0.541417
    20  C    0.000000  -0.000177   0.006901  -0.024198  -0.046302  -0.028860
    21  C   -0.000045   0.001379  -0.051913   0.538372  -0.044290  -0.045526
    22  H    0.000000  -0.000001   0.000000   0.000000   0.000000   0.000000
    23  H   -0.000001   0.000008   0.000000   0.000000   0.000000   0.000000
    24  H   -0.000001   0.000272   0.000003   0.000000   0.000000   0.000000
    25  H    0.000000   0.000000   0.000000   0.000000   0.000000   0.000000
    26  H    0.000000   0.000000   0.000000   0.000000   0.000000   0.000000
    27  H    0.000000   0.000000   0.000000   0.000000   0.000000   0.000000
    28  H   -0.006956   0.003777  -0.000078   0.000001   0.000000   0.000000
    29  H    0.004114  -0.006860  -0.001724   0.010442  -0.000535  -0.000517
    30  H    0.008128   0.000894   0.000110  -0.000057   0.000001  -0.000005
    31  H    0.336965  -0.006514   0.002076   0.000086   0.000004   0.000000
    32  H    0.344253  -0.000044   0.000143  -0.000001   0.000000   0.000000
    33  H   -0.008216   0.362700  -0.027295   0.003971   0.000178  -0.000001
    34  H    0.004710   0.371513  -0.034443  -0.008054   0.003587  -0.000022
    35  H    0.001683  -0.038323   0.363546  -0.038829   0.004903  -0.000140
    36  H    0.000102  -0.031057   0.363265  -0.027256  -0.004696  -0.000084
    37  H    0.000001   0.000717  -0.008809  -0.046049   0.357573  -0.041777
    38  H    0.000000   0.000003  -0.000171   0.003557  -0.039071   0.361489
    39  H    0.000000   0.000000   0.000007   0.000640   0.004633  -0.041773
    40  H    0.000000   0.000001  -0.000167   0.003720   0.000699   0.004540
    41  H   -0.000047   0.000150  -0.010525  -0.043700   0.006259   0.000267
              19         20         21         22         23         24
     1  C    0.000000   0.000000   0.000000   0.377873   0.378363   0.374731
     2  N    0.000000   0.000000   0.000000  -0.033873  -0.046148  -0.032917
     3  C    0.000000   0.000000   0.000000  -0.003793  -0.001543   0.004491
     4  S    0.000000   0.000000  -0.000001   0.002798  -0.007739  -0.001241
     5  O    0.000000   0.000000   0.000000  -0.000046  -0.000029   0.000035
     6  O    0.000000   0.000000   0.000000   0.000060   0.004501  -0.001903
     7  N    0.000000   0.000000  -0.000002  -0.000074   0.000123   0.011733
     8  C    0.000003   0.000003   0.000694  -0.000002   0.000045  -0.000667
     9  C    0.000065  -0.000339  -0.005747   0.000000   0.000000   0.000032
    10  S    0.000000  -0.000012   0.000377   0.000000   0.000000   0.000000
    11  O    0.000000   0.000000   0.000000   0.000000   0.000000   0.000000
    12  O    0.000000   0.000000  -0.000060   0.000000   0.000000   0.000000
    13  C    0.000000   0.000000  -0.000045   0.000000  -0.000001  -0.000001
    14  C   -0.000005  -0.000177   0.001379  -0.000001   0.000008   0.000272
    15  C    0.000315   0.006901  -0.051913   0.000000   0.000000   0.000003
    16  C   -0.034894  -0.024198   0.538372   0.000000   0.000000   0.000000
    17  C   -0.037385  -0.046302  -0.044290   0.000000   0.000000   0.000000
    18  C    0.541417  -0.028860  -0.045526   0.000000   0.000000   0.000000
    19  C    4.884344   0.547131  -0.037786   0.000000   0.000000   0.000000
    20  C    0.547131   4.893193   0.514074   0.000000   0.000000   0.000000
    21  C   -0.037786   0.514074   5.001906   0.000000   0.000000   0.000000
    22  H    0.000000   0.000000   0.000000   0.520425  -0.034202  -0.021793
    23  H    0.000000   0.000000   0.000000  -0.034202   0.556274  -0.030009
    24  H    0.000000   0.000000   0.000000  -0.021793  -0.030009   0.502078
    25  H    0.000000   0.000000   0.000000   0.004888  -0.001728   0.000078
    26  H    0.000000   0.000000   0.000000   0.000018  -0.000156  -0.000188
    27  H    0.000000   0.000000   0.000000  -0.001264   0.007572  -0.000185
    28  H    0.000000   0.000000   0.000000  -0.000030   0.000019  -0.000212
    29  H   -0.000143   0.000867   0.010515   0.000000   0.000000   0.000000
    30  H   -0.000003   0.000003   0.000035   0.000000   0.000000   0.000001
    31  H    0.000000   0.000000  -0.000029   0.000000   0.000000   0.000000
    32  H    0.000000   0.000000   0.000000   0.000000   0.000000   0.000021
    33  H    0.000000   0.000002  -0.000107   0.000001  -0.000007   0.000773
    34  H   -0.000001   0.000003   0.000148   0.000000  -0.000008   0.000020
    35  H   -0.000006   0.000266  -0.004329   0.000000   0.000000   0.000000
    36  H    0.000040  -0.000233   0.000758   0.000000   0.000000  -0.000001
    37  H    0.004659   0.000293   0.005905   0.000000   0.000000   0.000000
    38  H   -0.041888   0.004511   0.000751   0.000000   0.000000   0.000000
    39  H    0.363181  -0.042099   0.004602   0.000000   0.000000   0.000000
    40  H   -0.042127   0.361092  -0.038518   0.000000   0.000000   0.000000
    41  H    0.004702  -0.043937   0.357945   0.000000   0.000000   0.000000
              25         26         27         28         29         30
     1  C   -0.002583   0.004275  -0.001347  -0.000098   0.000000  -0.000005
     2  N   -0.038030  -0.031957  -0.046572   0.004097   0.000000   0.000039
     3  C    0.381146   0.377272   0.374819  -0.000081   0.000000   0.000006
     4  S    0.001892  -0.003367  -0.003037  -0.004279   0.000002   0.005532
     5  O    0.000286   0.010482  -0.000482  -0.000709   0.000095   0.016537
     6  O   -0.000097  -0.000057   0.001671   0.001366  -0.000186  -0.001279
     7  N   -0.000078   0.000075  -0.000055   0.288187   0.003512  -0.008578
     8  C    0.000000  -0.000005   0.000006  -0.023208  -0.023168  -0.023575
     9  C    0.000000   0.000001   0.000000  -0.000278   0.313510   0.337565
    10  S    0.000000   0.000000   0.000000   0.007026  -0.003027  -0.011326
    11  O    0.000000   0.000000   0.000000   0.004187   0.001135  -0.000076
    12  O    0.000000   0.000000   0.000000   0.000009   0.000804   0.000512
    13  C    0.000000   0.000000   0.000000  -0.006956   0.004114   0.008128
    14  C    0.000000   0.000000   0.000000   0.003777  -0.006860   0.000894
    15  C    0.000000   0.000000   0.000000  -0.000078  -0.001724   0.000110
    16  C    0.000000   0.000000   0.000000   0.000001   0.010442  -0.000057
    17  C    0.000000   0.000000   0.000000   0.000000  -0.000535   0.000001
    18  C    0.000000   0.000000   0.000000   0.000000  -0.000517  -0.000005
    19  C    0.000000   0.000000   0.000000   0.000000  -0.000143  -0.000003
    20  C    0.000000   0.000000   0.000000   0.000000   0.000867   0.000003
    21  C    0.000000   0.000000   0.000000   0.000000   0.010515   0.000035
    22  H    0.004888   0.000018  -0.001264  -0.000030   0.000000   0.000000
    23  H   -0.001728  -0.000156   0.007572   0.000019   0.000000   0.000000
    24  H    0.000078  -0.000188  -0.000185  -0.000212   0.000000   0.000001
    25  H    0.524311  -0.020299  -0.038527  -0.000009   0.000000   0.000000
    26  H   -0.020299   0.495284  -0.029902  -0.000029   0.000000   0.000000
    27  H   -0.038527  -0.029902   0.564305   0.000009   0.000000   0.000000
    28  H   -0.000009  -0.000029   0.000009   0.320954  -0.000058  -0.000222
    29  H    0.000000   0.000000   0.000000  -0.000058   0.473083  -0.012236
    30  H    0.000000   0.000000   0.000000  -0.000222  -0.012236   0.442405
    31  H    0.000000   0.000000   0.000000   0.000193  -0.000010  -0.000197
    32  H    0.000000   0.000000   0.000000   0.001730  -0.000241  -0.000251
    33  H    0.000000   0.000000   0.000000  -0.000054   0.000059  -0.000074
    34  H    0.000000   0.000000   0.000000  -0.000003   0.000353   0.000113
    35  H    0.000000   0.000000   0.000000  -0.000001   0.000116   0.000001
    36  H    0.000000   0.000000   0.000000   0.000002   0.000167   0.000000
    37  H    0.000000   0.000000   0.000000   0.000000   0.000050   0.000002
    38  H    0.000000   0.000000   0.000000   0.000000   0.000000   0.000000
    39  H    0.000000   0.000000   0.000000   0.000000  -0.000001   0.000000
    40  H    0.000000   0.000000   0.000000   0.000000   0.000017   0.000000
    41  H    0.000000   0.000000   0.000000   0.000000   0.000096   0.000002
              31         32         33         34         35         36
     1  C    0.000000  -0.000007  -0.000114   0.000020   0.000000   0.000000
     2  N    0.000001  -0.000015   0.000006  -0.000097   0.000000   0.000000
     3  C    0.000000   0.000000   0.000000   0.000002   0.000000   0.000000
     4  S    0.000010   0.000110   0.000331   0.001388  -0.000008  -0.000006
     5  O    0.000000   0.000007   0.000003  -0.000025   0.000000   0.000000
     6  O    0.000001  -0.000001   0.000112   0.012575  -0.000004   0.000001
     7  N    0.003262  -0.003312   0.001322  -0.003767   0.000033  -0.000102
     8  C   -0.027090  -0.022028  -0.038087  -0.033949  -0.006673   0.004371
     9  C    0.004571   0.009598   0.005500  -0.004159  -0.000111  -0.000054
    10  S   -0.005562  -0.012659  -0.000013  -0.000193  -0.000252   0.000015
    11  O    0.001187  -0.000669   0.000001   0.000001   0.000002   0.000000
    12  O    0.000762   0.000622   0.000002   0.000001   0.000016   0.000000
    13  C    0.336965   0.344253  -0.008216   0.004710   0.001683   0.000102
    14  C   -0.006514  -0.000044   0.362700   0.371513  -0.038323  -0.031057
    15  C    0.002076   0.000143  -0.027295  -0.034443   0.363546   0.363265
    16  C    0.000086  -0.000001   0.003971  -0.008054  -0.038829  -0.027256
    17  C    0.000004   0.000000   0.000178   0.003587   0.004903  -0.004696
    18  C    0.000000   0.000000  -0.000001  -0.000022  -0.000140  -0.000084
    19  C    0.000000   0.000000   0.000000  -0.000001  -0.000006   0.000040
    20  C    0.000000   0.000000   0.000002   0.000003   0.000266  -0.000233
    21  C   -0.000029   0.000000  -0.000107   0.000148  -0.004329   0.000758
    22  H    0.000000   0.000000   0.000001   0.000000   0.000000   0.000000
    23  H    0.000000   0.000000  -0.000007  -0.000008   0.000000   0.000000
    24  H    0.000000   0.000021   0.000773   0.000020   0.000000  -0.000001
    25  H    0.000000   0.000000   0.000000   0.000000   0.000000   0.000000
    26  H    0.000000   0.000000   0.000000   0.000000   0.000000   0.000000
    27  H    0.000000   0.000000   0.000000   0.000000   0.000000   0.000000
    28  H    0.000193   0.001730  -0.000054  -0.000003  -0.000001   0.000002
    29  H   -0.000010  -0.000241   0.000059   0.000353   0.000116   0.000167
    30  H   -0.000197  -0.000251  -0.000074   0.000113   0.000001   0.000000
    31  H    0.458690  -0.013479   0.000448   0.000202   0.006688  -0.000232
    32  H   -0.013479   0.453174   0.000687  -0.000088  -0.000001  -0.000003
    33  H    0.000448   0.000687   0.565636  -0.029485  -0.001225  -0.005597
    34  H    0.000202  -0.000088  -0.029485   0.507430   0.004328  -0.001364
    35  H    0.006688  -0.000001  -0.001225   0.004328   0.573516  -0.030921
    36  H   -0.000232  -0.000003  -0.005597  -0.001364  -0.030921   0.549959
    37  H    0.000000   0.000000  -0.000144   0.005174   0.000011   0.001284
    38  H    0.000000   0.000000   0.000000   0.000007   0.000003   0.000000
    39  H    0.000000   0.000000   0.000000   0.000000   0.000000   0.000000
    40  H    0.000000   0.000000   0.000000   0.000000  -0.000009   0.000003
    41  H    0.000026   0.000000  -0.000007   0.000008   0.007200   0.000185
              37         38         39         40         41
     1  C    0.000000   0.000000   0.000000   0.000000   0.000000
     2  N    0.000001   0.000000   0.000000   0.000000   0.000000
     3  C    0.000000   0.000000   0.000000   0.000000   0.000000
     4  S    0.000139   0.000000   0.000000   0.000000   0.000000
     5  O    0.000001   0.000000   0.000000   0.000000   0.000000
     6  O    0.001002  -0.000001   0.000000   0.000000   0.000000
     7  N   -0.000001   0.000000   0.000000   0.000000   0.000000
     8  C    0.000160   0.000000   0.000000   0.000000   0.000001
     9  C   -0.000037   0.000000   0.000000  -0.000004  -0.000147
    10  S    0.000001   0.000000   0.000000  -0.000001   0.000403
    11  O    0.000000   0.000000   0.000000   0.000000   0.000000
    12  O    0.000000   0.000000   0.000000   0.000000   0.000239
    13  C    0.000001   0.000000   0.000000   0.000000  -0.000047
    14  C    0.000717   0.000003   0.000000   0.000001   0.000150
    15  C   -0.008809  -0.000171   0.000007  -0.000167  -0.010525
    16  C   -0.046049   0.003557   0.000640   0.003720  -0.043700
    17  C    0.357573  -0.039071   0.004633   0.000699   0.006259
    18  C   -0.041777   0.361489  -0.041773   0.004540   0.000267
    19  C    0.004659  -0.041888   0.363181  -0.042127   0.004702
    20  C    0.000293   0.004511  -0.042099   0.361092  -0.043937
    21  C    0.005905   0.000751   0.004602  -0.038518   0.357945
    22  H    0.000000   0.000000   0.000000   0.000000   0.000000
    23  H    0.000000   0.000000   0.000000   0.000000   0.000000
    24  H    0.000000   0.000000   0.000000   0.000000   0.000000
    25  H    0.000000   0.000000   0.000000   0.000000   0.000000
    26  H    0.000000   0.000000   0.000000   0.000000   0.000000
    27  H    0.000000   0.000000   0.000000   0.000000   0.000000
    28  H    0.000000   0.000000   0.000000   0.000000   0.000000
    29  H    0.000050   0.000000  -0.000001   0.000017   0.000096
    30  H    0.000002   0.000000   0.000000   0.000000   0.000002
    31  H    0.000000   0.000000   0.000000   0.000000   0.000026
    32  H    0.000000   0.000000   0.000000   0.000000   0.000000
    33  H   -0.000144   0.000000   0.000000   0.000000  -0.000007
    34  H    0.005174   0.000007   0.000000   0.000000   0.000008
    35  H    0.000011   0.000003   0.000000  -0.000009   0.007200
    36  H    0.001284   0.000000   0.000000   0.000003   0.000185
    37  H    0.575156  -0.005219  -0.000166   0.000016  -0.000165
    38  H   -0.005219   0.570082  -0.005121  -0.000173   0.000016
    39  H   -0.000166  -0.005121   0.571512  -0.005247  -0.000164
    40  H    0.000016  -0.000173  -0.005247   0.570100  -0.005236
    41  H   -0.000165   0.000016  -0.000164  -0.005236   0.578750
 Mulliken charges:
               1
     1  C   -0.324373
     2  N   -0.529349
     3  C   -0.323843
     4  S    1.312526
     5  O   -0.568999
     6  O   -0.565726
     7  N   -0.717573
     8  C    0.156009
     9  C   -0.504891
    10  S    1.101261
    11  O   -0.566100
    12  O   -0.553934
    13  C   -0.506144
    14  C   -0.284514
    15  C   -0.372288
    16  C    0.147491
    17  C   -0.191630
    18  C   -0.147910
    19  C   -0.151621
    20  C   -0.142181
    21  C   -0.209107
    22  H    0.189015
    23  H    0.174665
    24  H    0.194850
    25  H    0.188750
    26  H    0.198554
    27  H    0.172993
    28  H    0.404746
    29  H    0.229771
    30  H    0.245999
    31  H    0.237942
    32  H    0.242453
    33  H    0.168694
    34  H    0.204070
    35  H    0.158521
    36  H    0.181452
    37  H    0.150226
    38  H    0.151226
    39  H    0.149997
    40  H    0.151293
    41  H    0.147679
 Sum of Mulliken charges =   0.00000
 Mulliken charges with hydrogens summed into heavy atoms:
               1
     1  C    0.234157
     2  N   -0.529349
     3  C    0.236454
     4  S    1.312526
     5  O   -0.568999
     6  O   -0.565726
     7  N   -0.312826
     8  C    0.156009
     9  C   -0.029122
    10  S    1.101261
    11  O   -0.566100
    12  O   -0.553934
    13  C   -0.025749
    14  C    0.088250
    15  C   -0.032315
    16  C    0.147491
    17  C   -0.041404
    18  C    0.003316
    19  C   -0.001623
    20  C    0.009112
    21  C   -0.061428
 Electronic spatial extent (au):  <R**2>=           7578.8364
 Charge=              0.0000 electrons
 Dipole moment (field-independent basis, Debye):
    X=              3.1795    Y=             -3.9358    Z=              6.9764  Tot=              8.6180
 Quadrupole moment (field-independent basis, Debye-Ang):
   XX=           -114.7659   YY=           -158.8856   ZZ=           -134.4957
   XY=             -1.2874   XZ=              9.5272   YZ=             11.6710
 Traceless Quadrupole moment (field-independent basis, Debye-Ang):
   XX=             21.2832   YY=            -22.8365   ZZ=              1.5534
   XY=             -1.2874   XZ=              9.5272   YZ=             11.6710
 Octapole moment (field-independent basis, Debye-Ang**2):
  XXX=            146.3107  YYY=            -81.2994  ZZZ=             16.4495  XYY=             35.2698
  XXY=            -39.1934  XXZ=             -6.4594  XZZ=             -0.7554  YZZ=              3.2552
  YYZ=             31.7446  XYZ=            -11.7703
 Hexadecapole moment (field-independent basis, Debye-Ang**3):
 XXXX=          -5377.9986 YYYY=          -3081.2136 ZZZZ=           -997.1422 XXXY=           -253.5555
 XXXZ=            141.4087 YYYX=             47.9616 YYYZ=            140.7125 ZZZX=             17.7510
 ZZZY=              1.9231 XXYY=          -1501.3807 XXZZ=          -1141.3886 YYZZ=           -607.0654
 XXYZ=             65.4345 YYXZ=             44.3324 ZZXY=            -14.9569
 N-N= 2.203734131606D+03 E-N=-8.434029990395D+03  KE= 1.702497644154D+03
 No NMR shielding tensors so no spin-rotation constants.
 Leave Link  601 at Fri Oct  2 02:43:06 2020, MaxMem=  2147483648 cpu:         0.4
 (Enter /prod/apps/gaussian/g09d1/l9999.exe)
 1\1\GINC-PIRINEUS7\SP\RB3LYP\6-31G(d)\C13H20N2O4S2\UBAFAR01\02-Oct-202
 0\0\\#p b3lyp/6-31G(d) scrf=(iefpcm,read,solvent=Water) geom=allcheck 
 guess=read\\SM40.n.21.pdb.xyz\\0,1\C,0,3.827,1.067,-0.176\N,0,2.797,0.
 034,-0.368\C,0,1.59,0.513,-1.062\S,0,3.38,-1.442,-0.893\O,0,2.208,-2.2
 7,-1.222\O,0,4.435,-1.343,-1.915\N,0,4.124,-1.912,0.542\C,0,5.074,-3.0
 57,0.554\C,0,4.485,-4.355,-0.111\S,0,4.008,-4.985,1.532\O,0,2.594,-4.6
 95,1.847\O,0,4.536,-6.324,1.854\C,0,5.102,-3.603,2.019\C,0,6.448,-2.56
 4,0.052\C,0,7.585,-3.597,-0.083\C,0,7.532,-4.495,-1.306\C,0,7.36,-3.95
 9,-2.591\C,0,7.349,-4.782,-3.717\C,0,7.512,-6.164,-3.579\C,0,7.685,-6.
 711,-2.307\C,0,7.695,-5.882,-1.183\H,0,3.375,1.872,0.407\H,0,4.19,1.47
 2,-1.127\H,0,4.658,0.648,0.388\H,0,1.184,1.331,-0.464\H,0,0.857,-0.289
 ,-1.115\H,0,1.806,0.886,-2.07\H,0,3.392,-1.979,1.252\H,0,5.242,-5.007,
 -0.545\H,0,3.645,-4.216,-0.789\H,0,6.077,-3.996,2.309\H,0,4.705,-2.955
 ,2.8\H,0,6.762,-1.787,0.756\H,0,6.291,-2.071,-0.907\H,0,7.669,-4.217,0
 .817\H,0,8.515,-3.018,-0.123\H,0,7.231,-2.888,-2.71\H,0,7.215,-4.346,-
 4.702\H,0,7.503,-6.806,-4.454\H,0,7.812,-7.782,-2.187\H,0,7.828,-6.314
 ,-0.195\\Version=AM64L-G09RevD.01\State=1-A\HF=-1714.0611207\RMSD=5.55
 3e-09\Dipole=1.6144984,2.9382091,0.5063321\Quadrupole=-5.5832767,6.837
 7013,-1.2544246,-12.6590737,5.3598249,12.947661\PG=C01 [X(C13H20N2O4S2
 )]\\@


 MEN HAVE BECOME THE TOOLS OF THEIR TOOLS... THOREAU   
 Job cpu time:       0 days  0 hours  5 minutes  0.7 seconds.
 File lengths (MBytes):  RWF=    226 Int=      0 D2E=      0 Chk=      7 Scr=      1
 Normal termination of Gaussian 09 at Fri Oct  2 02:43:07 2020.
