 Entering Gaussian System, Link 0=g09
 Initial command:
 /prod/apps/gaussian/g09d1/l1.exe "/tmp/ubafar01/1462926/Gau-71939.inp" -scrdir="/tmp/ubafar01/1462926/"
 Entering Link 1 = /prod/apps/gaussian/g09d1/l1.exe PID=     71941.
  
 Copyright (c) 1988,1990,1992,1993,1995,1998,2003,2009,2013,
            Gaussian, Inc.  All Rights Reserved.
  
 This is part of the Gaussian(R) 09 program.  It is based on
 the Gaussian(R) 03 system (copyright 2003, Gaussian, Inc.),
 the Gaussian(R) 98 system (copyright 1998, Gaussian, Inc.),
 the Gaussian(R) 94 system (copyright 1995, Gaussian, Inc.),
 the Gaussian 92(TM) system (copyright 1992, Gaussian, Inc.),
 the Gaussian 90(TM) system (copyright 1990, Gaussian, Inc.),
 the Gaussian 88(TM) system (copyright 1988, Gaussian, Inc.),
 the Gaussian 86(TM) system (copyright 1986, Carnegie Mellon
 University), and the Gaussian 82(TM) system (copyright 1983,
 Carnegie Mellon University). Gaussian is a federally registered
 trademark of Gaussian, Inc.
  
 This software contains proprietary and confidential information,
 including trade secrets, belonging to Gaussian, Inc.
  
 This software is provided under written license and may be
 used, copied, transmitted, or stored only in accord with that
 written license.
  
 The following legend is applicable only to US Government
 contracts under FAR:
  
                    RESTRICTED RIGHTS LEGEND
  
 Use, reproduction and disclosure by the US Government is
 subject to restrictions as set forth in subparagraphs (a)
 and (c) of the Commercial Computer Software - Restricted
 Rights clause in FAR 52.227-19.
  
 Gaussian, Inc.
 340 Quinnipiac St., Bldg. 40, Wallingford CT 06492
  
  
 ---------------------------------------------------------------
 Warning -- This program may not be used in any manner that
 competes with the business of Gaussian, Inc. or will provide
 assistance to any competitor of Gaussian, Inc.  The licensee
 of this program is prohibited from giving any competitor of
 Gaussian, Inc. access to this program.  By using this program,
 the user acknowledges that Gaussian, Inc. is engaged in the
 business of creating and licensing software in the field of
 computational chemistry and represents and warrants to the
 licensee that it is not a competitor of Gaussian, Inc. and that
 it will not use this program in any manner prohibited above.
 ---------------------------------------------------------------
  

 Cite this work as:
 Gaussian 09, Revision D.01,
 M. J. Frisch, G. W. Trucks, H. B. Schlegel, G. E. Scuseria, 
 M. A. Robb, J. R. Cheeseman, G. Scalmani, V. Barone, B. Mennucci, 
 G. A. Petersson, H. Nakatsuji, M. Caricato, X. Li, H. P. Hratchian, 
 A. F. Izmaylov, J. Bloino, G. Zheng, J. L. Sonnenberg, M. Hada, 
 M. Ehara, K. Toyota, R. Fukuda, J. Hasegawa, M. Ishida, T. Nakajima, 
 Y. Honda, O. Kitao, H. Nakai, T. Vreven, J. A. Montgomery, Jr., 
 J. E. Peralta, F. Ogliaro, M. Bearpark, J. J. Heyd, E. Brothers, 
 K. N. Kudin, V. N. Staroverov, T. Keith, R. Kobayashi, J. Normand, 
 K. Raghavachari, A. Rendell, J. C. Burant, S. S. Iyengar, J. Tomasi, 
 M. Cossi, N. Rega, J. M. Millam, M. Klene, J. E. Knox, J. B. Cross, 
 V. Bakken, C. Adamo, J. Jaramillo, R. Gomperts, R. E. Stratmann, 
 O. Yazyev, A. J. Austin, R. Cammi, C. Pomelli, J. W. Ochterski, 
 R. L. Martin, K. Morokuma, V. G. Zakrzewski, G. A. Voth, 
 P. Salvador, J. J. Dannenberg, S. Dapprich, A. D. Daniels, 
 O. Farkas, J. B. Foresman, J. V. Ortiz, J. Cioslowski, 
 and D. J. Fox, Gaussian, Inc., Wallingford CT, 2013.
 
 ******************************************
 Gaussian 09:  AM64L-G09RevD.01 24-Apr-2013
                 2-Oct-2020 
 ******************************************
 %nproc=1
 Will use up to    1 processors via shared memory.
 %Chk=SM40.n.12.pdb.xyz.mst.n.o.chk
 %mem=16GB
 -----------------
 #p b3lyp/6-31G(d)
 -----------------
 1/38=1/1;
 2/12=2,17=6,18=5,40=1/2;
 3/5=1,6=6,7=1,11=2,16=1,25=1,30=1,74=-5/1,2,3;
 4//1;
 5/5=2,38=5/2;
 6/7=2,8=2,9=2,10=2,28=1/1;
 99/5=1,9=1/99;
 Leave Link    1 at Fri Oct  2 06:11:01 2020, MaxMem=  2147483648 cpu:         0.0
 (Enter /prod/apps/gaussian/g09d1/l101.exe)
 -----------------
 SM40.n.12.pdb.xyz
 -----------------
 Symbolic Z-matrix:
 Charge =  0 Multiplicity = 1
 C                     2.785    -1.625     3.531 
 N                     2.342    -2.382     2.352 
 C                     0.956    -2.87      2.45 
 S                     2.717    -1.63      0.879 
 O                     2.005    -2.395    -0.145 
 O                     2.556    -0.176     0.97 
 N                     4.349    -1.851     0.677 
 C                     5.091    -3.108     0.481 
 C                     4.54     -3.94     -0.727 
 S                     4.385    -5.421     0.33 
 O                     3.001    -5.896     0.488 
 O                     5.45     -6.406     0.05 
 C                     4.881    -4.198     1.596 
 C                     6.555    -2.666     0.27 
 C                     7.617    -3.78      0.122 
 C                     8.229    -4.254     1.429 
 C                     8.151    -5.597     1.816 
 C                     8.74     -6.034     3.004 
 C                     9.418    -5.133     3.825 
 C                     9.501    -3.79      3.45 
 C                     8.911    -3.357     2.263 
 H                     2.668    -2.273     4.401 
 H                     2.205    -0.707     3.682 
 H                     3.841    -1.369     3.435 
 H                     0.902    -3.507     3.335 
 H                     0.722    -3.461     1.568 
 H                     0.229    -2.055     2.555 
 H                     4.879    -1.074     1.06 
 H                     5.236    -4.084    -1.553 
 H                     3.564    -3.606    -1.074 
 H                     5.771    -4.497     2.152 
 H                     4.038    -3.978     2.252 
 H                     6.847    -2.024     1.108 
 H                     6.558    -2.035    -0.625 
 H                     8.416    -3.371    -0.508 
 H                     7.21     -4.639    -0.42 
 H                     7.608    -6.294     1.186 
 H                     8.667    -7.079     3.287 
 H                     9.877    -5.471     4.748 
 H                     10.027   -3.08      4.08 
 H                     8.986    -2.311     1.977 
 
 NAtoms=     41 NQM=       41 NQMF=       0 NMMI=      0 NMMIF=      0
                NMic=       0 NMicF=      0.
                    Isotopes and Nuclear Properties:
 (Nuclear quadrupole moments (NQMom) in fm**2, nuclear magnetic moments (NMagM)
  in nuclear magnetons)

  Atom         1           2           3           4           5           6           7           8           9          10
 IAtWgt=          12          14          12          32          16          16          14          12          12          32
 AtmWgt=  12.0000000  14.0030740  12.0000000  31.9720718  15.9949146  15.9949146  14.0030740  12.0000000  12.0000000  31.9720718
 NucSpn=           0           2           0           0           0           0           2           0           0           0
 AtZEff=   0.0000000   0.0000000   0.0000000   0.0000000   0.0000000   0.0000000   0.0000000   0.0000000   0.0000000   0.0000000
 NQMom=    0.0000000   2.0440000   0.0000000   0.0000000   0.0000000   0.0000000   2.0440000   0.0000000   0.0000000   0.0000000
 NMagM=    0.0000000   0.4037610   0.0000000   0.0000000   0.0000000   0.0000000   0.4037610   0.0000000   0.0000000   0.0000000
 AtZNuc=   6.0000000   7.0000000   6.0000000  16.0000000   8.0000000   8.0000000   7.0000000   6.0000000   6.0000000  16.0000000

  Atom        11          12          13          14          15          16          17          18          19          20
 IAtWgt=          16          16          12          12          12          12          12          12          12          12
 AtmWgt=  15.9949146  15.9949146  12.0000000  12.0000000  12.0000000  12.0000000  12.0000000  12.0000000  12.0000000  12.0000000
 NucSpn=           0           0           0           0           0           0           0           0           0           0
 AtZEff=   0.0000000   0.0000000   0.0000000   0.0000000   0.0000000   0.0000000   0.0000000   0.0000000   0.0000000   0.0000000
 NQMom=    0.0000000   0.0000000   0.0000000   0.0000000   0.0000000   0.0000000   0.0000000   0.0000000   0.0000000   0.0000000
 NMagM=    0.0000000   0.0000000   0.0000000   0.0000000   0.0000000   0.0000000   0.0000000   0.0000000   0.0000000   0.0000000
 AtZNuc=   8.0000000   8.0000000   6.0000000   6.0000000   6.0000000   6.0000000   6.0000000   6.0000000   6.0000000   6.0000000

  Atom        21          22          23          24          25          26          27          28          29          30
 IAtWgt=          12           1           1           1           1           1           1           1           1           1
 AtmWgt=  12.0000000   1.0078250   1.0078250   1.0078250   1.0078250   1.0078250   1.0078250   1.0078250   1.0078250   1.0078250
 NucSpn=           0           1           1           1           1           1           1           1           1           1
 AtZEff=   0.0000000   0.0000000   0.0000000   0.0000000   0.0000000   0.0000000   0.0000000   0.0000000   0.0000000   0.0000000
 NQMom=    0.0000000   0.0000000   0.0000000   0.0000000   0.0000000   0.0000000   0.0000000   0.0000000   0.0000000   0.0000000
 NMagM=    0.0000000   2.7928460   2.7928460   2.7928460   2.7928460   2.7928460   2.7928460   2.7928460   2.7928460   2.7928460
 AtZNuc=   6.0000000   1.0000000   1.0000000   1.0000000   1.0000000   1.0000000   1.0000000   1.0000000   1.0000000   1.0000000

  Atom        31          32          33          34          35          36          37          38          39          40
 IAtWgt=           1           1           1           1           1           1           1           1           1           1
 AtmWgt=   1.0078250   1.0078250   1.0078250   1.0078250   1.0078250   1.0078250   1.0078250   1.0078250   1.0078250   1.0078250
 NucSpn=           1           1           1           1           1           1           1           1           1           1
 AtZEff=   0.0000000   0.0000000   0.0000000   0.0000000   0.0000000   0.0000000   0.0000000   0.0000000   0.0000000   0.0000000
 NQMom=    0.0000000   0.0000000   0.0000000   0.0000000   0.0000000   0.0000000   0.0000000   0.0000000   0.0000000   0.0000000
 NMagM=    2.7928460   2.7928460   2.7928460   2.7928460   2.7928460   2.7928460   2.7928460   2.7928460   2.7928460   2.7928460
 AtZNuc=   1.0000000   1.0000000   1.0000000   1.0000000   1.0000000   1.0000000   1.0000000   1.0000000   1.0000000   1.0000000

  Atom        41
 IAtWgt=           1
 AtmWgt=   1.0078250
 NucSpn=           1
 AtZEff=   0.0000000
 NQMom=    0.0000000
 NMagM=    2.7928460
 AtZNuc=   1.0000000
 Leave Link  101 at Fri Oct  2 06:11:01 2020, MaxMem=  2147483648 cpu:         0.1
 (Enter /prod/apps/gaussian/g09d1/l202.exe)
                          Input orientation:                          
 ---------------------------------------------------------------------
 Center     Atomic      Atomic             Coordinates (Angstroms)
 Number     Number       Type             X           Y           Z
 ---------------------------------------------------------------------
      1          6           0        2.785000   -1.625000    3.531000
      2          7           0        2.342000   -2.382000    2.352000
      3          6           0        0.956000   -2.870000    2.450000
      4         16           0        2.717000   -1.630000    0.879000
      5          8           0        2.005000   -2.395000   -0.145000
      6          8           0        2.556000   -0.176000    0.970000
      7          7           0        4.349000   -1.851000    0.677000
      8          6           0        5.091000   -3.108000    0.481000
      9          6           0        4.540000   -3.940000   -0.727000
     10         16           0        4.385000   -5.421000    0.330000
     11          8           0        3.001000   -5.896000    0.488000
     12          8           0        5.450000   -6.406000    0.050000
     13          6           0        4.881000   -4.198000    1.596000
     14          6           0        6.555000   -2.666000    0.270000
     15          6           0        7.617000   -3.780000    0.122000
     16          6           0        8.229000   -4.254000    1.429000
     17          6           0        8.151000   -5.597000    1.816000
     18          6           0        8.740000   -6.034000    3.004000
     19          6           0        9.418000   -5.133000    3.825000
     20          6           0        9.501000   -3.790000    3.450000
     21          6           0        8.911000   -3.357000    2.263000
     22          1           0        2.668000   -2.273000    4.401000
     23          1           0        2.205000   -0.707000    3.682000
     24          1           0        3.841000   -1.369000    3.435000
     25          1           0        0.902000   -3.507000    3.335000
     26          1           0        0.722000   -3.461000    1.568000
     27          1           0        0.229000   -2.055000    2.555000
     28          1           0        4.879000   -1.074000    1.060000
     29          1           0        5.236000   -4.084000   -1.553000
     30          1           0        3.564000   -3.606000   -1.074000
     31          1           0        5.771000   -4.497000    2.152000
     32          1           0        4.038000   -3.978000    2.252000
     33          1           0        6.847000   -2.024000    1.108000
     34          1           0        6.558000   -2.035000   -0.625000
     35          1           0        8.416000   -3.371000   -0.508000
     36          1           0        7.210000   -4.639000   -0.420000
     37          1           0        7.608000   -6.294000    1.186000
     38          1           0        8.667000   -7.079000    3.287000
     39          1           0        9.877000   -5.471000    4.748000
     40          1           0       10.027000   -3.080000    4.080000
     41          1           0        8.986000   -2.311000    1.977000
 ---------------------------------------------------------------------
                    Distance matrix (angstroms):
                    1          2          3          4          5
     1  C    0.000000
     2  N    1.469469   0.000000
     3  C    2.462484   1.472666   0.000000
     4  S    2.652876   1.695835   2.665851   0.000000
     5  O    3.835919   2.519672   2.839023   1.463128   0.000000
     6  O    2.951400   2.611926   3.465261   1.465714   2.543774
     7  N    3.262283   2.667515   3.961608   1.659237   2.542824
     8  C    4.101149   3.403633   4.586047   2.824671   3.228566
     9  C    5.154592   4.091309   4.907472   3.352412   3.025223
    10  S    5.216897   4.183044   4.770749   4.177955   3.879008
    11  O    5.248614   4.031994   4.145859   4.293285   3.694551
    12  O    6.486721   5.581348   6.201559   5.564774   5.290952
    13  C    3.841584   3.211840   4.230665   3.433891   3.814874
    14  C    5.092220   4.707945   6.011890   4.021744   4.576917
    15  C    6.293928   5.895161   7.114535   5.404216   5.786541
    16  C    6.400561   6.246045   7.473582   6.129439   6.683677
    17  C    6.892892   6.660931   7.720525   6.792894   7.202197
    18  C    7.428259   7.395716   8.420717   7.758052   8.277605
    19  C    7.509274   7.733531   8.866636   8.115006   8.843648
    20  C    7.056801   7.378303   8.652365   7.569564   8.429713
    21  C    6.491188   6.641559   7.972086   6.577509   7.376771
    22  H    1.091097   2.077633   2.663410   3.580549   4.595712
    23  H    1.096323   2.143197   2.785030   2.995143   4.187514
    24  H    1.090820   2.108568   3.398007   2.804395   4.152105
    25  H    2.669462   2.074973   1.091746   3.584591   3.816222
    26  H    3.388249   2.098403   1.087180   2.794156   2.390986
    27  H    2.769587   2.147768   1.097169   3.029809   3.249581
    28  H    3.285465   3.133129   4.532951   2.239674   3.384810
    29  H    6.156390   5.149861   5.984664   4.275757   3.908266
    30  H    5.073187   3.837830   4.445440   2.904513   2.181752
    31  H    4.366488   4.033766   5.091184   4.378029   4.886447
    32  H    2.956765   2.331015   3.281096   3.023785   3.519174
    33  H    4.746575   4.687294   6.100866   4.155066   5.015238
    34  H    5.628140   5.172774   6.444785   4.144795   4.592364
    35  H    7.146342   6.786103   8.040669   6.118288   6.495019
    36  H    6.653963   6.039491   7.104842   5.561343   5.674785
    37  H    7.110550   6.662886   7.587528   6.765281   6.954665
    38  H    8.025184   7.933578   8.824725   8.419772   8.837461
    39  H    8.158999   8.488755   9.572369   8.999336   9.765839
    40  H    7.407091   7.907744   9.218679   8.110795   9.092433
    41  H    6.429457   6.654953   8.063319   6.400760   7.296869
                    6          7          8          9         10
     6  O    0.000000
     7  N    2.471098   0.000000
     8  C    3.906657   1.472762   0.000000
     9  C    4.580804   2.524206   1.566872   0.000000
    10  S    5.591499   3.587005   2.423057   1.826098   0.000000
    11  O    5.757495   4.267886   3.484407   2.769600   1.471749
    12  O    6.930695   4.727933   3.345362   2.740982   1.477447
    13  C    4.687642   2.576042   1.573348   2.362028   1.828798
    14  C    4.762573   2.386694   1.543755   2.584049   3.507496
    15  C    6.270697   3.835217   2.638397   3.195987   3.630698
    16  C    7.001692   4.625399   3.472616   4.284350   4.164856
    17  C    7.836261   5.457567   4.164246   4.717183   4.052398
    18  C    8.757578   6.495637   5.314340   5.995431   5.147045
    19  C    8.933640   6.810007   5.831457   6.777819   6.134253
    20  C    8.212455   6.163794   5.359868   6.487014   6.210315
    21  C    7.223340   5.059177   4.222550   5.327817   5.336784
    22  H    4.022650   4.107557   4.683434   5.707859   5.425038
    23  H    2.785697   3.864647   4.933579   5.945065   6.181432
    24  H    3.025012   2.845514   3.648662   4.941749   5.133777
    25  H    4.407324   4.657157   5.084510   5.470135   4.982440
    26  H    3.809512   4.067076   4.516009   4.480356   4.334952
    27  H    3.384936   4.532428   5.389743   5.736678   5.792488
    28  H    2.492154   1.015538   2.125404   3.394443   4.435464
    29  H    5.368463   3.278103   2.260698   1.089692   2.461191
    30  H    4.118119   2.600433   2.235567   1.088366   2.437105
    31  H    5.514018   3.346494   2.276832   3.180291   2.468695
    32  H    4.277272   2.664859   2.236549   3.021240   2.428321
    33  H    4.674059   2.540806   2.156785   3.515755   4.266888
    34  H    4.692111   2.570747   2.127593   2.777004   4.135088
    35  H    6.836089   4.500568   3.478924   3.923659   4.599316
    36  H    6.596225   4.142665   2.765126   2.777004   3.025665
    37  H    7.937209   5.533571   4.121033   4.314338   3.447114
    38  H    9.506010   7.265618   6.035748   6.557259   5.461532
    39  H    9.793230   7.761200   6.833510   7.797638   7.048637
    40  H    8.597741   6.732795   6.108820   7.345340   7.167632
    41  H    6.849611   4.837703   4.247852   5.452722   5.792574
                   11         12         13         14         15
    11  O    0.000000
    12  O    2.539595   0.000000
    13  C    2.765008   2.754840   0.000000
    14  C    4.807426   3.906024   2.628227   0.000000
    15  C    5.091058   3.405429   3.135777   1.546203   0.000000
    16  C    5.560003   3.775657   3.352630   2.582112   1.519036
    17  C    5.326864   3.326956   3.563496   3.678056   2.540921
    18  C    6.267808   4.437184   4.499471   4.857201   3.827214
    19  C    7.272938   5.622827   5.140723   5.188534   4.334330
    20  C    7.447058   5.900344   4.994815   4.478247   3.824283
    21  C    6.672724   5.115886   4.170500   3.162320   2.537173
    22  H    5.343088   6.614561   4.058450   5.685805   6.713679
    23  H    6.144996   7.496669   4.868208   5.865315   7.169845
    24  H    5.466639   6.278413   3.530830   4.366375   5.571989
    25  H    4.268317   6.315040   4.397049   6.485207   7.449102
    26  H    3.505633   5.773329   4.223888   6.028326   7.052213
    27  H    5.168148   7.243277   5.210877   6.753727   7.967287
    28  H    5.206318   5.456772   3.169649   2.442855   3.962187
    29  H    3.527641   2.829680   3.170997   2.659664   2.926978
    30  H    2.828589   3.558142   3.035433   3.411161   4.229362
    31  H    3.521221   2.857573   1.091163   2.740281   2.835966
    32  H    2.804601   3.568996   1.090589   3.461930   4.169574
    33  H    5.492586   4.719417   2.971460   1.095295   2.156069
    34  H    5.366408   4.559488   3.524732   1.095078   2.173595
    35  H    6.057216   4.280157   4.196066   2.136733   1.096623
    36  H    4.485554   2.537871   3.111748   2.190400   1.094209
    37  H    4.676543   2.441312   3.463791   3.887190   2.729903
    38  H    6.429420   4.613045   5.049103   5.747817   4.690749
    39  H    8.099852   6.522558   6.042818   6.241490   5.419129
    40  H    8.378365   6.946374   5.822499   5.171294   4.686562
    41  H    7.133693   5.743314   4.533978   2.991594   2.733706
                   16         17         18         19         20
    16  C    0.000000
    17  C    1.399822   0.000000
    18  C    2.431079   1.396150   0.000000
    19  C    2.815524   2.420055   1.394821   0.000000
    20  C    2.432637   2.785266   2.411135   1.396840   0.000000
    21  C    1.401888   2.407282   2.782921   2.418898   1.394474
    22  H    6.609226   6.913356   7.277768   7.353494   7.063680
    23  H    7.344780   7.921425   8.458300   8.463882   7.924035
    24  H    5.621548   6.250860   6.778509   6.739638   6.156059
    25  H    7.607613   7.695678   8.241938   8.683676   8.604424
    26  H    7.550048   7.733954   8.542292   9.138383   8.984487
    27  H    8.372782   8.709189   9.405911   9.773674   9.475296
    28  H    4.633688   5.633387   6.579366   6.687543   5.869552
    29  H    4.228389   4.704950   6.070154   6.892925   6.580780
    30  H    5.333586   5.775530   7.022553   7.784680   7.466485
    31  H    2.573624   2.643349   3.450106   4.062516   4.012176
    32  H    4.279952   4.441624   5.186660   5.723002   5.595973
    33  H    2.643079   3.868851   4.822693   4.863950   3.955684
    34  H    3.454724   4.602605   5.824325   6.130229   5.324181
    35  H    2.136967   3.228975   4.419354   4.783674   4.125355
    36  H    2.146017   2.608245   4.001337   4.810335   4.576722
    37  H    2.146227   1.085153   2.157347   3.404165   3.870292
    38  H    3.409492   2.150912   1.085100   2.154150   3.397005
    39  H    3.900353   3.404640   2.156681   1.084829   2.156836
    40  H    3.411580   3.870447   3.397096   2.156552   1.085208
    41  H    2.156062   3.394251   3.869880   3.400796   2.149976
                   21         22         23         24         25
    21  C    0.000000
    22  H    6.687387   0.000000
    23  H    7.348911   1.784289   0.000000
    24  H    5.570514   1.768135   1.782063   0.000000
    25  H    8.081817   2.403720   3.107767   3.635762   0.000000
    26  H    8.219097   3.636502   3.775288   4.194081   1.776740
    27  H    8.783939   3.066588   2.644203   3.780415   1.780346
    28  H    4.787100   4.181914   3.762957   2.608658   5.187643
    29  H    5.347524   6.732344   6.927937   5.847854   6.558127
    30  H    6.307771   5.705728   5.733290   5.041030   5.151245
    31  H    3.342383   4.430890   5.424146   3.892990   5.107519
    32  H    4.912422   3.066289   4.013008   2.871442   3.351004
    33  H    2.714960   5.326339   5.468833   3.857459   6.519344
    34  H    3.952826   6.359986   6.265975   4.930441   7.059654
    35  H    2.814900   7.638284   7.951699   6.362851   8.440814
    36  H    3.425699   7.033474   7.572123   6.074873   7.427807
    37  H    3.388762   7.135003   8.163149   6.595750   7.573375
    38  H    3.867996   7.767022   9.083824   7.477719   8.547322
    39  H    3.402554   7.894130   9.093494   7.415097   9.295402
    40  H    2.150273   7.410072   8.183717   6.450592   9.165314
    41  H    1.086985   6.767152   7.173688   5.429931   8.284059
                   26         27         28         29         30
    26  H    0.000000
    27  H    1.787192   0.000000
    28  H    4.820423   4.981956   0.000000
    29  H    5.523130   6.786940   4.001914   0.000000
    30  H    3.883060   5.166959   3.562893   1.803749   0.000000
    31  H    5.187172   6.069558   3.702034   3.766141   4.008966
    32  H    3.425055   4.277642   3.249825   3.990547   3.380138
    33  H    6.308105   6.774415   2.185824   3.730930   4.247580
    34  H    6.395438   7.083011   2.565499   2.609074   3.410818
    35  H    7.969662   8.839728   4.499467   3.422396   4.890551
    36  H    6.887233   8.016361   4.509233   2.342731   3.845533
    37  H    7.455790   8.619334   5.891665   4.244126   5.356013
    38  H    8.897635   9.847652   7.441001   6.645855   7.557821
    39  H    9.897804  10.467197   7.610188   7.947657   8.787939
    40  H    9.645638   9.968804   6.296534   7.462733   8.283161
    41  H    8.353651   8.779788   4.386172   5.446736   6.354818
                   31         32         33         34         35
    31  H    0.000000
    32  H    1.811808   0.000000
    33  H    2.891961   3.607954   0.000000
    34  H    3.793750   4.289846   1.756966   0.000000
    35  H    3.916568   5.210848   2.624429   2.291451   0.000000
    36  H    2.950605   4.199772   3.050373   2.692201   1.752143
    37  H    2.745348   4.386925   4.337984   4.745661   3.473677
    38  H    4.042495   5.667016   5.797712   6.722616   5.311713
    39  H    4.954506   6.523265   5.857671   7.189644   5.845516
    40  H    4.882480   6.325829   4.478875   5.938267   4.871319
    41  H    3.891715   5.228501   2.326553   3.569561   2.761109
                   36         37         38         39         40
    36  H    0.000000
    37  H    2.340228   0.000000
    38  H    4.671006   2.480304   0.000000
    39  H    5.874805   4.302736   2.486822   0.000000
    40  H    5.533170   4.955461   4.297726   2.487088   0.000000
    41  H    3.784094   4.288223   4.954966   4.296268   2.469342
                   41
    41  H    0.000000
 Stoichiometry    C13H20N2O4S2
 Framework group  C1[X(C13H20N2O4S2)]
 Deg. of freedom   117
 Full point group                 C1      NOp   1
 Largest Abelian subgroup         C1      NOp   1
 Largest concise Abelian subgroup C1      NOp   1
                         Standard orientation:                         
 ---------------------------------------------------------------------
 Center     Atomic      Atomic             Coordinates (Angstroms)
 Number     Number       Type             X           Y           Z
 ---------------------------------------------------------------------
      1          6           0        2.494280   -2.191634    1.675892
      2          7           0        2.765064   -0.829831    1.194740
      3          6           0        3.818361   -0.134020    1.953131
      4         16           0        2.927929   -0.722144   -0.489818
      5          8           0        3.418091    0.631412   -0.751300
      6          8           0        3.633481   -1.887881   -1.029791
      7          7           0        1.386835   -0.860551   -1.088936
      8          6           0        0.245783    0.054429   -0.916189
      9          6           0        0.589258    1.519898   -1.351522
     10         16           0       -0.001672    2.162638    0.252324
     11          8           0        1.046465    2.814820    1.053644
     12          8           0       -1.317290    2.822805    0.125127
     13          6           0       -0.149508    0.368428    0.573970
     14          6           0       -0.880545   -0.563356   -1.772291
     15          6           0       -2.262804    0.128263   -1.730243
     16          6           0       -3.189533   -0.367039   -0.633285
     17          6           0       -3.701668    0.511537    0.328652
     18          6           0       -4.576169    0.057720    1.317860
     19          6           0       -4.953315   -1.284473    1.360346
     20          6           0       -4.447414   -2.170902    0.406684
     21          6           0       -3.573720   -1.714184   -0.579534
     22          1           0        2.222957   -2.120087    2.730291
     23          1           0        3.361116   -2.854227    1.568689
     24          1           0        1.649207   -2.617900    1.133640
     25          1           0        3.492018   -0.095817    2.994261
     26          1           0        3.922727    0.879053    1.572669
     27          1           0        4.784696   -0.651219    1.903324
     28          1           0        1.157092   -1.826360   -1.302830
     29          1           0        0.016744    1.904401   -2.195212
     30          1           0        1.656254    1.697322   -1.472276
     31          1           0       -1.154066    0.071410    0.879388
     32          1           0        0.610418    0.054461    1.290435
     33          1           0       -1.011332   -1.608117   -1.470561
     34          1           0       -0.508822   -0.578050   -2.802243
     35          1           0       -2.738924   -0.061444   -2.699729
     36          1           0       -2.154654    1.214171   -1.650235
     37          1           0       -3.393819    1.551863    0.306063
     38          1           0       -4.960929    0.754447    2.055406
     39          1           0       -5.633406   -1.638632    2.127745
     40          1           0       -4.734704   -3.217156    0.428863
     41          1           0       -3.189960   -2.410590   -1.320671
 ---------------------------------------------------------------------
 Rotational constants (GHZ):      0.4315429      0.1688651      0.1504358
 Leave Link  202 at Fri Oct  2 06:11:01 2020, MaxMem=  2147483648 cpu:         0.0
 (Enter /prod/apps/gaussian/g09d1/l301.exe)
 Standard basis: 6-31G(d) (6D, 7F)
 Ernie: Thresh=  0.10000D-02 Tol=  0.10000D-05 Strict=F.
 There are   363 symmetry adapted cartesian basis functions of A   symmetry.
 There are   363 symmetry adapted basis functions of A   symmetry.
   363 basis functions,   716 primitive gaussians,   363 cartesian basis functions
    88 alpha electrons       88 beta electrons
       nuclear repulsion energy      2217.0124563628 Hartrees.
 IExCor=  402 DFT=T Ex+Corr=B3LYP ExCW=0 ScaHFX=  0.200000
 ScaDFX=  0.800000  0.720000  1.000000  0.810000 ScalE2=  1.000000  1.000000
 IRadAn=      0 IRanWt=     -1 IRanGd=            0 ICorTp=0 IEmpDi=  4
 NAtoms=   41 NActive=   41 NUniq=   41 SFac= 1.00D+00 NAtFMM=   60 NAOKFM=F Big=F
 Integral buffers will be    131072 words long.
 Raffenetti 2 integral format.
 Two-electron integral symmetry is turned on.
 Leave Link  301 at Fri Oct  2 06:11:01 2020, MaxMem=  2147483648 cpu:         0.0
 (Enter /prod/apps/gaussian/g09d1/l302.exe)
 NPDir=0 NMtPBC=     1 NCelOv=     1 NCel=       1 NClECP=     1 NCelD=      1
         NCelK=      1 NCelE2=     1 NClLst=     1 CellRange=     0.0.
 One-electron integrals computed using PRISM.
 NBasis=   363 RedAO= T EigKep=  4.60D-04  NBF=   363
 NBsUse=   363 1.00D-06 EigRej= -1.00D+00 NBFU=   363
 Precomputing XC quadrature grid using
 IXCGrd= 4 IRadAn=           0 IRanWt=          -1 IRanGd=           0 AccXCQ= 0.00D+00.
 Generated NRdTot=       0 NPtTot=           0 NUsed=           0 NTot=          32
 NSgBfM=   358   358   358   359   359 MxSgAt=    41 MxSgA2=    41.
 Leave Link  302 at Fri Oct  2 06:11:02 2020, MaxMem=  2147483648 cpu:         1.4
 (Enter /prod/apps/gaussian/g09d1/l303.exe)
 DipDrv:  MaxL=1.
 Leave Link  303 at Fri Oct  2 06:11:03 2020, MaxMem=  2147483648 cpu:         0.1
 (Enter /prod/apps/gaussian/g09d1/l401.exe)
 ExpMin= 1.17D-01 ExpMax= 2.19D+04 ExpMxC= 3.30D+03 IAcc=1 IRadAn=         1 AccDes= 0.00D+00
 Harris functional with IExCor=  402 and IRadAn=       1 diagonalized for initial guess.
 HarFok:  IExCor=  402 AccDes= 0.00D+00 IRadAn=         1 IDoV= 1 UseB2=F ITyADJ=14
 ICtDFT=  3500011 ScaDFX=  1.000000  1.000000  1.000000  1.000000
 FoFCou: FMM=F IPFlag=           0 FMFlag=      100000 FMFlg1=           0
         NFxFlg=           0 DoJE=T BraDBF=F KetDBF=T FulRan=T
         wScrn=  0.000000 ICntrl=     500 IOpCl=  0 I1Cent=   200000004 NGrid=           0
         NMat0=    1 NMatS0=      1 NMatT0=    0 NMatD0=    1 NMtDS0=    0 NMtDT0=    0
 Petite list used in FoFCou.
 Harris En= -1714.14108572631    
 JPrj=0 DoOrth=F DoCkMO=F.
 Leave Link  401 at Fri Oct  2 06:11:09 2020, MaxMem=  2147483648 cpu:         6.3
 (Enter /prod/apps/gaussian/g09d1/l502.exe)
 Closed shell SCF:
 Using DIIS extrapolation, IDIIS=  1040.
 Integral symmetry usage will be decided dynamically.
 IVT=      418784 IEndB=      418784 NGot=  2147483648 MDV=  2147213637
 LenX=  2147213637 LenY=  2147081427
 Requested convergence on RMS density matrix=1.00D-08 within 128 cycles.
 Requested convergence on MAX density matrix=1.00D-06.
 Requested convergence on             energy=1.00D-06.
 No special actions if energy rises.
 Fock matrices will be formed incrementally for  20 cycles.
 Integral accuracy reduced to 1.0D-05 until final iterations.

 Cycle   1  Pass 0  IDiag  1:
 FoFJK:  IHMeth= 1 ICntrl=       0 DoSepK=F KAlg= 0 I1Cent=   0 FoldK=F
 IRaf= 770000000 NMat=   1 IRICut=       1 DoRegI=T DoRafI=F ISym2E= 0.
 FoFCou: FMM=F IPFlag=           0 FMFlag=      100000 FMFlg1=           0
         NFxFlg=           0 DoJE=F BraDBF=F KetDBF=F FulRan=T
         wScrn=  0.000000 ICntrl=       0 IOpCl=  0 I1Cent=           0 NGrid=           0
         NMat0=    1 NMatS0=      1 NMatT0=    0 NMatD0=    1 NMtDS0=    0 NMtDT0=    0
 Symmetry not used in FoFCou.
 E= -1713.19574855164    
 DIIS: error= 2.89D-02 at cycle   1 NSaved=   1.
 NSaved= 1 IEnMin= 1 EnMin= -1713.19574855164     IErMin= 1 ErrMin= 2.89D-02
 ErrMax= 2.89D-02  0.00D+00 EMaxC= 1.00D-01 BMatC= 9.89D-01 BMatP= 9.89D-01
 IDIUse=3 WtCom= 7.11D-01 WtEn= 2.89D-01
 Coeff-Com:  0.100D+01
 Coeff-En:   0.100D+01
 Coeff:      0.100D+01
 Gap=     0.352 Goal=   None    Shift=    0.000
 GapD=    0.352 DampG=1.000 DampE=0.500 DampFc=0.5000 IDamp=-1.
 Damping current iteration by 5.00D-01
 RMSDP=6.94D-03 MaxDP=6.07D-01              OVMax= 2.37D-01

 Cycle   2  Pass 0  IDiag  1:
 RMSU=  3.47D-03    CP:  9.99D-01
 E= -1713.37290914793     Delta-E=       -0.177160596297 Rises=F Damp=T
 DIIS: error= 1.47D-02 at cycle   2 NSaved=   2.
 NSaved= 2 IEnMin= 2 EnMin= -1713.37290914793     IErMin= 2 ErrMin= 1.47D-02
 ErrMax= 1.47D-02  0.00D+00 EMaxC= 1.00D-01 BMatC= 1.70D-01 BMatP= 9.89D-01
 IDIUse=3 WtCom= 8.53D-01 WtEn= 1.47D-01
 Coeff-Com:  0.250D+00 0.750D+00
 Coeff-En:   0.394D+00 0.606D+00
 Coeff:      0.271D+00 0.729D+00
 Gap=     0.297 Goal=   None    Shift=    0.000
 RMSDP=2.04D-03 MaxDP=1.38D-01 DE=-1.77D-01 OVMax= 1.87D-01

 Cycle   3  Pass 0  IDiag  1:
 RMSU=  1.62D-03    CP:  9.89D-01  6.47D-01
 E= -1713.94271754837     Delta-E=       -0.569808400434 Rises=F Damp=F
 DIIS: error= 1.11D-02 at cycle   3 NSaved=   3.
 NSaved= 3 IEnMin= 3 EnMin= -1713.94271754837     IErMin= 3 ErrMin= 1.11D-02
 ErrMax= 1.11D-02  0.00D+00 EMaxC= 1.00D-01 BMatC= 1.00D-01 BMatP= 1.70D-01
 IDIUse=3 WtCom= 8.89D-01 WtEn= 1.11D-01
 Coeff-Com:  0.101D+00 0.441D+00 0.458D+00
 Coeff-En:   0.000D+00 0.000D+00 0.100D+01
 Coeff:      0.896D-01 0.392D+00 0.518D+00
 Gap=     0.241 Goal=   None    Shift=    0.000
 RMSDP=1.28D-03 MaxDP=3.94D-02 DE=-5.70D-01 OVMax= 8.79D-02

 Cycle   4  Pass 0  IDiag  1:
 RMSU=  7.47D-04    CP:  9.95D-01  7.30D-01  3.88D-01
 E= -1714.02223577259     Delta-E=       -0.079518224221 Rises=F Damp=F
 DIIS: error= 4.10D-03 at cycle   4 NSaved=   4.
 NSaved= 4 IEnMin= 4 EnMin= -1714.02223577259     IErMin= 4 ErrMin= 4.10D-03
 ErrMax= 4.10D-03  0.00D+00 EMaxC= 1.00D-01 BMatC= 1.45D-02 BMatP= 1.00D-01
 IDIUse=3 WtCom= 9.59D-01 WtEn= 4.10D-02
 Coeff-Com:  0.107D-01 0.757D-01 0.288D+00 0.626D+00
 Coeff-En:   0.000D+00 0.000D+00 0.133D+00 0.867D+00
 Coeff:      0.103D-01 0.726D-01 0.281D+00 0.636D+00
 Gap=     0.238 Goal=   None    Shift=    0.000
 RMSDP=4.18D-04 MaxDP=1.53D-02 DE=-7.95D-02 OVMax= 2.68D-02

 Cycle   5  Pass 0  IDiag  1:
 RMSU=  1.72D-04    CP:  9.94D-01  7.13D-01  5.46D-01  6.33D-01
 E= -1714.03449234377     Delta-E=       -0.012256571178 Rises=F Damp=F
 DIIS: error= 8.14D-04 at cycle   5 NSaved=   5.
 NSaved= 5 IEnMin= 5 EnMin= -1714.03449234377     IErMin= 5 ErrMin= 8.14D-04
 ErrMax= 8.14D-04  0.00D+00 EMaxC= 1.00D-01 BMatC= 9.12D-04 BMatP= 1.45D-02
 IDIUse=3 WtCom= 9.92D-01 WtEn= 8.14D-03
 Coeff-Com: -0.658D-03 0.150D-01 0.117D+00 0.334D+00 0.535D+00
 Coeff-En:   0.000D+00 0.000D+00 0.000D+00 0.000D+00 0.100D+01
 Coeff:     -0.652D-03 0.149D-01 0.116D+00 0.332D+00 0.538D+00
 Gap=     0.238 Goal=   None    Shift=    0.000
 RMSDP=1.07D-04 MaxDP=7.29D-03 DE=-1.23D-02 OVMax= 5.94D-03

 Cycle   6  Pass 0  IDiag  1:
 RMSU=  5.25D-05    CP:  9.94D-01  7.16D-01  5.38D-01  6.97D-01  5.46D-01
 E= -1714.03525309132     Delta-E=       -0.000760747554 Rises=F Damp=F
 DIIS: error= 2.88D-04 at cycle   6 NSaved=   6.
 NSaved= 6 IEnMin= 6 EnMin= -1714.03525309132     IErMin= 6 ErrMin= 2.88D-04
 ErrMax= 2.88D-04  0.00D+00 EMaxC= 1.00D-01 BMatC= 8.90D-05 BMatP= 9.12D-04
 IDIUse=3 WtCom= 9.97D-01 WtEn= 2.88D-03
 Coeff-Com: -0.117D-02 0.257D-02 0.410D-01 0.131D+00 0.303D+00 0.523D+00
 Coeff-En:   0.000D+00 0.000D+00 0.000D+00 0.000D+00 0.206D-02 0.998D+00
 Coeff:     -0.117D-02 0.256D-02 0.408D-01 0.130D+00 0.303D+00 0.525D+00
 Gap=     0.238 Goal=   None    Shift=    0.000
 RMSDP=3.19D-05 MaxDP=1.33D-03 DE=-7.61D-04 OVMax= 2.41D-03

 Cycle   7  Pass 0  IDiag  1:
 RMSU=  2.21D-05    CP:  9.94D-01  7.15D-01  5.39D-01  6.94D-01  6.00D-01
                    CP:  6.00D-01
 E= -1714.03531550638     Delta-E=       -0.000062415062 Rises=F Damp=F
 DIIS: error= 1.37D-04 at cycle   7 NSaved=   7.
 NSaved= 7 IEnMin= 7 EnMin= -1714.03531550638     IErMin= 7 ErrMin= 1.37D-04
 ErrMax= 1.37D-04  0.00D+00 EMaxC= 1.00D-01 BMatC= 1.68D-05 BMatP= 8.90D-05
 IDIUse=3 WtCom= 9.99D-01 WtEn= 1.37D-03
 Coeff-Com: -0.710D-03-0.144D-03 0.126D-01 0.447D-01 0.137D+00 0.348D+00
 Coeff-Com:  0.459D+00
 Coeff-En:   0.000D+00 0.000D+00 0.000D+00 0.000D+00 0.000D+00 0.139D+00
 Coeff-En:   0.861D+00
 Coeff:     -0.709D-03-0.144D-03 0.125D-01 0.447D-01 0.137D+00 0.348D+00
 Coeff:      0.459D+00
 Gap=     0.238 Goal=   None    Shift=    0.000
 RMSDP=1.22D-05 MaxDP=4.62D-04 DE=-6.24D-05 OVMax= 7.12D-04

 Cycle   8  Pass 0  IDiag  1:
 RMSU=  5.59D-06    CP:  9.94D-01  7.15D-01  5.40D-01  6.95D-01  6.04D-01
                    CP:  6.59D-01  5.31D-01
 E= -1714.03532944408     Delta-E=       -0.000013937693 Rises=F Damp=F
 DIIS: error= 3.48D-05 at cycle   8 NSaved=   8.
 NSaved= 8 IEnMin= 8 EnMin= -1714.03532944408     IErMin= 8 ErrMin= 3.48D-05
 ErrMax= 3.48D-05  0.00D+00 EMaxC= 1.00D-01 BMatC= 6.52D-07 BMatP= 1.68D-05
 IDIUse=1 WtCom= 1.00D+00 WtEn= 0.00D+00
 Coeff-Com: -0.229D-03-0.310D-03 0.165D-02 0.758D-02 0.358D-01 0.115D+00
 Coeff-Com:  0.224D+00 0.616D+00
 Coeff:     -0.229D-03-0.310D-03 0.165D-02 0.758D-02 0.358D-01 0.115D+00
 Coeff:      0.224D+00 0.616D+00
 Gap=     0.238 Goal=   None    Shift=    0.000
 RMSDP=3.04D-06 MaxDP=1.47D-04 DE=-1.39D-05 OVMax= 1.95D-04

 Initial convergence to 1.0D-05 achieved.  Increase integral accuracy.
 Cycle   9  Pass 1  IDiag  1:
 E= -1714.03533477004     Delta-E=       -0.000005325968 Rises=F Damp=F
 DIIS: error= 5.01D-05 at cycle   1 NSaved=   1.
 NSaved= 1 IEnMin= 1 EnMin= -1714.03533477004     IErMin= 1 ErrMin= 5.01D-05
 ErrMax= 5.01D-05  0.00D+00 EMaxC= 1.00D-01 BMatC= 8.71D-07 BMatP= 8.71D-07
 IDIUse=1 WtCom= 1.00D+00 WtEn= 0.00D+00
 Coeff-Com:  0.100D+01
 Coeff:      0.100D+01
 Gap=     0.238 Goal=   None    Shift=    0.000
 RMSDP=3.04D-06 MaxDP=1.47D-04 DE=-5.33D-06 OVMax= 2.61D-04

 Cycle  10  Pass 1  IDiag  1:
 RMSU=  2.79D-05    CP:  1.00D+00
 E= -1714.03533523493     Delta-E=       -0.000000464888 Rises=F Damp=F
 DIIS: error= 3.29D-05 at cycle   2 NSaved=   2.
 NSaved= 2 IEnMin= 2 EnMin= -1714.03533523493     IErMin= 2 ErrMin= 3.29D-05
 ErrMax= 3.29D-05  0.00D+00 EMaxC= 1.00D-01 BMatC= 5.39D-07 BMatP= 8.71D-07
 IDIUse=1 WtCom= 1.00D+00 WtEn= 0.00D+00
 Coeff-Com:  0.413D+00 0.587D+00
 Coeff:      0.413D+00 0.587D+00
 Gap=     0.238 Goal=   None    Shift=    0.000
 RMSDP=3.59D-06 MaxDP=1.64D-04 DE=-4.65D-07 OVMax= 2.83D-04

 Cycle  11  Pass 1  IDiag  1:
 RMSU=  3.59D-06    CP:  1.00D+00  9.95D-01
 E= -1714.03533534846     Delta-E=       -0.000000113524 Rises=F Damp=F
 DIIS: error= 3.07D-05 at cycle   3 NSaved=   3.
 NSaved= 3 IEnMin= 3 EnMin= -1714.03533534846     IErMin= 3 ErrMin= 3.07D-05
 ErrMax= 3.07D-05  0.00D+00 EMaxC= 1.00D-01 BMatC= 4.28D-07 BMatP= 5.39D-07
 IDIUse=1 WtCom= 1.00D+00 WtEn= 0.00D+00
 Coeff-Com:  0.102D-01 0.468D+00 0.521D+00
 Coeff:      0.102D-01 0.468D+00 0.521D+00
 Gap=     0.238 Goal=   None    Shift=    0.000
 RMSDP=1.75D-06 MaxDP=9.08D-05 DE=-1.14D-07 OVMax= 1.56D-04

 Cycle  12  Pass 1  IDiag  1:
 RMSU=  6.34D-07    CP:  1.00D+00  1.01D+00  5.52D-01
 E= -1714.03533569366     Delta-E=       -0.000000345206 Rises=F Damp=F
 DIIS: error= 3.82D-06 at cycle   4 NSaved=   4.
 NSaved= 4 IEnMin= 4 EnMin= -1714.03533569366     IErMin= 4 ErrMin= 3.82D-06
 ErrMax= 3.82D-06  0.00D+00 EMaxC= 1.00D-01 BMatC= 1.35D-08 BMatP= 4.28D-07
 IDIUse=1 WtCom= 1.00D+00 WtEn= 0.00D+00
 Coeff-Com: -0.747D-02 0.261D+00 0.312D+00 0.435D+00
 Coeff:     -0.747D-02 0.261D+00 0.312D+00 0.435D+00
 Gap=     0.238 Goal=   None    Shift=    0.000
 RMSDP=3.61D-07 MaxDP=1.21D-05 DE=-3.45D-07 OVMax= 3.13D-05

 Cycle  13  Pass 1  IDiag  1:
 RMSU=  1.93D-07    CP:  1.00D+00  1.01D+00  5.50D-01  5.19D-01
 E= -1714.03533570496     Delta-E=       -0.000000011297 Rises=F Damp=F
 DIIS: error= 1.35D-06 at cycle   5 NSaved=   5.
 NSaved= 5 IEnMin= 5 EnMin= -1714.03533570496     IErMin= 5 ErrMin= 1.35D-06
 ErrMax= 1.35D-06  0.00D+00 EMaxC= 1.00D-01 BMatC= 6.51D-10 BMatP= 1.35D-08
 IDIUse=1 WtCom= 1.00D+00 WtEn= 0.00D+00
 Coeff-Com: -0.479D-02 0.130D+00 0.157D+00 0.257D+00 0.461D+00
 Coeff:     -0.479D-02 0.130D+00 0.157D+00 0.257D+00 0.461D+00
 Gap=     0.238 Goal=   None    Shift=    0.000
 RMSDP=9.54D-08 MaxDP=3.54D-06 DE=-1.13D-08 OVMax= 1.17D-05

 Cycle  14  Pass 1  IDiag  1:
 RMSU=  7.18D-08    CP:  1.00D+00  1.01D+00  5.53D-01  5.44D-01  6.89D-01
 E= -1714.03533570565     Delta-E=       -0.000000000692 Rises=F Damp=F
 DIIS: error= 3.52D-07 at cycle   6 NSaved=   6.
 NSaved= 6 IEnMin= 6 EnMin= -1714.03533570565     IErMin= 6 ErrMin= 3.52D-07
 ErrMax= 3.52D-07  0.00D+00 EMaxC= 1.00D-01 BMatC= 4.32D-11 BMatP= 6.51D-10
 IDIUse=1 WtCom= 1.00D+00 WtEn= 0.00D+00
 Coeff-Com: -0.128D-02 0.270D-01 0.331D-01 0.647D-01 0.234D+00 0.642D+00
 Coeff:     -0.128D-02 0.270D-01 0.331D-01 0.647D-01 0.234D+00 0.642D+00
 Gap=     0.238 Goal=   None    Shift=    0.000
 RMSDP=2.51D-08 MaxDP=9.93D-07 DE=-6.92D-10 OVMax= 2.84D-06

 Cycle  15  Pass 1  IDiag  1:
 RMSU=  1.85D-08    CP:  1.00D+00  1.01D+00  5.52D-01  5.44D-01  7.54D-01
                    CP:  8.48D-01
 E= -1714.03533570576     Delta-E=       -0.000000000112 Rises=F Damp=F
 DIIS: error= 7.44D-08 at cycle   7 NSaved=   7.
 NSaved= 7 IEnMin= 7 EnMin= -1714.03533570576     IErMin= 7 ErrMin= 7.44D-08
 ErrMax= 7.44D-08  0.00D+00 EMaxC= 1.00D-01 BMatC= 5.70D-12 BMatP= 4.32D-11
 IDIUse=1 WtCom= 1.00D+00 WtEn= 0.00D+00
 Coeff-Com: -0.202D-03 0.854D-03 0.136D-02 0.749D-02 0.763D-01 0.342D+00
 Coeff-Com:  0.572D+00
 Coeff:     -0.202D-03 0.854D-03 0.136D-02 0.749D-02 0.763D-01 0.342D+00
 Coeff:      0.572D+00
 Gap=     0.238 Goal=   None    Shift=    0.000
 RMSDP=8.45D-09 MaxDP=6.73D-07 DE=-1.12D-10 OVMax= 5.75D-07

 SCF Done:  E(RB3LYP) =  -1714.03533571     A.U. after   15 cycles
            NFock= 15  Conv=0.85D-08     -V/T= 2.0068
 KE= 1.702513489804D+03 PE=-8.459861269058D+03 EE= 2.826299987185D+03
 Leave Link  502 at Fri Oct  2 06:17:40 2020, MaxMem=  2147483648 cpu:       390.9
 (Enter /prod/apps/gaussian/g09d1/l601.exe)
 Copying SCF densities to generalized density rwf, IOpCl= 0 IROHF=0.

 **********************************************************************

            Population analysis using the SCF density.

 **********************************************************************

 Orbital symmetries:
       Occupied  (A) (A) (A) (A) (A) (A) (A) (A) (A) (A) (A) (A)
                 (A) (A) (A) (A) (A) (A) (A) (A) (A) (A) (A) (A)
                 (A) (A) (A) (A) (A) (A) (A) (A) (A) (A) (A) (A)
                 (A) (A) (A) (A) (A) (A) (A) (A) (A) (A) (A) (A)
                 (A) (A) (A) (A) (A) (A) (A) (A) (A) (A) (A) (A)
                 (A) (A) (A) (A) (A) (A) (A) (A) (A) (A) (A) (A)
                 (A) (A) (A) (A) (A) (A) (A) (A) (A) (A) (A) (A)
                 (A) (A) (A) (A)
       Virtual   (A) (A) (A) (A) (A) (A) (A) (A) (A) (A) (A) (A)
                 (A) (A) (A) (A) (A) (A) (A) (A) (A) (A) (A) (A)
                 (A) (A) (A) (A) (A) (A) (A) (A) (A) (A) (A) (A)
                 (A) (A) (A) (A) (A) (A) (A) (A) (A) (A) (A) (A)
                 (A) (A) (A) (A) (A) (A) (A) (A) (A) (A) (A) (A)
                 (A) (A) (A) (A) (A) (A) (A) (A) (A) (A) (A) (A)
                 (A) (A) (A) (A) (A) (A) (A) (A) (A) (A) (A) (A)
                 (A) (A) (A) (A) (A) (A) (A) (A) (A) (A) (A) (A)
                 (A) (A) (A) (A) (A) (A) (A) (A) (A) (A) (A) (A)
                 (A) (A) (A) (A) (A) (A) (A) (A) (A) (A) (A) (A)
                 (A) (A) (A) (A) (A) (A) (A) (A) (A) (A) (A) (A)
                 (A) (A) (A) (A) (A) (A) (A) (A) (A) (A) (A) (A)
                 (A) (A) (A) (A) (A) (A) (A) (A) (A) (A) (A) (A)
                 (A) (A) (A) (A) (A) (A) (A) (A) (A) (A) (A) (A)
                 (A) (A) (A) (A) (A) (A) (A) (A) (A) (A) (A) (A)
                 (A) (A) (A) (A) (A) (A) (A) (A) (A) (A) (A) (A)
                 (A) (A) (A) (A) (A) (A) (A) (A) (A) (A) (A) (A)
                 (A) (A) (A) (A) (A) (A) (A) (A) (A) (A) (A) (A)
                 (A) (A) (A) (A) (A) (A) (A) (A) (A) (A) (A) (A)
                 (A) (A) (A) (A) (A) (A) (A) (A) (A) (A) (A) (A)
                 (A) (A) (A) (A) (A) (A) (A) (A) (A) (A) (A) (A)
                 (A) (A) (A) (A) (A) (A) (A) (A) (A) (A) (A) (A)
                 (A) (A) (A) (A) (A) (A) (A) (A) (A) (A) (A)
 The electronic state is 1-A.
 Alpha  occ. eigenvalues --  -89.14244 -89.08794 -19.15614 -19.15498 -19.14253
 Alpha  occ. eigenvalues --  -19.14130 -14.38860 -14.38533 -10.28599 -10.23953
 Alpha  occ. eigenvalues --  -10.22738 -10.22561 -10.22421 -10.22063 -10.20621
 Alpha  occ. eigenvalues --  -10.20400 -10.19740 -10.19633 -10.19485 -10.19410
 Alpha  occ. eigenvalues --  -10.18885  -8.16421  -8.11853  -6.12916  -6.12847
 Alpha  occ. eigenvalues --   -6.12816  -6.08277  -6.08204  -6.08136  -1.13398
 Alpha  occ. eigenvalues --   -1.09470  -1.01574  -0.99152  -0.95861  -0.94679
 Alpha  occ. eigenvalues --   -0.86558  -0.85479  -0.80177  -0.75347  -0.74883
 Alpha  occ. eigenvalues --   -0.73843  -0.72255  -0.71905  -0.68260  -0.63287
 Alpha  occ. eigenvalues --   -0.61318  -0.60987  -0.58522  -0.57438  -0.55645
 Alpha  occ. eigenvalues --   -0.53693  -0.52034  -0.51551  -0.49933  -0.49688
 Alpha  occ. eigenvalues --   -0.48972  -0.48047  -0.46819  -0.46186  -0.45547
 Alpha  occ. eigenvalues --   -0.45350  -0.44559  -0.43924  -0.43213  -0.43076
 Alpha  occ. eigenvalues --   -0.42231  -0.42108  -0.41545  -0.40966  -0.40445
 Alpha  occ. eigenvalues --   -0.39832  -0.37620  -0.37160  -0.36156  -0.35228
 Alpha  occ. eigenvalues --   -0.34310  -0.34121  -0.33583  -0.32947  -0.31907
 Alpha  occ. eigenvalues --   -0.31483  -0.31075  -0.30536  -0.29363  -0.27827
 Alpha  occ. eigenvalues --   -0.26405  -0.25580  -0.24908
 Alpha virt. eigenvalues --   -0.01136  -0.00689   0.02900   0.04028   0.04730
 Alpha virt. eigenvalues --    0.05102   0.05980   0.06196   0.07008   0.08049
 Alpha virt. eigenvalues --    0.08991   0.09556   0.10703   0.10873   0.12074
 Alpha virt. eigenvalues --    0.12230   0.12888   0.14201   0.14750   0.15364
 Alpha virt. eigenvalues --    0.15447   0.15833   0.16050   0.16461   0.17219
 Alpha virt. eigenvalues --    0.17417   0.17840   0.18749   0.18887   0.19226
 Alpha virt. eigenvalues --    0.20302   0.20934   0.20965   0.22075   0.23150
 Alpha virt. eigenvalues --    0.24445   0.25800   0.26546   0.30090   0.30213
 Alpha virt. eigenvalues --    0.31784   0.33213   0.34278   0.35329   0.36028
 Alpha virt. eigenvalues --    0.36605   0.37902   0.39855   0.43080   0.44375
 Alpha virt. eigenvalues --    0.46655   0.47349   0.47637   0.48344   0.49682
 Alpha virt. eigenvalues --    0.51179   0.52625   0.53093   0.53346   0.54311
 Alpha virt. eigenvalues --    0.54832   0.55853   0.56189   0.57328   0.58276
 Alpha virt. eigenvalues --    0.58525   0.58875   0.59482   0.59635   0.60091
 Alpha virt. eigenvalues --    0.60919   0.61142   0.61697   0.63817   0.64355
 Alpha virt. eigenvalues --    0.65994   0.67188   0.67878   0.68618   0.71278
 Alpha virt. eigenvalues --    0.72613   0.73379   0.74012   0.74243   0.75849
 Alpha virt. eigenvalues --    0.76649   0.77332   0.77930   0.78879   0.80322
 Alpha virt. eigenvalues --    0.80857   0.81022   0.81795   0.82541   0.83471
 Alpha virt. eigenvalues --    0.83578   0.84463   0.84948   0.86006   0.86699
 Alpha virt. eigenvalues --    0.87473   0.87874   0.88571   0.89306   0.89796
 Alpha virt. eigenvalues --    0.90112   0.90936   0.91472   0.92963   0.93451
 Alpha virt. eigenvalues --    0.93621   0.94187   0.94846   0.95827   0.96827
 Alpha virt. eigenvalues --    0.97448   0.98227   0.99417   1.00569   1.02003
 Alpha virt. eigenvalues --    1.02339   1.02955   1.03815   1.05105   1.06701
 Alpha virt. eigenvalues --    1.07907   1.09166   1.10387   1.10541   1.11517
 Alpha virt. eigenvalues --    1.12074   1.12852   1.14408   1.16122   1.16768
 Alpha virt. eigenvalues --    1.18029   1.19525   1.19753   1.21682   1.22260
 Alpha virt. eigenvalues --    1.23356   1.25920   1.26921   1.29137   1.29638
 Alpha virt. eigenvalues --    1.31508   1.32910   1.33529   1.38777   1.42122
 Alpha virt. eigenvalues --    1.42865   1.43470   1.44112   1.44510   1.47411
 Alpha virt. eigenvalues --    1.48136   1.49234   1.50656   1.51018   1.52506
 Alpha virt. eigenvalues --    1.54449   1.56829   1.58746   1.62962   1.66202
 Alpha virt. eigenvalues --    1.69815   1.70384   1.72019   1.73676   1.76993
 Alpha virt. eigenvalues --    1.77841   1.78707   1.79428   1.79987   1.81125
 Alpha virt. eigenvalues --    1.81169   1.81358   1.81700   1.82179   1.82901
 Alpha virt. eigenvalues --    1.83535   1.85410   1.85587   1.86713   1.87573
 Alpha virt. eigenvalues --    1.88882   1.89718   1.91086   1.92816   1.93345
 Alpha virt. eigenvalues --    1.93466   1.95324   1.97143   1.97837   1.98265
 Alpha virt. eigenvalues --    1.99836   2.02439   2.03371   2.04267   2.04830
 Alpha virt. eigenvalues --    2.04901   2.06918   2.08457   2.08958   2.10090
 Alpha virt. eigenvalues --    2.11264   2.12555   2.13920   2.14467   2.14969
 Alpha virt. eigenvalues --    2.15441   2.17670   2.18869   2.19438   2.20005
 Alpha virt. eigenvalues --    2.22383   2.23121   2.24203   2.27254   2.28069
 Alpha virt. eigenvalues --    2.30232   2.30745   2.31575   2.32856   2.35272
 Alpha virt. eigenvalues --    2.36425   2.39608   2.41114   2.41931   2.43171
 Alpha virt. eigenvalues --    2.46737   2.47117   2.49706   2.55069   2.57736
 Alpha virt. eigenvalues --    2.58218   2.59190   2.64244   2.66202   2.69735
 Alpha virt. eigenvalues --    2.71569   2.71647   2.72101   2.74320   2.74410
 Alpha virt. eigenvalues --    2.75245   2.77556   2.80004   2.81782   2.84628
 Alpha virt. eigenvalues --    2.88769   2.92262   3.05493   3.40490   3.76168
 Alpha virt. eigenvalues --    3.82462   3.90898   3.94482   3.99143   4.04142
 Alpha virt. eigenvalues --    4.04601   4.08906   4.11663   4.15275   4.17821
 Alpha virt. eigenvalues --    4.20448   4.24010   4.25562   4.33102   4.33484
 Alpha virt. eigenvalues --    4.35766   4.45008   4.53352   4.69248   4.77408
          Condensed to atoms (all electrons):
               1          2          3          4          5          6
     1  C    4.987800   0.266251  -0.050655  -0.006935   0.001793   0.003809
     2  N    0.266251   7.238329   0.284360   0.135115  -0.055312  -0.056956
     3  C   -0.050655   0.284360   4.991794  -0.025061  -0.002008  -0.002125
     4  S   -0.006935   0.135115  -0.025061  13.561478   0.425889   0.447101
     5  O    0.001793  -0.055312  -0.002008   0.425889   8.248757  -0.042297
     6  O    0.003809  -0.056956  -0.002125   0.447101  -0.042297   8.225822
     7  N   -0.005310  -0.054705   0.002249   0.160582  -0.053286  -0.060501
     8  C    0.000218  -0.000186  -0.000056   0.002802  -0.001265   0.002431
     9  C    0.000004  -0.001524   0.000065  -0.004765  -0.010189  -0.000104
    10  S    0.000041   0.000591  -0.000111   0.002925   0.002148   0.000012
    11  O    0.000000  -0.000120  -0.000026   0.000917  -0.000245   0.000000
    12  O    0.000000   0.000000   0.000000  -0.000004   0.000000   0.000000
    13  C    0.000734  -0.012464   0.000269  -0.011183  -0.001327  -0.000088
    14  C   -0.000018   0.000014   0.000000  -0.000235   0.000026  -0.000108
    15  C    0.000000   0.000002   0.000000  -0.000009   0.000000   0.000000
    16  C    0.000000   0.000000   0.000000   0.000004   0.000000   0.000000
    17  C    0.000000   0.000000   0.000000   0.000000   0.000000   0.000000
    18  C    0.000000   0.000000   0.000000   0.000000   0.000000   0.000000
    19  C    0.000000   0.000000   0.000000   0.000000   0.000000   0.000000
    20  C    0.000000   0.000000   0.000000   0.000000   0.000000   0.000000
    21  C    0.000000   0.000000   0.000000   0.000000   0.000000   0.000000
    22  H    0.374690  -0.034878  -0.004022   0.002616  -0.000052   0.000150
    23  H    0.376117  -0.043247  -0.001815  -0.008134  -0.000041   0.006396
    24  H    0.371722  -0.037522   0.005077   0.000940   0.000001  -0.002527
    25  H   -0.003056  -0.038577   0.375807   0.001655   0.000339  -0.000108
    26  H    0.004383  -0.029732   0.379076  -0.004228   0.010047  -0.000070
    27  H   -0.002689  -0.047381   0.370297  -0.002550  -0.000655   0.001988
    28  H   -0.000156   0.000448  -0.000028  -0.008155   0.001489   0.003612
    29  H    0.000000  -0.000004   0.000000   0.000390   0.000255   0.000001
    30  H   -0.000006   0.000034  -0.000001  -0.001088   0.019310  -0.000052
    31  H   -0.000061   0.000239   0.000002   0.000147  -0.000003   0.000000
    32  H   -0.001705   0.019652  -0.000584  -0.000266  -0.000179   0.000018
    33  H   -0.000013  -0.000014   0.000000  -0.000095   0.000002  -0.000010
    34  H    0.000001   0.000005   0.000000  -0.000036  -0.000011  -0.000005
    35  H    0.000000   0.000000   0.000000   0.000000   0.000000   0.000000
    36  H    0.000000   0.000000   0.000000   0.000004   0.000000   0.000000
    37  H    0.000000   0.000000   0.000000   0.000000   0.000000   0.000000
    38  H    0.000000   0.000000   0.000000   0.000000   0.000000   0.000000
    39  H    0.000000   0.000000   0.000000   0.000000   0.000000   0.000000
    40  H    0.000000   0.000000   0.000000   0.000000   0.000000   0.000000
    41  H    0.000000   0.000000   0.000000   0.000000   0.000000   0.000000
               7          8          9         10         11         12
     1  C   -0.005310   0.000218   0.000004   0.000041   0.000000   0.000000
     2  N   -0.054705  -0.000186  -0.001524   0.000591  -0.000120   0.000000
     3  C    0.002249  -0.000056   0.000065  -0.000111  -0.000026   0.000000
     4  S    0.160582   0.002802  -0.004765   0.002925   0.000917  -0.000004
     5  O   -0.053286  -0.001265  -0.010189   0.002148  -0.000245   0.000000
     6  O   -0.060501   0.002431  -0.000104   0.000012   0.000000   0.000000
     7  N    7.379085   0.202988  -0.047141   0.001439  -0.000163  -0.000036
     8  C    0.202988   4.807559   0.350998  -0.094620   0.001136   0.000425
     9  C   -0.047141   0.350998   5.740089   0.150038  -0.043869  -0.043674
    10  S    0.001439  -0.094620   0.150038  13.869304   0.432833   0.382561
    11  O   -0.000163   0.001136  -0.043869   0.432833   8.206645  -0.043882
    12  O   -0.000036   0.000425  -0.043674   0.382561  -0.043882   8.272875
    13  C   -0.045284   0.362514  -0.211032   0.153730  -0.044890  -0.041697
    14  C   -0.042754   0.372569  -0.040224   0.003141  -0.000058  -0.000531
    15  C    0.003153  -0.029896  -0.004813  -0.000907  -0.000012  -0.003612
    16  C   -0.000023  -0.002656   0.000101  -0.001096   0.000001  -0.001307
    17  C   -0.000008   0.000505  -0.000178   0.000761  -0.000005  -0.004171
    18  C    0.000000   0.000002  -0.000002   0.000071   0.000000   0.000110
    19  C    0.000000   0.000002   0.000000  -0.000003   0.000000  -0.000001
    20  C    0.000000  -0.000016   0.000000  -0.000001   0.000000   0.000000
    21  C   -0.000006  -0.000254  -0.000005  -0.000017   0.000000  -0.000010
    22  H   -0.000162  -0.000001   0.000001  -0.000013   0.000000   0.000000
    23  H   -0.000217  -0.000020  -0.000001   0.000000   0.000000   0.000000
    24  H    0.008457  -0.000167   0.000040   0.000016   0.000000   0.000000
    25  H   -0.000086   0.000009  -0.000002  -0.000010  -0.000009   0.000000
    26  H    0.000116   0.000019  -0.000033   0.000407   0.000805   0.000000
    27  H   -0.000103  -0.000003  -0.000002   0.000007   0.000003   0.000000
    28  H    0.298073  -0.030573   0.004649  -0.000215   0.000003   0.000001
    29  H    0.002148  -0.028787   0.337830  -0.011312   0.000876  -0.000839
    30  H   -0.004190  -0.020892   0.329306  -0.005595  -0.000054   0.000886
    31  H    0.002151  -0.024385   0.008675  -0.009843   0.000866  -0.001353
    32  H   -0.009210  -0.021993   0.004953  -0.005292   0.000683   0.001019
    33  H   -0.005095  -0.035755   0.005568  -0.000306   0.000001   0.000003
    34  H    0.000010  -0.037872  -0.009161  -0.000123   0.000001   0.000004
    35  H   -0.000110   0.004282   0.000000   0.000109   0.000000   0.000103
    36  H    0.000120  -0.006124   0.000569   0.003824   0.000037   0.010834
    37  H    0.000000  -0.000001   0.000133   0.000104   0.000007   0.013195
    38  H    0.000000   0.000000   0.000000   0.000005   0.000000  -0.000001
    39  H    0.000000   0.000000   0.000000   0.000000   0.000000   0.000000
    40  H    0.000000   0.000000   0.000000   0.000000   0.000000   0.000000
    41  H   -0.000001   0.000172   0.000000  -0.000002   0.000000   0.000000
              13         14         15         16         17         18
     1  C    0.000734  -0.000018   0.000000   0.000000   0.000000   0.000000
     2  N   -0.012464   0.000014   0.000002   0.000000   0.000000   0.000000
     3  C    0.000269   0.000000   0.000000   0.000000   0.000000   0.000000
     4  S   -0.011183  -0.000235  -0.000009   0.000004   0.000000   0.000000
     5  O   -0.001327   0.000026   0.000000   0.000000   0.000000   0.000000
     6  O   -0.000088  -0.000108   0.000000   0.000000   0.000000   0.000000
     7  N   -0.045284  -0.042754   0.003153  -0.000023  -0.000008   0.000000
     8  C    0.362514   0.372569  -0.029896  -0.002656   0.000505   0.000002
     9  C   -0.211032  -0.040224  -0.004813   0.000101  -0.000178  -0.000002
    10  S    0.153730   0.003141  -0.000907  -0.001096   0.000761   0.000071
    11  O   -0.044890  -0.000058  -0.000012   0.000001  -0.000005   0.000000
    12  O   -0.041697  -0.000531  -0.003612  -0.001307  -0.004171   0.000110
    13  C    5.765913  -0.044819  -0.002234  -0.003660  -0.006046  -0.000335
    14  C   -0.044819   5.144674   0.330546  -0.032405   0.000685  -0.000190
    15  C   -0.002234   0.330546   5.213196   0.345882  -0.048951   0.007317
    16  C   -0.003660  -0.032405   0.345882   4.662861   0.548399  -0.023539
    17  C   -0.006046   0.000685  -0.048951   0.548399   5.000177   0.510550
    18  C   -0.000335  -0.000190   0.007317  -0.023539   0.510550   4.882268
    19  C    0.000037   0.000005   0.000363  -0.034671  -0.034869   0.548620
    20  C    0.000083   0.000179   0.006170  -0.017474  -0.046932  -0.025499
    21  C   -0.000116  -0.007285  -0.068047   0.541019  -0.042557  -0.048108
    22  H    0.000249   0.000000   0.000000   0.000000   0.000000   0.000000
    23  H   -0.000043   0.000001   0.000000   0.000000   0.000000   0.000000
    24  H    0.000536  -0.000061  -0.000003   0.000001   0.000000   0.000000
    25  H    0.000143   0.000000   0.000000   0.000000   0.000000   0.000000
    26  H    0.000013   0.000000   0.000000   0.000000   0.000000   0.000000
    27  H   -0.000024   0.000000   0.000000   0.000000   0.000000   0.000000
    28  H    0.001256  -0.005175   0.000113  -0.000018   0.000001   0.000000
    29  H    0.009193  -0.007743   0.001225   0.000193  -0.000006   0.000000
    30  H    0.005478   0.002529   0.000074  -0.000008   0.000001   0.000000
    31  H    0.326443  -0.007706  -0.003246   0.011055   0.010113   0.000435
    32  H    0.325907   0.002581   0.000181   0.000003   0.000100   0.000004
    33  H   -0.005191   0.360069  -0.041220  -0.006280   0.000366  -0.000014
    34  H    0.005794   0.361041  -0.026401   0.003557  -0.000116   0.000002
    35  H   -0.000071  -0.035240   0.359308  -0.030136   0.001658  -0.000218
    36  H   -0.000959  -0.039807   0.361834  -0.030643  -0.003991   0.000221
    37  H   -0.000206   0.000274  -0.011270  -0.037509   0.351482  -0.042225
    38  H   -0.000009   0.000001  -0.000181   0.003673  -0.038326   0.358356
    39  H    0.000000   0.000000   0.000007   0.000665   0.004690  -0.042955
    40  H    0.000000   0.000001  -0.000188   0.003786   0.000765   0.004655
    41  H   -0.000024   0.000204  -0.008980  -0.049193   0.006209   0.000324
              19         20         21         22         23         24
     1  C    0.000000   0.000000   0.000000   0.374690   0.376117   0.371722
     2  N    0.000000   0.000000   0.000000  -0.034878  -0.043247  -0.037522
     3  C    0.000000   0.000000   0.000000  -0.004022  -0.001815   0.005077
     4  S    0.000000   0.000000   0.000000   0.002616  -0.008134   0.000940
     5  O    0.000000   0.000000   0.000000  -0.000052  -0.000041   0.000001
     6  O    0.000000   0.000000   0.000000   0.000150   0.006396  -0.002527
     7  N    0.000000   0.000000  -0.000006  -0.000162  -0.000217   0.008457
     8  C    0.000002  -0.000016  -0.000254  -0.000001  -0.000020  -0.000167
     9  C    0.000000   0.000000  -0.000005   0.000001  -0.000001   0.000040
    10  S   -0.000003  -0.000001  -0.000017  -0.000013   0.000000   0.000016
    11  O    0.000000   0.000000   0.000000   0.000000   0.000000   0.000000
    12  O   -0.000001   0.000000  -0.000010   0.000000   0.000000   0.000000
    13  C    0.000037   0.000083  -0.000116   0.000249  -0.000043   0.000536
    14  C    0.000005   0.000179  -0.007285   0.000000   0.000001  -0.000061
    15  C    0.000363   0.006170  -0.068047   0.000000   0.000000  -0.000003
    16  C   -0.034671  -0.017474   0.541019   0.000000   0.000000   0.000001
    17  C   -0.034869  -0.046932  -0.042557   0.000000   0.000000   0.000000
    18  C    0.548620  -0.025499  -0.048108   0.000000   0.000000   0.000000
    19  C    4.856830   0.547714  -0.035698   0.000000   0.000000   0.000000
    20  C    0.547714   4.862326   0.529470   0.000000   0.000000   0.000000
    21  C   -0.035698   0.529470   4.985520   0.000000   0.000000   0.000001
    22  H    0.000000   0.000000   0.000000   0.546643  -0.034968  -0.026250
    23  H    0.000000   0.000000   0.000000  -0.034968   0.552104  -0.033550
    24  H    0.000000   0.000000   0.000001  -0.026250  -0.033550   0.555244
    25  H    0.000000   0.000000   0.000000   0.005324  -0.001599   0.000059
    26  H    0.000000   0.000000   0.000000   0.000029  -0.000192  -0.000185
    27  H    0.000000   0.000000   0.000000  -0.001357   0.008100  -0.000257
    28  H    0.000000   0.000000  -0.000022   0.000009   0.000033   0.000904
    29  H    0.000000   0.000000   0.000002   0.000000   0.000000   0.000000
    30  H    0.000000   0.000000   0.000000   0.000000   0.000000   0.000000
    31  H   -0.000077  -0.000328   0.000623  -0.000004   0.000001   0.000029
    32  H   -0.000001  -0.000001  -0.000005  -0.000368   0.000250  -0.000686
    33  H   -0.000006  -0.000227   0.005468   0.000000   0.000000   0.000120
    34  H    0.000000   0.000003   0.000327   0.000000   0.000000  -0.000004
    35  H    0.000032  -0.000054  -0.004927   0.000000   0.000000   0.000000
    36  H   -0.000006  -0.000151   0.004213   0.000000   0.000000   0.000000
    37  H    0.004317   0.000313   0.005919   0.000000   0.000000   0.000000
    38  H   -0.043704   0.004565   0.000865   0.000000   0.000000   0.000000
    39  H    0.359897  -0.043411   0.004837   0.000000   0.000000   0.000000
    40  H   -0.042787   0.357361  -0.040974   0.000000   0.000000   0.000000
    41  H    0.004863  -0.044317   0.352819   0.000000   0.000000   0.000000
              25         26         27         28         29         30
     1  C   -0.003056   0.004383  -0.002689  -0.000156   0.000000  -0.000006
     2  N   -0.038577  -0.029732  -0.047381   0.000448  -0.000004   0.000034
     3  C    0.375807   0.379076   0.370297  -0.000028   0.000000  -0.000001
     4  S    0.001655  -0.004228  -0.002550  -0.008155   0.000390  -0.001088
     5  O    0.000339   0.010047  -0.000655   0.001489   0.000255   0.019310
     6  O   -0.000108  -0.000070   0.001988   0.003612   0.000001  -0.000052
     7  N   -0.000086   0.000116  -0.000103   0.298073   0.002148  -0.004190
     8  C    0.000009   0.000019  -0.000003  -0.030573  -0.028787  -0.020892
     9  C   -0.000002  -0.000033  -0.000002   0.004649   0.337830   0.329306
    10  S   -0.000010   0.000407   0.000007  -0.000215  -0.011312  -0.005595
    11  O   -0.000009   0.000805   0.000003   0.000003   0.000876  -0.000054
    12  O    0.000000   0.000000   0.000000   0.000001  -0.000839   0.000886
    13  C    0.000143   0.000013  -0.000024   0.001256   0.009193   0.005478
    14  C    0.000000   0.000000   0.000000  -0.005175  -0.007743   0.002529
    15  C    0.000000   0.000000   0.000000   0.000113   0.001225   0.000074
    16  C    0.000000   0.000000   0.000000  -0.000018   0.000193  -0.000008
    17  C    0.000000   0.000000   0.000000   0.000001  -0.000006   0.000001
    18  C    0.000000   0.000000   0.000000   0.000000   0.000000   0.000000
    19  C    0.000000   0.000000   0.000000   0.000000   0.000000   0.000000
    20  C    0.000000   0.000000   0.000000   0.000000   0.000000   0.000000
    21  C    0.000000   0.000000   0.000000  -0.000022   0.000002   0.000000
    22  H    0.005324   0.000029  -0.001357   0.000009   0.000000   0.000000
    23  H   -0.001599  -0.000192   0.008100   0.000033   0.000000   0.000000
    24  H    0.000059  -0.000185  -0.000257   0.000904   0.000000   0.000000
    25  H    0.554954  -0.019673  -0.041733  -0.000001   0.000000   0.000000
    26  H   -0.019673   0.466511  -0.029148  -0.000006   0.000000   0.000033
    27  H   -0.041733  -0.029148   0.584360   0.000003   0.000000  -0.000001
    28  H   -0.000001  -0.000006   0.000003   0.363794  -0.000031   0.000047
    29  H    0.000000   0.000000   0.000000  -0.000031   0.501618  -0.014909
    30  H    0.000000   0.000033  -0.000001   0.000047  -0.014909   0.424367
    31  H   -0.000003   0.000000   0.000000   0.000088  -0.000280  -0.000226
    32  H   -0.000392  -0.000159   0.000115   0.000103  -0.000248  -0.000182
    33  H    0.000000   0.000000   0.000000   0.008573   0.000248  -0.000107
    34  H    0.000000   0.000000   0.000000   0.000129   0.002531   0.000091
    35  H    0.000000   0.000000   0.000000  -0.000014  -0.000236   0.000002
    36  H    0.000000   0.000000   0.000000   0.000027   0.002329   0.000113
    37  H    0.000000   0.000000   0.000000   0.000000   0.000001  -0.000001
    38  H    0.000000   0.000000   0.000000   0.000000   0.000000   0.000000
    39  H    0.000000   0.000000   0.000000   0.000000   0.000000   0.000000
    40  H    0.000000   0.000000   0.000000   0.000000   0.000000   0.000000
    41  H    0.000000   0.000000   0.000000  -0.000006   0.000001   0.000000
              31         32         33         34         35         36
     1  C   -0.000061  -0.001705  -0.000013   0.000001   0.000000   0.000000
     2  N    0.000239   0.019652  -0.000014   0.000005   0.000000   0.000000
     3  C    0.000002  -0.000584   0.000000   0.000000   0.000000   0.000000
     4  S    0.000147  -0.000266  -0.000095  -0.000036   0.000000   0.000004
     5  O   -0.000003  -0.000179   0.000002  -0.000011   0.000000   0.000000
     6  O    0.000000   0.000018  -0.000010  -0.000005   0.000000   0.000000
     7  N    0.002151  -0.009210  -0.005095   0.000010  -0.000110   0.000120
     8  C   -0.024385  -0.021993  -0.035755  -0.037872   0.004282  -0.006124
     9  C    0.008675   0.004953   0.005568  -0.009161   0.000000   0.000569
    10  S   -0.009843  -0.005292  -0.000306  -0.000123   0.000109   0.003824
    11  O    0.000866   0.000683   0.000001   0.000001   0.000000   0.000037
    12  O   -0.001353   0.001019   0.000003   0.000004   0.000103   0.010834
    13  C    0.326443   0.325907  -0.005191   0.005794  -0.000071  -0.000959
    14  C   -0.007706   0.002581   0.360069   0.361041  -0.035240  -0.039807
    15  C   -0.003246   0.000181  -0.041220  -0.026401   0.359308   0.361834
    16  C    0.011055   0.000003  -0.006280   0.003557  -0.030136  -0.030643
    17  C    0.010113   0.000100   0.000366  -0.000116   0.001658  -0.003991
    18  C    0.000435   0.000004  -0.000014   0.000002  -0.000218   0.000221
    19  C   -0.000077  -0.000001  -0.000006   0.000000   0.000032  -0.000006
    20  C   -0.000328  -0.000001  -0.000227   0.000003  -0.000054  -0.000151
    21  C    0.000623  -0.000005   0.005468   0.000327  -0.004927   0.004213
    22  H   -0.000004  -0.000368   0.000000   0.000000   0.000000   0.000000
    23  H    0.000001   0.000250   0.000000   0.000000   0.000000   0.000000
    24  H    0.000029  -0.000686   0.000120  -0.000004   0.000000   0.000000
    25  H   -0.000003  -0.000392   0.000000   0.000000   0.000000   0.000000
    26  H    0.000000  -0.000159   0.000000   0.000000   0.000000   0.000000
    27  H    0.000000   0.000115   0.000000   0.000000   0.000000   0.000000
    28  H    0.000088   0.000103   0.008573   0.000129  -0.000014   0.000027
    29  H   -0.000280  -0.000248   0.000248   0.002531  -0.000236   0.002329
    30  H   -0.000226  -0.000182  -0.000107   0.000091   0.000002   0.000113
    31  H    0.477721  -0.015300   0.001555   0.000161   0.000122  -0.000191
    32  H   -0.015300   0.463411  -0.000034  -0.000100   0.000002  -0.000003
    33  H    0.001555  -0.000034   0.593185  -0.036130   0.000780   0.004428
    34  H    0.000161  -0.000100  -0.036130   0.577448  -0.007385   0.000321
    35  H    0.000122   0.000002   0.000780  -0.007385   0.574875  -0.028758
    36  H   -0.000191  -0.000003   0.004428   0.000321  -0.028758   0.531771
    37  H   -0.000103   0.000005   0.000007  -0.000009   0.000143   0.005040
    38  H    0.000022   0.000000   0.000000   0.000000   0.000004  -0.000007
    39  H    0.000000   0.000000   0.000000   0.000000   0.000000   0.000000
    40  H   -0.000001   0.000000   0.000014   0.000000  -0.000002   0.000003
    41  H    0.000050   0.000000   0.004438  -0.000203   0.002280   0.000027
              37         38         39         40         41
     1  C    0.000000   0.000000   0.000000   0.000000   0.000000
     2  N    0.000000   0.000000   0.000000   0.000000   0.000000
     3  C    0.000000   0.000000   0.000000   0.000000   0.000000
     4  S    0.000000   0.000000   0.000000   0.000000   0.000000
     5  O    0.000000   0.000000   0.000000   0.000000   0.000000
     6  O    0.000000   0.000000   0.000000   0.000000   0.000000
     7  N    0.000000   0.000000   0.000000   0.000000  -0.000001
     8  C   -0.000001   0.000000   0.000000   0.000000   0.000172
     9  C    0.000133   0.000000   0.000000   0.000000   0.000000
    10  S    0.000104   0.000005   0.000000   0.000000  -0.000002
    11  O    0.000007   0.000000   0.000000   0.000000   0.000000
    12  O    0.013195  -0.000001   0.000000   0.000000   0.000000
    13  C   -0.000206  -0.000009   0.000000   0.000000  -0.000024
    14  C    0.000274   0.000001   0.000000   0.000001   0.000204
    15  C   -0.011270  -0.000181   0.000007  -0.000188  -0.008980
    16  C   -0.037509   0.003673   0.000665   0.003786  -0.049193
    17  C    0.351482  -0.038326   0.004690   0.000765   0.006209
    18  C   -0.042225   0.358356  -0.042955   0.004655   0.000324
    19  C    0.004317  -0.043704   0.359897  -0.042787   0.004863
    20  C    0.000313   0.004565  -0.043411   0.357361  -0.044317
    21  C    0.005919   0.000865   0.004837  -0.040974   0.352819
    22  H    0.000000   0.000000   0.000000   0.000000   0.000000
    23  H    0.000000   0.000000   0.000000   0.000000   0.000000
    24  H    0.000000   0.000000   0.000000   0.000000   0.000000
    25  H    0.000000   0.000000   0.000000   0.000000   0.000000
    26  H    0.000000   0.000000   0.000000   0.000000   0.000000
    27  H    0.000000   0.000000   0.000000   0.000000   0.000000
    28  H    0.000000   0.000000   0.000000   0.000000  -0.000006
    29  H    0.000001   0.000000   0.000000   0.000000   0.000001
    30  H   -0.000001   0.000000   0.000000   0.000000   0.000000
    31  H   -0.000103   0.000022   0.000000  -0.000001   0.000050
    32  H    0.000005   0.000000   0.000000   0.000000   0.000000
    33  H    0.000007   0.000000   0.000000   0.000014   0.004438
    34  H   -0.000009   0.000000   0.000000   0.000000  -0.000203
    35  H    0.000143   0.000004   0.000000  -0.000002   0.002280
    36  H    0.005040  -0.000007   0.000000   0.000003   0.000027
    37  H    0.534565  -0.004747  -0.000154   0.000015  -0.000166
    38  H   -0.004747   0.587600  -0.005532  -0.000187   0.000018
    39  H   -0.000154  -0.005532   0.595855  -0.005530  -0.000183
    40  H    0.000015  -0.000187  -0.005530   0.598680  -0.005763
    41  H   -0.000166   0.000018  -0.000183  -0.005763   0.616811
 Mulliken charges:
               1
     1  C   -0.316960
     2  N   -0.532416
     3  C   -0.322503
     4  S    1.330179
     5  O   -0.543186
     6  O   -0.526391
     7  N   -0.732181
     8  C    0.226888
     9  C   -0.516300
    10  S    1.125400
    11  O   -0.511480
    12  O   -0.540896
    13  C   -0.526590
    14  C   -0.314178
    15  C   -0.379403
    16  C    0.149421
    17  C   -0.210308
    18  C   -0.129848
    19  C   -0.130857
    20  C   -0.129771
    21  C   -0.183053
    22  H    0.172365
    23  H    0.180825
    24  H    0.158066
    25  H    0.166956
    26  H    0.221985
    27  H    0.161028
    28  H    0.361046
    29  H    0.205558
    30  H    0.265040
    31  H    0.222612
    32  H    0.237723
    33  H    0.145675
    34  H    0.166132
    35  H    0.163453
    36  H    0.184924
    37  H    0.180871
    38  H    0.137586
    39  H    0.131814
    40  H    0.130155
    41  H    0.120621
 Sum of Mulliken charges =   0.00000
 Mulliken charges with hydrogens summed into heavy atoms:
               1
     1  C    0.194296
     2  N   -0.532416
     3  C    0.227465
     4  S    1.330179
     5  O   -0.543186
     6  O   -0.526391
     7  N   -0.371135
     8  C    0.226888
     9  C   -0.045703
    10  S    1.125400
    11  O   -0.511480
    12  O   -0.540896
    13  C   -0.066255
    14  C   -0.002371
    15  C   -0.031026
    16  C    0.149421
    17  C   -0.029437
    18  C    0.007738
    19  C    0.000956
    20  C    0.000384
    21  C   -0.062432
 Electronic spatial extent (au):  <R**2>=           7593.0690
 Charge=              0.0000 electrons
 Dipole moment (field-independent basis, Debye):
    X=             -2.2612    Y=             -5.3184    Z=              0.7747  Tot=              5.8308
 Quadrupole moment (field-independent basis, Debye-Ang):
   XX=           -149.5742   YY=           -148.4180   ZZ=           -129.7565
   XY=              3.3808   XZ=              9.9297   YZ=             -8.9329
 Traceless Quadrupole moment (field-independent basis, Debye-Ang):
   XX=             -6.9913   YY=             -5.8351   ZZ=             12.8264
   XY=              3.3808   XZ=              9.9297   YZ=             -8.9329
 Octapole moment (field-independent basis, Debye-Ang**2):
  XXX=              5.7549  YYY=            -46.7460  ZZZ=              4.0673  XYY=             -1.9044
  XXY=             -1.5714  XXZ=             77.6293  XZZ=              9.4041  YZZ=              1.7087
  YYZ=            -12.5202  XYZ=            -19.0481
 Hexadecapole moment (field-independent basis, Debye-Ang**3):
 XXXX=          -6902.1850 YYYY=          -2096.9057 ZZZZ=          -1184.2153 XXXY=             66.0337
 XXXZ=             29.6019 YYYX=             34.4008 YYYZ=            -49.9249 ZZZX=             23.6422
 ZZZY=             -5.0719 XXYY=          -1468.7941 XXZZ=          -1251.3984 YYZZ=           -530.2540
 XXYZ=            -62.6585 YYXZ=              6.1745 ZZXY=            -17.0338
 N-N= 2.217012456363D+03 E-N=-8.459861314005D+03  KE= 1.702513489804D+03
 No NMR shielding tensors so no spin-rotation constants.
 Leave Link  601 at Fri Oct  2 06:17:40 2020, MaxMem=  2147483648 cpu:         0.5
 (Enter /prod/apps/gaussian/g09d1/l9999.exe)
 1\1\GINC-PIRINEUS36\SP\RB3LYP\6-31G(d)\C13H20N2O4S2\UBAFAR01\02-Oct-20
 20\0\\#p b3lyp/6-31G(d)\\SM40.n.12.pdb.xyz\\0,1\C,0,2.785,-1.625,3.531
 \N,0,2.342,-2.382,2.352\C,0,0.956,-2.87,2.45\S,0,2.717,-1.63,0.879\O,0
 ,2.005,-2.395,-0.145\O,0,2.556,-0.176,0.97\N,0,4.349,-1.851,0.677\C,0,
 5.091,-3.108,0.481\C,0,4.54,-3.94,-0.727\S,0,4.385,-5.421,0.33\O,0,3.0
 01,-5.896,0.488\O,0,5.45,-6.406,0.05\C,0,4.881,-4.198,1.596\C,0,6.555,
 -2.666,0.27\C,0,7.617,-3.78,0.122\C,0,8.229,-4.254,1.429\C,0,8.151,-5.
 597,1.816\C,0,8.74,-6.034,3.004\C,0,9.418,-5.133,3.825\C,0,9.501,-3.79
 ,3.45\C,0,8.911,-3.357,2.263\H,0,2.668,-2.273,4.401\H,0,2.205,-0.707,3
 .682\H,0,3.841,-1.369,3.435\H,0,0.902,-3.507,3.335\H,0,0.722,-3.461,1.
 568\H,0,0.229,-2.055,2.555\H,0,4.879,-1.074,1.06\H,0,5.236,-4.084,-1.5
 53\H,0,3.564,-3.606,-1.074\H,0,5.771,-4.497,2.152\H,0,4.038,-3.978,2.2
 52\H,0,6.847,-2.024,1.108\H,0,6.558,-2.035,-0.625\H,0,8.416,-3.371,-0.
 508\H,0,7.21,-4.639,-0.42\H,0,7.608,-6.294,1.186\H,0,8.667,-7.079,3.28
 7\H,0,9.877,-5.471,4.748\H,0,10.027,-3.08,4.08\H,0,8.986,-2.311,1.977\
 \Version=AM64L-G09RevD.01\State=1-A\HF=-1714.0353357\RMSD=8.454e-09\Di
 pole=1.2529949,1.1763749,1.5194375\Quadrupole=0.8816964,-10.6466956,9.
 7649992,3.559032,-7.4762488,0.1072562\PG=C01 [X(C13H20N2O4S2)]\\@


 MOST BUREAUCRACIES FUNCTION LIKE A SEPTIC TANK.
 THE LARGE CHUNKS RISE TO THE TOP.
 Job cpu time:       0 days  0 hours  6 minutes 39.6 seconds.
 File lengths (MBytes):  RWF=     73 Int=      0 D2E=      0 Chk=      6 Scr=      1
 Normal termination of Gaussian 09 at Fri Oct  2 06:17:40 2020.
 Initial command:
 /prod/apps/gaussian/g09d1/l1.exe "/tmp/ubafar01/1462926/Gau-71939.inp" -scrdir="/tmp/ubafar01/1462926/"
 Entering Link 1 = /prod/apps/gaussian/g09d1/l1.exe PID=     72048.
  
 Copyright (c) 1988,1990,1992,1993,1995,1998,2003,2009,2013,
            Gaussian, Inc.  All Rights Reserved.
  
 This is part of the Gaussian(R) 09 program.  It is based on
 the Gaussian(R) 03 system (copyright 2003, Gaussian, Inc.),
 the Gaussian(R) 98 system (copyright 1998, Gaussian, Inc.),
 the Gaussian(R) 94 system (copyright 1995, Gaussian, Inc.),
 the Gaussian 92(TM) system (copyright 1992, Gaussian, Inc.),
 the Gaussian 90(TM) system (copyright 1990, Gaussian, Inc.),
[...]
     9  C   -0.206855  -0.040399  -0.004847   0.000099  -0.000176  -0.000002
    10  S    0.159841   0.003317  -0.000723  -0.000968   0.000699   0.000059
    11  O   -0.045424  -0.000058  -0.000012   0.000001  -0.000005   0.000000
    12  O   -0.042174  -0.000495  -0.003481  -0.001202  -0.004248   0.000099
    13  C    5.756589  -0.044490  -0.002387  -0.003545  -0.006038  -0.000335
    14  C   -0.044490   5.135350   0.330151  -0.032512   0.000786  -0.000193
    15  C   -0.002387   0.330151   5.208097   0.346807  -0.049507   0.007292
    16  C   -0.003545  -0.032512   0.346807   4.668313   0.547482  -0.023288
    17  C   -0.006038   0.000786  -0.049507   0.547482   5.007134   0.509234
    18  C   -0.000335  -0.000193   0.007292  -0.023288   0.509234   4.893923
    19  C    0.000038   0.000006   0.000340  -0.034774  -0.035795   0.547582
    20  C    0.000081   0.000177   0.006057  -0.018612  -0.046447  -0.026772
    21  C   -0.000116  -0.007077  -0.067449   0.540466  -0.043316  -0.048173
    22  H    0.000232   0.000000   0.000000   0.000000   0.000000   0.000000
    23  H   -0.000043   0.000001   0.000000   0.000000   0.000000   0.000000
    24  H    0.000525  -0.000052  -0.000003   0.000001   0.000000   0.000000
    25  H    0.000139   0.000000   0.000000   0.000000   0.000000   0.000000
    26  H    0.000012   0.000000   0.000000   0.000000   0.000000   0.000000
    27  H   -0.000024   0.000000   0.000000   0.000000   0.000000   0.000000
    28  H    0.001138  -0.004326   0.000122  -0.000020   0.000000   0.000000
    29  H    0.008778  -0.007343   0.001149   0.000181  -0.000007   0.000000
    30  H    0.005649   0.002515   0.000081  -0.000008   0.000001   0.000000
    31  H    0.327931  -0.007437  -0.003124   0.010833   0.010399   0.000444
    32  H    0.326779   0.002459   0.000179   0.000007   0.000098   0.000003
    33  H   -0.005028   0.364919  -0.040821  -0.006411   0.000345  -0.000012
    34  H    0.005703   0.363985  -0.025914   0.003422  -0.000115   0.000002
    35  H   -0.000075  -0.033501   0.362065  -0.029632   0.001729  -0.000215
    36  H   -0.000976  -0.039878   0.361550  -0.032002  -0.004332   0.000230
    37  H   -0.000254   0.000284  -0.011534  -0.038707   0.351559  -0.044183
    38  H   -0.000009   0.000001  -0.000176   0.003695  -0.039036   0.359406
    39  H    0.000000   0.000000   0.000007   0.000645   0.004619  -0.042624
    40  H    0.000000   0.000001  -0.000183   0.003690   0.000760   0.004588
    41  H   -0.000023   0.000313  -0.008526  -0.047566   0.006014   0.000325
              19         20         21         22         23         24
     1  C    0.000000   0.000000   0.000000   0.377051   0.377045   0.373225
     2  N    0.000000   0.000000   0.000000  -0.033692  -0.043453  -0.037091
     3  C    0.000000   0.000000   0.000000  -0.004067  -0.001934   0.004942
     4  S    0.000000   0.000000   0.000000   0.002561  -0.008660   0.001531
     5  O    0.000000   0.000000   0.000000  -0.000051  -0.000041   0.000002
     6  O    0.000000   0.000000   0.000000   0.000142   0.006329  -0.002518
     7  N    0.000000   0.000000  -0.000006  -0.000154  -0.000222   0.007993
     8  C    0.000002  -0.000016  -0.000276   0.000000  -0.000018  -0.000188
     9  C    0.000000   0.000000  -0.000003   0.000001  -0.000001   0.000038
    10  S   -0.000002  -0.000002  -0.000010  -0.000014   0.000001   0.000014
    11  O    0.000000   0.000000   0.000000   0.000000   0.000000   0.000000
    12  O    0.000000   0.000000  -0.000009   0.000000   0.000000   0.000000
    13  C    0.000038   0.000081  -0.000116   0.000232  -0.000043   0.000525
    14  C    0.000006   0.000177  -0.007077   0.000000   0.000001  -0.000052
    15  C    0.000340   0.006057  -0.067449   0.000000   0.000000  -0.000003
    16  C   -0.034774  -0.018612   0.540466   0.000000   0.000000   0.000001
    17  C   -0.035795  -0.046447  -0.043316   0.000000   0.000000   0.000000
    18  C    0.547582  -0.026772  -0.048173   0.000000   0.000000   0.000000
    19  C    4.868169   0.545721  -0.036420   0.000000   0.000000   0.000000
    20  C    0.545721   4.871255   0.528142   0.000000   0.000000   0.000000
    21  C   -0.036420   0.528142   4.988463   0.000000   0.000000   0.000001
    22  H    0.000000   0.000000   0.000000   0.526798  -0.033196  -0.024868
    23  H    0.000000   0.000000   0.000000  -0.033196   0.549840  -0.032728
    24  H    0.000000   0.000000   0.000001  -0.024868  -0.032728   0.539025
    25  H    0.000000   0.000000   0.000000   0.005011  -0.001533   0.000055
    26  H    0.000000   0.000000   0.000000   0.000034  -0.000188  -0.000188
    27  H    0.000000   0.000000   0.000000  -0.001275   0.007859  -0.000243
    28  H    0.000000   0.000000  -0.000020   0.000007   0.000035   0.000782
    29  H    0.000000   0.000000   0.000002   0.000000   0.000000   0.000000
    30  H    0.000000   0.000000   0.000000   0.000000   0.000000   0.000000
    31  H   -0.000085  -0.000318   0.000601  -0.000004   0.000001   0.000022
    32  H   -0.000001  -0.000001  -0.000005  -0.000362   0.000243  -0.000692
    33  H   -0.000006  -0.000193   0.005633   0.000000   0.000000   0.000108
    34  H    0.000000   0.000003   0.000320   0.000000   0.000000  -0.000003
    35  H    0.000032  -0.000047  -0.005020   0.000000   0.000000   0.000000
    36  H   -0.000006  -0.000154   0.004339   0.000000   0.000000   0.000000
    37  H    0.004475   0.000265   0.006127   0.000000   0.000000   0.000000
    38  H   -0.042895   0.004555   0.000807   0.000000   0.000000   0.000000
    39  H    0.361581  -0.042615   0.004758   0.000000   0.000000   0.000000
    40  H   -0.042367   0.359322  -0.039822   0.000000   0.000000   0.000000
    41  H    0.004713  -0.042670   0.355812   0.000000   0.000000   0.000000
              25         26         27         28         29         30
     1  C   -0.002798   0.004422  -0.002334  -0.000137   0.000000  -0.000005
     2  N   -0.037493  -0.031026  -0.047129   0.000379  -0.000004   0.000022
     3  C    0.378052   0.377937   0.371571  -0.000022   0.000000  -0.000002
     4  S    0.001668  -0.004468  -0.002684  -0.007758   0.000361  -0.000890
     5  O    0.000326   0.009992  -0.000636   0.001326   0.000244   0.019360
     6  O   -0.000106  -0.000068   0.001975   0.003079   0.000001  -0.000053
     7  N   -0.000087   0.000121  -0.000102   0.299700   0.002064  -0.004445
     8  C    0.000009   0.000018  -0.000003  -0.028364  -0.027847  -0.021440
     9  C   -0.000002  -0.000033  -0.000002   0.004234   0.340675   0.329147
    10  S   -0.000012   0.000409   0.000007  -0.000205  -0.011349  -0.005927
    11  O   -0.000009   0.000804   0.000003   0.000002   0.000850  -0.000037
    12  O    0.000000   0.000000   0.000000   0.000001  -0.000944   0.000909
    13  C    0.000139   0.000012  -0.000024   0.001138   0.008778   0.005649
    14  C    0.000000   0.000000   0.000000  -0.004326  -0.007343   0.002515
    15  C    0.000000   0.000000   0.000000   0.000122   0.001149   0.000081
    16  C    0.000000   0.000000   0.000000  -0.000020   0.000181  -0.000008
    17  C    0.000000   0.000000   0.000000   0.000000  -0.000007   0.000001
    18  C    0.000000   0.000000   0.000000   0.000000   0.000000   0.000000
    19  C    0.000000   0.000000   0.000000   0.000000   0.000000   0.000000
    20  C    0.000000   0.000000   0.000000   0.000000   0.000000   0.000000
    21  C    0.000000   0.000000   0.000000  -0.000020   0.000002   0.000000
    22  H    0.005011   0.000034  -0.001275   0.000007   0.000000   0.000000
    23  H   -0.001533  -0.000188   0.007859   0.000035   0.000000   0.000000
    24  H    0.000055  -0.000188  -0.000243   0.000782   0.000000   0.000000
    25  H    0.537091  -0.020084  -0.039336  -0.000001   0.000000   0.000000
    26  H   -0.020084   0.484865  -0.030086  -0.000005   0.000000   0.000035
    27  H   -0.039336  -0.030086   0.576577   0.000002   0.000000  -0.000001
    28  H   -0.000001  -0.000005   0.000002   0.335090  -0.000026   0.000052
    29  H    0.000000   0.000000   0.000000  -0.000026   0.481803  -0.013910
    30  H    0.000000   0.000035  -0.000001   0.000052  -0.013910   0.431183
    31  H   -0.000003   0.000000   0.000000   0.000080  -0.000271  -0.000225
    32  H   -0.000375  -0.000162   0.000113   0.000113  -0.000233  -0.000206
    33  H    0.000000   0.000000   0.000000   0.007488   0.000228  -0.000103
    34  H    0.000000   0.000000   0.000000   0.000109   0.002383   0.000084
    35  H    0.000000   0.000000   0.000000  -0.000013  -0.000229   0.000002
    36  H    0.000000   0.000000   0.000000   0.000025   0.002413   0.000110
    37  H    0.000000   0.000000   0.000000   0.000000   0.000000  -0.000001
    38  H    0.000000   0.000000   0.000000   0.000000   0.000000   0.000000
    39  H    0.000000   0.000000   0.000000   0.000000   0.000000   0.000000
    40  H    0.000000   0.000000   0.000000   0.000000   0.000000   0.000000
    41  H    0.000000   0.000000   0.000000  -0.000005   0.000000   0.000000
              31         32         33         34         35         36
     1  C   -0.000062  -0.001788  -0.000011   0.000001   0.000000   0.000000
     2  N    0.000240   0.019900  -0.000014   0.000004   0.000000   0.000000
     3  C    0.000002  -0.000617   0.000000   0.000000   0.000000   0.000000
     4  S    0.000152  -0.000090  -0.000057  -0.000016   0.000000   0.000005
     5  O   -0.000003  -0.000175   0.000002  -0.000011   0.000000   0.000000
     6  O    0.000000   0.000020  -0.000009  -0.000005   0.000000   0.000000
     7  N    0.002080  -0.009254  -0.004636  -0.000238  -0.000105   0.000115
     8  C   -0.024415  -0.022022  -0.035304  -0.037722   0.004202  -0.006521
     9  C    0.008557   0.004862   0.005420  -0.008964  -0.000001   0.000790
    10  S   -0.010289  -0.005570  -0.000293  -0.000127   0.000087   0.003529
    11  O    0.000862   0.000578   0.000001   0.000001   0.000000   0.000035
    12  O   -0.001435   0.001011   0.000002   0.000003   0.000097   0.009883
    13  C    0.327931   0.326779  -0.005028   0.005703  -0.000075  -0.000976
    14  C   -0.007437   0.002459   0.364919   0.363985  -0.033501  -0.039878
    15  C   -0.003124   0.000179  -0.040821  -0.025914   0.362065   0.361550
    16  C    0.010833   0.000007  -0.006411   0.003422  -0.029632  -0.032002
    17  C    0.010399   0.000098   0.000345  -0.000115   0.001729  -0.004332
    18  C    0.000444   0.000003  -0.000012   0.000002  -0.000215   0.000230
    19  C   -0.000085  -0.000001  -0.000006   0.000000   0.000032  -0.000006
    20  C   -0.000318  -0.000001  -0.000193   0.000003  -0.000047  -0.000154
    21  C    0.000601  -0.000005   0.005633   0.000320  -0.005020   0.004339
    22  H   -0.000004  -0.000362   0.000000   0.000000   0.000000   0.000000
    23  H    0.000001   0.000243   0.000000   0.000000   0.000000   0.000000
    24  H    0.000022  -0.000692   0.000108  -0.000003   0.000000   0.000000
    25  H   -0.000003  -0.000375   0.000000   0.000000   0.000000   0.000000
    26  H    0.000000  -0.000162   0.000000   0.000000   0.000000   0.000000
    27  H    0.000000   0.000113   0.000000   0.000000   0.000000   0.000000
    28  H    0.000080   0.000113   0.007488   0.000109  -0.000013   0.000025
    29  H   -0.000271  -0.000233   0.000228   0.002383  -0.000229   0.002413
    30  H   -0.000225  -0.000206  -0.000103   0.000084   0.000002   0.000110
    31  H    0.469684  -0.013983   0.001480   0.000153   0.000116  -0.000166
    32  H   -0.013983   0.454658  -0.000035  -0.000095   0.000002  -0.000005
    33  H    0.001480  -0.000035   0.569880  -0.033549   0.000674   0.004387
    34  H    0.000153  -0.000095  -0.033549   0.561151  -0.007366   0.000377
    35  H    0.000116   0.000002   0.000674  -0.007366   0.560266  -0.028760
    36  H   -0.000166  -0.000005   0.004387   0.000377  -0.028760   0.542381
    37  H   -0.000112   0.000006   0.000008  -0.000009   0.000137   0.005110
    38  H    0.000022   0.000000   0.000000   0.000000   0.000003  -0.000007
    39  H    0.000000   0.000000   0.000000   0.000000   0.000000   0.000000
    40  H   -0.000001   0.000000   0.000013   0.000000  -0.000002   0.000003
    41  H    0.000048   0.000000   0.004173  -0.000194   0.002142   0.000029
              37         38         39         40         41
     1  C    0.000000   0.000000   0.000000   0.000000   0.000000
     2  N    0.000000   0.000000   0.000000   0.000000   0.000000
     3  C    0.000000   0.000000   0.000000   0.000000   0.000000
     4  S    0.000000   0.000000   0.000000   0.000000   0.000000
     5  O    0.000000   0.000000   0.000000   0.000000   0.000000
     6  O    0.000000   0.000000   0.000000   0.000000   0.000000
     7  N    0.000000   0.000000   0.000000   0.000000  -0.000001
     8  C    0.000001   0.000000   0.000000   0.000000   0.000159
     9  C    0.000125   0.000000   0.000000   0.000000   0.000000
    10  S    0.000250   0.000004   0.000000   0.000000  -0.000002
    11  O    0.000007   0.000000   0.000000   0.000000   0.000000
    12  O    0.012789  -0.000001   0.000000   0.000000   0.000000
    13  C   -0.000254  -0.000009   0.000000   0.000000  -0.000023
    14  C    0.000284   0.000001   0.000000   0.000001   0.000313
    15  C   -0.011534  -0.000176   0.000007  -0.000183  -0.008526
    16  C   -0.038707   0.003695   0.000645   0.003690  -0.047566
    17  C    0.351559  -0.039036   0.004619   0.000760   0.006014
    18  C   -0.044183   0.359406  -0.042624   0.004588   0.000325
    19  C    0.004475  -0.042895   0.361581  -0.042367   0.004713
    20  C    0.000265   0.004555  -0.042615   0.359322  -0.042670
    21  C    0.006127   0.000807   0.004758  -0.039822   0.355812
    22  H    0.000000   0.000000   0.000000   0.000000   0.000000
    23  H    0.000000   0.000000   0.000000   0.000000   0.000000
    24  H    0.000000   0.000000   0.000000   0.000000   0.000000
    25  H    0.000000   0.000000   0.000000   0.000000   0.000000
    26  H    0.000000   0.000000   0.000000   0.000000   0.000000
    27  H    0.000000   0.000000   0.000000   0.000000   0.000000
    28  H    0.000000   0.000000   0.000000   0.000000  -0.000005
    29  H    0.000000   0.000000   0.000000   0.000000   0.000000
    30  H   -0.000001   0.000000   0.000000   0.000000   0.000000
    31  H   -0.000112   0.000022   0.000000  -0.000001   0.000048
    32  H    0.000006   0.000000   0.000000   0.000000   0.000000
    33  H    0.000008   0.000000   0.000000   0.000013   0.004173
    34  H   -0.000009   0.000000   0.000000   0.000000  -0.000194
    35  H    0.000137   0.000003   0.000000  -0.000002   0.002142
    36  H    0.005110  -0.000007   0.000000   0.000003   0.000029
    37  H    0.550128  -0.004865  -0.000155   0.000015  -0.000165
    38  H   -0.004865   0.582196  -0.005406  -0.000182   0.000017
    39  H   -0.000155  -0.005406   0.584246  -0.005333  -0.000175
    40  H    0.000015  -0.000182  -0.005333   0.584146  -0.005460
    41  H   -0.000165   0.000017  -0.000175  -0.005460   0.594563
 Mulliken charges:
               1
     1  C   -0.324149
     2  N   -0.534058
     3  C   -0.323234
     4  S    1.324311
     5  O   -0.558703
     6  O   -0.541757
     7  N   -0.738427
     8  C    0.223277
     9  C   -0.513673
    10  S    1.116586
    11  O   -0.534509
    12  O   -0.553991
    13  C   -0.523415
    14  C   -0.316668
    15  C   -0.378878
    16  C    0.146377
    17  C   -0.212345
    18  C   -0.137392
    19  C   -0.140306
    20  C   -0.137731
    21  C   -0.187747
    22  H    0.185845
    23  H    0.180663
    24  H    0.170310
    25  H    0.179488
    26  H    0.207659
    27  H    0.165746
    28  H    0.387139
    29  H    0.221032
    30  H    0.258104
    31  H    0.228227
    32  H    0.244641
    33  H    0.161722
    34  H    0.176629
    35  H    0.173414
    36  H    0.177497
    37  H    0.168701
    38  H    0.141869
    39  H    0.140453
    40  H    0.140813
    41  H    0.136479
 Sum of Mulliken charges =   0.00000
 Mulliken charges with hydrogens summed into heavy atoms:
               1
     1  C    0.212670
     2  N   -0.534058
     3  C    0.229660
     4  S    1.324311
     5  O   -0.558703
     6  O   -0.541757
     7  N   -0.351288
     8  C    0.223277
     9  C   -0.034537
    10  S    1.116586
    11  O   -0.534509
    12  O   -0.553991
    13  C   -0.050547
    14  C    0.021684
    15  C   -0.027967
    16  C    0.146377
    17  C   -0.043644
    18  C    0.004477
    19  C    0.000147
    20  C    0.003082
    21  C   -0.051269
 Electronic spatial extent (au):  <R**2>=           7594.0546
 Charge=              0.0000 electrons
 Dipole moment (field-independent basis, Debye):
    X=             -2.6632    Y=             -6.5658    Z=              0.6444  Tot=              7.1146
 Quadrupole moment (field-independent basis, Debye-Ang):
   XX=           -151.9985   YY=           -148.9993   ZZ=           -128.0766
   XY=              3.8887   XZ=             11.4722   YZ=             -9.7747
 Traceless Quadrupole moment (field-independent basis, Debye-Ang):
   XX=             -8.9737   YY=             -5.9745   ZZ=             14.9482
   XY=              3.8887   XZ=             11.4722   YZ=             -9.7747
 Octapole moment (field-independent basis, Debye-Ang**2):
  XXX=             -0.7655  YYY=            -57.7963  ZZZ=              3.8768  XYY=             -4.3288
  XXY=             -7.3711  XXZ=             81.9182  XZZ=              9.0928  YZZ=             -0.9114
  YYZ=            -13.8592  XYZ=            -21.1985
 Hexadecapole moment (field-independent basis, Debye-Ang**3):
 XXXX=          -6944.0225 YYYY=          -2106.8731 ZZZZ=          -1165.5849 XXXY=             82.1925
 XXXZ=             46.2967 YYYX=             40.4957 YYYZ=            -57.8387 ZZZX=             34.9358
 ZZZY=             -9.7164 XXYY=          -1466.9710 XXZZ=          -1242.2355 YYZZ=           -526.8319
 XXYZ=            -70.0070 YYXZ=              9.0805 ZZXY=            -17.8339
 N-N= 2.216996971338D+03 E-N=-8.460037890854D+03  KE= 1.702525355312D+03
 No NMR shielding tensors so no spin-rotation constants.
 Leave Link  601 at Fri Oct  2 06:22:41 2020, MaxMem=  2147483648 cpu:         0.5
 (Enter /prod/apps/gaussian/g09d1/l9999.exe)
 1\1\GINC-PIRINEUS36\SP\RB3LYP\6-31G(d)\C13H20N2O4S2\UBAFAR01\02-Oct-20
 20\0\\#p b3lyp/6-31G(d) scrf=(iefpcm,read,solvent=n-Octanol) geom=allc
 heck guess=read\\SM40.n.12.pdb.xyz\\0,1\C,0,2.785,-1.625,3.531\N,0,2.3
 42,-2.382,2.352\C,0,0.956,-2.87,2.45\S,0,2.717,-1.63,0.879\O,0,2.005,-
 2.395,-0.145\O,0,2.556,-0.176,0.97\N,0,4.349,-1.851,0.677\C,0,5.091,-3
 .108,0.481\C,0,4.54,-3.94,-0.727\S,0,4.385,-5.421,0.33\O,0,3.001,-5.89
 6,0.488\O,0,5.45,-6.406,0.05\C,0,4.881,-4.198,1.596\C,0,6.555,-2.666,0
 .27\C,0,7.617,-3.78,0.122\C,0,8.229,-4.254,1.429\C,0,8.151,-5.597,1.81
 6\C,0,8.74,-6.034,3.004\C,0,9.418,-5.133,3.825\C,0,9.501,-3.79,3.45\C,
 0,8.911,-3.357,2.263\H,0,2.668,-2.273,4.401\H,0,2.205,-0.707,3.682\H,0
 ,3.841,-1.369,3.435\H,0,0.902,-3.507,3.335\H,0,0.722,-3.461,1.568\H,0,
 0.229,-2.055,2.555\H,0,4.879,-1.074,1.06\H,0,5.236,-4.084,-1.553\H,0,3
 .564,-3.606,-1.074\H,0,5.771,-4.497,2.152\H,0,4.038,-3.978,2.252\H,0,6
 .847,-2.024,1.108\H,0,6.558,-2.035,-0.625\H,0,8.416,-3.371,-0.508\H,0,
 7.21,-4.639,-0.42\H,0,7.608,-6.294,1.186\H,0,8.667,-7.079,3.287\H,0,9.
 877,-5.471,4.748\H,0,10.027,-3.08,4.08\H,0,8.986,-2.311,1.977\\Version
 =AM64L-G09RevD.01\State=1-A\HF=-1714.0640066\RMSD=5.166e-09\Dipole=1.5
 411691,1.5285013,1.7673125\Quadrupole=0.580546,-11.7168628,11.1363168,
 4.6289934,-8.6894956,0.2085133\PG=C01 [X(C13H20N2O4S2)]\\@


 The cat could very well be man's best friend
 but would never stoop to admitting it.
                               -- Doug Larson
 Job cpu time:       0 days  0 hours  5 minutes  0.3 seconds.
 File lengths (MBytes):  RWF=    228 Int=      0 D2E=      0 Chk=      7 Scr=      1
 Normal termination of Gaussian 09 at Fri Oct  2 06:22:41 2020.
