 Entering Gaussian System, Link 0=g09
 Initial command:
 /prod/apps/gaussian/g09d1/l1.exe "/tmp/ubafar01/1462868/Gau-62027.inp" -scrdir="/tmp/ubafar01/1462868/"
 Entering Link 1 = /prod/apps/gaussian/g09d1/l1.exe PID=     62028.
  
 Copyright (c) 1988,1990,1992,1993,1995,1998,2003,2009,2013,
            Gaussian, Inc.  All Rights Reserved.
  
 This is part of the Gaussian(R) 09 program.  It is based on
 the Gaussian(R) 03 system (copyright 2003, Gaussian, Inc.),
 the Gaussian(R) 98 system (copyright 1998, Gaussian, Inc.),
 the Gaussian(R) 94 system (copyright 1995, Gaussian, Inc.),
 the Gaussian 92(TM) system (copyright 1992, Gaussian, Inc.),
 the Gaussian 90(TM) system (copyright 1990, Gaussian, Inc.),
 the Gaussian 88(TM) system (copyright 1988, Gaussian, Inc.),
 the Gaussian 86(TM) system (copyright 1986, Carnegie Mellon
 University), and the Gaussian 82(TM) system (copyright 1983,
 Carnegie Mellon University). Gaussian is a federally registered
 trademark of Gaussian, Inc.
  
 This software contains proprietary and confidential information,
 including trade secrets, belonging to Gaussian, Inc.
  
 This software is provided under written license and may be
 used, copied, transmitted, or stored only in accord with that
 written license.
  
 The following legend is applicable only to US Government
 contracts under FAR:
  
                    RESTRICTED RIGHTS LEGEND
  
 Use, reproduction and disclosure by the US Government is
 subject to restrictions as set forth in subparagraphs (a)
 and (c) of the Commercial Computer Software - Restricted
 Rights clause in FAR 52.227-19.
  
 Gaussian, Inc.
 340 Quinnipiac St., Bldg. 40, Wallingford CT 06492
  
  
 ---------------------------------------------------------------
 Warning -- This program may not be used in any manner that
 competes with the business of Gaussian, Inc. or will provide
 assistance to any competitor of Gaussian, Inc.  The licensee
 of this program is prohibited from giving any competitor of
 Gaussian, Inc. access to this program.  By using this program,
 the user acknowledges that Gaussian, Inc. is engaged in the
 business of creating and licensing software in the field of
 computational chemistry and represents and warrants to the
 licensee that it is not a competitor of Gaussian, Inc. and that
 it will not use this program in any manner prohibited above.
 ---------------------------------------------------------------
  

 Cite this work as:
 Gaussian 09, Revision D.01,
 M. J. Frisch, G. W. Trucks, H. B. Schlegel, G. E. Scuseria, 
 M. A. Robb, J. R. Cheeseman, G. Scalmani, V. Barone, B. Mennucci, 
 G. A. Petersson, H. Nakatsuji, M. Caricato, X. Li, H. P. Hratchian, 
 A. F. Izmaylov, J. Bloino, G. Zheng, J. L. Sonnenberg, M. Hada, 
 M. Ehara, K. Toyota, R. Fukuda, J. Hasegawa, M. Ishida, T. Nakajima, 
 Y. Honda, O. Kitao, H. Nakai, T. Vreven, J. A. Montgomery, Jr., 
 J. E. Peralta, F. Ogliaro, M. Bearpark, J. J. Heyd, E. Brothers, 
 K. N. Kudin, V. N. Staroverov, T. Keith, R. Kobayashi, J. Normand, 
 K. Raghavachari, A. Rendell, J. C. Burant, S. S. Iyengar, J. Tomasi, 
 M. Cossi, N. Rega, J. M. Millam, M. Klene, J. E. Knox, J. B. Cross, 
 V. Bakken, C. Adamo, J. Jaramillo, R. Gomperts, R. E. Stratmann, 
 O. Yazyev, A. J. Austin, R. Cammi, C. Pomelli, J. W. Ochterski, 
 R. L. Martin, K. Morokuma, V. G. Zakrzewski, G. A. Voth, 
 P. Salvador, J. J. Dannenberg, S. Dapprich, A. D. Daniels, 
 O. Farkas, J. B. Foresman, J. V. Ortiz, J. Cioslowski, 
 and D. J. Fox, Gaussian, Inc., Wallingford CT, 2013.
 
 ******************************************
 Gaussian 09:  AM64L-G09RevD.01 24-Apr-2013
                 1-Oct-2020 
 ******************************************
 %nproc=1
 Will use up to    1 processors via shared memory.
 %Chk=SM40.n.7.pdb.xyz.mst.n.w.chk
 %mem=16GB
 -----------------
 #p b3lyp/6-31G(d)
 -----------------
 1/38=1/1;
 2/12=2,17=6,18=5,40=1/2;
 3/5=1,6=6,7=1,11=2,16=1,25=1,30=1,74=-5/1,2,3;
 4//1;
 5/5=2,38=5/2;
 6/7=2,8=2,9=2,10=2,28=1/1;
 99/5=1,9=1/99;
 Leave Link    1 at Thu Oct  1 22:12:12 2020, MaxMem=  2147483648 cpu:         0.0
 (Enter /prod/apps/gaussian/g09d1/l101.exe)
 ----------------
 SM40.n.7.pdb.xyz
 ----------------
 Symbolic Z-matrix:
 Charge =  0 Multiplicity = 1
 C                     5.794     0.789    -0.944 
 N                     5.592     0.303     0.43 
 C                     5.788     1.351     1.45 
 S                     4.19     -0.617     0.633 
 O                     4.05     -0.817     2.079 
 O                     3.063    -0.054    -0.124 
 N                     4.462    -2.093    -0.083 
 C                     5.508    -3.079     0.28 
 C                     5.028    -4.431    -0.345 
 S                     4.386    -4.96      1.278 
 O                     2.931    -4.739     1.403 
 O                     4.936    -6.246     1.751 
 C                     5.358    -3.5       1.781 
 C                     6.913    -2.635    -0.167 
 C                     8.078    -3.58      0.181 
 C                     9.392    -3.064    -0.366 
 C                     10.236   -2.279     0.43 
 C                     11.436   -1.774    -0.076 
 C                     11.81    -2.049    -1.394 
 C                     10.977   -2.831    -2.197 
 C                     9.779    -3.333    -1.686 
 H                     6.815     1.167    -1.009 
 H                     5.094     1.589    -1.209 
 H                     5.688    -0.031    -1.655 
 H                     6.811     1.716     1.338 
 H                     5.668     0.92      2.441 
 H                     5.096     2.193     1.326 
 H                     4.274    -2.043    -1.085 
 H                     5.844    -5.085    -0.652 
 H                     4.27     -4.362    -1.123 
 H                     6.293    -3.828     2.235 
 H                     4.826    -2.801     2.421 
 H                     7.105    -1.651     0.267 
 H                     6.879    -2.499    -1.254 
 H                     7.887    -4.582    -0.219 
 H                     8.162    -3.679     1.267 
 H                     9.951    -2.068     1.457 
 H                     12.078   -1.172     0.559 
 H                     12.742   -1.66     -1.79 
 H                     11.261   -3.054    -3.221 
 H                     9.14     -3.945    -2.317 
 
 NAtoms=     41 NQM=       41 NQMF=       0 NMMI=      0 NMMIF=      0
                NMic=       0 NMicF=      0.
                    Isotopes and Nuclear Properties:
 (Nuclear quadrupole moments (NQMom) in fm**2, nuclear magnetic moments (NMagM)
  in nuclear magnetons)

  Atom         1           2           3           4           5           6           7           8           9          10
 IAtWgt=          12          14          12          32          16          16          14          12          12          32
 AtmWgt=  12.0000000  14.0030740  12.0000000  31.9720718  15.9949146  15.9949146  14.0030740  12.0000000  12.0000000  31.9720718
 NucSpn=           0           2           0           0           0           0           2           0           0           0
 AtZEff=   0.0000000   0.0000000   0.0000000   0.0000000   0.0000000   0.0000000   0.0000000   0.0000000   0.0000000   0.0000000
 NQMom=    0.0000000   2.0440000   0.0000000   0.0000000   0.0000000   0.0000000   2.0440000   0.0000000   0.0000000   0.0000000
 NMagM=    0.0000000   0.4037610   0.0000000   0.0000000   0.0000000   0.0000000   0.4037610   0.0000000   0.0000000   0.0000000
 AtZNuc=   6.0000000   7.0000000   6.0000000  16.0000000   8.0000000   8.0000000   7.0000000   6.0000000   6.0000000  16.0000000

  Atom        11          12          13          14          15          16          17          18          19          20
 IAtWgt=          16          16          12          12          12          12          12          12          12          12
 AtmWgt=  15.9949146  15.9949146  12.0000000  12.0000000  12.0000000  12.0000000  12.0000000  12.0000000  12.0000000  12.0000000
 NucSpn=           0           0           0           0           0           0           0           0           0           0
 AtZEff=   0.0000000   0.0000000   0.0000000   0.0000000   0.0000000   0.0000000   0.0000000   0.0000000   0.0000000   0.0000000
 NQMom=    0.0000000   0.0000000   0.0000000   0.0000000   0.0000000   0.0000000   0.0000000   0.0000000   0.0000000   0.0000000
 NMagM=    0.0000000   0.0000000   0.0000000   0.0000000   0.0000000   0.0000000   0.0000000   0.0000000   0.0000000   0.0000000
 AtZNuc=   8.0000000   8.0000000   6.0000000   6.0000000   6.0000000   6.0000000   6.0000000   6.0000000   6.0000000   6.0000000

  Atom        21          22          23          24          25          26          27          28          29          30
 IAtWgt=          12           1           1           1           1           1           1           1           1           1
 AtmWgt=  12.0000000   1.0078250   1.0078250   1.0078250   1.0078250   1.0078250   1.0078250   1.0078250   1.0078250   1.0078250
 NucSpn=           0           1           1           1           1           1           1           1           1           1
 AtZEff=   0.0000000   0.0000000   0.0000000   0.0000000   0.0000000   0.0000000   0.0000000   0.0000000   0.0000000   0.0000000
 NQMom=    0.0000000   0.0000000   0.0000000   0.0000000   0.0000000   0.0000000   0.0000000   0.0000000   0.0000000   0.0000000
 NMagM=    0.0000000   2.7928460   2.7928460   2.7928460   2.7928460   2.7928460   2.7928460   2.7928460   2.7928460   2.7928460
 AtZNuc=   6.0000000   1.0000000   1.0000000   1.0000000   1.0000000   1.0000000   1.0000000   1.0000000   1.0000000   1.0000000

  Atom        31          32          33          34          35          36          37          38          39          40
 IAtWgt=           1           1           1           1           1           1           1           1           1           1
 AtmWgt=   1.0078250   1.0078250   1.0078250   1.0078250   1.0078250   1.0078250   1.0078250   1.0078250   1.0078250   1.0078250
 NucSpn=           1           1           1           1           1           1           1           1           1           1
 AtZEff=   0.0000000   0.0000000   0.0000000   0.0000000   0.0000000   0.0000000   0.0000000   0.0000000   0.0000000   0.0000000
 NQMom=    0.0000000   0.0000000   0.0000000   0.0000000   0.0000000   0.0000000   0.0000000   0.0000000   0.0000000   0.0000000
 NMagM=    2.7928460   2.7928460   2.7928460   2.7928460   2.7928460   2.7928460   2.7928460   2.7928460   2.7928460   2.7928460
 AtZNuc=   1.0000000   1.0000000   1.0000000   1.0000000   1.0000000   1.0000000   1.0000000   1.0000000   1.0000000   1.0000000

  Atom        41
 IAtWgt=           1
 AtmWgt=   1.0078250
 NucSpn=           1
 AtZEff=   0.0000000
 NQMom=    0.0000000
 NMagM=    2.7928460
 AtZNuc=   1.0000000
 Leave Link  101 at Thu Oct  1 22:12:12 2020, MaxMem=  2147483648 cpu:         0.1
 (Enter /prod/apps/gaussian/g09d1/l202.exe)
                          Input orientation:                          
 ---------------------------------------------------------------------
 Center     Atomic      Atomic             Coordinates (Angstroms)
 Number     Number       Type             X           Y           Z
 ---------------------------------------------------------------------
      1          6           0        5.794000    0.789000   -0.944000
      2          7           0        5.592000    0.303000    0.430000
      3          6           0        5.788000    1.351000    1.450000
      4         16           0        4.190000   -0.617000    0.633000
      5          8           0        4.050000   -0.817000    2.079000
      6          8           0        3.063000   -0.054000   -0.124000
      7          7           0        4.462000   -2.093000   -0.083000
      8          6           0        5.508000   -3.079000    0.280000
      9          6           0        5.028000   -4.431000   -0.345000
     10         16           0        4.386000   -4.960000    1.278000
     11          8           0        2.931000   -4.739000    1.403000
     12          8           0        4.936000   -6.246000    1.751000
     13          6           0        5.358000   -3.500000    1.781000
     14          6           0        6.913000   -2.635000   -0.167000
     15          6           0        8.078000   -3.580000    0.181000
     16          6           0        9.392000   -3.064000   -0.366000
     17          6           0       10.236000   -2.279000    0.430000
     18          6           0       11.436000   -1.774000   -0.076000
     19          6           0       11.810000   -2.049000   -1.394000
     20          6           0       10.977000   -2.831000   -2.197000
     21          6           0        9.779000   -3.333000   -1.686000
     22          1           0        6.815000    1.167000   -1.009000
     23          1           0        5.094000    1.589000   -1.209000
     24          1           0        5.688000   -0.031000   -1.655000
     25          1           0        6.811000    1.716000    1.338000
     26          1           0        5.668000    0.920000    2.441000
     27          1           0        5.096000    2.193000    1.326000
     28          1           0        4.274000   -2.043000   -1.085000
     29          1           0        5.844000   -5.085000   -0.652000
     30          1           0        4.270000   -4.362000   -1.123000
     31          1           0        6.293000   -3.828000    2.235000
     32          1           0        4.826000   -2.801000    2.421000
     33          1           0        7.105000   -1.651000    0.267000
     34          1           0        6.879000   -2.499000   -1.254000
     35          1           0        7.887000   -4.582000   -0.219000
     36          1           0        8.162000   -3.679000    1.267000
     37          1           0        9.951000   -2.068000    1.457000
     38          1           0       12.078000   -1.172000    0.559000
     39          1           0       12.742000   -1.660000   -1.790000
     40          1           0       11.261000   -3.054000   -3.221000
     41          1           0        9.140000   -3.945000   -2.317000
 ---------------------------------------------------------------------
                    Distance matrix (angstroms):
                    1          2          3          4          5
     1  C    0.000000
     2  N    1.471352   0.000000
     3  C    2.459088   1.475507   0.000000
     4  S    2.652655   1.689146   2.663478   0.000000
     5  O    3.841784   2.520191   2.848949   1.466464   0.000000
     6  O    2.973451   2.613466   3.446321   1.469744   2.531708
     7  N    3.289600   2.698312   3.996186   1.662894   2.544045
     8  C    4.067112   3.386367   4.590447   2.814814   3.237099
     9  C    5.309798   4.830060   6.101733   4.025584   4.460186
    10  S    6.322242   5.465593   6.467141   4.395007   4.233078
    11  O    6.653117   5.783547   6.727017   4.378226   4.134153
    12  O    7.582243   6.713030   7.650550   5.787234   5.510592
    13  C    5.100122   4.042619   4.881256   3.315693   2.999693
    14  C    3.685060   3.276171   4.446179   3.482392   4.067728
    15  C    5.056722   4.617346   5.582940   4.909197   5.240358
    16  C    5.303329   5.139096   5.981546   5.834948   6.289992
    17  C    5.570625   5.313517   5.831124   6.273561   6.566829
    18  C    6.257360   6.222725   6.632813   7.371964   7.753249
    19  C    6.667008   6.893650   7.477488   8.013972   8.590527
    20  C    6.444990   6.761753   7.597069   7.679457   8.385923
    21  C    5.781148   5.935396   6.906695   6.632597   7.302528
    22  H    1.090665   2.076763   2.671192   3.573436   4.595348
    23  H    1.095548   2.141990   2.758362   3.012742   4.205914
    24  H    1.090485   2.113764   3.400140   2.796845   4.152541
    25  H    2.664797   2.075330   1.091924   3.579044   3.819462
    26  H    3.389876   2.104896   1.087310   2.795660   2.401278
    27  H    2.758862   2.149635   1.096907   3.032686   3.274328
    28  H    3.217220   3.088052   4.498628   2.234291   3.400610
    29  H    5.881466   5.501343   6.770793   4.934568   5.375186
    30  H    5.374702   5.091338   6.446939   4.137023   4.782074
    31  H    5.627764   4.562301   5.262442   4.159271   3.757859
    32  H    5.014813   3.766385   4.371200   2.893319   2.157637
    33  H    3.023052   2.476662   3.485109   3.114536   3.648551
    34  H    3.476244   3.513322   4.829534   3.785950   4.684149
    35  H    5.809812   5.436125   6.510902   5.487708   5.846246
    36  H    5.518964   4.812670   5.565093   5.055154   5.075326
    37  H    5.586403   5.067273   5.387038   5.997791   6.064131
    38  H    6.752273   6.652854   6.835460   7.907847   8.178338
    39  H    7.415391   7.739785   8.241471   8.949608   9.551475
    40  H    7.059849   7.532384   8.436587   8.413758   9.224570
    41  H    5.957483   6.178982   7.312579   6.654366   7.417365
                    6          7          8          9         10
     6  O    0.000000
     7  N    2.473136   0.000000
     8  C    3.910482   1.482593   0.000000
     9  C    4.802936   2.419761   1.564905   0.000000
    10  S    5.271126   3.174553   2.406875   1.823769   0.000000
    11  O    4.929338   3.399040   3.264607   2.747322   1.476987
    12  O    6.735326   4.564607   3.538490   2.774149   1.476491
    13  C    4.557518   2.501392   1.566123   2.344256   1.824662
    14  C    4.635290   2.511617   1.539795   2.609698   3.725504
    15  C    6.138072   3.918714   2.620248   3.209887   4.091292
    16  C    7.012482   5.032676   3.937385   4.573142   5.599785
    17  C    7.530569   5.799728   4.797550   5.688145   6.490714
    18  C    8.547972   6.981295   6.080374   6.942224   7.854070
    19  C    9.061067   7.464165   6.601392   7.264286   8.410070
    20  C    8.639471   6.889039   6.008910   6.432768   7.749164
    21  C    7.635204   5.690140   4.708621   5.057261   6.365287
    22  H    4.043707   4.125734   4.625828   5.913702   6.976427
    23  H    2.828716   3.901849   4.917188   6.082043   7.041011
    24  H    3.038933   2.868119   3.614821   4.638071   5.881559
    25  H    4.395207   4.695266   5.080275   6.617944   7.103042
    26  H    3.783375   4.111348   4.548354   6.066679   6.129477
    27  H    3.359256   4.555989   5.390533   6.831855   7.188311
    28  H    2.519159   1.020710   2.111700   2.611256   3.755689
    29  H    5.772669   3.344510   2.237310   1.089872   2.422042
    30  H    4.584072   2.503363   2.268731   1.088397   2.477067
    31  H    5.499169   3.425771   2.235900   2.936024   2.415351
    32  H    4.138986   2.627504   2.264131   3.216902   2.482203
    33  H    4.363606   2.702464   2.142373   3.523758   4.400518
    34  H    4.670844   2.716241   2.137568   2.825793   4.322337
    35  H    6.616856   4.236064   2.857910   2.865756   3.826342
    36  H    6.409002   4.245927   2.894458   3.603610   3.987387
    37  H    7.348490   5.700995   4.706134   5.750383   6.274148
    38  H    9.109700   7.698302   6.846853   7.819258   8.604230
    39  H    9.951775   8.465207   7.656972   8.322996   9.493438
    40  H    9.262754   7.549634   6.734585   7.001271   8.434421
    41  H    7.541821   5.504938   4.548163   4.586232   6.046054
                   11         12         13         14         15
    11  O    0.000000
    12  O    2.532228   0.000000
    13  C    2.751061   2.778399   0.000000
    14  C    4.769491   4.541649   2.638362   0.000000
    15  C    5.415549   4.409605   3.156707   1.539920   0.000000
    16  C    6.905035   5.870498   4.590519   2.523704   1.513955
    17  C    7.769257   6.750713   5.206815   3.394919   2.532107
    18  C    9.127633   8.098562   6.585561   4.605120   3.821498
    19  C    9.689992   8.646254   7.335825   5.082276   4.330405
    20  C    9.018790   7.983897   6.917023   4.547022   3.823622
    21  C    7.642896   6.614619   5.620785   3.317909   2.537735
    22  H    7.468871   8.130240   5.629195   3.895353   5.054234
    23  H    7.179464   8.376980   5.908275   4.715581   6.128207
    24  H    6.254413   7.126890   4.893767   3.239689   4.656007
    25  H    7.531643   8.190216   5.432689   4.605066   5.567006
    26  H    6.371255   7.236261   4.479743   4.581453   5.582625
    27  H    7.262629   8.451210   5.717160   5.370300   6.597793
    28  H    3.906688   5.113350   3.392913   2.856135   4.293663
    29  H    3.581663   2.819006   2.944131   2.716705   2.819516
    30  H    2.883700   3.500413   3.218696   3.298775   4.100342
    31  H    3.581227   2.814681   1.089920   2.752681   2.732516
    32  H    2.895374   3.511271   1.086842   3.328794   4.024916
    33  H    5.314933   5.293472   2.960237   1.092463   2.162213
    34  H    5.259653   5.181243   3.539303   1.096002   2.159951
    35  H    5.217036   3.918954   3.400965   2.177657   1.095666
    36  H    5.339050   4.151002   2.856336   2.169399   1.093734
    37  H    7.511162   6.533938   4.821955   3.491176   2.724417
    38  H    9.854107   8.841635   7.216042   5.417072   4.684159
    39  H   10.767136   9.721302   8.406016   6.128784   5.415177
    40  H    9.675200   8.655361   7.750118   5.329876   4.688472
    41  H    7.281519   6.286242   5.594207   3.361269   2.738809
                   16         17         18         19         20
    16  C    0.000000
    17  C    1.400777   0.000000
    18  C    2.434366   1.396804   0.000000
    19  C    2.816688   2.420197   1.397364   0.000000
    20  C    2.432915   2.784765   2.413829   1.396503   0.000000
    21  C    1.401617   2.407742   2.787154   2.420513   1.395826
    22  H    4.995572   5.064472   5.556403   5.953227   5.892164
    23  H    6.390138   6.639873   7.267353   7.640283   7.424435
    24  H    4.957845   5.484982   6.210539   6.451304   6.008934
    25  H    5.693292   5.339954   5.964069   6.828547   7.108234
    26  H    6.133488   5.928267   6.845637   7.826005   7.985395
    27  H    6.996751   6.871768   7.609093   8.394686   8.499310
    28  H    5.268143   6.156002   7.237727   7.542335   6.840153
    29  H    4.093231   5.322971   6.524183   6.735059   5.815086
    30  H    5.337859   6.507216   7.690612   7.891452   6.962850
    31  H    4.117365   4.604853   6.000840   6.838989   6.525066
    32  H    5.355828   5.788321   7.140157   7.993496   7.691659
    33  H    2.761816   3.197517   4.346302   5.005432   4.738785
    34  H    2.724507   3.762141   4.762306   4.953470   4.218184
    35  H    2.142652   3.353030   4.527771   4.815251   4.065290
    36  H    2.134904   2.638569   4.018924   4.800596   4.543416
    37  H    2.151238   1.086497   2.154472   3.403593   3.871248
    38  H    3.413193   2.152918   1.085262   2.157582   3.400003
    39  H    3.901473   3.404643   2.157876   1.084786   2.156876
    40  H    3.412372   3.870536   3.400007   2.156236   1.085800
    41  H    2.155473   3.394522   3.873879   3.402300   2.151735
                   21         22         23         24         25
    21  C    0.000000
    22  H    5.430803   0.000000
    23  H    6.811963   1.783234   0.000000
    24  H    5.257418   1.767102   1.782176   0.000000
    25  H    6.591358   2.410358   3.074317   3.642964   0.000000
    26  H    7.212521   3.644052   3.754935   4.204999   1.776703
    27  H    7.844699   3.075689   2.605963   3.766033   1.780140
    28  H    5.685976   4.094699   3.725480   2.524369   5.141729
    29  H    4.429773   6.337018   6.739067   5.154926   7.151838
    30  H    5.632485   6.087681   6.008392   4.588171   7.032445
    31  H    5.269864   5.978800   6.530132   5.469491   5.639935
    32  H    6.456213   5.609460   5.702703   5.002971   5.051376
    33  H    3.713975   3.106992   4.089046   2.885546   3.545443
    34  H    3.048308   3.674735   4.460941   2.769532   4.948668
    35  H    2.700325   5.901210   6.845596   5.254455   6.576232
    36  H    3.384467   5.520716   6.579895   5.288352   5.562038
    37  H    3.392382   5.136232   6.638649   5.657480   4.918579
    38  H    3.872383   5.968979   7.715258   6.858263   6.057118
    39  H    3.404279   6.612958   8.329794   7.240910   7.507231
    40  H    2.151834   6.517415   7.977310   6.530637   7.958636
    41  H    1.086750   5.766197   6.944274   5.260603   7.129529
                   26         27         28         29         30
    26  H    0.000000
    27  H    1.786320   0.000000
    28  H    4.811993   4.942904   0.000000
    29  H    6.757044   7.579002   3.450529   0.000000
    30  H    6.523498   7.046127   2.319315   1.795006   0.000000
    31  H    4.793388   6.205766   4.276095   3.180632   3.956495
    32  H    3.815128   5.119762   3.629229   3.961857   3.912262
    33  H    3.660777   4.464739   3.161666   3.771875   4.161592
    34  H    5.177751   5.643612   2.650004   2.849741   3.208553
    35  H    6.501659   7.488480   4.500027   2.148103   3.734743
    36  H    5.361820   6.624517   4.829590   3.321524   4.618036
    37  H    5.314178   6.460983   6.220186   5.515217   6.647751
    38  H    7.000463   7.788443   8.022705   7.459279   8.600586
    39  H    8.637085   9.111333   8.505924   7.785119   8.917425
    40  H    8.895649   9.285119   7.375824   6.329977   7.415292
    41  H    7.639475   8.203684   5.367810   3.864640   5.031543
                   31         32         33         34         35
    31  H    0.000000
    32  H    1.800393   0.000000
    33  H    3.044946   3.340068   0.000000
    34  H    3.779254   4.220384   1.756024   0.000000
    35  H    3.021832   4.417158   3.072211   2.534991   0.000000
    36  H    2.110068   3.637512   2.496003   3.064952   1.760463
    37  H    4.133261   5.266138   3.112829   4.119765   3.659135
    38  H    6.582518   7.662388   5.004541   5.663700   5.458742
    39  H    7.905090   9.038665   6.000592   5.946931   5.880234
    40  H    7.419436   8.561857   5.604185   4.835187   4.767669
    41  H    5.370270   6.509069   4.010077   2.886695   2.525348
                   36         37         38         39         40
    36  H    0.000000
    37  H    2.414941   0.000000
    38  H    4.703336   2.476560   0.000000
    39  H    5.864982   4.301064   2.489345   0.000000
    40  H    5.489678   4.957013   4.300908   2.486837   0.000000
    41  H    3.724553   4.292310   4.959108   4.298064   2.471788
                   41
    41  H    0.000000
 Stoichiometry    C13H20N2O4S2
 Framework group  C1[X(C13H20N2O4S2)]
 Deg. of freedom   117
 Full point group                 C1      NOp   1
 Largest Abelian subgroup         C1      NOp   1
 Largest concise Abelian subgroup C1      NOp   1
                         Standard orientation:                         
 ---------------------------------------------------------------------
 Center     Atomic      Atomic             Coordinates (Angstroms)
 Number     Number       Type             X           Y           Z
 ---------------------------------------------------------------------
      1          6           0       -0.101314    3.252082   -1.047818
      2          7           0       -0.687683    2.660058    0.164846
      3          6           0       -0.773302    3.610284    1.290394
      4         16           0       -2.101637    1.779788   -0.116349
      5          8           0       -2.645168    1.464140    1.208588
      6          8           0       -2.963075    2.446665   -1.102932
      7          7           0       -1.657827    0.360126   -0.859859
      8          6           0       -0.768622   -0.691706   -0.311185
      9          6           0       -1.070430   -1.967187   -1.166165
     10         16           0       -2.149573   -2.606396    0.157842
     11          8           0       -3.578101   -2.341966   -0.108383
     12          8           0       -1.771016   -3.947498    0.645865
     13          6           0       -1.339995   -1.231666    1.043333
     14          6           0        0.710850   -0.264968   -0.305920
     15          6           0        1.718976   -1.279203    0.265363
     16          6           0        3.140158   -0.768916    0.156229
     17          6           0        3.736022   -0.086153    1.224385
     18          6           0        5.036145    0.414029    1.121635
     19          6           0        5.762240    0.237094   -0.059087
     20          6           0        5.178938   -0.442508   -1.130592
     21          6           0        3.879365   -0.940199   -1.022230
     22          1           0        0.901425    3.595418   -0.790552
     23          1           0       -0.688413    4.097399   -1.423288
     24          1           0       -0.013372    2.499462   -1.832030
     25          1           0        0.244410    3.944559    1.502102
     26          1           0       -1.172580    3.102188    2.164841
     27          1           0       -1.391852    4.485245    1.055783
     28          1           0       -1.555788    0.501396   -1.865582
     29          1           0       -0.209315   -2.623330   -1.291778
     30          1           0       -1.578096   -1.804356   -2.115043
     31          1           0       -0.574621   -1.631783    1.708189
     32          1           0       -2.021685   -0.569477    1.570618
     33          1           0        0.785397    0.671036    0.252484
     34          1           0        0.985647   -0.036717   -1.342071
     35          1           0        1.635600   -2.236031   -0.261906
     36          1           0        1.492903   -1.472414    1.317890
     37          1           0        3.176365    0.048205    2.145910
     38          1           0        5.481158    0.935755    1.962800
     39          1           0        6.772808    0.622619   -0.142059
     40          1           0        5.736641   -0.589029   -2.050624
     41          1           0        3.435980   -1.472332   -1.859648
 ---------------------------------------------------------------------
 Rotational constants (GHZ):      0.3104852      0.1796893      0.1274696
 Leave Link  202 at Thu Oct  1 22:12:12 2020, MaxMem=  2147483648 cpu:         0.0
 (Enter /prod/apps/gaussian/g09d1/l301.exe)
 Standard basis: 6-31G(d) (6D, 7F)
 Ernie: Thresh=  0.10000D-02 Tol=  0.10000D-05 Strict=F.
 There are   363 symmetry adapted cartesian basis functions of A   symmetry.
 There are   363 symmetry adapted basis functions of A   symmetry.
   363 basis functions,   716 primitive gaussians,   363 cartesian basis functions
    88 alpha electrons       88 beta electrons
       nuclear repulsion energy      2155.5099217654 Hartrees.
 IExCor=  402 DFT=T Ex+Corr=B3LYP ExCW=0 ScaHFX=  0.200000
 ScaDFX=  0.800000  0.720000  1.000000  0.810000 ScalE2=  1.000000  1.000000
 IRadAn=      0 IRanWt=     -1 IRanGd=            0 ICorTp=0 IEmpDi=  4
 NAtoms=   41 NActive=   41 NUniq=   41 SFac= 1.00D+00 NAtFMM=   60 NAOKFM=F Big=F
 Integral buffers will be    131072 words long.
 Raffenetti 2 integral format.
 Two-electron integral symmetry is turned on.
 Leave Link  301 at Thu Oct  1 22:12:12 2020, MaxMem=  2147483648 cpu:         0.1
 (Enter /prod/apps/gaussian/g09d1/l302.exe)
 NPDir=0 NMtPBC=     1 NCelOv=     1 NCel=       1 NClECP=     1 NCelD=      1
         NCelK=      1 NCelE2=     1 NClLst=     1 CellRange=     0.0.
 One-electron integrals computed using PRISM.
 NBasis=   363 RedAO= T EigKep=  4.67D-04  NBF=   363
 NBsUse=   363 1.00D-06 EigRej= -1.00D+00 NBFU=   363
 Precomputing XC quadrature grid using
 IXCGrd= 4 IRadAn=           0 IRanWt=          -1 IRanGd=           0 AccXCQ= 0.00D+00.
 Generated NRdTot=       0 NPtTot=           0 NUsed=           0 NTot=          32
 NSgBfM=   359   359   359   359   359 MxSgAt=    41 MxSgA2=    41.
 Leave Link  302 at Thu Oct  1 22:12:14 2020, MaxMem=  2147483648 cpu:         1.4
 (Enter /prod/apps/gaussian/g09d1/l303.exe)
 DipDrv:  MaxL=1.
 Leave Link  303 at Thu Oct  1 22:12:14 2020, MaxMem=  2147483648 cpu:         0.1
 (Enter /prod/apps/gaussian/g09d1/l401.exe)
 ExpMin= 1.17D-01 ExpMax= 2.19D+04 ExpMxC= 3.30D+03 IAcc=1 IRadAn=         1 AccDes= 0.00D+00
 Harris functional with IExCor=  402 and IRadAn=       1 diagonalized for initial guess.
 HarFok:  IExCor=  402 AccDes= 0.00D+00 IRadAn=         1 IDoV= 1 UseB2=F ITyADJ=14
 ICtDFT=  3500011 ScaDFX=  1.000000  1.000000  1.000000  1.000000
 FoFCou: FMM=F IPFlag=           0 FMFlag=      100000 FMFlg1=           0
         NFxFlg=           0 DoJE=T BraDBF=F KetDBF=T FulRan=T
         wScrn=  0.000000 ICntrl=     500 IOpCl=  0 I1Cent=   200000004 NGrid=           0
         NMat0=    1 NMatS0=      1 NMatT0=    0 NMatD0=    1 NMtDS0=    0 NMtDT0=    0
 Petite list used in FoFCou.
 Harris En= -1714.14857724707    
 JPrj=0 DoOrth=F DoCkMO=F.
 Leave Link  401 at Thu Oct  1 22:12:19 2020, MaxMem=  2147483648 cpu:         5.0
 (Enter /prod/apps/gaussian/g09d1/l502.exe)
 Closed shell SCF:
 Using DIIS extrapolation, IDIIS=  1040.
 Integral symmetry usage will be decided dynamically.
 IVT=      418784 IEndB=      418784 NGot=  2147483648 MDV=  2147213637
 LenX=  2147213637 LenY=  2147081427
 Requested convergence on RMS density matrix=1.00D-08 within 128 cycles.
 Requested convergence on MAX density matrix=1.00D-06.
 Requested convergence on             energy=1.00D-06.
 No special actions if energy rises.
 Fock matrices will be formed incrementally for  20 cycles.
 Integral accuracy reduced to 1.0D-05 until final iterations.

 Cycle   1  Pass 0  IDiag  1:
 FoFJK:  IHMeth= 1 ICntrl=       0 DoSepK=F KAlg= 0 I1Cent=   0 FoldK=F
 IRaf= 760000000 NMat=   1 IRICut=       1 DoRegI=T DoRafI=F ISym2E= 0.
 FoFCou: FMM=F IPFlag=           0 FMFlag=      100000 FMFlg1=           0
         NFxFlg=           0 DoJE=F BraDBF=F KetDBF=F FulRan=T
         wScrn=  0.000000 ICntrl=       0 IOpCl=  0 I1Cent=           0 NGrid=           0
         NMat0=    1 NMatS0=      1 NMatT0=    0 NMatD0=    1 NMtDS0=    0 NMtDT0=    0
 Symmetry not used in FoFCou.
 E= -1713.18067706985    
 DIIS: error= 2.85D-02 at cycle   1 NSaved=   1.
 NSaved= 1 IEnMin= 1 EnMin= -1713.18067706985     IErMin= 1 ErrMin= 2.85D-02
 ErrMax= 2.85D-02  0.00D+00 EMaxC= 1.00D-01 BMatC= 9.99D-01 BMatP= 9.99D-01
 IDIUse=3 WtCom= 7.15D-01 WtEn= 2.85D-01
 Coeff-Com:  0.100D+01
 Coeff-En:   0.100D+01
 Coeff:      0.100D+01
 Gap=     0.350 Goal=   None    Shift=    0.000
 GapD=    0.350 DampG=1.000 DampE=0.500 DampFc=0.5000 IDamp=-1.
 Damping current iteration by 5.00D-01
 RMSDP=7.24D-03 MaxDP=6.10D-01              OVMax= 2.62D-01

 Cycle   2  Pass 0  IDiag  1:
 RMSU=  3.62D-03    CP:  1.00D+00
 E= -1713.34038030947     Delta-E=       -0.159703239619 Rises=F Damp=T
 DIIS: error= 1.43D-02 at cycle   2 NSaved=   2.
 NSaved= 2 IEnMin= 2 EnMin= -1713.34038030947     IErMin= 2 ErrMin= 1.43D-02
 ErrMax= 1.43D-02  0.00D+00 EMaxC= 1.00D-01 BMatC= 1.86D-01 BMatP= 9.99D-01
 IDIUse=3 WtCom= 8.57D-01 WtEn= 1.43D-01
 Coeff-Com:  0.260D+00 0.740D+00
 Coeff-En:   0.409D+00 0.591D+00
 Coeff:      0.281D+00 0.719D+00
 Gap=     0.293 Goal=   None    Shift=    0.000
 RMSDP=2.17D-03 MaxDP=1.37D-01 DE=-1.60D-01 OVMax= 2.21D-01

 Cycle   3  Pass 0  IDiag  1:
 RMSU=  1.68D-03    CP:  9.90D-01  6.23D-01
 E= -1713.93176525584     Delta-E=       -0.591384946369 Rises=F Damp=F
 DIIS: error= 9.70D-03 at cycle   3 NSaved=   3.
 NSaved= 3 IEnMin= 3 EnMin= -1713.93176525584     IErMin= 3 ErrMin= 9.70D-03
 ErrMax= 9.70D-03  0.00D+00 EMaxC= 1.00D-01 BMatC= 1.08D-01 BMatP= 1.86D-01
 IDIUse=3 WtCom= 9.03D-01 WtEn= 9.70D-02
 Coeff-Com:  0.107D+00 0.439D+00 0.454D+00
 Coeff-En:   0.000D+00 0.000D+00 0.100D+01
 Coeff:      0.962D-01 0.397D+00 0.507D+00
 Gap=     0.247 Goal=   None    Shift=    0.000
 RMSDP=1.30D-03 MaxDP=3.70D-02 DE=-5.91D-01 OVMax= 8.47D-02

 Cycle   4  Pass 0  IDiag  1:
 RMSU=  7.43D-04    CP:  9.95D-01  7.11D-01  3.97D-01
 E= -1714.02045356109     Delta-E=       -0.088688305246 Rises=F Damp=F
 DIIS: error= 3.18D-03 at cycle   4 NSaved=   4.
 NSaved= 4 IEnMin= 4 EnMin= -1714.02045356109     IErMin= 4 ErrMin= 3.18D-03
 ErrMax= 3.18D-03  0.00D+00 EMaxC= 1.00D-01 BMatC= 1.28D-02 BMatP= 1.08D-01
 IDIUse=3 WtCom= 9.68D-01 WtEn= 3.18D-02
 Coeff-Com:  0.991D-02 0.767D-01 0.271D+00 0.642D+00
 Coeff-En:   0.000D+00 0.000D+00 0.985D-01 0.901D+00
 Coeff:      0.959D-02 0.743D-01 0.265D+00 0.651D+00
 Gap=     0.240 Goal=   None    Shift=    0.000
 RMSDP=3.96D-04 MaxDP=1.47D-02 DE=-8.87D-02 OVMax= 2.48D-02

 Cycle   5  Pass 0  IDiag  1:
 RMSU=  1.77D-04    CP:  9.95D-01  6.95D-01  5.42D-01  6.64D-01
 E= -1714.03116352237     Delta-E=       -0.010709961277 Rises=F Damp=F
 DIIS: error= 9.92D-04 at cycle   5 NSaved=   5.
 NSaved= 5 IEnMin= 5 EnMin= -1714.03116352237     IErMin= 5 ErrMin= 9.92D-04
 ErrMax= 9.92D-04  0.00D+00 EMaxC= 1.00D-01 BMatC= 9.71D-04 BMatP= 1.28D-02
 IDIUse=3 WtCom= 9.90D-01 WtEn= 9.92D-03
 Coeff-Com: -0.128D-02 0.163D-01 0.111D+00 0.346D+00 0.528D+00
 Coeff-En:   0.000D+00 0.000D+00 0.000D+00 0.000D+00 0.100D+01
 Coeff:     -0.127D-02 0.162D-01 0.110D+00 0.343D+00 0.533D+00
 Gap=     0.240 Goal=   None    Shift=    0.000
 RMSDP=1.11D-04 MaxDP=7.35D-03 DE=-1.07D-02 OVMax= 5.68D-03

 Cycle   6  Pass 0  IDiag  1:
 RMSU=  5.66D-05    CP:  9.95D-01  6.98D-01  5.34D-01  7.23D-01  5.36D-01
 E= -1714.03193950785     Delta-E=       -0.000775985483 Rises=F Damp=F
 DIIS: error= 4.27D-04 at cycle   6 NSaved=   6.
 NSaved= 6 IEnMin= 6 EnMin= -1714.03193950785     IErMin= 6 ErrMin= 4.27D-04
 ErrMax= 4.27D-04  0.00D+00 EMaxC= 1.00D-01 BMatC= 1.21D-04 BMatP= 9.71D-04
 IDIUse=3 WtCom= 9.96D-01 WtEn= 4.27D-03
 Coeff-Com: -0.151D-02 0.346D-02 0.414D-01 0.144D+00 0.318D+00 0.495D+00
 Coeff-En:   0.000D+00 0.000D+00 0.000D+00 0.000D+00 0.343D-01 0.966D+00
 Coeff:     -0.150D-02 0.344D-02 0.412D-01 0.143D+00 0.317D+00 0.497D+00
 Gap=     0.240 Goal=   None    Shift=    0.000
 RMSDP=3.57D-05 MaxDP=2.04D-03 DE=-7.76D-04 OVMax= 2.80D-03

 Cycle   7  Pass 0  IDiag  1:
 RMSU=  2.35D-05    CP:  9.95D-01  6.98D-01  5.35D-01  7.22D-01  5.92D-01
                    CP:  5.63D-01
 E= -1714.03202125838     Delta-E=       -0.000081750531 Rises=F Damp=F
 DIIS: error= 1.35D-04 at cycle   7 NSaved=   7.
 NSaved= 7 IEnMin= 7 EnMin= -1714.03202125838     IErMin= 7 ErrMin= 1.35D-04
 ErrMax= 1.35D-04  0.00D+00 EMaxC= 1.00D-01 BMatC= 1.78D-05 BMatP= 1.21D-04
 IDIUse=3 WtCom= 9.99D-01 WtEn= 1.35D-03
 Coeff-Com: -0.822D-03-0.527D-04 0.113D-01 0.446D-01 0.135D+00 0.322D+00
 Coeff-Com:  0.487D+00
 Coeff-En:   0.000D+00 0.000D+00 0.000D+00 0.000D+00 0.000D+00 0.111D+00
 Coeff-En:   0.889D+00
 Coeff:     -0.821D-03-0.526D-04 0.113D-01 0.446D-01 0.135D+00 0.322D+00
 Coeff:      0.488D+00
 Gap=     0.240 Goal=   None    Shift=    0.000
 RMSDP=1.24D-05 MaxDP=5.52D-04 DE=-8.18D-05 OVMax= 8.46D-04

 Cycle   8  Pass 0  IDiag  1:
 RMSU=  5.62D-06    CP:  9.95D-01  6.98D-01  5.36D-01  7.22D-01  5.98D-01
                    CP:  6.30D-01  5.65D-01
 E= -1714.03203564837     Delta-E=       -0.000014389987 Rises=F Damp=F
 DIIS: error= 2.16D-05 at cycle   8 NSaved=   8.
 NSaved= 8 IEnMin= 8 EnMin= -1714.03203564837     IErMin= 8 ErrMin= 2.16D-05
 ErrMax= 2.16D-05  0.00D+00 EMaxC= 1.00D-01 BMatC= 5.50D-07 BMatP= 1.78D-05
 IDIUse=1 WtCom= 1.00D+00 WtEn= 0.00D+00
 Coeff-Com: -0.241D-03-0.296D-03 0.125D-02 0.674D-02 0.337D-01 0.102D+00
 Coeff-Com:  0.218D+00 0.639D+00
 Coeff:     -0.241D-03-0.296D-03 0.125D-02 0.674D-02 0.337D-01 0.102D+00
 Coeff:      0.218D+00 0.639D+00
 Gap=     0.240 Goal=   None    Shift=    0.000
 RMSDP=2.87D-06 MaxDP=1.76D-04 DE=-1.44D-05 OVMax= 1.45D-04

 Initial convergence to 1.0D-05 achieved.  Increase integral accuracy.
 Cycle   9  Pass 1  IDiag  1:
 E= -1714.03217290527     Delta-E=       -0.000137256905 Rises=F Damp=F
 DIIS: error= 1.27D-04 at cycle   1 NSaved=   1.
 NSaved= 1 IEnMin= 1 EnMin= -1714.03217290527     IErMin= 1 ErrMin= 1.27D-04
 ErrMax= 1.27D-04  0.00D+00 EMaxC= 1.00D-01 BMatC= 1.23D-06 BMatP= 1.23D-06
 IDIUse=3 WtCom= 9.99D-01 WtEn= 1.27D-03
 Coeff-Com:  0.100D+01
 Coeff-En:   0.100D+01
 Coeff:      0.100D+01
 Gap=     0.240 Goal=   None    Shift=    0.000
 RMSDP=2.87D-06 MaxDP=1.76D-04 DE=-1.37D-04 OVMax= 2.30D-04

 Cycle  10  Pass 1  IDiag  1:
 RMSU=  4.12D-05    CP:  1.00D+00
 E= -1714.03217395726     Delta-E=       -0.000001051987 Rises=F Damp=F
 DIIS: error= 3.45D-05 at cycle   2 NSaved=   2.
 NSaved= 2 IEnMin= 2 EnMin= -1714.03217395726     IErMin= 2 ErrMin= 3.45D-05
 ErrMax= 3.45D-05  0.00D+00 EMaxC= 1.00D-01 BMatC= 4.28D-07 BMatP= 1.23D-06
 IDIUse=1 WtCom= 1.00D+00 WtEn= 0.00D+00
 Coeff-Com:  0.302D+00 0.698D+00
 Coeff:      0.302D+00 0.698D+00
 Gap=     0.240 Goal=   None    Shift=    0.000
 RMSDP=3.68D-06 MaxDP=1.94D-04 DE=-1.05D-06 OVMax= 3.20D-04

 Cycle  11  Pass 1  IDiag  1:
 RMSU=  3.67D-06    CP:  1.00D+00  1.00D+00
 E= -1714.03217379893     Delta-E=        0.000000158330 Rises=F Damp=F
 DIIS: error= 4.75D-05 at cycle   3 NSaved=   3.
 NSaved= 3 IEnMin= 2 EnMin= -1714.03217395726     IErMin= 2 ErrMin= 3.45D-05
 ErrMax= 4.75D-05  0.00D+00 EMaxC= 1.00D-01 BMatC= 6.35D-07 BMatP= 4.28D-07
 IDIUse=1 WtCom= 1.00D+00 WtEn= 0.00D+00
 Coeff-Com:  0.399D-02 0.548D+00 0.448D+00
 Coeff:      0.399D-02 0.548D+00 0.448D+00
 Gap=     0.240 Goal=   None    Shift=    0.000
 RMSDP=2.14D-06 MaxDP=1.27D-04 DE= 1.58D-07 OVMax= 2.06D-04

 Cycle  12  Pass 1  IDiag  1:
 RMSU=  6.73D-07    CP:  1.00D+00  1.01D+00  4.52D-01
 E= -1714.03217429851     Delta-E=       -0.000000499579 Rises=F Damp=F
 DIIS: error= 5.48D-06 at cycle   4 NSaved=   4.
 NSaved= 4 IEnMin= 4 EnMin= -1714.03217429851     IErMin= 4 ErrMin= 5.48D-06
 ErrMax= 5.48D-06  0.00D+00 EMaxC= 1.00D-01 BMatC= 1.68D-08 BMatP= 4.28D-07
 IDIUse=1 WtCom= 1.00D+00 WtEn= 0.00D+00
 Coeff-Com: -0.764D-02 0.307D+00 0.271D+00 0.430D+00
 Coeff:     -0.764D-02 0.307D+00 0.271D+00 0.430D+00
 Gap=     0.240 Goal=   None    Shift=    0.000
 RMSDP=3.65D-07 MaxDP=1.72D-05 DE=-5.00D-07 OVMax= 2.28D-05

 Cycle  13  Pass 1  IDiag  1:
 RMSU=  2.11D-07    CP:  1.00D+00  1.01D+00  4.66D-01  5.64D-01
 E= -1714.03217431230     Delta-E=       -0.000000013795 Rises=F Damp=F
 DIIS: error= 1.21D-06 at cycle   5 NSaved=   5.
 NSaved= 5 IEnMin= 5 EnMin= -1714.03217431230     IErMin= 5 ErrMin= 1.21D-06
 ErrMax= 1.21D-06  0.00D+00 EMaxC= 1.00D-01 BMatC= 4.34D-10 BMatP= 1.68D-08
 IDIUse=1 WtCom= 1.00D+00 WtEn= 0.00D+00
 Coeff-Com: -0.402D-02 0.134D+00 0.121D+00 0.223D+00 0.526D+00
 Coeff:     -0.402D-02 0.134D+00 0.121D+00 0.223D+00 0.526D+00
 Gap=     0.240 Goal=   None    Shift=    0.000
 RMSDP=8.28D-08 MaxDP=5.46D-06 DE=-1.38D-08 OVMax= 9.33D-06

 Cycle  14  Pass 1  IDiag  1:
 RMSU=  7.32D-08    CP:  1.00D+00  1.01D+00  4.68D-01  5.78D-01  8.25D-01
 E= -1714.03217431261     Delta-E=       -0.000000000308 Rises=F Damp=F
 DIIS: error= 5.59D-07 at cycle   6 NSaved=   6.
 NSaved= 6 IEnMin= 6 EnMin= -1714.03217431261     IErMin= 6 ErrMin= 5.59D-07
 ErrMax= 5.59D-07  0.00D+00 EMaxC= 1.00D-01 BMatC= 7.14D-11 BMatP= 4.34D-10
 IDIUse=1 WtCom= 1.00D+00 WtEn= 0.00D+00
 Coeff-Com: -0.113D-02 0.305D-01 0.282D-01 0.638D-01 0.310D+00 0.568D+00
 Coeff:     -0.113D-02 0.305D-01 0.282D-01 0.638D-01 0.310D+00 0.568D+00
 Gap=     0.240 Goal=   None    Shift=    0.000
 RMSDP=3.24D-08 MaxDP=1.16D-06 DE=-3.08D-10 OVMax= 3.71D-06

 Cycle  15  Pass 1  IDiag  1:
 RMSU=  2.17D-08    CP:  1.00D+00  1.01D+00  4.68D-01  5.80D-01  8.84D-01
                    CP:  7.22D-01
 E= -1714.03217431262     Delta-E=       -0.000000000014 Rises=F Damp=F
 DIIS: error= 1.31D-07 at cycle   7 NSaved=   7.
 NSaved= 7 IEnMin= 7 EnMin= -1714.03217431262     IErMin= 7 ErrMin= 1.31D-07
 ErrMax= 1.31D-07  0.00D+00 EMaxC= 1.00D-01 BMatC= 7.91D-12 BMatP= 7.14D-11
 IDIUse=1 WtCom= 1.00D+00 WtEn= 0.00D+00
 Coeff-Com: -0.132D-03 0.901D-04 0.478D-03 0.751D-02 0.104D+00 0.315D+00
 Coeff-Com:  0.572D+00
 Coeff:     -0.132D-03 0.901D-04 0.478D-03 0.751D-02 0.104D+00 0.315D+00
 Coeff:      0.572D+00
 Gap=     0.240 Goal=   None    Shift=    0.000
 RMSDP=9.91D-09 MaxDP=7.96D-07 DE=-1.41D-11 OVMax= 7.71D-07

 SCF Done:  E(RB3LYP) =  -1714.03217431     A.U. after   15 cycles
            NFock= 15  Conv=0.99D-08     -V/T= 2.0068
 KE= 1.702451945488D+03 PE=-8.336315814932D+03 EE= 2.764321773366D+03
 Leave Link  502 at Thu Oct  1 22:18:27 2020, MaxMem=  2147483648 cpu:       367.6
 (Enter /prod/apps/gaussian/g09d1/l601.exe)
 Copying SCF densities to generalized density rwf, IOpCl= 0 IROHF=0.

 **********************************************************************

            Population analysis using the SCF density.

 **********************************************************************

 Orbital symmetries:
       Occupied  (A) (A) (A) (A) (A) (A) (A) (A) (A) (A) (A) (A)
                 (A) (A) (A) (A) (A) (A) (A) (A) (A) (A) (A) (A)
                 (A) (A) (A) (A) (A) (A) (A) (A) (A) (A) (A) (A)
                 (A) (A) (A) (A) (A) (A) (A) (A) (A) (A) (A) (A)
                 (A) (A) (A) (A) (A) (A) (A) (A) (A) (A) (A) (A)
                 (A) (A) (A) (A) (A) (A) (A) (A) (A) (A) (A) (A)
                 (A) (A) (A) (A) (A) (A) (A) (A) (A) (A) (A) (A)
                 (A) (A) (A) (A)
       Virtual   (A) (A) (A) (A) (A) (A) (A) (A) (A) (A) (A) (A)
                 (A) (A) (A) (A) (A) (A) (A) (A) (A) (A) (A) (A)
                 (A) (A) (A) (A) (A) (A) (A) (A) (A) (A) (A) (A)
                 (A) (A) (A) (A) (A) (A) (A) (A) (A) (A) (A) (A)
                 (A) (A) (A) (A) (A) (A) (A) (A) (A) (A) (A) (A)
                 (A) (A) (A) (A) (A) (A) (A) (A) (A) (A) (A) (A)
                 (A) (A) (A) (A) (A) (A) (A) (A) (A) (A) (A) (A)
                 (A) (A) (A) (A) (A) (A) (A) (A) (A) (A) (A) (A)
                 (A) (A) (A) (A) (A) (A) (A) (A) (A) (A) (A) (A)
                 (A) (A) (A) (A) (A) (A) (A) (A) (A) (A) (A) (A)
                 (A) (A) (A) (A) (A) (A) (A) (A) (A) (A) (A) (A)
                 (A) (A) (A) (A) (A) (A) (A) (A) (A) (A) (A) (A)
                 (A) (A) (A) (A) (A) (A) (A) (A) (A) (A) (A) (A)
                 (A) (A) (A) (A) (A) (A) (A) (A) (A) (A) (A) (A)
                 (A) (A) (A) (A) (A) (A) (A) (A) (A) (A) (A) (A)
                 (A) (A) (A) (A) (A) (A) (A) (A) (A) (A) (A) (A)
                 (A) (A) (A) (A) (A) (A) (A) (A) (A) (A) (A) (A)
                 (A) (A) (A) (A) (A) (A) (A) (A) (A) (A) (A) (A)
                 (A) (A) (A) (A) (A) (A) (A) (A) (A) (A) (A) (A)
                 (A) (A) (A) (A) (A) (A) (A) (A) (A) (A) (A) (A)
                 (A) (A) (A) (A) (A) (A) (A) (A) (A) (A) (A) (A)
                 (A) (A) (A) (A) (A) (A) (A) (A) (A) (A) (A) (A)
                 (A) (A) (A) (A) (A) (A) (A) (A) (A) (A) (A)
 The electronic state is 1-A.
 Alpha  occ. eigenvalues --  -89.14140 -89.08836 -19.15426 -19.15118 -19.14051
 Alpha  occ. eigenvalues --  -19.13641 -14.39237 -14.38864 -10.28915 -10.24245
 Alpha  occ. eigenvalues --  -10.23985 -10.23494 -10.22911 -10.21581 -10.21393
 Alpha  occ. eigenvalues --  -10.21178 -10.20313 -10.20297 -10.20239 -10.20189
 Alpha  occ. eigenvalues --  -10.20126  -8.16327  -8.11849  -6.12821  -6.12759
 Alpha  occ. eigenvalues --   -6.12713  -6.08256  -6.08211  -6.08151  -1.13095
 Alpha  occ. eigenvalues --   -1.09082  -1.01055  -0.98575  -0.96117  -0.95056
 Alpha  occ. eigenvalues --   -0.87100  -0.86008  -0.80833  -0.75626  -0.75236
 Alpha  occ. eigenvalues --   -0.74287  -0.73367  -0.72174  -0.68715  -0.63695
 Alpha  occ. eigenvalues --   -0.61856  -0.60889  -0.59633  -0.58288  -0.56188
 Alpha  occ. eigenvalues --   -0.53813  -0.52241  -0.51472  -0.50099  -0.50037
 Alpha  occ. eigenvalues --   -0.49223  -0.48331  -0.47309  -0.46939  -0.46193
 Alpha  occ. eigenvalues --   -0.45156  -0.44515  -0.43933  -0.43862  -0.43307
 Alpha  occ. eigenvalues --   -0.43198  -0.42596  -0.42024  -0.41390  -0.40385
 Alpha  occ. eigenvalues --   -0.39992  -0.38817  -0.36785  -0.36684  -0.35514
 Alpha  occ. eigenvalues --   -0.35119  -0.35050  -0.33739  -0.32540  -0.32115
 Alpha  occ. eigenvalues --   -0.31209  -0.30602  -0.29817  -0.28900  -0.28645
 Alpha  occ. eigenvalues --   -0.26580  -0.26240  -0.25498
 Alpha virt. eigenvalues --   -0.01516  -0.01367   0.02056   0.03068   0.04562
 Alpha virt. eigenvalues --    0.05507   0.06071   0.06839   0.07419   0.07440
 Alpha virt. eigenvalues --    0.08223   0.08822   0.09264   0.09787   0.10665
 Alpha virt. eigenvalues --    0.11692   0.12953   0.13412   0.13519   0.13865
 Alpha virt. eigenvalues --    0.14591   0.15119   0.15755   0.15784   0.16405
 Alpha virt. eigenvalues --    0.17032   0.17300   0.17633   0.18075   0.18847
 Alpha virt. eigenvalues --    0.19419   0.20526   0.21006   0.22103   0.22514
 Alpha virt. eigenvalues --    0.23011   0.25327   0.27042   0.28351   0.29305
 Alpha virt. eigenvalues --    0.32114   0.32656   0.33022   0.33413   0.35974
 Alpha virt. eigenvalues --    0.36672   0.37191   0.41459   0.44012   0.44418
 Alpha virt. eigenvalues --    0.44874   0.45656   0.46589   0.47753   0.48659
 Alpha virt. eigenvalues --    0.50283   0.50640   0.51499   0.52266   0.52854
 Alpha virt. eigenvalues --    0.53524   0.54679   0.55380   0.56278   0.57871
 Alpha virt. eigenvalues --    0.58129   0.58310   0.59078   0.59441   0.59838
 Alpha virt. eigenvalues --    0.60174   0.61088   0.61691   0.62597   0.63709
 Alpha virt. eigenvalues --    0.64726   0.66157   0.67065   0.67769   0.68113
 Alpha virt. eigenvalues --    0.69713   0.72060   0.73779   0.74445   0.75850
 Alpha virt. eigenvalues --    0.76372   0.77159   0.78306   0.79828   0.80295
 Alpha virt. eigenvalues --    0.81027   0.81636   0.81919   0.81967   0.82458
 Alpha virt. eigenvalues --    0.83047   0.83250   0.83887   0.84877   0.85545
 Alpha virt. eigenvalues --    0.85830   0.86897   0.87559   0.87897   0.88310
 Alpha virt. eigenvalues --    0.89783   0.89968   0.90241   0.91738   0.93099
 Alpha virt. eigenvalues --    0.93606   0.94341   0.94934   0.95610   0.96318
 Alpha virt. eigenvalues --    0.97953   0.98314   0.98921   0.99417   1.00280
 Alpha virt. eigenvalues --    1.00980   1.02013   1.03963   1.04285   1.05239
 Alpha virt. eigenvalues --    1.06680   1.08387   1.09041   1.09627   1.10538
 Alpha virt. eigenvalues --    1.11355   1.11601   1.13990   1.14552   1.15906
 Alpha virt. eigenvalues --    1.16685   1.17080   1.18064   1.18571   1.19952
 Alpha virt. eigenvalues --    1.22250   1.24712   1.25572   1.27205   1.30347
 Alpha virt. eigenvalues --    1.32562   1.33954   1.36165   1.38146   1.38664
 Alpha virt. eigenvalues --    1.40480   1.41462   1.42927   1.44655   1.45774
 Alpha virt. eigenvalues --    1.47081   1.48033   1.49861   1.50114   1.51003
 Alpha virt. eigenvalues --    1.56339   1.57389   1.59990   1.61327   1.62595
 Alpha virt. eigenvalues --    1.68362   1.69248   1.71064   1.72314   1.73920
 Alpha virt. eigenvalues --    1.75213   1.78381   1.79201   1.79629   1.80384
 Alpha virt. eigenvalues --    1.80855   1.81555   1.81771   1.82196   1.82571
 Alpha virt. eigenvalues --    1.82839   1.83658   1.85832   1.86143   1.87938
 Alpha virt. eigenvalues --    1.89496   1.91311   1.91862   1.92486   1.93320
 Alpha virt. eigenvalues --    1.94215   1.95727   1.95969   1.96502   1.97075
 Alpha virt. eigenvalues --    1.98104   1.99857   2.02206   2.02557   2.03341
 Alpha virt. eigenvalues --    2.04573   2.06014   2.06980   2.07870   2.08486
 Alpha virt. eigenvalues --    2.08779   2.11670   2.12065   2.12632   2.13251
 Alpha virt. eigenvalues --    2.13592   2.16264   2.17745   2.18926   2.20401
 Alpha virt. eigenvalues --    2.21804   2.22523   2.24530   2.25280   2.27258
 Alpha virt. eigenvalues --    2.29275   2.29610   2.30235   2.31697   2.32986
 Alpha virt. eigenvalues --    2.35062   2.36455   2.38888   2.40704   2.41132
 Alpha virt. eigenvalues --    2.45963   2.47347   2.53934   2.55184   2.56147
 Alpha virt. eigenvalues --    2.56766   2.59140   2.64767   2.66135   2.69456
 Alpha virt. eigenvalues --    2.70361   2.71101   2.71777   2.73076   2.73299
 Alpha virt. eigenvalues --    2.75329   2.76017   2.77831   2.82062   2.83113
 Alpha virt. eigenvalues --    2.92224   2.92610   3.03601   3.39583   3.77001
 Alpha virt. eigenvalues --    3.80624   3.90707   3.95920   3.98135   4.00253
 Alpha virt. eigenvalues --    4.02994   4.07248   4.07885   4.10266   4.14169
 Alpha virt. eigenvalues --    4.19676   4.22386   4.23767   4.30372   4.31724
 Alpha virt. eigenvalues --    4.34298   4.39908   4.49189   4.68986   4.73196
          Condensed to atoms (all electrons):
               1          2          3          4          5          6
     1  C    4.987038   0.265894  -0.050816  -0.007124   0.001830   0.003953
     2  N    0.265894   7.227803   0.287025   0.130404  -0.054475  -0.056784
     3  C   -0.050816   0.287025   4.987918  -0.023488  -0.003018  -0.002286
     4  S   -0.007124   0.130404  -0.023488  13.576133   0.426849   0.448277
     5  O    0.001830  -0.054475  -0.003018   0.426849   8.252008  -0.045739
     6  O    0.003953  -0.056784  -0.002286   0.448277  -0.045739   8.224769
     7  N   -0.004864  -0.053012   0.002108   0.153508  -0.051263  -0.059452
     8  C    0.000073   0.001901  -0.000143  -0.000247  -0.003011   0.002631
     9  C   -0.000017  -0.000038   0.000001  -0.000206  -0.000060  -0.000100
    10  S    0.000000   0.000016   0.000001   0.000953  -0.000255  -0.000020
    11  O    0.000000   0.000000   0.000000   0.000774  -0.000019  -0.000001
    12  O    0.000000   0.000000   0.000000   0.000001   0.000000   0.000000
    13  C    0.000003  -0.001046   0.000026  -0.002890  -0.009223  -0.000138
    14  C    0.000217  -0.007705   0.000161  -0.007858  -0.000583  -0.000094
    15  C   -0.000022   0.000191   0.000001   0.000175  -0.000003   0.000000
    16  C    0.000003   0.000005   0.000000  -0.000015   0.000000   0.000000
    17  C    0.000000  -0.000008   0.000000  -0.000004   0.000000   0.000000
    18  C    0.000000   0.000000   0.000000   0.000000   0.000000   0.000000
    19  C    0.000000   0.000000   0.000000   0.000000   0.000000   0.000000
    20  C    0.000000   0.000000   0.000000   0.000000   0.000000   0.000000
    21  C    0.000001   0.000000   0.000000  -0.000001   0.000000   0.000000
    22  H    0.375269  -0.035162  -0.004032   0.002463  -0.000049   0.000130
    23  H    0.375602  -0.043606  -0.002245  -0.007303  -0.000046   0.005932
    24  H    0.371572  -0.036639   0.005040   0.001244  -0.000001  -0.002368
    25  H   -0.002745  -0.039756   0.375164   0.001593   0.000341  -0.000110
    26  H    0.004531  -0.030552   0.378537  -0.004037   0.011405  -0.000079
    27  H   -0.002701  -0.046938   0.371963  -0.002435  -0.000618   0.002192
    28  H   -0.000132   0.000072  -0.000026  -0.005916   0.001616   0.002216
    29  H    0.000000   0.000002   0.000000  -0.000015   0.000000   0.000000
    30  H   -0.000001   0.000002   0.000000  -0.000046   0.000002  -0.000017
    31  H    0.000001  -0.000012   0.000000   0.000022   0.000188   0.000000
    32  H   -0.000005  -0.000106  -0.000016  -0.000577   0.020935  -0.000008
    33  H   -0.001833   0.013269  -0.000073   0.002585  -0.000144   0.000008
    34  H   -0.000170   0.000031   0.000003  -0.000514   0.000007  -0.000003
    35  H    0.000000  -0.000005   0.000000   0.000002   0.000000   0.000000
    36  H    0.000000   0.000015   0.000000  -0.000017  -0.000001   0.000000
    37  H    0.000000   0.000000   0.000001   0.000000   0.000000   0.000000
    38  H    0.000000   0.000000   0.000000   0.000000   0.000000   0.000000
    39  H    0.000000   0.000000   0.000000   0.000000   0.000000   0.000000
    40  H    0.000000   0.000000   0.000000   0.000000   0.000000   0.000000
    41  H    0.000000   0.000000   0.000000   0.000000   0.000000   0.000000
               7          8          9         10         11         12
     1  C   -0.004864   0.000073  -0.000017   0.000000   0.000000   0.000000
     2  N   -0.053012   0.001901  -0.000038   0.000016   0.000000   0.000000
     3  C    0.002108  -0.000143   0.000001   0.000001   0.000000   0.000000
     4  S    0.153508  -0.000247  -0.000206   0.000953   0.000774   0.000001
     5  O   -0.051263  -0.003011  -0.000060  -0.000255  -0.000019   0.000000
     6  O   -0.059452   0.002631  -0.000100  -0.000020  -0.000001   0.000000
     7  N    7.379626   0.178290  -0.047729   0.004199   0.000066  -0.000041
     8  C    0.178290   4.931948   0.348047  -0.104030  -0.000728   0.002056
     9  C   -0.047729   0.348047   5.752834   0.114201  -0.044430  -0.045721
    10  S    0.004199  -0.104030   0.114201  13.890980   0.428289   0.432514
    11  O    0.000066  -0.000728  -0.044430   0.428289   8.210332  -0.048133
    12  O   -0.000041   0.002056  -0.045721   0.432514  -0.048133   8.216965
    13  C   -0.048583   0.350864  -0.197554   0.141778  -0.044311  -0.046803
    14  C   -0.052707   0.361026  -0.045445   0.001915  -0.000064  -0.000183
    15  C    0.003778  -0.028813  -0.005255  -0.000224  -0.000002   0.000002
    16  C   -0.000094   0.003892   0.000004   0.000010   0.000000   0.000000
    17  C   -0.000002   0.000075  -0.000005   0.000001   0.000000   0.000000
    18  C    0.000000   0.000001   0.000000   0.000000   0.000000   0.000000
    19  C    0.000000   0.000000   0.000000   0.000000   0.000000   0.000000
    20  C    0.000000   0.000002   0.000000   0.000000   0.000000   0.000000
    21  C   -0.000003   0.000117   0.000005   0.000000   0.000000   0.000000
    22  H   -0.000150   0.000025   0.000000   0.000000   0.000000   0.000000
    23  H   -0.000197  -0.000012   0.000000   0.000000   0.000000   0.000000
    24  H    0.007123  -0.000831   0.000015   0.000002   0.000000   0.000000
    25  H   -0.000071   0.000011   0.000000   0.000000   0.000000   0.000000
    26  H    0.000123   0.000005   0.000000   0.000001   0.000000   0.000000
    27  H   -0.000101   0.000000   0.000000   0.000000   0.000000   0.000000
    28  H    0.290197  -0.024701  -0.007226  -0.000154   0.000009   0.000002
    29  H    0.003513  -0.029367   0.328227  -0.003603   0.001152   0.000803
    30  H   -0.004684  -0.022728   0.340915  -0.008249  -0.000133   0.000639
    31  H    0.003352  -0.031689   0.005881  -0.005796   0.001216   0.001187
    32  H   -0.004365  -0.018371   0.007895  -0.008134  -0.000231   0.000447
    33  H   -0.004940  -0.030561   0.004926  -0.000107   0.000001   0.000002
    34  H   -0.000962  -0.036700  -0.006881  -0.000024   0.000001   0.000002
    35  H    0.000001  -0.004041   0.001516   0.000072   0.000002   0.000042
    36  H   -0.000006  -0.005202  -0.000178  -0.000042   0.000001  -0.000033
    37  H    0.000000  -0.000037   0.000000   0.000001   0.000000   0.000000
    38  H    0.000000   0.000000   0.000000   0.000000   0.000000   0.000000
    39  H    0.000000   0.000000   0.000000   0.000000   0.000000   0.000000
    40  H    0.000000   0.000000   0.000000   0.000000   0.000000   0.000000
    41  H    0.000001  -0.000069  -0.000003   0.000001   0.000000   0.000000
              13         14         15         16         17         18
     1  C    0.000003   0.000217  -0.000022   0.000003   0.000000   0.000000
     2  N   -0.001046  -0.007705   0.000191   0.000005  -0.000008   0.000000
     3  C    0.000026   0.000161   0.000001   0.000000   0.000000   0.000000
     4  S   -0.002890  -0.007858   0.000175  -0.000015  -0.000004   0.000000
     5  O   -0.009223  -0.000583  -0.000003   0.000000   0.000000   0.000000
     6  O   -0.000138  -0.000094   0.000000   0.000000   0.000000   0.000000
     7  N   -0.048583  -0.052707   0.003778  -0.000094  -0.000002   0.000000
     8  C    0.350864   0.361026  -0.028813   0.003892   0.000075   0.000001
     9  C   -0.197554  -0.045445  -0.005255   0.000004  -0.000005   0.000000
    10  S    0.141778   0.001915  -0.000224   0.000010   0.000001   0.000000
    11  O   -0.044311  -0.000064  -0.000002   0.000000   0.000000   0.000000
    12  O   -0.046803  -0.000183   0.000002   0.000000   0.000000   0.000000
    13  C    5.736127  -0.043411  -0.006515   0.000184  -0.000003   0.000000
    14  C   -0.043411   5.136011   0.340431  -0.039448  -0.003850  -0.000078
    15  C   -0.006515   0.340431   5.197839   0.346751  -0.055068   0.006853
    16  C    0.000184  -0.039448   0.346751   4.640043   0.552402  -0.020305
    17  C   -0.000003  -0.003850  -0.055068   0.552402   4.954105   0.523394
    18  C    0.000000  -0.000078   0.006853  -0.020305   0.523394   4.868072
    19  C    0.000000   0.000016   0.000401  -0.034334  -0.036057   0.550159
    20  C    0.000000   0.000002   0.006505  -0.018552  -0.046670  -0.026110
    21  C   -0.000005  -0.004634  -0.059952   0.545038  -0.037468  -0.047095
    22  H    0.000001   0.000248  -0.000011   0.000005   0.000007   0.000000
    23  H    0.000000  -0.000024   0.000000   0.000000   0.000000   0.000000
    24  H    0.000027   0.001077   0.000015  -0.000003   0.000000   0.000000
    25  H   -0.000002   0.000068  -0.000003   0.000000   0.000002   0.000000
    26  H   -0.000005   0.000020  -0.000001   0.000000   0.000000   0.000000
    27  H   -0.000001  -0.000011   0.000000   0.000000   0.000000   0.000000
    28  H    0.005199  -0.001026  -0.000084   0.000001   0.000000   0.000000
    29  H    0.005122  -0.005136   0.001030  -0.000028   0.000000   0.000000
    30  H    0.009259   0.000928   0.000106   0.000000   0.000000   0.000000
    31  H    0.328734  -0.007132   0.001319   0.000077  -0.000008   0.000000
    32  H    0.335136   0.000869   0.000091  -0.000003   0.000000   0.000000
    33  H   -0.004817   0.366262  -0.034077  -0.000646   0.003553  -0.000106
    34  H    0.005364   0.362312  -0.039002  -0.002156  -0.000024  -0.000009
    35  H   -0.000407  -0.041032   0.359028  -0.028346   0.003376  -0.000207
    36  H    0.001309  -0.037754   0.358975  -0.028350  -0.004366   0.000120
    37  H   -0.000002   0.000172  -0.010219  -0.046630   0.355105  -0.045091
    38  H    0.000000  -0.000001  -0.000185   0.003736  -0.039118   0.357083
    39  H    0.000000   0.000000   0.000007   0.000733   0.004617  -0.042635
    40  H    0.000000  -0.000002  -0.000183   0.003684   0.000867   0.004516
    41  H    0.000000   0.000184  -0.009041  -0.049238   0.006007   0.000367
              19         20         21         22         23         24
     1  C    0.000000   0.000000   0.000001   0.375269   0.375602   0.371572
     2  N    0.000000   0.000000   0.000000  -0.035162  -0.043606  -0.036639
     3  C    0.000000   0.000000   0.000000  -0.004032  -0.002245   0.005040
     4  S    0.000000   0.000000  -0.000001   0.002463  -0.007303   0.001244
     5  O    0.000000   0.000000   0.000000  -0.000049  -0.000046  -0.000001
     6  O    0.000000   0.000000   0.000000   0.000130   0.005932  -0.002368
     7  N    0.000000   0.000000  -0.000003  -0.000150  -0.000197   0.007123
     8  C    0.000000   0.000002   0.000117   0.000025  -0.000012  -0.000831
     9  C    0.000000   0.000000   0.000005   0.000000   0.000000   0.000015
    10  S    0.000000   0.000000   0.000000   0.000000   0.000000   0.000002
    11  O    0.000000   0.000000   0.000000   0.000000   0.000000   0.000000
    12  O    0.000000   0.000000   0.000000   0.000000   0.000000   0.000000
    13  C    0.000000   0.000000  -0.000005   0.000001   0.000000   0.000027
    14  C    0.000016   0.000002  -0.004634   0.000248  -0.000024   0.001077
    15  C    0.000401   0.006505  -0.059952  -0.000011   0.000000   0.000015
    16  C   -0.034334  -0.018552   0.545038   0.000005   0.000000  -0.000003
    17  C   -0.036057  -0.046670  -0.037468   0.000007   0.000000   0.000000
    18  C    0.550159  -0.026110  -0.047095   0.000000   0.000000   0.000000
    19  C    4.851658   0.549958  -0.036159   0.000000   0.000000   0.000000
    20  C    0.549958   4.863053   0.525894   0.000000   0.000000   0.000000
    21  C   -0.036159   0.525894   4.961131   0.000001   0.000000  -0.000001
    22  H    0.000000   0.000000   0.000001   0.545389  -0.035504  -0.026119
    23  H    0.000000   0.000000   0.000000  -0.035504   0.551767  -0.032651
    24  H    0.000000   0.000000  -0.000001  -0.026119  -0.032651   0.552894
    25  H    0.000000   0.000000   0.000000   0.005327  -0.001736   0.000069
    26  H    0.000000   0.000000   0.000000   0.000010  -0.000182  -0.000189
    27  H    0.000000   0.000000   0.000000  -0.001397   0.008649  -0.000246
    28  H    0.000000   0.000000   0.000000   0.000009   0.000022   0.001599
    29  H    0.000000   0.000000   0.000003   0.000000   0.000000  -0.000002
    30  H    0.000000   0.000000   0.000000   0.000000   0.000000  -0.000008
    31  H    0.000000   0.000000  -0.000001   0.000000   0.000000   0.000000
    32  H    0.000000   0.000000   0.000000   0.000001   0.000000   0.000001
    33  H   -0.000006  -0.000015  -0.000053  -0.000362   0.000210  -0.000820
    34  H   -0.000004  -0.000174   0.004399   0.000022   0.000007   0.001869
    35  H    0.000013   0.000086  -0.003846   0.000000   0.000000   0.000001
    36  H    0.000010  -0.000203   0.004015   0.000000   0.000000   0.000001
    37  H    0.004814   0.000355   0.006162   0.000000   0.000000   0.000000
    38  H   -0.042588   0.004494   0.000869   0.000000   0.000000   0.000000
    39  H    0.359725  -0.042504   0.004660   0.000000   0.000000   0.000000
    40  H   -0.042488   0.357119  -0.039380   0.000000   0.000000   0.000000
    41  H    0.004880  -0.044598   0.355207   0.000000   0.000000   0.000000
              25         26         27         28         29         30
     1  C   -0.002745   0.004531  -0.002701  -0.000132   0.000000  -0.000001
     2  N   -0.039756  -0.030552  -0.046938   0.000072   0.000002   0.000002
     3  C    0.375164   0.378537   0.371963  -0.000026   0.000000   0.000000
     4  S    0.001593  -0.004037  -0.002435  -0.005916  -0.000015  -0.000046
     5  O    0.000341   0.011405  -0.000618   0.001616   0.000000   0.000002
     6  O   -0.000110  -0.000079   0.002192   0.002216   0.000000  -0.000017
     7  N   -0.000071   0.000123  -0.000101   0.290197   0.003513  -0.004684
     8  C    0.000011   0.000005   0.000000  -0.024701  -0.029367  -0.022728
     9  C    0.000000   0.000000   0.000000  -0.007226   0.328227   0.340915
    10  S    0.000000   0.000001   0.000000  -0.000154  -0.003603  -0.008249
    11  O    0.000000   0.000000   0.000000   0.000009   0.001152  -0.000133
    12  O    0.000000   0.000000   0.000000   0.000002   0.000803   0.000639
    13  C   -0.000002  -0.000005  -0.000001   0.005199   0.005122   0.009259
    14  C    0.000068   0.000020  -0.000011  -0.001026  -0.005136   0.000928
    15  C   -0.000003  -0.000001   0.000000  -0.000084   0.001030   0.000106
    16  C    0.000000   0.000000   0.000000   0.000001  -0.000028   0.000000
    17  C    0.000002   0.000000   0.000000   0.000000   0.000000   0.000000
    18  C    0.000000   0.000000   0.000000   0.000000   0.000000   0.000000
    19  C    0.000000   0.000000   0.000000   0.000000   0.000000   0.000000
    20  C    0.000000   0.000000   0.000000   0.000000   0.000000   0.000000
    21  C    0.000000   0.000000   0.000000   0.000000   0.000003   0.000000
    22  H    0.005327   0.000010  -0.001397   0.000009   0.000000   0.000000
    23  H   -0.001736  -0.000182   0.008649   0.000022   0.000000   0.000000
    24  H    0.000069  -0.000189  -0.000246   0.001599  -0.000002  -0.000008
    25  H    0.559836  -0.021253  -0.041521  -0.000002   0.000000   0.000000
    26  H   -0.021253   0.483499  -0.029419  -0.000007   0.000000   0.000000
    27  H   -0.041521  -0.029419   0.575246   0.000002   0.000000   0.000000
    28  H   -0.000002  -0.000007   0.000002   0.374993   0.000048   0.004633
    29  H    0.000000   0.000000   0.000000   0.000048   0.502710  -0.019288
    30  H    0.000000   0.000000   0.000000   0.004633  -0.019288   0.489246
    31  H    0.000000   0.000000   0.000000  -0.000094  -0.000018  -0.000238
    32  H    0.000000   0.000071  -0.000002   0.000026  -0.000218  -0.000256
    33  H   -0.000242  -0.000056   0.000060  -0.000396   0.000214  -0.000081
    34  H   -0.000002  -0.000001   0.000000   0.003300   0.000572   0.000445
    35  H    0.000000   0.000000   0.000000  -0.000006   0.006787  -0.000003
    36  H    0.000000   0.000000   0.000000   0.000005  -0.000016  -0.000006
    37  H    0.000001   0.000000   0.000000   0.000000   0.000000   0.000000
    38  H    0.000000   0.000000   0.000000   0.000000   0.000000   0.000000
    39  H    0.000000   0.000000   0.000000   0.000000   0.000000   0.000000
    40  H    0.000000   0.000000   0.000000   0.000000   0.000000   0.000000
    41  H    0.000000   0.000000   0.000000   0.000000   0.000098   0.000001
              31         32         33         34         35         36
     1  C    0.000001  -0.000005  -0.001833  -0.000170   0.000000   0.000000
     2  N   -0.000012  -0.000106   0.013269   0.000031  -0.000005   0.000015
     3  C    0.000000  -0.000016  -0.000073   0.000003   0.000000   0.000000
     4  S    0.000022  -0.000577   0.002585  -0.000514   0.000002  -0.000017
     5  O    0.000188   0.020935  -0.000144   0.000007   0.000000  -0.000001
     6  O    0.000000  -0.000008   0.000008  -0.000003   0.000000   0.000000
     7  N    0.003352  -0.004365  -0.004940  -0.000962   0.000001  -0.000006
     8  C   -0.031689  -0.018371  -0.030561  -0.036700  -0.004041  -0.005202
     9  C    0.005881   0.007895   0.004926  -0.006881   0.001516  -0.000178
    10  S   -0.005796  -0.008134  -0.000107  -0.000024   0.000072  -0.000042
    11  O    0.001216  -0.000231   0.000001   0.000001   0.000002   0.000001
    12  O    0.001187   0.000447   0.000002   0.000002   0.000042  -0.000033
    13  C    0.328734   0.335136  -0.004817   0.005364  -0.000407   0.001309
    14  C   -0.007132   0.000869   0.366262   0.362312  -0.041032  -0.037754
    15  C    0.001319   0.000091  -0.034077  -0.039002   0.359028   0.358975
    16  C    0.000077  -0.000003  -0.000646  -0.002156  -0.028346  -0.028350
    17  C   -0.000008   0.000000   0.003553  -0.000024   0.003376  -0.004366
    18  C    0.000000   0.000000  -0.000106  -0.000009  -0.000207   0.000120
    19  C    0.000000   0.000000  -0.000006  -0.000004   0.000013   0.000010
    20  C    0.000000   0.000000  -0.000015  -0.000174   0.000086  -0.000203
    21  C   -0.000001   0.000000  -0.000053   0.004399  -0.003846   0.004015
    22  H    0.000000   0.000001  -0.000362   0.000022   0.000000   0.000000
    23  H    0.000000   0.000000   0.000210   0.000007   0.000000   0.000000
    24  H    0.000000   0.000001  -0.000820   0.001869   0.000001   0.000001
    25  H    0.000000   0.000000  -0.000242  -0.000002   0.000000   0.000000
    26  H    0.000000   0.000071  -0.000056  -0.000001   0.000000   0.000000
    27  H    0.000000  -0.000002   0.000060   0.000000   0.000000   0.000000
    28  H   -0.000094   0.000026  -0.000396   0.003300  -0.000006   0.000005
    29  H   -0.000018  -0.000218   0.000214   0.000572   0.006787  -0.000016
    30  H   -0.000238  -0.000256  -0.000081   0.000445  -0.000003  -0.000006
    31  H    0.507465  -0.014763   0.000535   0.000146   0.000219   0.006208
    32  H   -0.014763   0.409648   0.000248  -0.000073   0.000007  -0.000028
    33  H    0.000535   0.000248   0.532064  -0.034031   0.005086  -0.004781
    34  H    0.000146  -0.000073  -0.034031   0.603232  -0.004342   0.005712
    35  H    0.000219   0.000007   0.005086  -0.004342   0.581536  -0.034861
    36  H    0.006208  -0.000028  -0.004781   0.005712  -0.034861   0.577091
    37  H    0.000017   0.000000   0.000548   0.000032   0.000088   0.006225
    38  H    0.000000   0.000000   0.000002   0.000000   0.000003  -0.000008
    39  H    0.000000   0.000000   0.000000   0.000000   0.000000   0.000000
    40  H    0.000000   0.000000   0.000000   0.000004  -0.000005   0.000003
    41  H    0.000000   0.000000   0.000046   0.001138   0.004599   0.000061
              37         38         39         40         41
     1  C    0.000000   0.000000   0.000000   0.000000   0.000000
     2  N    0.000000   0.000000   0.000000   0.000000   0.000000
     3  C    0.000001   0.000000   0.000000   0.000000   0.000000
     4  S    0.000000   0.000000   0.000000   0.000000   0.000000
     5  O    0.000000   0.000000   0.000000   0.000000   0.000000
     6  O    0.000000   0.000000   0.000000   0.000000   0.000000
     7  N    0.000000   0.000000   0.000000   0.000000   0.000001
     8  C   -0.000037   0.000000   0.000000   0.000000  -0.000069
     9  C    0.000000   0.000000   0.000000   0.000000  -0.000003
    10  S    0.000001   0.000000   0.000000   0.000000   0.000001
    11  O    0.000000   0.000000   0.000000   0.000000   0.000000
    12  O    0.000000   0.000000   0.000000   0.000000   0.000000
    13  C   -0.000002   0.000000   0.000000   0.000000   0.000000
    14  C    0.000172  -0.000001   0.000000  -0.000002   0.000184
    15  C   -0.010219  -0.000185   0.000007  -0.000183  -0.009041
    16  C   -0.046630   0.003736   0.000733   0.003684  -0.049238
    17  C    0.355105  -0.039118   0.004617   0.000867   0.006007
    18  C   -0.045091   0.357083  -0.042635   0.004516   0.000367
    19  C    0.004814  -0.042588   0.359725  -0.042488   0.004880
    20  C    0.000355   0.004494  -0.042504   0.357119  -0.044598
    21  C    0.006162   0.000869   0.004660  -0.039380   0.355207
    22  H    0.000000   0.000000   0.000000   0.000000   0.000000
    23  H    0.000000   0.000000   0.000000   0.000000   0.000000
    24  H    0.000000   0.000000   0.000000   0.000000   0.000000
    25  H    0.000001   0.000000   0.000000   0.000000   0.000000
    26  H    0.000000   0.000000   0.000000   0.000000   0.000000
    27  H    0.000000   0.000000   0.000000   0.000000   0.000000
    28  H    0.000000   0.000000   0.000000   0.000000   0.000000
    29  H    0.000000   0.000000   0.000000   0.000000   0.000098
    30  H    0.000000   0.000000   0.000000   0.000000   0.000001
    31  H    0.000017   0.000000   0.000000   0.000000   0.000000
    32  H    0.000000   0.000000   0.000000   0.000000   0.000000
    33  H    0.000548   0.000002   0.000000   0.000000   0.000046
    34  H    0.000032   0.000000   0.000000   0.000004   0.001138
    35  H    0.000088   0.000003   0.000000  -0.000005   0.004599
    36  H    0.006225  -0.000008   0.000000   0.000003   0.000061
    37  H    0.608612  -0.005537  -0.000179   0.000018  -0.000183
    38  H   -0.005537   0.592519  -0.005409  -0.000187   0.000018
    39  H   -0.000179  -0.005409   0.592436  -0.005434  -0.000183
    40  H    0.000018  -0.000187  -0.005434   0.593158  -0.005664
    41  H   -0.000183   0.000018  -0.000183  -0.005664   0.614901
 Mulliken charges:
               1
     1  C   -0.315554
     2  N   -0.520782
     3  C   -0.321807
     4  S    1.317710
     5  O   -0.546672
     6  O   -0.522910
     7  N   -0.692660
     8  C    0.160317
     9  C   -0.503620
    10  S    1.115707
    11  O   -0.503790
    12  O   -0.513748
    13  C   -0.513418
    14  C   -0.273741
    15  C   -0.374836
    16  C    0.171577
    17  C   -0.180863
    18  C   -0.128930
    19  C   -0.129998
    20  C   -0.128640
    21  C   -0.178903
    22  H    0.173878
    23  H    0.181319
    24  H    0.157332
    25  H    0.165030
    26  H    0.207578
    27  H    0.167277
    28  H    0.355821
    29  H    0.207409
    30  H    0.209561
    31  H    0.203183
    32  H    0.271785
    33  H    0.188526
    34  H    0.136474
    35  H    0.154639
    36  H    0.156101
    37  H    0.125727
    38  H    0.134307
    39  H    0.134167
    40  H    0.133975
    41  H    0.121470
 Sum of Mulliken charges =   0.00000
 Mulliken charges with hydrogens summed into heavy atoms:
               1
     1  C    0.196974
     2  N   -0.520782
     3  C    0.218078
     4  S    1.317710
     5  O   -0.546672
     6  O   -0.522910
     7  N   -0.336839
     8  C    0.160317
     9  C   -0.086650
    10  S    1.115707
    11  O   -0.503790
    12  O   -0.513748
    13  C   -0.038450
    14  C    0.051260
    15  C   -0.064095
    16  C    0.171577
    17  C   -0.055136
    18  C    0.005377
    19  C    0.004170
    20  C    0.005335
    21  C   -0.057433
 Electronic spatial extent (au):  <R**2>=           8379.7457
 Charge=              0.0000 electrons
 Dipole moment (field-independent basis, Debye):
    X=              8.3884    Y=              4.2176    Z=             -1.8010  Tot=              9.5602
 Quadrupole moment (field-independent basis, Debye-Ang):
   XX=           -164.8393   YY=           -149.4757   ZZ=           -128.3183
   XY=             -2.6123   XZ=             -0.0500   YZ=              8.3849
 Traceless Quadrupole moment (field-independent basis, Debye-Ang):
   XX=            -17.2949   YY=             -1.9313   ZZ=             19.2262
   XY=             -2.6123   XZ=             -0.0500   YZ=              8.3849
 Octapole moment (field-independent basis, Debye-Ang**2):
  XXX=            111.7867  YYY=            124.6743  ZZZ=             -5.3510  XYY=             39.5370
  XXY=             30.3005  XXZ=             -2.0220  XZZ=             -7.2921  YZZ=             -5.2437
  YYZ=             -9.1076  XYZ=             -3.2777
 Hexadecapole moment (field-independent basis, Debye-Ang**3):
 XXXX=          -6630.8298 YYYY=          -3714.6639 ZZZZ=           -741.3671 XXXY=            101.2888
 XXXZ=            -82.1089 YYYX=           -138.7816 YYYZ=            113.0206 ZZZX=              7.9000
 ZZZY=              7.8780 XXYY=          -1932.8741 XXZZ=          -1188.6226 YYZZ=           -698.8222
 XXYZ=             73.5899 YYXZ=             -4.6352 ZZXY=             29.1152
 N-N= 2.155509921765D+03 E-N=-8.336315869798D+03  KE= 1.702451945488D+03
 No NMR shielding tensors so no spin-rotation constants.
 Leave Link  601 at Thu Oct  1 22:18:27 2020, MaxMem=  2147483648 cpu:         0.4
 (Enter /prod/apps/gaussian/g09d1/l9999.exe)
 1\1\GINC-PIRINEUS36\SP\RB3LYP\6-31G(d)\C13H20N2O4S2\UBAFAR01\01-Oct-20
 20\0\\#p b3lyp/6-31G(d)\\SM40.n.7.pdb.xyz\\0,1\C,0,5.794,0.789,-0.944\
 N,0,5.592,0.303,0.43\C,0,5.788,1.351,1.45\S,0,4.19,-0.617,0.633\O,0,4.
 05,-0.817,2.079\O,0,3.063,-0.054,-0.124\N,0,4.462,-2.093,-0.083\C,0,5.
 508,-3.079,0.28\C,0,5.028,-4.431,-0.345\S,0,4.386,-4.96,1.278\O,0,2.93
 1,-4.739,1.403\O,0,4.936,-6.246,1.751\C,0,5.358,-3.5,1.781\C,0,6.913,-
 2.635,-0.167\C,0,8.078,-3.58,0.181\C,0,9.392,-3.064,-0.366\C,0,10.236,
 -2.279,0.43\C,0,11.436,-1.774,-0.076\C,0,11.81,-2.049,-1.394\C,0,10.97
 7,-2.831,-2.197\C,0,9.779,-3.333,-1.686\H,0,6.815,1.167,-1.009\H,0,5.0
 94,1.589,-1.209\H,0,5.688,-0.031,-1.655\H,0,6.811,1.716,1.338\H,0,5.66
 8,0.92,2.441\H,0,5.096,2.193,1.326\H,0,4.274,-2.043,-1.085\H,0,5.844,-
 5.085,-0.652\H,0,4.27,-4.362,-1.123\H,0,6.293,-3.828,2.235\H,0,4.826,-
 2.801,2.421\H,0,7.105,-1.651,0.267\H,0,6.879,-2.499,-1.254\H,0,7.887,-
 4.582,-0.219\H,0,8.162,-3.679,1.267\H,0,9.951,-2.068,1.457\H,0,12.078,
 -1.172,0.559\H,0,12.742,-1.66,-1.79\H,0,11.261,-3.054,-3.221\H,0,9.14,
 -3.945,-2.317\\Version=AM64L-G09RevD.01\State=1-A\HF=-1714.0321743\RMS
 D=9.913e-09\Dipole=2.9064921,1.6289657,-1.745282\Quadrupole=-10.739236
 4,-0.2198622,10.9590986,0.1155093,7.0114133,7.8474826\PG=C01 [X(C13H20
 N2O4S2)]\\@


 TERRY FORSTER, PORTLY ATLANTA BRAVES RELIEVER,
 ANNOUNCING THAT HE WAS GOING TO A FAT FARM:
 "A WAIST IS A TERRIBLE THING TO MIND."
 Job cpu time:       0 days  0 hours  6 minutes 14.8 seconds.
 File lengths (MBytes):  RWF=     73 Int=      0 D2E=      0 Chk=      6 Scr=      1
 Normal termination of Gaussian 09 at Thu Oct  1 22:18:27 2020.
 Initial command:
 /prod/apps/gaussian/g09d1/l1.exe "/tmp/ubafar01/1462868/Gau-62027.inp" -scrdir="/tmp/ubafar01/1462868/"
 Entering Link 1 = /prod/apps/gaussian/g09d1/l1.exe PID=     62121.
  
 Copyright (c) 1988,1990,1992,1993,1995,1998,2003,2009,2013,
            Gaussian, Inc.  All Rights Reserved.
  
 This is part of the Gaussian(R) 09 program.  It is based on
 the Gaussian(R) 03 system (copyright 2003, Gaussian, Inc.),
 the Gaussian(R) 98 system (copyright 1998, Gaussian, Inc.),
 the Gaussian(R) 94 system (copyright 1995, Gaussian, Inc.),
 the Gaussian 92(TM) system (copyright 1992, Gaussian, Inc.),
[...]
    10  S    0.152438   0.002312  -0.000070   0.000004   0.000001   0.000000
    11  O   -0.044767  -0.000074  -0.000002   0.000000   0.000000   0.000000
    12  O   -0.046352  -0.000191   0.000003   0.000000   0.000000   0.000000
    13  C    5.712815  -0.043211  -0.006437   0.000187  -0.000002   0.000000
    14  C   -0.043211   5.118812   0.340756  -0.038514  -0.003824  -0.000080
    15  C   -0.006437   0.340756   5.193285   0.350955  -0.055673   0.006841
    16  C    0.000187  -0.038514   0.350955   4.650975   0.549519  -0.022573
    17  C   -0.000002  -0.003824  -0.055673   0.549519   4.976254   0.518711
    18  C    0.000000  -0.000080   0.006841  -0.022573   0.518711   4.898705
    19  C    0.000000   0.000016   0.000350  -0.034151  -0.038425   0.545172
    20  C    0.000000  -0.000006   0.006492  -0.021113  -0.046647  -0.028788
    21  C   -0.000004  -0.004404  -0.060239   0.542874  -0.038890  -0.047079
    22  H    0.000000   0.000219  -0.000011   0.000005   0.000007   0.000000
    23  H   -0.000001  -0.000022   0.000000   0.000000   0.000000   0.000000
    24  H    0.000023   0.001124   0.000011  -0.000003   0.000000   0.000000
    25  H   -0.000002   0.000061  -0.000003   0.000000   0.000002   0.000000
    26  H   -0.000005   0.000021  -0.000001   0.000000   0.000000   0.000000
    27  H   -0.000001  -0.000010   0.000000   0.000000   0.000000   0.000000
    28  H    0.004312  -0.000651  -0.000064   0.000001   0.000000   0.000000
    29  H    0.004941  -0.005308   0.001542  -0.000025   0.000001   0.000000
    30  H    0.008592   0.000788   0.000091   0.000000   0.000000   0.000000
    31  H    0.334433  -0.006859   0.002157   0.000047  -0.000006   0.000000
    32  H    0.334674   0.000921   0.000089  -0.000002   0.000000   0.000000
    33  H   -0.004822   0.367224  -0.034463  -0.000570   0.003459  -0.000107
    34  H    0.005084   0.369573  -0.037961  -0.002161   0.000001  -0.000006
    35  H   -0.000420  -0.039674   0.360366  -0.027106   0.003376  -0.000206
    36  H    0.001236  -0.036397   0.360163  -0.027922  -0.004125   0.000138
    37  H   -0.000002   0.000183  -0.009759  -0.044760   0.359404  -0.044321
    38  H    0.000000  -0.000001  -0.000176   0.003678  -0.038314   0.360630
    39  H    0.000000   0.000000   0.000006   0.000632   0.004579  -0.042051
    40  H    0.000000  -0.000001  -0.000175   0.003617   0.000771   0.004471
    41  H    0.000000   0.000231  -0.008631  -0.046176   0.005865   0.000286
              19         20         21         22         23         24
     1  C    0.000000   0.000000   0.000001   0.378414   0.376136   0.374136
     2  N    0.000000   0.000000   0.000000  -0.033395  -0.044033  -0.035594
     3  C    0.000000   0.000000   0.000000  -0.004021  -0.002343   0.004740
     4  S    0.000000   0.000000  -0.000001   0.002384  -0.008628   0.002099
     5  O    0.000000   0.000000   0.000000  -0.000049  -0.000046   0.000001
     6  O    0.000000   0.000000   0.000000   0.000111   0.005951  -0.002315
     7  N    0.000000   0.000000  -0.000003  -0.000139  -0.000214   0.006406
     8  C    0.000000   0.000002   0.000112   0.000026  -0.000007  -0.000805
     9  C    0.000000   0.000000   0.000006   0.000000   0.000000   0.000014
    10  S    0.000000   0.000000   0.000000   0.000000   0.000000   0.000001
    11  O    0.000000   0.000000   0.000000   0.000000   0.000000   0.000000
    12  O    0.000000   0.000000   0.000000   0.000000   0.000000   0.000000
    13  C    0.000000   0.000000  -0.000004   0.000000  -0.000001   0.000023
    14  C    0.000016  -0.000006  -0.004404   0.000219  -0.000022   0.001124
    15  C    0.000350   0.006492  -0.060239  -0.000011   0.000000   0.000011
    16  C   -0.034151  -0.021113   0.542874   0.000005   0.000000  -0.000003
    17  C   -0.038425  -0.046647  -0.038890   0.000007   0.000000   0.000000
    18  C    0.545172  -0.028788  -0.047079   0.000000   0.000000   0.000000
    19  C    4.883037   0.544699  -0.038444   0.000000   0.000000   0.000000
    20  C    0.544699   4.894734   0.520961   0.000000   0.000000   0.000000
    21  C   -0.038444   0.520961   4.982285   0.000001   0.000000  -0.000001
    22  H    0.000000   0.000000   0.000001   0.518574  -0.033034  -0.023822
    23  H    0.000000   0.000000   0.000000  -0.033034   0.552985  -0.031501
    24  H    0.000000   0.000000  -0.000001  -0.023822  -0.031501   0.520965
    25  H    0.000000   0.000000   0.000000   0.004905  -0.001620   0.000061
    26  H    0.000000   0.000000   0.000000   0.000024  -0.000172  -0.000186
    27  H    0.000000   0.000000   0.000000  -0.001295   0.008306  -0.000217
    28  H    0.000000   0.000000   0.000000   0.000004   0.000025   0.001181
    29  H    0.000000   0.000000   0.000003   0.000000   0.000000  -0.000002
    30  H    0.000000   0.000000   0.000000   0.000000   0.000000  -0.000006
    31  H    0.000000   0.000000   0.000000   0.000000   0.000000   0.000000
    32  H    0.000000   0.000000   0.000000   0.000001   0.000000   0.000001
    33  H   -0.000006  -0.000014  -0.000053  -0.000307   0.000195  -0.000742
    34  H   -0.000004  -0.000158   0.004225   0.000017   0.000006   0.001581
    35  H    0.000013   0.000088  -0.003850   0.000000   0.000000   0.000001
    36  H    0.000010  -0.000200   0.004000   0.000000   0.000000   0.000001
    37  H    0.004726   0.000271   0.006057   0.000000   0.000000   0.000000
    38  H   -0.042081   0.004454   0.000765   0.000000   0.000000   0.000000
    39  H    0.363172  -0.041969   0.004612   0.000000   0.000000   0.000000
    40  H   -0.042067   0.360712  -0.038490   0.000000   0.000000   0.000000
    41  H    0.004741  -0.043707   0.360116   0.000000   0.000000   0.000000
              25         26         27         28         29         30
     1  C   -0.002504   0.004464  -0.002307  -0.000072   0.000000  -0.000001
     2  N   -0.037383  -0.031720  -0.046570  -0.000036   0.000002   0.000001
     3  C    0.379125   0.377732   0.372451  -0.000016   0.000000   0.000000
     4  S    0.001621  -0.004407  -0.003163  -0.005096  -0.000012   0.000057
     5  O    0.000305   0.010652  -0.000574   0.001273   0.000000   0.000003
     6  O   -0.000107  -0.000077   0.002148   0.001518   0.000000  -0.000016
     7  N   -0.000075   0.000126  -0.000100   0.291328   0.003320  -0.003528
     8  C    0.000010   0.000000   0.000001  -0.020017  -0.028374  -0.022504
     9  C    0.000000   0.000000   0.000000  -0.006351   0.334403   0.345038
    10  S    0.000000   0.000000   0.000000  -0.000227  -0.005314  -0.009420
    11  O    0.000000   0.000000   0.000000  -0.000008   0.001106  -0.000236
    12  O    0.000000   0.000000   0.000000   0.000001   0.000634   0.000632
    13  C   -0.000002  -0.000005  -0.000001   0.004312   0.004941   0.008592
    14  C    0.000061   0.000021  -0.000010  -0.000651  -0.005308   0.000788
    15  C   -0.000003  -0.000001   0.000000  -0.000064   0.001542   0.000091
    16  C    0.000000   0.000000   0.000000   0.000001  -0.000025   0.000000
    17  C    0.000002   0.000000   0.000000   0.000000   0.000001   0.000000
    18  C    0.000000   0.000000   0.000000   0.000000   0.000000   0.000000
    19  C    0.000000   0.000000   0.000000   0.000000   0.000000   0.000000
    20  C    0.000000   0.000000   0.000000   0.000000   0.000000   0.000000
    21  C    0.000000   0.000000   0.000000   0.000000   0.000003   0.000000
    22  H    0.004905   0.000024  -0.001295   0.000004   0.000000   0.000000
    23  H   -0.001620  -0.000172   0.008306   0.000025   0.000000   0.000000
    24  H    0.000061  -0.000186  -0.000217   0.001181  -0.000002  -0.000006
    25  H    0.528417  -0.020471  -0.038232  -0.000001   0.000000   0.000000
    26  H   -0.020471   0.496879  -0.030618  -0.000005   0.000000   0.000000
    27  H   -0.038232  -0.030618   0.569710   0.000002   0.000000   0.000000
    28  H   -0.000001  -0.000005   0.000002   0.309532   0.000063   0.003625
    29  H    0.000000   0.000000   0.000000   0.000063   0.467005  -0.013926
    30  H    0.000000   0.000000   0.000000   0.003625  -0.013926   0.451133
    31  H    0.000000   0.000000   0.000000  -0.000069  -0.000027  -0.000200
    32  H    0.000000   0.000071  -0.000002   0.000034  -0.000206  -0.000269
    33  H   -0.000212  -0.000055   0.000055  -0.000342   0.000191  -0.000068
    34  H   -0.000001  -0.000001   0.000000   0.002495   0.000534   0.000371
    35  H    0.000000   0.000000   0.000000  -0.000006   0.006266   0.000013
    36  H    0.000000   0.000000   0.000000   0.000004  -0.000021  -0.000005
    37  H    0.000001   0.000000   0.000000   0.000000   0.000000   0.000000
    38  H    0.000000   0.000000   0.000000   0.000000   0.000000   0.000000
    39  H    0.000000   0.000000   0.000000   0.000000   0.000000   0.000000
    40  H    0.000000   0.000000   0.000000   0.000000   0.000000   0.000000
    41  H    0.000000   0.000000   0.000000   0.000000   0.000086   0.000001
              31         32         33         34         35         36
     1  C    0.000001  -0.000004  -0.001924  -0.000052   0.000000   0.000000
     2  N   -0.000014  -0.000138   0.012050   0.000029  -0.000005   0.000015
     3  C    0.000000  -0.000013  -0.000096   0.000002   0.000000   0.000000
     4  S    0.000040  -0.000377   0.002635  -0.000481   0.000002  -0.000017
     5  O    0.000171   0.020788  -0.000147   0.000007   0.000000  -0.000001
     6  O    0.000000  -0.000013   0.000007  -0.000002   0.000000   0.000000
     7  N    0.003176  -0.004760  -0.005117  -0.000976   0.000001  -0.000010
     8  C   -0.029712  -0.020084  -0.030674  -0.034442  -0.004297  -0.005268
     9  C    0.005124   0.008091   0.004810  -0.006699   0.001724  -0.000180
    10  S   -0.006124  -0.008690  -0.000135  -0.000071   0.000049  -0.000069
    11  O    0.001155  -0.000132   0.000001   0.000001   0.000002   0.000001
    12  O    0.000960   0.000501   0.000002   0.000002   0.000036  -0.000031
    13  C    0.334433   0.334674  -0.004822   0.005084  -0.000420   0.001236
    14  C   -0.006859   0.000921   0.367224   0.369573  -0.039674  -0.036397
    15  C    0.002157   0.000089  -0.034463  -0.037961   0.360366   0.360163
    16  C    0.000047  -0.000002  -0.000570  -0.002161  -0.027106  -0.027922
    17  C   -0.000006   0.000000   0.003459   0.000001   0.003376  -0.004125
    18  C    0.000000   0.000000  -0.000107  -0.000006  -0.000206   0.000138
    19  C    0.000000   0.000000  -0.000006  -0.000004   0.000013   0.000010
    20  C    0.000000   0.000000  -0.000014  -0.000158   0.000088  -0.000200
    21  C    0.000000   0.000000  -0.000053   0.004225  -0.003850   0.004000
    22  H    0.000000   0.000001  -0.000307   0.000017   0.000000   0.000000
    23  H    0.000000   0.000000   0.000195   0.000006   0.000000   0.000000
    24  H    0.000000   0.000001  -0.000742   0.001581   0.000001   0.000001
    25  H    0.000000   0.000000  -0.000212  -0.000001   0.000000   0.000000
    26  H    0.000000   0.000071  -0.000055  -0.000001   0.000000   0.000000
    27  H    0.000000  -0.000002   0.000055   0.000000   0.000000   0.000000
    28  H   -0.000069   0.000034  -0.000342   0.002495  -0.000006   0.000004
    29  H   -0.000027  -0.000206   0.000191   0.000534   0.006266  -0.000021
    30  H   -0.000200  -0.000269  -0.000068   0.000371   0.000013  -0.000005
    31  H    0.472240  -0.012024   0.000513   0.000138   0.000196   0.005885
    32  H   -0.012024   0.420143   0.000253  -0.000069   0.000007  -0.000016
    33  H    0.000513   0.000253   0.529917  -0.032648   0.004958  -0.004781
    34  H    0.000138  -0.000069  -0.032648   0.563404  -0.004201   0.005276
    35  H    0.000196   0.000007   0.004958  -0.004201   0.567628  -0.034503
    36  H    0.005885  -0.000016  -0.004781   0.005276  -0.034503   0.564061
    37  H    0.000017   0.000000   0.000517   0.000029   0.000090   0.005767
    38  H    0.000000   0.000000   0.000002   0.000000   0.000003  -0.000007
    39  H    0.000000   0.000000   0.000000   0.000000   0.000000   0.000000
    40  H    0.000000   0.000000   0.000000   0.000004  -0.000005   0.000003
    41  H    0.000000   0.000000   0.000041   0.001007   0.004225   0.000064
              37         38         39         40         41
     1  C    0.000000   0.000000   0.000000   0.000000   0.000000
     2  N    0.000000   0.000000   0.000000   0.000000   0.000000
     3  C    0.000001   0.000000   0.000000   0.000000   0.000000
     4  S    0.000000   0.000000   0.000000   0.000000   0.000000
     5  O    0.000000   0.000000   0.000000   0.000000   0.000000
     6  O    0.000000   0.000000   0.000000   0.000000   0.000000
     7  N    0.000000   0.000000   0.000000   0.000000   0.000001
     8  C   -0.000037   0.000000   0.000000   0.000000  -0.000066
     9  C    0.000000   0.000000   0.000000   0.000000  -0.000004
    10  S    0.000000   0.000000   0.000000   0.000000   0.000000
    11  O    0.000000   0.000000   0.000000   0.000000   0.000000
    12  O    0.000000   0.000000   0.000000   0.000000   0.000000
    13  C   -0.000002   0.000000   0.000000   0.000000   0.000000
    14  C    0.000183  -0.000001   0.000000  -0.000001   0.000231
    15  C   -0.009759  -0.000176   0.000006  -0.000175  -0.008631
    16  C   -0.044760   0.003678   0.000632   0.003617  -0.046176
    17  C    0.359404  -0.038314   0.004579   0.000771   0.005865
    18  C   -0.044321   0.360630  -0.042051   0.004471   0.000286
    19  C    0.004726  -0.042081   0.363172  -0.042067   0.004741
    20  C    0.000271   0.004454  -0.041969   0.360712  -0.043707
    21  C    0.006057   0.000765   0.004612  -0.038490   0.360116
    22  H    0.000000   0.000000   0.000000   0.000000   0.000000
    23  H    0.000000   0.000000   0.000000   0.000000   0.000000
    24  H    0.000000   0.000000   0.000000   0.000000   0.000000
    25  H    0.000001   0.000000   0.000000   0.000000   0.000000
    26  H    0.000000   0.000000   0.000000   0.000000   0.000000
    27  H    0.000000   0.000000   0.000000   0.000000   0.000000
    28  H    0.000000   0.000000   0.000000   0.000000   0.000000
    29  H    0.000000   0.000000   0.000000   0.000000   0.000086
    30  H    0.000000   0.000000   0.000000   0.000000   0.000001
    31  H    0.000017   0.000000   0.000000   0.000000   0.000000
    32  H    0.000000   0.000000   0.000000   0.000000   0.000000
    33  H    0.000517   0.000002   0.000000   0.000000   0.000041
    34  H    0.000029   0.000000   0.000000   0.000004   0.001007
    35  H    0.000090   0.000003   0.000000  -0.000005   0.004225
    36  H    0.005767  -0.000007   0.000000   0.000003   0.000064
    37  H    0.582267  -0.005225  -0.000166   0.000016  -0.000166
    38  H   -0.005225   0.571499  -0.005174  -0.000174   0.000017
    39  H   -0.000166  -0.005174   0.572634  -0.005198  -0.000168
    40  H    0.000016  -0.000174  -0.005198   0.571833  -0.005281
    41  H   -0.000166   0.000017  -0.000168  -0.005281   0.582121
 Mulliken charges:
               1
     1  C   -0.328312
     2  N   -0.520567
     3  C   -0.322103
     4  S    1.307744
     5  O   -0.576507
     6  O   -0.563843
     7  N   -0.719807
     8  C    0.159023
     9  C   -0.494253
    10  S    1.108388
    11  O   -0.561615
    12  O   -0.559169
    13  C   -0.503358
    14  C   -0.279424
    15  C   -0.379547
    16  C    0.158884
    17  C   -0.196096
    18  C   -0.149745
    19  C   -0.150758
    20  C   -0.149813
    21  C   -0.194558
    22  H    0.191380
    23  H    0.178015
    24  H    0.182849
    25  H    0.186103
    26  H    0.197747
    27  H    0.170417
    28  H    0.417560
    29  H    0.233116
    30  H    0.239834
    31  H    0.228782
    32  H    0.261226
    33  H    0.190455
    34  H    0.166144
    35  H    0.165229
    36  H    0.166933
    37  H    0.145089
    38  H    0.150103
    39  H    0.149089
    40  H    0.149963
    41  H    0.145396
 Sum of Mulliken charges =   0.00000
 Mulliken charges with hydrogens summed into heavy atoms:
               1
     1  C    0.223932
     2  N   -0.520567
     3  C    0.232165
     4  S    1.307744
     5  O   -0.576507
     6  O   -0.563843
     7  N   -0.302246
     8  C    0.159023
     9  C   -0.021302
    10  S    1.108388
    11  O   -0.561615
    12  O   -0.559169
    13  C   -0.013350
    14  C    0.077176
    15  C   -0.047385
    16  C    0.158884
    17  C   -0.051007
    18  C    0.000359
    19  C   -0.001669
    20  C    0.000150
    21  C   -0.049162
 Electronic spatial extent (au):  <R**2>=           8386.1099
 Charge=              0.0000 electrons
 Dipole moment (field-independent basis, Debye):
    X=             10.5502    Y=              4.9288    Z=             -2.7968  Tot=             11.9759
 Quadrupole moment (field-independent basis, Debye-Ang):
   XX=           -173.8440   YY=           -151.6352   ZZ=           -125.7142
   XY=             -3.2087   XZ=              0.5776   YZ=              9.7751
 Traceless Quadrupole moment (field-independent basis, Debye-Ang):
   XX=            -23.4462   YY=             -1.2374   ZZ=             24.6836
   XY=             -3.2087   XZ=              0.5776   YZ=              9.7751
 Octapole moment (field-independent basis, Debye-Ang**2):
  XXX=            139.6648  YYY=            145.9922  ZZZ=            -10.1598  XYY=             58.6887
  XXY=             36.4405  XXZ=             -4.8969  XZZ=             -3.7857  YZZ=             -6.3054
  YYZ=            -12.7303  XYZ=             -4.2542
 Hexadecapole moment (field-independent basis, Debye-Ang**3):
 XXXX=          -6750.8613 YYYY=          -3751.9460 ZZZZ=           -723.5233 XXXY=             99.1027
 XXXZ=            -89.8472 YYYX=           -163.5457 YYYZ=            135.2963 ZZZX=             12.4526
 ZZZY=             11.7333 XXYY=          -1985.6501 XXZZ=          -1182.9146 YYZZ=           -692.9107
 XXYZ=             84.3062 YYXZ=             -1.7495 ZZXY=             32.5744
 N-N= 2.155513511107D+03 E-N=-8.336441892286D+03  KE= 1.702476161700D+03
 No NMR shielding tensors so no spin-rotation constants.
 Leave Link  601 at Thu Oct  1 22:23:28 2020, MaxMem=  2147483648 cpu:         0.3
 (Enter /prod/apps/gaussian/g09d1/l9999.exe)
 1\1\GINC-PIRINEUS36\SP\RB3LYP\6-31G(d)\C13H20N2O4S2\UBAFAR01\01-Oct-20
 20\0\\#p b3lyp/6-31G(d) scrf=(iefpcm,read,solvent=Water) geom=allcheck
  guess=read\\SM40.n.7.pdb.xyz\\0,1\C,0,5.794,0.789,-0.944\N,0,5.592,0.
 303,0.43\C,0,5.788,1.351,1.45\S,0,4.19,-0.617,0.633\O,0,4.05,-0.817,2.
 079\O,0,3.063,-0.054,-0.124\N,0,4.462,-2.093,-0.083\C,0,5.508,-3.079,0
 .28\C,0,5.028,-4.431,-0.345\S,0,4.386,-4.96,1.278\O,0,2.931,-4.739,1.4
 03\O,0,4.936,-6.246,1.751\C,0,5.358,-3.5,1.781\C,0,6.913,-2.635,-0.167
 \C,0,8.078,-3.58,0.181\C,0,9.392,-3.064,-0.366\C,0,10.236,-2.279,0.43\
 C,0,11.436,-1.774,-0.076\C,0,11.81,-2.049,-1.394\C,0,10.977,-2.831,-2.
 197\C,0,9.779,-3.333,-1.686\H,0,6.815,1.167,-1.009\H,0,5.094,1.589,-1.
 209\H,0,5.688,-0.031,-1.655\H,0,6.811,1.716,1.338\H,0,5.668,0.92,2.441
 \H,0,5.096,2.193,1.326\H,0,4.274,-2.043,-1.085\H,0,5.844,-5.085,-0.652
 \H,0,4.27,-4.362,-1.123\H,0,6.293,-3.828,2.235\H,0,4.826,-2.801,2.421\
 H,0,7.105,-1.651,0.267\H,0,6.879,-2.499,-1.254\H,0,7.887,-4.582,-0.219
 \H,0,8.162,-3.679,1.267\H,0,9.951,-2.068,1.457\H,0,12.078,-1.172,0.559
 \H,0,12.742,-1.66,-1.79\H,0,11.261,-3.054,-3.221\H,0,9.14,-3.945,-2.31
 7\\Version=AM64L-G09RevD.01\State=1-A\HF=-1714.0636659\RMSD=7.239e-09\
 Dipole=3.6027349,1.8824665,-2.382536\Quadrupole=-14.3734141,0.5029688,
 13.8704453,0.0471349,9.6902973,9.2690515\PG=C01 [X(C13H20N2O4S2)]\\@


 POCKETA-POCKETA
 BARON VON RICHTOFEN
 SLAUGHTERED THE ALLIES WITH
 HARDLY A CARE.
 KILLED EIGHTY-ONE WITH HIS
 BLOOD-COLORED TRIPLANE, THEN
 UN-AEROBATICALLY
 PLUNGED FROM THE AIR.
   -- TONY HOFFMAN
 Job cpu time:       0 days  0 hours  5 minutes  0.9 seconds.
 File lengths (MBytes):  RWF=    265 Int=      0 D2E=      0 Chk=      8 Scr=      1
 Normal termination of Gaussian 09 at Thu Oct  1 22:23:28 2020.
