 Entering Gaussian System, Link 0=g09
 Initial command:
 /prod/apps/gaussian/g09d1/l1.exe "/tmp/ubafar01/1460310/Gau-53436.inp" -scrdir="/tmp/ubafar01/1460310/"
 Entering Link 1 = /prod/apps/gaussian/g09d1/l1.exe PID=     53437.
  
 Copyright (c) 1988,1990,1992,1993,1995,1998,2003,2009,2013,
            Gaussian, Inc.  All Rights Reserved.
  
 This is part of the Gaussian(R) 09 program.  It is based on
 the Gaussian(R) 03 system (copyright 2003, Gaussian, Inc.),
 the Gaussian(R) 98 system (copyright 1998, Gaussian, Inc.),
 the Gaussian(R) 94 system (copyright 1995, Gaussian, Inc.),
 the Gaussian 92(TM) system (copyright 1992, Gaussian, Inc.),
 the Gaussian 90(TM) system (copyright 1990, Gaussian, Inc.),
 the Gaussian 88(TM) system (copyright 1988, Gaussian, Inc.),
 the Gaussian 86(TM) system (copyright 1986, Carnegie Mellon
 University), and the Gaussian 82(TM) system (copyright 1983,
 Carnegie Mellon University). Gaussian is a federally registered
 trademark of Gaussian, Inc.
  
 This software contains proprietary and confidential information,
 including trade secrets, belonging to Gaussian, Inc.
  
 This software is provided under written license and may be
 used, copied, transmitted, or stored only in accord with that
 written license.
  
 The following legend is applicable only to US Government
 contracts under FAR:
  
                    RESTRICTED RIGHTS LEGEND
  
 Use, reproduction and disclosure by the US Government is
 subject to restrictions as set forth in subparagraphs (a)
 and (c) of the Commercial Computer Software - Restricted
 Rights clause in FAR 52.227-19.
  
 Gaussian, Inc.
 340 Quinnipiac St., Bldg. 40, Wallingford CT 06492
  
  
 ---------------------------------------------------------------
 Warning -- This program may not be used in any manner that
 competes with the business of Gaussian, Inc. or will provide
 assistance to any competitor of Gaussian, Inc.  The licensee
 of this program is prohibited from giving any competitor of
 Gaussian, Inc. access to this program.  By using this program,
 the user acknowledges that Gaussian, Inc. is engaged in the
 business of creating and licensing software in the field of
 computational chemistry and represents and warrants to the
 licensee that it is not a competitor of Gaussian, Inc. and that
 it will not use this program in any manner prohibited above.
 ---------------------------------------------------------------
  

 Cite this work as:
 Gaussian 09, Revision D.01,
 M. J. Frisch, G. W. Trucks, H. B. Schlegel, G. E. Scuseria, 
 M. A. Robb, J. R. Cheeseman, G. Scalmani, V. Barone, B. Mennucci, 
 G. A. Petersson, H. Nakatsuji, M. Caricato, X. Li, H. P. Hratchian, 
 A. F. Izmaylov, J. Bloino, G. Zheng, J. L. Sonnenberg, M. Hada, 
 M. Ehara, K. Toyota, R. Fukuda, J. Hasegawa, M. Ishida, T. Nakajima, 
 Y. Honda, O. Kitao, H. Nakai, T. Vreven, J. A. Montgomery, Jr., 
 J. E. Peralta, F. Ogliaro, M. Bearpark, J. J. Heyd, E. Brothers, 
 K. N. Kudin, V. N. Staroverov, T. Keith, R. Kobayashi, J. Normand, 
 K. Raghavachari, A. Rendell, J. C. Burant, S. S. Iyengar, J. Tomasi, 
 M. Cossi, N. Rega, J. M. Millam, M. Klene, J. E. Knox, J. B. Cross, 
 V. Bakken, C. Adamo, J. Jaramillo, R. Gomperts, R. E. Stratmann, 
 O. Yazyev, A. J. Austin, R. Cammi, C. Pomelli, J. W. Ochterski, 
 R. L. Martin, K. Morokuma, V. G. Zakrzewski, G. A. Voth, 
 P. Salvador, J. J. Dannenberg, S. Dapprich, A. D. Daniels, 
 O. Farkas, J. B. Foresman, J. V. Ortiz, J. Cioslowski, 
 and D. J. Fox, Gaussian, Inc., Wallingford CT, 2013.
 
 ******************************************
 Gaussian 09:  AM64L-G09RevD.01 24-Apr-2013
                21-Sep-2020 
 ******************************************
 %nproc=1
 Will use up to    1 processors via shared memory.
 %Chk=SM40_38w.n.2.pdb.xyz.mst.n.o.chk
 -----------------
 #p b3lyp/6-31G(d)
 -----------------
 1/38=1/1;
 2/12=2,17=6,18=5,40=1/2;
 3/5=1,6=6,7=1,11=2,16=1,25=1,30=1,74=-5/1,2,3;
 4//1;
 5/5=2,38=5/2;
 6/7=2,8=2,9=2,10=2,28=1/1;
 99/5=1,9=1/99;
 Leave Link    1 at Mon Sep 21 20:55:01 2020, MaxMem=           0 cpu:         0.0
 (Enter /prod/apps/gaussian/g09d1/l101.exe)
 --------------------
 SM40_38w.n.2.pdb.xyz
 --------------------
 Symbolic Z-matrix:
 Charge =  0 Multiplicity = 1
 S                     1.514     2.775    -0.48 
 N                     1.357     1.32     -1.304 
 C                     0.734     0.122    -0.698 
 C                     1.539    -0.307     0.572 
 S                     2.414    -1.584    -0.397 
 C                     1.138    -1.087    -1.607 
 O                     3.761    -1.15     -0.804 
 O                     2.224    -2.948     0.122 
 C                    -0.786     0.297    -0.507 
 C                    -1.535    -0.9       0.106 
 C                    -3.02     -0.63      0.225 
 C                    -3.904    -1.05     -0.776 
 C                    -5.269    -0.777    -0.686 
 C                    -5.772    -0.079     0.412 
 C                    -4.901     0.343     1.418 
 C                    -3.537     0.069     1.324 
 O                     0.555     2.906     0.621 
 O                     1.547     3.792    -1.538 
 H                     1.        1.528    -2.233 
 H                     0.927    -0.777     1.339 
 H                     2.201     0.452     0.988 
 H                     0.372    -1.858    -1.678 
 H                     1.533    -0.836    -2.592 
 H                    -1.218     0.522    -1.489 
 H                    -0.937     1.182     0.115 
 H                    -1.126    -1.121     1.098 
 H                    -1.384    -1.795    -0.506 
 H                    -3.518    -1.6      -1.63 
 H                    -5.939    -1.115    -1.47 
 H                    -6.834     0.132     0.486 
 H                    -5.283     0.883     2.279 
 H                    -2.866     0.395     2.113 
 N                     3.014     2.54      0.253 
 C                     3.284     3.48      1.354 
 H                     2.424     3.511     2.019 
 H                     4.148     3.097     1.899 
 H                     3.512     4.491     0.995 
 C                     4.132     2.394    -0.691 
 H                     4.368     3.334    -1.202 
 H                     5.        2.069    -0.114 
 H                     3.886     1.62     -1.416 
 
 NAtoms=     41 NQM=       41 NQMF=       0 NMMI=      0 NMMIF=      0
                NMic=       0 NMicF=      0.
                    Isotopes and Nuclear Properties:
 (Nuclear quadrupole moments (NQMom) in fm**2, nuclear magnetic moments (NMagM)
  in nuclear magnetons)

  Atom         1           2           3           4           5           6           7           8           9          10
 IAtWgt=          32          14          12          12          32          12          16          16          12          12
 AtmWgt=  31.9720718  14.0030740  12.0000000  12.0000000  31.9720718  12.0000000  15.9949146  15.9949146  12.0000000  12.0000000
 NucSpn=           0           2           0           0           0           0           0           0           0           0
 AtZEff=   0.0000000   0.0000000   0.0000000   0.0000000   0.0000000   0.0000000   0.0000000   0.0000000   0.0000000   0.0000000
 NQMom=    0.0000000   2.0440000   0.0000000   0.0000000   0.0000000   0.0000000   0.0000000   0.0000000   0.0000000   0.0000000
 NMagM=    0.0000000   0.4037610   0.0000000   0.0000000   0.0000000   0.0000000   0.0000000   0.0000000   0.0000000   0.0000000
 AtZNuc=  16.0000000   7.0000000   6.0000000   6.0000000  16.0000000   6.0000000   8.0000000   8.0000000   6.0000000   6.0000000

  Atom        11          12          13          14          15          16          17          18          19          20
 IAtWgt=          12          12          12          12          12          12          16          16           1           1
 AtmWgt=  12.0000000  12.0000000  12.0000000  12.0000000  12.0000000  12.0000000  15.9949146  15.9949146   1.0078250   1.0078250
 NucSpn=           0           0           0           0           0           0           0           0           1           1
 AtZEff=   0.0000000   0.0000000   0.0000000   0.0000000   0.0000000   0.0000000   0.0000000   0.0000000   0.0000000   0.0000000
 NQMom=    0.0000000   0.0000000   0.0000000   0.0000000   0.0000000   0.0000000   0.0000000   0.0000000   0.0000000   0.0000000
 NMagM=    0.0000000   0.0000000   0.0000000   0.0000000   0.0000000   0.0000000   0.0000000   0.0000000   2.7928460   2.7928460
 AtZNuc=   6.0000000   6.0000000   6.0000000   6.0000000   6.0000000   6.0000000   8.0000000   8.0000000   1.0000000   1.0000000

  Atom        21          22          23          24          25          26          27          28          29          30
 IAtWgt=           1           1           1           1           1           1           1           1           1           1
 AtmWgt=   1.0078250   1.0078250   1.0078250   1.0078250   1.0078250   1.0078250   1.0078250   1.0078250   1.0078250   1.0078250
 NucSpn=           1           1           1           1           1           1           1           1           1           1
 AtZEff=   0.0000000   0.0000000   0.0000000   0.0000000   0.0000000   0.0000000   0.0000000   0.0000000   0.0000000   0.0000000
 NQMom=    0.0000000   0.0000000   0.0000000   0.0000000   0.0000000   0.0000000   0.0000000   0.0000000   0.0000000   0.0000000
 NMagM=    2.7928460   2.7928460   2.7928460   2.7928460   2.7928460   2.7928460   2.7928460   2.7928460   2.7928460   2.7928460
 AtZNuc=   1.0000000   1.0000000   1.0000000   1.0000000   1.0000000   1.0000000   1.0000000   1.0000000   1.0000000   1.0000000

  Atom        31          32          33          34          35          36          37          38          39          40
 IAtWgt=           1           1          14          12           1           1           1          12           1           1
 AtmWgt=   1.0078250   1.0078250  14.0030740  12.0000000   1.0078250   1.0078250   1.0078250  12.0000000   1.0078250   1.0078250
 NucSpn=           1           1           2           0           1           1           1           0           1           1
 AtZEff=   0.0000000   0.0000000   0.0000000   0.0000000   0.0000000   0.0000000   0.0000000   0.0000000   0.0000000   0.0000000
 NQMom=    0.0000000   0.0000000   2.0440000   0.0000000   0.0000000   0.0000000   0.0000000   0.0000000   0.0000000   0.0000000
 NMagM=    2.7928460   2.7928460   0.4037610   0.0000000   2.7928460   2.7928460   2.7928460   0.0000000   2.7928460   2.7928460
 AtZNuc=   1.0000000   1.0000000   7.0000000   6.0000000   1.0000000   1.0000000   1.0000000   6.0000000   1.0000000   1.0000000

  Atom        41
 IAtWgt=           1
 AtmWgt=   1.0078250
 NucSpn=           1
 AtZEff=   0.0000000
 NQMom=    0.0000000
 NMagM=    2.7928460
 AtZNuc=   1.0000000
 Leave Link  101 at Mon Sep 21 20:55:01 2020, MaxMem=    33554432 cpu:         0.1
 (Enter /prod/apps/gaussian/g09d1/l202.exe)
                          Input orientation:                          
 ---------------------------------------------------------------------
 Center     Atomic      Atomic             Coordinates (Angstroms)
 Number     Number       Type             X           Y           Z
 ---------------------------------------------------------------------
      1         16           0        1.514000    2.775000   -0.480000
      2          7           0        1.357000    1.320000   -1.304000
      3          6           0        0.734000    0.122000   -0.698000
      4          6           0        1.539000   -0.307000    0.572000
      5         16           0        2.414000   -1.584000   -0.397000
      6          6           0        1.138000   -1.087000   -1.607000
      7          8           0        3.761000   -1.150000   -0.804000
      8          8           0        2.224000   -2.948000    0.122000
      9          6           0       -0.786000    0.297000   -0.507000
     10          6           0       -1.535000   -0.900000    0.106000
     11          6           0       -3.020000   -0.630000    0.225000
     12          6           0       -3.904000   -1.050000   -0.776000
     13          6           0       -5.269000   -0.777000   -0.686000
     14          6           0       -5.772000   -0.079000    0.412000
     15          6           0       -4.901000    0.343000    1.418000
     16          6           0       -3.537000    0.069000    1.324000
     17          8           0        0.555000    2.906000    0.621000
     18          8           0        1.547000    3.792000   -1.538000
     19          1           0        1.000000    1.528000   -2.233000
     20          1           0        0.927000   -0.777000    1.339000
     21          1           0        2.201000    0.452000    0.988000
     22          1           0        0.372000   -1.858000   -1.678000
     23          1           0        1.533000   -0.836000   -2.592000
     24          1           0       -1.218000    0.522000   -1.489000
     25          1           0       -0.937000    1.182000    0.115000
     26          1           0       -1.126000   -1.121000    1.098000
     27          1           0       -1.384000   -1.795000   -0.506000
     28          1           0       -3.518000   -1.600000   -1.630000
     29          1           0       -5.939000   -1.115000   -1.470000
     30          1           0       -6.834000    0.132000    0.486000
     31          1           0       -5.283000    0.883000    2.279000
     32          1           0       -2.866000    0.395000    2.113000
     33          7           0        3.014000    2.540000    0.253000
     34          6           0        3.284000    3.480000    1.354000
     35          1           0        2.424000    3.511000    2.019000
     36          1           0        4.148000    3.097000    1.899000
     37          1           0        3.512000    4.491000    0.995000
     38          6           0        4.132000    2.394000   -0.691000
     39          1           0        4.368000    3.334000   -1.202000
     40          1           0        5.000000    2.069000   -0.114000
     41          1           0        3.886000    1.620000   -1.416000
 ---------------------------------------------------------------------
                    Distance matrix (angstroms):
                    1          2          3          4          5
     1  S    0.000000
     2  N    1.679479   0.000000
     3  C    2.773866   1.480057   0.000000
     4  C    3.256694   2.489905   1.563639   0.000000
     5  S    4.451715   3.220732   2.413180   1.826284   0.000000
     6  C    4.040612   2.435861   1.565624   2.348881   1.827371
     7  O    4.534271   3.482832   3.285110   2.746144   1.472554
     8  O    5.798209   4.582684   3.509615   2.765250   1.471719
     9  C    3.381008   2.504833   1.541916   2.633378   3.713524
    10  C    4.810969   3.908985   2.615198   3.165167   4.039241
    11  C    5.713861   5.029758   3.938267   4.583581   5.552059
    12  C    6.638747   5.794291   4.784424   5.656448   6.351844
    13  C    7.659519   6.977335   6.069955   6.939188   7.730670
    14  C    7.875708   7.464884   6.603070   7.316304   8.362422
    15  C    7.118234   6.893938   6.023248   6.527773   7.779253
    16  C    6.007450   5.694086   4.725752   5.145159   6.411603
    17  O    1.465961   2.619967   3.085848   3.360659   4.965109
    18  O    1.467904   2.490309   3.851684   4.610202   5.563717
    19  H    2.211835   1.016737   2.098527   3.394963   3.880056
    20  H    4.033613   3.401141   2.234909   1.087995   2.424070
    21  H    2.832547   2.592108   2.259112   1.089670   2.471617
    22  H    4.919762   3.348102   2.238715   2.971530   2.426067
    23  H    4.183327   2.517589   2.267907   3.207923   2.480663
    24  H    3.682107   2.702157   2.143825   3.540623   4.338101
    25  H    2.983132   2.700933   2.139348   2.925157   4.375169
    26  H    4.963718   4.230056   2.868844   2.835753   3.870529
    27  H    5.411467   4.225294   2.863159   3.452558   3.805418
    28  H    6.766399   5.691951   4.681176   5.665148   6.058809
    29  H    8.465188   7.693400   6.830453   7.793787   8.434684
    30  H    8.809524   8.468053   7.660064   8.384942   9.447214
    31  H    7.575682   7.557675   6.756178   7.132295   8.514157
    32  H    5.618937   5.510467   4.575615   4.719270   6.172110
    33  N    1.685976   2.580368   3.456808   3.222234   4.217805
    34  C    2.644519   3.929872   4.689282   4.242395   5.428351
    35  H    2.759492   4.120837   4.660849   4.177817   5.638810
    36  H    3.563886   4.605064   5.220194   4.489435   5.494555
    37  H    3.018656   4.470421   5.447173   5.205042   6.328419
    38  C    2.653979   3.038070   4.087596   3.951483   4.343092
    39  H    2.996511   3.623910   4.876158   4.940364   5.352837
    40  H    3.575554   3.904939   4.725529   4.253762   4.484629
    41  H    2.799376   2.549193   3.562953   3.629584   3.670254
                    6          7          8          9         10
     6  C    0.000000
     7  O    2.743885   0.000000
     8  O    2.762636   2.540206   0.000000
     9  C    2.612897   4.780923   4.470544   0.000000
    10  C    3.180294   5.379425   4.280729   1.539344   0.000000
    11  C    4.566622   6.878314   5.734394   2.527036   1.514030
    12  C    5.110156   7.665703   6.477746   3.407153   2.532308
    13  C    6.480277   9.038471   7.842905   4.613329   3.819051
    14  C    7.269149   9.669736   8.500075   5.083909   4.326644
    15  C    6.903988   9.066233   7.954616   4.543233   3.820517
    16  C    5.637617   7.699036   6.613336   3.312483   2.535841
    17  O    4.609547   5.362853   6.107690   3.142856   4.372523
    18  O    4.896599   5.464789   6.974348   4.326763   5.849472
    19  H    2.692424   4.103273   5.203727   2.772045   4.218096
    20  H    2.969771   3.572553   2.806517   2.737802   2.756241
    21  H    3.198830   2.865531   3.508630   3.343833   4.069831
    22  H    1.089146   3.570779   2.803213   2.712237   2.781559
    23  H    1.090528   2.873939   3.507680   3.317932   4.086065
    24  H    2.855441   5.296721   5.146220   1.096163   2.160231
    25  H    3.524098   5.324846   5.200853   1.092204   2.166197
    26  H    3.527588   5.244160   3.938655   2.168490   1.095530
    27  H    2.841470   5.193828   3.839461   2.175792   1.094701
    28  H    4.684232   7.339524   6.152818   3.510493   2.726900
    29  H    7.078381   9.722900   8.516391   5.429044   4.682437
    30  H    8.331830  10.749960   9.574250   6.131197   5.411915
    31  H    7.759584   9.768926   8.699670   5.322424   4.684925
    32  H    5.662750   7.403583   6.406858   3.346700   2.734344
    33  N    4.487104   3.910417   5.546116   4.477572   5.705139
    34  C    5.850669   5.130438   6.630280   5.491786   6.630586
    35  H    5.995271   5.610866   6.734782   5.197554   6.228176
    36  H    6.233618   5.049058   6.587984   6.162239   7.175468
    37  H    6.596997   5.926152   7.599986   6.190189   7.438105
    38  C    4.681928   3.565157   5.730480   5.349578   6.603070
    39  H    5.490188   4.542368   6.768548   6.022467   7.381262
    40  H    5.206191   3.517553   5.738655   6.064011   7.181197
    41  H    3.862102   2.839554   5.098462   4.940060   6.168803
                   11         12         13         14         15
    11  C    0.000000
    12  C    1.399949   0.000000
    13  C    2.430953   1.394939   0.000000
    14  C    2.812841   2.417356   1.394925   0.000000
    15  C    2.430666   2.783540   2.411771   1.395980   0.000000
    16  C    1.401318   2.407665   2.784895   2.418444   1.394420
    17  O    5.043881   6.122436   7.013680   6.998917   6.080470
    18  O    6.596949   7.330690   8.249819   8.506168   7.887347
    19  H    5.182579   5.728713   6.856136   7.445701   7.039590
    20  H    4.103829   5.280749   6.518515   6.798760   5.935168
    21  H    5.386254   6.529833   7.753297   8.011396   7.115840
    22  H    4.078610   4.444170   5.828680   6.729166   6.498780
    23  H    5.357960   5.736255   7.064242   7.934739   7.672451
    24  H    2.740822   3.192828   4.329297   4.971309   4.695442
    25  H    2.763030   3.818219   4.821359   5.005552   4.256175
    26  H    2.142533   3.351746   4.523875   4.810580   4.061566
    27  H    2.137307   2.641652   4.020193   4.800200   4.543359
    28  H    2.151727   1.086652   2.152781   3.400547   3.870173
    29  H    3.410104   2.151066   1.085265   2.154787   3.397610
    30  H    3.898123   3.402156   2.156175   1.085284   2.156301
    31  H    3.410169   3.869258   3.398091   2.156445   1.085746
    32  H    2.153807   3.392903   3.870710   3.400428   2.151036
    33  N    6.816072   7.861658   8.971750   9.169419   8.296461
    34  C    7.609675   8.759289   9.769210   9.775734   8.765791
    35  H    7.071312   8.286032   9.213372   9.090928   8.003315
    36  H    8.250638   9.443937  10.505712  10.521623   9.471023
    37  H    8.335740   9.425295  10.377068  10.364239   9.389537
    38  C    7.818871   8.743321   9.921394  10.267500   9.499977
    39  H    8.504832   9.371602  10.489916  10.820035  10.085873
    40  H    8.468762   9.457675  10.671423  10.996661  10.166410
    41  H    7.446356   8.259697   9.491709   9.975227   9.320604
                   16         17         18         19         20
    16  C    0.000000
    17  O    5.028642   0.000000
    18  O    6.920898   2.535812   0.000000
    19  H    5.946873   3.200348   2.430623   0.000000
    20  H    4.543483   3.770729   5.434822   4.251769   0.000000
    21  H    5.760575   2.977603   4.238395   3.602085   1.804638
    22  H    5.292033   5.292881   5.772584   3.488181   3.252518
    23  H    6.469852   5.028162   4.746525   2.449789   3.977874
    24  H    3.673682   3.644048   4.282584   2.546585   3.779684
    25  H    3.075784   2.335439   3.964185   3.063460   2.968224
    26  H    2.698165   4.389763   6.183122   4.757377   2.095525
    27  H    3.385086   5.208575   6.392993   4.439405   3.127470
    28  H    3.392939   6.477682   7.398402   5.528139   5.408356
    29  H    3.870129   7.919139   8.951171   7.464405   7.426081
    30  H    3.402414   7.893708   9.366608   8.409122   7.860471
    31  H    2.150148   6.397166   8.347495   7.762104   6.496407
    32  H    1.085835   4.498269   6.659127   5.925990   4.044689
    33  N    7.082971   2.513177   2.631972   3.355672   4.066627
    34  C    7.626392   2.883436   3.387946   4.679052   4.865976
    35  H    6.918375   2.411139   3.674281   4.903016   4.592423
    36  H    8.280014   3.818300   4.365913   5.426333   5.069153
    37  H    8.327708   3.375789   3.281145   5.050693   5.878128
    38  C    8.263136   3.844271   3.058437   3.596824   4.944509
    39  H    8.917955   4.247997   2.877621   3.958285   5.932747
    40  H    8.885281   4.582447   4.113358   4.558820   5.176896
    41  H    8.063134   4.110806   3.194274   3.000825   4.700140
                   21         22         23         24         25
    21  H    0.000000
    22  H    3.973525   0.000000
    23  H    3.862845   1.796608   0.000000
    24  H    4.222557   2.868488   3.260180   0.000000
    25  H    3.337974   3.764297   4.183428   1.757093   0.000000
    26  H    3.681760   3.239344   4.557149   3.066021   2.511139
    27  H    4.487011   2.112129   3.712138   2.522367   3.073756
    28  H    6.616010   3.898842   5.198244   3.132533   4.176854
    29  H    8.646205   6.357990   7.560920   4.996796   5.727865
    30  H    9.054592   7.782637   8.967597   5.965918   6.001229
    31  H    7.606753   7.426302   8.552161   5.554491   4.864156
    32  H    5.190700   5.471045   6.557712   3.963135   2.886592
    33  N    2.358164   5.481909   4.656690   5.001671   4.180145
    34  C    3.236608   6.794631   6.104488   6.091011   4.963141
    35  H    3.235764   6.834082   6.399345   5.874040   4.510629
    36  H    3.408336   7.183671   6.517346   6.848586   5.719013
    37  H    4.246445   7.570623   6.720115   6.655533   5.614043
    38  C    3.212346   5.761187   4.560866   5.723957   5.273836
    39  H    4.218757   6.568977   5.230509   6.260440   5.874404
    40  H    3.415186   6.267839   5.157480   6.553423   6.007261
    41  H    3.159536   4.951093   3.598822   5.221278   5.079088
                   26         27         28         29         30
    26  H    0.000000
    27  H    1.758879   0.000000
    28  H    3.659657   2.419784   0.000000
    29  H    5.455239   4.705286   2.474281   0.000000
    30  H    5.875867   5.865142   4.298039   2.486357   0.000000
    31  H    4.763552   5.489090   4.955885   4.298528   2.486856
    32  H    2.521127   3.721772   4.291291   4.955938   4.296664
    33  N    5.590755   6.221793   7.959417   9.822625  10.140802
    34  C    6.378310   7.285290   8.998770  10.684228  10.692822
    35  H    5.908144   7.002151   8.645512  10.174122   9.973881
    36  H    6.800603   7.766512   9.658323  11.438473  11.462640
    37  H    7.281222   8.107874   9.664978  11.261654  11.238313
    38  C    6.572846   6.928795   8.680798  10.693220  11.258558
    39  H    7.437813   7.737995   9.312171  11.229411  11.772296
    40  H    7.012341   7.472591   9.397667  11.473374  12.006478
    41  H    6.241268   6.345331   8.076720  10.198714  10.988637
                   31         32         33         34         35
    31  H    0.000000
    32  H    2.471354   0.000000
    33  N    8.700031   6.529550   0.000000
    34  C    8.999640   6.922124   1.472651   0.000000
    35  H    8.146891   6.140227   2.099928   1.087560   0.000000
    36  H    9.694842   7.519494   2.074975   1.090967   1.777068
    37  H    9.592619   7.661986   2.145919   1.096807   1.786818
    38  C    9.987304   7.799386   1.470502   2.465872   3.392500
    39  H   10.548297   8.482789   2.140275   2.780199   3.766339
    40  H   10.624177   8.344804   2.073819   2.662818   3.642091
    41  H    9.912959   7.716474   2.095792   3.390414   4.184800
                   36         37         38         39         40
    36  H    0.000000
    37  H    1.779030   0.000000
    38  C    2.683759   2.761233   0.000000
    39  H    3.117815   2.626441   1.095635   0.000000
    40  H    2.415545   3.051247   1.091777   1.784207   0.000000
    41  H    3.638598   3.767683   1.088677   1.793298   1.771384
                   41
    41  H    0.000000
 Stoichiometry    C13H20N2O4S2
 Framework group  C1[X(C13H20N2O4S2)]
 Deg. of freedom   117
 Full point group                 C1      NOp   1
 Largest Abelian subgroup         C1      NOp   1
 Largest concise Abelian subgroup C1      NOp   1
                         Standard orientation:                         
 ---------------------------------------------------------------------
 Center     Atomic      Atomic             Coordinates (Angstroms)
 Number     Number       Type             X           Y           Z
 ---------------------------------------------------------------------
      1         16           0       -1.790898   -1.812231   -0.400865
      2          7           0       -1.313892   -0.353686   -1.083332
      3          6           0       -0.357035    0.562192   -0.422907
      4          6           0       -0.930672    1.019705    0.957885
      5         16           0       -1.503600    2.587149    0.216136
      6          6           0       -0.490494    1.937540   -1.158968
      7          8           0       -2.942189    2.562930   -0.097372
      8          8           0       -0.925717    3.782861    0.850393
      9          6           0        1.072725   -0.014767   -0.402611
     10          6           0        2.151045    0.867340    0.252134
     11          6           0        3.517127    0.217082    0.194929
     12          6           0        4.408932    0.520500   -0.840676
     13          6           0        5.656746   -0.098607   -0.914981
     14          6           0        6.033092   -1.032376    0.050553
     15          6           0        5.153615   -1.341631    1.089612
     16          6           0        3.906750   -0.721320    1.159960
     17          8           0       -0.826297   -2.318046    0.580328
     18          8           0       -2.163715   -2.647773   -1.548740
     19          1           0       -1.089520   -0.528077   -2.059549
     20          1           0       -0.164895    1.219964    1.704353
     21          1           0       -1.738653    0.407630    1.357774
     22          1           0        0.444629    2.491819   -1.226473
     23          1           0       -1.004922    1.919495   -2.120368
     24          1           0        1.361115   -0.217881   -1.440469
     25          1           0        1.028145   -0.979445    0.107604
     26          1           0        1.884426    1.059542    1.297198
     27          1           0        2.198951    1.840366   -0.247161
     28          1           0        4.123116    1.252263   -1.591438
     29          1           0        6.336087    0.153385   -1.722939
     30          1           0        7.004563   -1.513207   -0.003178
     31          1           0        5.438701   -2.063658    1.848721
     32          1           0        3.229953   -0.962169    1.974193
     33          7           0       -3.121577   -1.297800    0.497561
     34          6           0       -3.552538   -2.268143    1.518055
     35          1           0       -2.687090   -2.598661    2.087742
     36          1           0       -4.245304   -1.749556    2.182397
     37          1           0       -4.062965   -3.135508    1.082017
     38          6           0       -4.224343   -0.756833   -0.310919
     39          1           0       -4.734311   -1.535139   -0.889356
     40          1           0       -4.934010   -0.296854    0.379566
     41          1           0       -3.834117    0.013548   -0.973833
 ---------------------------------------------------------------------
 Rotational constants (GHZ):      0.3758106      0.1563805      0.1231139
 Leave Link  202 at Mon Sep 21 20:55:01 2020, MaxMem=    33554432 cpu:         0.0
 (Enter /prod/apps/gaussian/g09d1/l301.exe)
 Standard basis: 6-31G(d) (6D, 7F)
 Ernie: Thresh=  0.10000D-02 Tol=  0.10000D-05 Strict=F.
 There are   363 symmetry adapted cartesian basis functions of A   symmetry.
 There are   363 symmetry adapted basis functions of A   symmetry.
   363 basis functions,   716 primitive gaussians,   363 cartesian basis functions
    88 alpha electrons       88 beta electrons
       nuclear repulsion energy      2158.0302170711 Hartrees.
 IExCor=  402 DFT=T Ex+Corr=B3LYP ExCW=0 ScaHFX=  0.200000
 ScaDFX=  0.800000  0.720000  1.000000  0.810000 ScalE2=  1.000000  1.000000
 IRadAn=      0 IRanWt=     -1 IRanGd=            0 ICorTp=0 IEmpDi=  4
 NAtoms=   41 NActive=   41 NUniq=   41 SFac= 1.00D+00 NAtFMM=   60 NAOKFM=F Big=F
 Integral buffers will be    131072 words long.
 Raffenetti 2 integral format.
 Two-electron integral symmetry is turned on.
 Leave Link  301 at Mon Sep 21 20:55:02 2020, MaxMem=    33554432 cpu:         0.0
 (Enter /prod/apps/gaussian/g09d1/l302.exe)
 NPDir=0 NMtPBC=     1 NCelOv=     1 NCel=       1 NClECP=     1 NCelD=      1
         NCelK=      1 NCelE2=     1 NClLst=     1 CellRange=     0.0.
 One-electron integrals computed using PRISM.
 NBasis=   363 RedAO= T EigKep=  4.64D-04  NBF=   363
 NBsUse=   363 1.00D-06 EigRej= -1.00D+00 NBFU=   363
 Precomputing XC quadrature grid using
 IXCGrd= 4 IRadAn=           0 IRanWt=          -1 IRanGd=           0 AccXCQ= 0.00D+00.
 Generated NRdTot=       0 NPtTot=           0 NUsed=           0 NTot=          32
 NSgBfM=   359   359   359   359   359 MxSgAt=    41 MxSgA2=    41.
 Leave Link  302 at Mon Sep 21 20:55:03 2020, MaxMem=    33554432 cpu:         1.3
 (Enter /prod/apps/gaussian/g09d1/l303.exe)
 DipDrv:  MaxL=1.
 Leave Link  303 at Mon Sep 21 20:55:03 2020, MaxMem=    33554432 cpu:         0.0
 (Enter /prod/apps/gaussian/g09d1/l401.exe)
 ExpMin= 1.17D-01 ExpMax= 2.19D+04 ExpMxC= 3.30D+03 IAcc=1 IRadAn=         1 AccDes= 0.00D+00
 Harris functional with IExCor=  402 and IRadAn=       1 diagonalized for initial guess.
 HarFok:  IExCor=  402 AccDes= 0.00D+00 IRadAn=         1 IDoV= 1 UseB2=F ITyADJ=14
 ICtDFT=  3500011 ScaDFX=  1.000000  1.000000  1.000000  1.000000
 FoFCou: FMM=F IPFlag=           0 FMFlag=      100000 FMFlg1=           0
         NFxFlg=           0 DoJE=T BraDBF=F KetDBF=T FulRan=T
         wScrn=  0.000000 ICntrl=     500 IOpCl=  0 I1Cent=   200000004 NGrid=           0
         NMat0=    1 NMatS0=      1 NMatT0=    0 NMatD0=    1 NMtDS0=    0 NMtDT0=    0
 Petite list used in FoFCou.
 Harris En= -1714.15042692061    
 JPrj=0 DoOrth=F DoCkMO=F.
 Leave Link  401 at Mon Sep 21 20:55:08 2020, MaxMem=    33554432 cpu:         4.6
 (Enter /prod/apps/gaussian/g09d1/l502.exe)
 Closed shell SCF:
 Using DIIS extrapolation, IDIIS=  1040.
 Integral symmetry usage will be decided dynamically.
 IVT=      418784 IEndB=      418784 NGot=    33554432 MDV=    33284421
 LenX=    33284421 LenY=    33152211
 Requested convergence on RMS density matrix=1.00D-08 within 128 cycles.
 Requested convergence on MAX density matrix=1.00D-06.
 Requested convergence on             energy=1.00D-06.
 No special actions if energy rises.
 Fock matrices will be formed incrementally for  20 cycles.
 Integral accuracy reduced to 1.0D-05 until final iterations.

 Cycle   1  Pass 0  IDiag  1:
 FoFJK:  IHMeth= 1 ICntrl=       0 DoSepK=F KAlg= 0 I1Cent=   0 FoldK=F
 IRaf= 730000000 NMat=   1 IRICut=       1 DoRegI=T DoRafI=F ISym2E= 0.
 FoFCou: FMM=F IPFlag=           0 FMFlag=      100000 FMFlg1=           0
         NFxFlg=           0 DoJE=F BraDBF=F KetDBF=F FulRan=T
         wScrn=  0.000000 ICntrl=       0 IOpCl=  0 I1Cent=           0 NGrid=           0
         NMat0=    1 NMatS0=      1 NMatT0=    0 NMatD0=    1 NMtDS0=    0 NMtDT0=    0
 Symmetry not used in FoFCou.
 E= -1713.19734218644    
 DIIS: error= 3.21D-02 at cycle   1 NSaved=   1.
 NSaved= 1 IEnMin= 1 EnMin= -1713.19734218644     IErMin= 1 ErrMin= 3.21D-02
 ErrMax= 3.21D-02  0.00D+00 EMaxC= 1.00D-01 BMatC= 9.93D-01 BMatP= 9.93D-01
 IDIUse=3 WtCom= 6.79D-01 WtEn= 3.21D-01
 Coeff-Com:  0.100D+01
 Coeff-En:   0.100D+01
 Coeff:      0.100D+01
 Gap=     0.359 Goal=   None    Shift=    0.000
 GapD=    0.359 DampG=1.000 DampE=0.500 DampFc=0.5000 IDamp=-1.
 Damping current iteration by 5.00D-01
 RMSDP=7.01D-03 MaxDP=6.01D-01              OVMax= 2.31D-01

 Cycle   2  Pass 0  IDiag  1:
 RMSU=  3.50D-03    CP:  9.99D-01
 E= -1713.37657623450     Delta-E=       -0.179234048057 Rises=F Damp=T
 DIIS: error= 1.42D-02 at cycle   2 NSaved=   2.
 NSaved= 2 IEnMin= 2 EnMin= -1713.37657623450     IErMin= 2 ErrMin= 1.42D-02
 ErrMax= 1.42D-02  0.00D+00 EMaxC= 1.00D-01 BMatC= 1.70D-01 BMatP= 9.93D-01
 IDIUse=3 WtCom= 8.58D-01 WtEn= 1.42D-01
 Coeff-Com:  0.250D+00 0.750D+00
 Coeff-En:   0.393D+00 0.607D+00
 Coeff:      0.270D+00 0.730D+00
 Gap=     0.293 Goal=   None    Shift=    0.000
 RMSDP=2.06D-03 MaxDP=1.30D-01 DE=-1.79D-01 OVMax= 2.06D-01

 Cycle   3  Pass 0  IDiag  1:
 RMSU=  1.64D-03    CP:  9.90D-01  6.45D-01
 E= -1713.94741040753     Delta-E=       -0.570834173028 Rises=F Damp=F
 DIIS: error= 9.87D-03 at cycle   3 NSaved=   3.
 NSaved= 3 IEnMin= 3 EnMin= -1713.94741040753     IErMin= 3 ErrMin= 9.87D-03
 ErrMax= 9.87D-03  0.00D+00 EMaxC= 1.00D-01 BMatC= 1.02D-01 BMatP= 1.70D-01
 IDIUse=3 WtCom= 9.01D-01 WtEn= 9.87D-02
 Coeff-Com:  0.102D+00 0.444D+00 0.454D+00
 Coeff-En:   0.000D+00 0.000D+00 0.100D+01
 Coeff:      0.919D-01 0.401D+00 0.507D+00
 Gap=     0.244 Goal=   None    Shift=    0.000
 RMSDP=1.28D-03 MaxDP=3.81D-02 DE=-5.71D-01 OVMax= 8.16D-02

 Cycle   4  Pass 0  IDiag  1:
 RMSU=  7.32D-04    CP:  9.95D-01  7.26D-01  3.86D-01
 E= -1714.02995591942     Delta-E=       -0.082545511888 Rises=F Damp=F
 DIIS: error= 3.68D-03 at cycle   4 NSaved=   4.
 NSaved= 4 IEnMin= 4 EnMin= -1714.02995591942     IErMin= 4 ErrMin= 3.68D-03
 ErrMax= 3.68D-03  0.00D+00 EMaxC= 1.00D-01 BMatC= 1.35D-02 BMatP= 1.02D-01
 IDIUse=3 WtCom= 9.63D-01 WtEn= 3.68D-02
 Coeff-Com:  0.102D-01 0.789D-01 0.280D+00 0.631D+00
 Coeff-En:   0.000D+00 0.000D+00 0.116D+00 0.884D+00
 Coeff:      0.980D-02 0.760D-01 0.273D+00 0.641D+00
 Gap=     0.241 Goal=   None    Shift=    0.000
 RMSDP=3.99D-04 MaxDP=1.53D-02 DE=-8.25D-02 OVMax= 2.25D-02

 Cycle   5  Pass 0  IDiag  1:
 RMSU=  1.75D-04    CP:  9.95D-01  7.11D-01  5.39D-01  6.57D-01
 E= -1714.04110538286     Delta-E=       -0.011149463437 Rises=F Damp=F
 DIIS: error= 9.55D-04 at cycle   5 NSaved=   5.
 NSaved= 5 IEnMin= 5 EnMin= -1714.04110538286     IErMin= 5 ErrMin= 9.55D-04
 ErrMax= 9.55D-04  0.00D+00 EMaxC= 1.00D-01 BMatC= 1.04D-03 BMatP= 1.35D-02
 IDIUse=3 WtCom= 9.90D-01 WtEn= 9.55D-03
 Coeff-Com: -0.897D-03 0.169D-01 0.118D+00 0.348D+00 0.518D+00
 Coeff-En:   0.000D+00 0.000D+00 0.000D+00 0.000D+00 0.100D+01
 Coeff:     -0.888D-03 0.168D-01 0.117D+00 0.345D+00 0.522D+00
 Gap=     0.241 Goal=   None    Shift=    0.000
 RMSDP=1.11D-04 MaxDP=6.83D-03 DE=-1.11D-02 OVMax= 5.94D-03

 Cycle   6  Pass 0  IDiag  1:
 RMSU=  5.80D-05    CP:  9.94D-01  7.14D-01  5.31D-01  7.12D-01  5.26D-01
 E= -1714.04191055024     Delta-E=       -0.000805167385 Rises=F Damp=F
 DIIS: error= 5.30D-04 at cycle   6 NSaved=   6.
 NSaved= 6 IEnMin= 6 EnMin= -1714.04191055024     IErMin= 6 ErrMin= 5.30D-04
 ErrMax= 5.30D-04  0.00D+00 EMaxC= 1.00D-01 BMatC= 1.40D-04 BMatP= 1.04D-03
 IDIUse=3 WtCom= 9.95D-01 WtEn= 5.30D-03
 Coeff-Com: -0.134D-02 0.388D-02 0.467D-01 0.152D+00 0.322D+00 0.476D+00
 Coeff-En:   0.000D+00 0.000D+00 0.000D+00 0.000D+00 0.515D-01 0.948D+00
 Coeff:     -0.133D-02 0.386D-02 0.465D-01 0.151D+00 0.321D+00 0.479D+00
 Gap=     0.240 Goal=   None    Shift=    0.000
 RMSDP=3.80D-05 MaxDP=2.19D-03 DE=-8.05D-04 OVMax= 3.19D-03

 Cycle   7  Pass 0  IDiag  1:
 RMSU=  2.47D-05    CP:  9.94D-01  7.14D-01  5.32D-01  7.13D-01  5.83D-01
                    CP:  5.36D-01
 E= -1714.04200387010     Delta-E=       -0.000093319861 Rises=F Damp=F
 DIIS: error= 2.00D-04 at cycle   7 NSaved=   7.
 NSaved= 7 IEnMin= 7 EnMin= -1714.04200387010     IErMin= 7 ErrMin= 2.00D-04
 ErrMax= 2.00D-04  0.00D+00 EMaxC= 1.00D-01 BMatC= 2.06D-05 BMatP= 1.40D-04
 IDIUse=3 WtCom= 9.98D-01 WtEn= 2.00D-03
 Coeff-Com: -0.766D-03-0.228D-04 0.130D-01 0.471D-01 0.137D+00 0.318D+00
 Coeff-Com:  0.486D+00
 Coeff-En:   0.000D+00 0.000D+00 0.000D+00 0.000D+00 0.000D+00 0.124D+00
 Coeff-En:   0.876D+00
 Coeff:     -0.764D-03-0.227D-04 0.129D-01 0.470D-01 0.136D+00 0.317D+00
 Coeff:      0.487D+00
 Gap=     0.241 Goal=   None    Shift=    0.000
 RMSDP=1.28D-05 MaxDP=6.85D-04 DE=-9.33D-05 OVMax= 1.01D-03

 Cycle   8  Pass 0  IDiag  1:
 RMSU=  5.83D-06    CP:  9.94D-01  7.14D-01  5.33D-01  7.13D-01  5.88D-01
                    CP:  6.08D-01  5.76D-01
 E= -1714.04202040862     Delta-E=       -0.000016538522 Rises=F Damp=F
 DIIS: error= 3.49D-05 at cycle   8 NSaved=   8.
 NSaved= 8 IEnMin= 8 EnMin= -1714.04202040862     IErMin= 8 ErrMin= 3.49D-05
 ErrMax= 3.49D-05  0.00D+00 EMaxC= 1.00D-01 BMatC= 5.90D-07 BMatP= 2.06D-05
 IDIUse=1 WtCom= 1.00D+00 WtEn= 0.00D+00
 Coeff-Com: -0.241D-03-0.318D-03 0.179D-02 0.809D-02 0.361D-01 0.106D+00
 Coeff-Com:  0.219D+00 0.630D+00
 Coeff:     -0.241D-03-0.318D-03 0.179D-02 0.809D-02 0.361D-01 0.106D+00
 Coeff:      0.219D+00 0.630D+00
 Gap=     0.241 Goal=   None    Shift=    0.000
 RMSDP=2.95D-06 MaxDP=1.74D-04 DE=-1.65D-05 OVMax= 1.66D-04

 Initial convergence to 1.0D-05 achieved.  Increase integral accuracy.
 Cycle   9  Pass 1  IDiag  1:
 E= -1714.04191937439     Delta-E=        0.000101034234 Rises=F Damp=F
 DIIS: error= 1.17D-04 at cycle   1 NSaved=   1.
 NSaved= 1 IEnMin= 1 EnMin= -1714.04191937439     IErMin= 1 ErrMin= 1.17D-04
 ErrMax= 1.17D-04  0.00D+00 EMaxC= 1.00D-01 BMatC= 1.12D-06 BMatP= 1.12D-06
 IDIUse=3 WtCom= 9.99D-01 WtEn= 1.17D-03
 Coeff-Com:  0.100D+01
 Coeff-En:   0.100D+01
 Coeff:      0.100D+01
 Gap=     0.241 Goal=   None    Shift=    0.000
 RMSDP=2.95D-06 MaxDP=1.74D-04 DE= 1.01D-04 OVMax= 2.10D-04

 Cycle  10  Pass 1  IDiag  1:
 RMSU=  3.85D-05    CP:  1.00D+00
 E= -1714.04192015861     Delta-E=       -0.000000784216 Rises=F Damp=F
 DIIS: error= 3.23D-05 at cycle   2 NSaved=   2.
 NSaved= 2 IEnMin= 2 EnMin= -1714.04192015861     IErMin= 2 ErrMin= 3.23D-05
 ErrMax= 3.23D-05  0.00D+00 EMaxC= 1.00D-01 BMatC= 5.40D-07 BMatP= 1.12D-06
 IDIUse=1 WtCom= 1.00D+00 WtEn= 0.00D+00
 Coeff-Com:  0.363D+00 0.637D+00
 Coeff:      0.363D+00 0.637D+00
 Gap=     0.241 Goal=   None    Shift=    0.000
 RMSDP=3.73D-06 MaxDP=1.69D-04 DE=-7.84D-07 OVMax= 2.36D-04

 Cycle  11  Pass 1  IDiag  1:
 RMSU=  3.73D-06    CP:  1.00D+00  1.00D+00
 E= -1714.04192014404     Delta-E=        0.000000014562 Rises=F Damp=F
 DIIS: error= 3.43D-05 at cycle   3 NSaved=   3.
 NSaved= 3 IEnMin= 2 EnMin= -1714.04192015861     IErMin= 2 ErrMin= 3.23D-05
 ErrMax= 3.43D-05  0.00D+00 EMaxC= 1.00D-01 BMatC= 5.69D-07 BMatP= 5.40D-07
 IDIUse=1 WtCom= 1.00D+00 WtEn= 0.00D+00
 Coeff-Com:  0.674D-05 0.507D+00 0.493D+00
 Coeff:      0.674D-05 0.507D+00 0.493D+00
 Gap=     0.241 Goal=   None    Shift=    0.000
 RMSDP=1.98D-06 MaxDP=9.35D-05 DE= 1.46D-08 OVMax= 1.36D-04

 Cycle  12  Pass 1  IDiag  1:
 RMSU=  6.07D-07    CP:  1.00D+00  1.01D+00  5.01D-01
 E= -1714.04192057802     Delta-E=       -0.000000433978 Rises=F Damp=F
 DIIS: error= 2.82D-06 at cycle   4 NSaved=   4.
 NSaved= 4 IEnMin= 4 EnMin= -1714.04192057802     IErMin= 4 ErrMin= 2.82D-06
 ErrMax= 2.82D-06  0.00D+00 EMaxC= 1.00D-01 BMatC= 1.10D-08 BMatP= 5.40D-07
 IDIUse=1 WtCom= 1.00D+00 WtEn= 0.00D+00
 Coeff-Com: -0.777D-02 0.287D+00 0.294D+00 0.427D+00
 Coeff:     -0.777D-02 0.287D+00 0.294D+00 0.427D+00
 Gap=     0.241 Goal=   None    Shift=    0.000
 RMSDP=3.27D-07 MaxDP=1.36D-05 DE=-4.34D-07 OVMax= 1.93D-05

 Cycle  13  Pass 1  IDiag  1:
 RMSU=  1.80D-07    CP:  1.00D+00  1.01D+00  5.07D-01  5.53D-01
 E= -1714.04192058742     Delta-E=       -0.000000009395 Rises=F Damp=F
 DIIS: error= 8.05D-07 at cycle   5 NSaved=   5.
 NSaved= 5 IEnMin= 5 EnMin= -1714.04192058742     IErMin= 5 ErrMin= 8.05D-07
 ErrMax= 8.05D-07  0.00D+00 EMaxC= 1.00D-01 BMatC= 4.70D-10 BMatP= 1.10D-08
 IDIUse=1 WtCom= 1.00D+00 WtEn= 0.00D+00
 Coeff-Com: -0.432D-02 0.133D+00 0.138D+00 0.238D+00 0.495D+00
 Coeff:     -0.432D-02 0.133D+00 0.138D+00 0.238D+00 0.495D+00
 Gap=     0.241 Goal=   None    Shift=    0.000
 RMSDP=7.68D-08 MaxDP=4.32D-06 DE=-9.39D-09 OVMax= 5.05D-06

 Cycle  14  Pass 1  IDiag  1:
 RMSU=  6.63D-08    CP:  1.00D+00  1.01D+00  5.08D-01  5.74D-01  8.00D-01
 E= -1714.04192058779     Delta-E=       -0.000000000374 Rises=F Damp=F
 DIIS: error= 3.70D-07 at cycle   6 NSaved=   6.
 NSaved= 6 IEnMin= 6 EnMin= -1714.04192058779     IErMin= 6 ErrMin= 3.70D-07
 ErrMax= 3.70D-07  0.00D+00 EMaxC= 1.00D-01 BMatC= 8.02D-11 BMatP= 4.70D-10
 IDIUse=1 WtCom= 1.00D+00 WtEn= 0.00D+00
 Coeff-Com: -0.113D-02 0.262D-01 0.282D-01 0.637D-01 0.308D+00 0.575D+00
 Coeff:     -0.113D-02 0.262D-01 0.282D-01 0.637D-01 0.308D+00 0.575D+00
 Gap=     0.241 Goal=   None    Shift=    0.000
 RMSDP=2.74D-08 MaxDP=1.59D-06 DE=-3.74D-10 OVMax= 1.82D-06

 Cycle  15  Pass 1  IDiag  1:
 RMSU=  1.85D-08    CP:  1.00D+00  1.01D+00  5.09D-01  5.76D-01  8.60D-01
                    CP:  7.42D-01
 E= -1714.04192058775     Delta-E=        0.000000000038 Rises=F Damp=F
 DIIS: error= 1.11D-07 at cycle   7 NSaved=   7.
 NSaved= 7 IEnMin= 6 EnMin= -1714.04192058779     IErMin= 7 ErrMin= 1.11D-07
 ErrMax= 1.11D-07  0.00D+00 EMaxC= 1.00D-01 BMatC= 7.43D-12 BMatP= 8.02D-11
 IDIUse=1 WtCom= 1.00D+00 WtEn= 0.00D+00
 Coeff-Com: -0.155D-03-0.369D-03 0.959D-04 0.846D-02 0.112D+00 0.313D+00
 Coeff-Com:  0.566D+00
 Coeff:     -0.155D-03-0.369D-03 0.959D-04 0.846D-02 0.112D+00 0.313D+00
 Coeff:      0.566D+00
 Gap=     0.241 Goal=   None    Shift=    0.000
 RMSDP=1.00D-08 MaxDP=8.39D-07 DE= 3.77D-11 OVMax= 4.81D-07

 SCF Done:  E(RB3LYP) =  -1714.04192059     A.U. after   15 cycles
            NFock= 15  Conv=0.10D-07     -V/T= 2.0068
 KE= 1.702543621411D+03 PE=-8.341814223331D+03 EE= 2.767198464261D+03
 Leave Link  502 at Mon Sep 21 21:01:02 2020, MaxMem=    33554432 cpu:       354.3
 (Enter /prod/apps/gaussian/g09d1/l601.exe)
 Copying SCF densities to generalized density rwf, IOpCl= 0 IROHF=0.

 **********************************************************************

            Population analysis using the SCF density.

 **********************************************************************

 Orbital symmetries:
       Occupied  (A) (A) (A) (A) (A) (A) (A) (A) (A) (A) (A) (A)
                 (A) (A) (A) (A) (A) (A) (A) (A) (A) (A) (A) (A)
                 (A) (A) (A) (A) (A) (A) (A) (A) (A) (A) (A) (A)
                 (A) (A) (A) (A) (A) (A) (A) (A) (A) (A) (A) (A)
                 (A) (A) (A) (A) (A) (A) (A) (A) (A) (A) (A) (A)
                 (A) (A) (A) (A) (A) (A) (A) (A) (A) (A) (A) (A)
                 (A) (A) (A) (A) (A) (A) (A) (A) (A) (A) (A) (A)
                 (A) (A) (A) (A)
       Virtual   (A) (A) (A) (A) (A) (A) (A) (A) (A) (A) (A) (A)
                 (A) (A) (A) (A) (A) (A) (A) (A) (A) (A) (A) (A)
                 (A) (A) (A) (A) (A) (A) (A) (A) (A) (A) (A) (A)
                 (A) (A) (A) (A) (A) (A) (A) (A) (A) (A) (A) (A)
                 (A) (A) (A) (A) (A) (A) (A) (A) (A) (A) (A) (A)
                 (A) (A) (A) (A) (A) (A) (A) (A) (A) (A) (A) (A)
                 (A) (A) (A) (A) (A) (A) (A) (A) (A) (A) (A) (A)
                 (A) (A) (A) (A) (A) (A) (A) (A) (A) (A) (A) (A)
                 (A) (A) (A) (A) (A) (A) (A) (A) (A) (A) (A) (A)
                 (A) (A) (A) (A) (A) (A) (A) (A) (A) (A) (A) (A)
                 (A) (A) (A) (A) (A) (A) (A) (A) (A) (A) (A) (A)
                 (A) (A) (A) (A) (A) (A) (A) (A) (A) (A) (A) (A)
                 (A) (A) (A) (A) (A) (A) (A) (A) (A) (A) (A) (A)
                 (A) (A) (A) (A) (A) (A) (A) (A) (A) (A) (A) (A)
                 (A) (A) (A) (A) (A) (A) (A) (A) (A) (A) (A) (A)
                 (A) (A) (A) (A) (A) (A) (A) (A) (A) (A) (A) (A)
                 (A) (A) (A) (A) (A) (A) (A) (A) (A) (A) (A) (A)
                 (A) (A) (A) (A) (A) (A) (A) (A) (A) (A) (A) (A)
                 (A) (A) (A) (A) (A) (A) (A) (A) (A) (A) (A) (A)
                 (A) (A) (A) (A) (A) (A) (A) (A) (A) (A) (A) (A)
                 (A) (A) (A) (A) (A) (A) (A) (A) (A) (A) (A) (A)
                 (A) (A) (A) (A) (A) (A) (A) (A) (A) (A) (A) (A)
                 (A) (A) (A) (A) (A) (A) (A) (A) (A) (A) (A)
 The electronic state is 1-A.
 Alpha  occ. eigenvalues --  -89.14021 -89.09435 -19.15700 -19.15464 -19.14709
 Alpha  occ. eigenvalues --  -19.14676 -14.38902 -14.38416 -10.28634 -10.24004
 Alpha  occ. eigenvalues --  -10.23268 -10.23030 -10.22311 -10.20805 -10.20764
 Alpha  occ. eigenvalues --  -10.20400 -10.19508 -10.19463 -10.19442 -10.19353
 Alpha  occ. eigenvalues --  -10.19322  -8.16271  -8.12464  -6.12768  -6.12690
 Alpha  occ. eigenvalues --   -6.12647  -6.08881  -6.08824  -6.08757  -1.13273
 Alpha  occ. eigenvalues --   -1.10075  -1.01395  -0.99715  -0.96150  -0.94622
 Alpha  occ. eigenvalues --   -0.86508  -0.85776  -0.80209  -0.74883  -0.74814
 Alpha  occ. eigenvalues --   -0.73657  -0.73227  -0.71641  -0.67938  -0.63177
 Alpha  occ. eigenvalues --   -0.61088  -0.60635  -0.59025  -0.58014  -0.54874
 Alpha  occ. eigenvalues --   -0.53906  -0.51882  -0.51421  -0.50347  -0.49951
 Alpha  occ. eigenvalues --   -0.48702  -0.47516  -0.47100  -0.46261  -0.45916
 Alpha  occ. eigenvalues --   -0.45211  -0.44778  -0.43984  -0.43387  -0.42500
 Alpha  occ. eigenvalues --   -0.42394  -0.41853  -0.41710  -0.41360  -0.39509
 Alpha  occ. eigenvalues --   -0.39382  -0.38401  -0.37082  -0.35952  -0.35285
 Alpha  occ. eigenvalues --   -0.34874  -0.34488  -0.33892  -0.33130  -0.32516
 Alpha  occ. eigenvalues --   -0.31678  -0.31379  -0.30064  -0.29228  -0.28910
 Alpha  occ. eigenvalues --   -0.26420  -0.25469  -0.24749
 Alpha virt. eigenvalues --   -0.00697  -0.00569   0.02509   0.03488   0.04892
 Alpha virt. eigenvalues --    0.05613   0.06246   0.06447   0.07193   0.08340
 Alpha virt. eigenvalues --    0.08427   0.09104   0.09597   0.09730   0.11727
 Alpha virt. eigenvalues --    0.12726   0.13336   0.13660   0.14043   0.14585
 Alpha virt. eigenvalues --    0.15091   0.15973   0.16082   0.16481   0.16911
 Alpha virt. eigenvalues --    0.17671   0.18187   0.18460   0.18740   0.19047
 Alpha virt. eigenvalues --    0.19752   0.20936   0.21323   0.22390   0.22814
 Alpha virt. eigenvalues --    0.23536   0.25733   0.27680   0.28412   0.30136
 Alpha virt. eigenvalues --    0.32679   0.33455   0.33786   0.34295   0.35836
 Alpha virt. eigenvalues --    0.35994   0.39213   0.41738   0.42726   0.43915
 Alpha virt. eigenvalues --    0.44957   0.46069   0.47664   0.49262   0.49471
 Alpha virt. eigenvalues --    0.50626   0.51024   0.52487   0.52950   0.54502
 Alpha virt. eigenvalues --    0.54537   0.55229   0.56130   0.56824   0.58028
 Alpha virt. eigenvalues --    0.58255   0.59091   0.59475   0.59938   0.60593
 Alpha virt. eigenvalues --    0.60888   0.61555   0.61773   0.62904   0.63978
 Alpha virt. eigenvalues --    0.66021   0.66269   0.67326   0.68045   0.69196
 Alpha virt. eigenvalues --    0.70038   0.72604   0.73015   0.74532   0.75909
 Alpha virt. eigenvalues --    0.76679   0.78235   0.79294   0.79745   0.80675
 Alpha virt. eigenvalues --    0.81028   0.82116   0.82323   0.82618   0.82916
 Alpha virt. eigenvalues --    0.83360   0.83851   0.84306   0.85025   0.85773
 Alpha virt. eigenvalues --    0.86084   0.86505   0.87221   0.88562   0.89038
 Alpha virt. eigenvalues --    0.89840   0.90737   0.91264   0.92509   0.92587
 Alpha virt. eigenvalues --    0.93013   0.93898   0.94763   0.95601   0.96109
 Alpha virt. eigenvalues --    0.97348   0.98240   0.98934   0.99724   1.00254
 Alpha virt. eigenvalues --    1.01257   1.01427   1.03260   1.04465   1.06739
 Alpha virt. eigenvalues --    1.07539   1.08303   1.09140   1.10451   1.10785
 Alpha virt. eigenvalues --    1.11581   1.11906   1.14051   1.15574   1.16544
 Alpha virt. eigenvalues --    1.16987   1.18558   1.19299   1.19832   1.21308
 Alpha virt. eigenvalues --    1.22079   1.25245   1.25531   1.28321   1.29512
 Alpha virt. eigenvalues --    1.32520   1.35133   1.37499   1.38244   1.39412
 Alpha virt. eigenvalues --    1.41614   1.42101   1.43720   1.44584   1.46987
 Alpha virt. eigenvalues --    1.47891   1.48728   1.50618   1.50903   1.52657
 Alpha virt. eigenvalues --    1.55374   1.57259   1.59185   1.64140   1.67012
 Alpha virt. eigenvalues --    1.68809   1.70708   1.71742   1.73024   1.74236
 Alpha virt. eigenvalues --    1.77470   1.77695   1.79613   1.79759   1.80056
 Alpha virt. eigenvalues --    1.80349   1.80999   1.81453   1.82183   1.82367
 Alpha virt. eigenvalues --    1.83330   1.84511   1.85498   1.86087   1.88941
 Alpha virt. eigenvalues --    1.89839   1.91626   1.92350   1.92777   1.93915
 Alpha virt. eigenvalues --    1.95197   1.96986   1.97263   1.97575   1.97990
 Alpha virt. eigenvalues --    1.98709   2.00873   2.02527   2.03154   2.04853
 Alpha virt. eigenvalues --    2.05565   2.06338   2.07227   2.07650   2.09044
 Alpha virt. eigenvalues --    2.10414   2.12778   2.13779   2.13883   2.14312
 Alpha virt. eigenvalues --    2.15376   2.16491   2.17905   2.19791   2.20744
 Alpha virt. eigenvalues --    2.22372   2.23651   2.26092   2.26531   2.27231
 Alpha virt. eigenvalues --    2.28443   2.30506   2.31074   2.32261   2.35480
 Alpha virt. eigenvalues --    2.36537   2.37779   2.39441   2.40260   2.41840
 Alpha virt. eigenvalues --    2.47037   2.48161   2.53712   2.55137   2.57091
 Alpha virt. eigenvalues --    2.57405   2.60863   2.65753   2.66848   2.69107
 Alpha virt. eigenvalues --    2.71836   2.72055   2.72327   2.73749   2.74033
 Alpha virt. eigenvalues --    2.75837   2.76267   2.78209   2.82928   2.83328
 Alpha virt. eigenvalues --    2.88919   2.93251   3.04528   3.40720   3.79795
 Alpha virt. eigenvalues --    3.81518   3.89891   3.95499   3.98361   4.00928
 Alpha virt. eigenvalues --    4.08741   4.08887   4.11086   4.14313   4.15032
 Alpha virt. eigenvalues --    4.20105   4.23631   4.25168   4.31948   4.32596
 Alpha virt. eigenvalues --    4.35278   4.40805   4.49946   4.69792   4.73389
          Condensed to atoms (all electrons):
               1          2          3          4          5          6
     1  S   13.618523   0.121316   0.004177  -0.006716   0.000154   0.000383
     2  N    0.121316   7.418180   0.189998  -0.043893   0.005154  -0.049149
     3  C    0.004177   0.189998   4.907347   0.353276  -0.104633   0.343331
     4  C   -0.006716  -0.043893   0.353276   5.718299   0.149452  -0.199787
     5  S    0.000154   0.005154  -0.104633   0.149452  13.878203   0.128038
     6  C    0.000383  -0.049149   0.343331  -0.199787   0.128038   5.744274
     7  O   -0.000461   0.000063  -0.000208  -0.043986   0.410791  -0.043976
     8  O    0.000001  -0.000038   0.001755  -0.046209   0.435837  -0.046015
     9  C   -0.003007  -0.058291   0.364540  -0.042052   0.002396  -0.046804
    10  C   -0.000031   0.004215  -0.028686  -0.006677  -0.000372  -0.005170
    11  C   -0.000018  -0.000103   0.003899   0.000130   0.000038   0.000023
    12  C    0.000000  -0.000002   0.000052  -0.000004   0.000000   0.000002
    13  C    0.000000   0.000000   0.000002   0.000000   0.000000   0.000000
    14  C    0.000000   0.000000   0.000000   0.000000   0.000000   0.000000
    15  C    0.000000   0.000000   0.000002   0.000000   0.000000   0.000000
    16  C   -0.000008  -0.000003   0.000136  -0.000002   0.000001  -0.000004
    17  O    0.412168  -0.054183   0.007095  -0.000089   0.000121   0.000047
    18  O    0.447691  -0.056836   0.002312  -0.000099   0.000008  -0.000090
    19  H   -0.017051   0.300548  -0.024830   0.005042   0.000120  -0.006289
    20  H   -0.000484   0.003242  -0.030277   0.331672  -0.007503   0.006313
    21  H    0.003503  -0.006912  -0.021002   0.332397  -0.009294   0.008355
    22  H    0.000007   0.003313  -0.028843   0.005524  -0.004916   0.329262
    23  H    0.000106  -0.003720  -0.022418   0.009034  -0.007257   0.338580
    24  H    0.000305  -0.001883  -0.037303   0.005460  -0.000051  -0.006118
    25  H    0.002008  -0.002939  -0.030214  -0.004848  -0.000124   0.004841
    26  H    0.000001  -0.000005  -0.005415   0.001273   0.000074  -0.000235
    27  H    0.000004  -0.000009  -0.004371  -0.000345   0.000018   0.001100
    28  H    0.000000   0.000000  -0.000040   0.000000   0.000001  -0.000010
    29  H    0.000000   0.000000   0.000000   0.000000   0.000000   0.000000
    30  H    0.000000   0.000000   0.000000   0.000000   0.000000   0.000000
    31  H    0.000000   0.000000   0.000000   0.000000   0.000000   0.000000
    32  H    0.000001   0.000001  -0.000064  -0.000001   0.000001   0.000000
    33  N    0.130511  -0.043529  -0.005247  -0.010802  -0.000156  -0.000348
    34  C   -0.027113   0.002399   0.000031   0.000100   0.000003   0.000004
    35  H   -0.004502   0.000119   0.000015   0.000112   0.000006   0.000000
    36  H    0.002210  -0.000083   0.000002   0.000126  -0.000004   0.000000
    37  H   -0.003544  -0.000074  -0.000008  -0.000023   0.000000   0.000000
    38  C   -0.011222  -0.009300   0.000553   0.000040  -0.000094   0.000053
    39  H   -0.008270  -0.000265  -0.000031  -0.000036   0.000016  -0.000001
    40  H    0.003057   0.000064   0.000001   0.000148   0.000006   0.000002
    41  H   -0.003475   0.011520  -0.000175   0.000031   0.001686  -0.000051
               7          8          9         10         11         12
     1  S   -0.000461   0.000001  -0.003007  -0.000031  -0.000018   0.000000
     2  N    0.000063  -0.000038  -0.058291   0.004215  -0.000103  -0.000002
     3  C   -0.000208   0.001755   0.364540  -0.028686   0.003899   0.000052
     4  C   -0.043986  -0.046209  -0.042052  -0.006677   0.000130  -0.000004
     5  S    0.410791   0.435837   0.002396  -0.000372   0.000038   0.000000
     6  C   -0.043976  -0.046015  -0.046804  -0.005170   0.000023   0.000002
     7  O    8.235348  -0.044504  -0.000061  -0.000002   0.000000   0.000000
     8  O   -0.044504   8.208273  -0.000225   0.000050   0.000001   0.000000
     9  C   -0.000061  -0.000225   5.151205   0.332585  -0.038793  -0.003992
    10  C   -0.000002   0.000050   0.332585   5.207749   0.346702  -0.055954
    11  C    0.000000   0.000001  -0.038793   0.346702   4.636624   0.551229
    12  C    0.000000   0.000000  -0.003992  -0.055954   0.551229   4.955280
    13  C    0.000000   0.000000  -0.000077   0.006891  -0.019856   0.524604
    14  C    0.000000   0.000000   0.000016   0.000418  -0.034576  -0.036345
    15  C    0.000000   0.000000   0.000022   0.006572  -0.018645  -0.047088
    16  C    0.000000   0.000000  -0.003657  -0.060160   0.547457  -0.037141
    17  O    0.000000   0.000000  -0.009177   0.000112   0.000003   0.000000
    18  O    0.000000   0.000000  -0.000192  -0.000001   0.000000   0.000000
    19  H    0.000026   0.000002  -0.000804  -0.000090   0.000001   0.000000
    20  H    0.001216   0.000927  -0.006964   0.001632   0.000012   0.000000
    21  H    0.000475   0.000609   0.000608   0.000168  -0.000001   0.000000
    22  H    0.001143   0.000735  -0.005035   0.001022  -0.000004  -0.000005
    23  H   -0.000255   0.000740   0.001202   0.000110   0.000001   0.000000
    24  H    0.000001   0.000002   0.360622  -0.037910  -0.001008   0.003505
    25  H    0.000001   0.000002   0.365502  -0.030682  -0.002073  -0.000023
    26  H    0.000001  -0.000026  -0.040517   0.358431  -0.026218   0.003395
    27  H    0.000002   0.000049  -0.039565   0.357349  -0.029609  -0.003922
    28  H    0.000000   0.000000   0.000193  -0.010270  -0.047960   0.354079
    29  H    0.000000   0.000000  -0.000001  -0.000189   0.003785  -0.039502
    30  H    0.000000   0.000000   0.000000   0.000007   0.000742   0.004691
    31  H    0.000000   0.000000  -0.000001  -0.000187   0.003682   0.000898
    32  H    0.000000   0.000000   0.000231  -0.009293  -0.047635   0.005988
    33  N   -0.000061   0.000000  -0.000233   0.000000   0.000000   0.000000
    34  C   -0.000001   0.000000   0.000010   0.000000   0.000000   0.000000
    35  H    0.000000   0.000000   0.000001   0.000000   0.000000   0.000000
    36  H    0.000000   0.000000   0.000000   0.000000   0.000000   0.000000
    37  H    0.000000   0.000000   0.000000   0.000000   0.000000   0.000000
    38  C   -0.000382   0.000000  -0.000005   0.000000   0.000000   0.000000
    39  H    0.000050   0.000000   0.000000   0.000000   0.000000   0.000000
    40  H    0.000128   0.000000   0.000000   0.000000   0.000000   0.000000
    41  H    0.005150   0.000004   0.000025   0.000000   0.000000   0.000000
              13         14         15         16         17         18
     1  S    0.000000   0.000000   0.000000  -0.000008   0.412168   0.447691
     2  N    0.000000   0.000000   0.000000  -0.000003  -0.054183  -0.056836
     3  C    0.000002   0.000000   0.000002   0.000136   0.007095   0.002312
     4  C    0.000000   0.000000   0.000000  -0.000002  -0.000089  -0.000099
     5  S    0.000000   0.000000   0.000000   0.000001   0.000121   0.000008
     6  C    0.000000   0.000000   0.000000  -0.000004   0.000047  -0.000090
     7  O    0.000000   0.000000   0.000000   0.000000   0.000000   0.000000
     8  O    0.000000   0.000000   0.000000   0.000000   0.000000   0.000000
     9  C   -0.000077   0.000016   0.000022  -0.003657  -0.009177  -0.000192
    10  C    0.006891   0.000418   0.006572  -0.060160   0.000112  -0.000001
    11  C   -0.019856  -0.034576  -0.018645   0.547457   0.000003   0.000000
    12  C    0.524604  -0.036345  -0.047088  -0.037141   0.000000   0.000000
    13  C    4.864027   0.551939  -0.025794  -0.047242   0.000000   0.000000
    14  C    0.551939   4.850319   0.549588  -0.035968   0.000000   0.000000
    15  C   -0.025794   0.549588   4.861987   0.526604   0.000000   0.000000
    16  C   -0.047242  -0.035968   0.526604   4.952314  -0.000011   0.000000
    17  O    0.000000   0.000000   0.000000  -0.000011   8.267405  -0.043906
    18  O    0.000000   0.000000   0.000000   0.000000  -0.043906   8.222282
    19  H    0.000000   0.000000   0.000000   0.000000  -0.000012   0.005773
    20  H    0.000000   0.000000   0.000000  -0.000001  -0.000176   0.000000
    21  H    0.000000   0.000000   0.000000   0.000000  -0.000765   0.000033
    22  H    0.000000   0.000000   0.000000   0.000001   0.000001   0.000000
    23  H    0.000000   0.000000   0.000000   0.000000   0.000002  -0.000010
    24  H   -0.000132  -0.000007  -0.000022  -0.000153   0.000114  -0.000008
    25  H   -0.000006  -0.000003  -0.000117   0.004003   0.015380  -0.000175
    26  H   -0.000212   0.000015   0.000065  -0.004278   0.000020   0.000000
    27  H    0.000136   0.000008  -0.000196   0.004039  -0.000003   0.000000
    28  H   -0.045264   0.004911   0.000355   0.006192   0.000000   0.000000
    29  H    0.356639  -0.042848   0.004546   0.000872   0.000000   0.000000
    30  H   -0.042930   0.359369  -0.042722   0.004675   0.000000   0.000000
    31  H    0.004523  -0.042795   0.357013  -0.039102   0.000000   0.000000
    32  H    0.000376   0.004829  -0.044202   0.356266   0.000004   0.000000
    33  N    0.000000   0.000000   0.000000   0.000000  -0.055022  -0.056261
    34  C    0.000000   0.000000   0.000000   0.000000  -0.004648  -0.002387
    35  H    0.000000   0.000000   0.000000   0.000000   0.012120  -0.000231
    36  H    0.000000   0.000000   0.000000   0.000000   0.000191  -0.000109
    37  H    0.000000   0.000000   0.000000   0.000000  -0.000468   0.002711
    38  C    0.000000   0.000000   0.000000   0.000000   0.001687   0.001126
    39  H    0.000000   0.000000   0.000000   0.000000  -0.000040   0.005796
    40  H    0.000000   0.000000   0.000000   0.000000  -0.000050   0.000017
    41  H    0.000000   0.000000   0.000000   0.000000   0.000023  -0.001443
              19         20         21         22         23         24
     1  S   -0.017051  -0.000484   0.003503   0.000007   0.000106   0.000305
     2  N    0.300548   0.003242  -0.006912   0.003313  -0.003720  -0.001883
     3  C   -0.024830  -0.030277  -0.021002  -0.028843  -0.022418  -0.037303
     4  C    0.005042   0.331672   0.332397   0.005524   0.009034   0.005460
     5  S    0.000120  -0.007503  -0.009294  -0.004916  -0.007257  -0.000051
     6  C   -0.006289   0.006313   0.008355   0.329262   0.338580  -0.006118
     7  O    0.000026   0.001216   0.000475   0.001143  -0.000255   0.000001
     8  O    0.000002   0.000927   0.000609   0.000735   0.000740   0.000002
     9  C   -0.000804  -0.006964   0.000608  -0.005035   0.001202   0.360622
    10  C   -0.000090   0.001632   0.000168   0.001022   0.000110  -0.037910
    11  C    0.000001   0.000012  -0.000001  -0.000004   0.000001  -0.001008
    12  C    0.000000   0.000000   0.000000  -0.000005   0.000000   0.003505
    13  C    0.000000   0.000000   0.000000   0.000000   0.000000  -0.000132
    14  C    0.000000   0.000000   0.000000   0.000000   0.000000  -0.000007
    15  C    0.000000   0.000000   0.000000   0.000000   0.000000  -0.000022
    16  C    0.000000  -0.000001   0.000000   0.000001   0.000000  -0.000153
    17  O   -0.000012  -0.000176  -0.000765   0.000001   0.000002   0.000114
    18  O    0.005773   0.000000   0.000033   0.000000  -0.000010  -0.000008
    19  H    0.368657  -0.000099   0.000161   0.000027   0.003069   0.004458
    20  H   -0.000099   0.498430  -0.014002  -0.000089  -0.000239   0.000152
    21  H    0.000161  -0.014002   0.439547  -0.000243  -0.000298  -0.000070
    22  H    0.000027  -0.000089  -0.000243   0.499370  -0.019080   0.000646
    23  H    0.003069  -0.000239  -0.000298  -0.019080   0.491746   0.000342
    24  H    0.004458   0.000152  -0.000070   0.000646   0.000342   0.596617
    25  H   -0.000580   0.000569   0.000153   0.000197  -0.000081  -0.030770
    26  H    0.000009   0.006891   0.000004   0.000017  -0.000005   0.005810
    27  H   -0.000006   0.000124   0.000001   0.007084   0.000002  -0.004682
    28  H    0.000000   0.000000   0.000000   0.000073   0.000000   0.000528
    29  H    0.000000   0.000000   0.000000   0.000000   0.000000   0.000003
    30  H    0.000000   0.000000   0.000000   0.000000   0.000000   0.000000
    31  H    0.000000   0.000000   0.000000   0.000000   0.000000   0.000000
    32  H    0.000000   0.000039   0.000000   0.000000   0.000000   0.000052
    33  N    0.002583   0.000323   0.021271   0.000000   0.000004   0.000007
    34  C   -0.000059  -0.000001  -0.000555   0.000000   0.000000   0.000000
    35  H   -0.000004  -0.000004  -0.000102   0.000000   0.000000   0.000000
    36  H    0.000001  -0.000003  -0.000438   0.000000   0.000000   0.000000
    37  H    0.000008   0.000000   0.000131   0.000000   0.000000   0.000000
    38  C   -0.000223   0.000001  -0.001065  -0.000001  -0.000017   0.000000
    39  H    0.000089   0.000000   0.000151   0.000000   0.000001   0.000000
    40  H    0.000001  -0.000001  -0.000361   0.000000  -0.000001   0.000000
    41  H   -0.000538   0.000002  -0.000545   0.000005   0.000070  -0.000001
              25         26         27         28         29         30
     1  S    0.002008   0.000001   0.000004   0.000000   0.000000   0.000000
     2  N   -0.002939  -0.000005  -0.000009   0.000000   0.000000   0.000000
     3  C   -0.030214  -0.005415  -0.004371  -0.000040   0.000000   0.000000
     4  C   -0.004848   0.001273  -0.000345   0.000000   0.000000   0.000000
     5  S   -0.000124   0.000074   0.000018   0.000001   0.000000   0.000000
     6  C    0.004841  -0.000235   0.001100  -0.000010   0.000000   0.000000
     7  O    0.000001   0.000001   0.000002   0.000000   0.000000   0.000000
     8  O    0.000002  -0.000026   0.000049   0.000000   0.000000   0.000000
     9  C    0.365502  -0.040517  -0.039565   0.000193  -0.000001   0.000000
    10  C   -0.030682   0.358431   0.357349  -0.010270  -0.000189   0.000007
    11  C   -0.002073  -0.026218  -0.029609  -0.047960   0.003785   0.000742
    12  C   -0.000023   0.003395  -0.003922   0.354079  -0.039502   0.004691
    13  C   -0.000006  -0.000212   0.000136  -0.045264   0.356639  -0.042930
    14  C   -0.000003   0.000015   0.000008   0.004911  -0.042848   0.359369
    15  C   -0.000117   0.000065  -0.000196   0.000355   0.004546  -0.042722
    16  C    0.004003  -0.004278   0.004039   0.006192   0.000872   0.004675
    17  O    0.015380   0.000020  -0.000003   0.000000   0.000000   0.000000
    18  O   -0.000175   0.000000   0.000000   0.000000   0.000000   0.000000
    19  H   -0.000580   0.000009  -0.000006   0.000000   0.000000   0.000000
    20  H    0.000569   0.006891   0.000124   0.000000   0.000000   0.000000
    21  H    0.000153   0.000004   0.000001   0.000000   0.000000   0.000000
    22  H    0.000197   0.000017   0.007084   0.000073   0.000000   0.000000
    23  H   -0.000081  -0.000005   0.000002   0.000000   0.000000   0.000000
    24  H   -0.030770   0.005810  -0.004682   0.000528   0.000003   0.000000
    25  H    0.501260  -0.004298   0.004766   0.000024   0.000000   0.000000
    26  H   -0.004298   0.580586  -0.035571   0.000084   0.000003   0.000000
    27  H    0.004766  -0.035571   0.587791   0.006211  -0.000008   0.000000
    28  H    0.000024   0.000084   0.006211   0.617236  -0.005710  -0.000184
    29  H    0.000000   0.000003  -0.000008  -0.005710   0.596424  -0.005538
    30  H    0.000000   0.000000   0.000000  -0.000184  -0.005538   0.595428
    31  H    0.000003  -0.000006   0.000003   0.000018  -0.000189  -0.005476
    32  H    0.001031   0.004663   0.000068  -0.000182   0.000018  -0.000182
    33  N   -0.000042   0.000000   0.000000   0.000000   0.000000   0.000000
    34  C    0.000008   0.000000   0.000000   0.000000   0.000000   0.000000
    35  H    0.000004   0.000000   0.000000   0.000000   0.000000   0.000000
    36  H    0.000000   0.000000   0.000000   0.000000   0.000000   0.000000
    37  H    0.000000   0.000000   0.000000   0.000000   0.000000   0.000000
    38  C   -0.000004   0.000000   0.000000   0.000000   0.000000   0.000000
    39  H    0.000000   0.000000   0.000000   0.000000   0.000000   0.000000
    40  H    0.000000   0.000000   0.000000   0.000000   0.000000   0.000000
    41  H    0.000001   0.000000   0.000000   0.000000   0.000000   0.000000
              31         32         33         34         35         36
     1  S    0.000000   0.000001   0.130511  -0.027113  -0.004502   0.002210
     2  N    0.000000   0.000001  -0.043529   0.002399   0.000119  -0.000083
     3  C    0.000000  -0.000064  -0.005247   0.000031   0.000015   0.000002
     4  C    0.000000  -0.000001  -0.010802   0.000100   0.000112   0.000126
     5  S    0.000000   0.000001  -0.000156   0.000003   0.000006  -0.000004
     6  C    0.000000   0.000000  -0.000348   0.000004   0.000000   0.000000
     7  O    0.000000   0.000000  -0.000061  -0.000001   0.000000   0.000000
     8  O    0.000000   0.000000   0.000000   0.000000   0.000000   0.000000
     9  C   -0.000001   0.000231  -0.000233   0.000010   0.000001   0.000000
    10  C   -0.000187  -0.009293   0.000000   0.000000   0.000000   0.000000
    11  C    0.003682  -0.047635   0.000000   0.000000   0.000000   0.000000
    12  C    0.000898   0.005988   0.000000   0.000000   0.000000   0.000000
    13  C    0.004523   0.000376   0.000000   0.000000   0.000000   0.000000
    14  C   -0.042795   0.004829   0.000000   0.000000   0.000000   0.000000
    15  C    0.357013  -0.044202   0.000000   0.000000   0.000000   0.000000
    16  C   -0.039102   0.356266   0.000000   0.000000   0.000000   0.000000
    17  O    0.000000   0.000004  -0.055022  -0.004648   0.012120   0.000191
    18  O    0.000000   0.000000  -0.056261  -0.002387  -0.000231  -0.000109
    19  H    0.000000   0.000000   0.002583  -0.000059  -0.000004   0.000001
    20  H    0.000000   0.000039   0.000323  -0.000001  -0.000004  -0.000003
    21  H    0.000000   0.000000   0.021271  -0.000555  -0.000102  -0.000438
    22  H    0.000000   0.000000   0.000000   0.000000   0.000000   0.000000
    23  H    0.000000   0.000000   0.000004   0.000000   0.000000   0.000000
    24  H    0.000000   0.000052   0.000007   0.000000   0.000000   0.000000
    25  H    0.000003   0.001031  -0.000042   0.000008   0.000004   0.000000
    26  H   -0.000006   0.004663   0.000000   0.000000   0.000000   0.000000
    27  H    0.000003   0.000068   0.000000   0.000000   0.000000   0.000000
    28  H    0.000018  -0.000182   0.000000   0.000000   0.000000   0.000000
    29  H   -0.000189   0.000018   0.000000   0.000000   0.000000   0.000000
    30  H   -0.005476  -0.000182   0.000000   0.000000   0.000000   0.000000
    31  H    0.593515  -0.005598   0.000000   0.000000   0.000000   0.000000
    32  H   -0.005598   0.604990   0.000000   0.000000   0.000000   0.000000
    33  N    0.000000   0.000000   7.217844   0.289123  -0.031621  -0.038921
    34  C    0.000000   0.000000   0.289123   4.995162   0.377351   0.379095
    35  H    0.000000   0.000000  -0.031621   0.377351   0.489783  -0.020831
    36  H    0.000000   0.000000  -0.038921   0.379095  -0.020831   0.546451
    37  H    0.000000   0.000000  -0.046661   0.371706  -0.030209  -0.040640
    38  C    0.000000   0.000000   0.266996  -0.049468   0.004613  -0.002942
    39  H    0.000000   0.000000  -0.045196  -0.002457  -0.000188  -0.001680
    40  H    0.000000   0.000000  -0.034244  -0.003760   0.000020   0.005430
    41  H    0.000000   0.000000  -0.032043   0.004441  -0.000185   0.000071
              37         38         39         40         41
     1  S   -0.003544  -0.011222  -0.008270   0.003057  -0.003475
     2  N   -0.000074  -0.009300  -0.000265   0.000064   0.011520
     3  C   -0.000008   0.000553  -0.000031   0.000001  -0.000175
     4  C   -0.000023   0.000040  -0.000036   0.000148   0.000031
     5  S    0.000000  -0.000094   0.000016   0.000006   0.001686
     6  C    0.000000   0.000053  -0.000001   0.000002  -0.000051
     7  O    0.000000  -0.000382   0.000050   0.000128   0.005150
     8  O    0.000000   0.000000   0.000000   0.000000   0.000004
     9  C    0.000000  -0.000005   0.000000   0.000000   0.000025
    10  C    0.000000   0.000000   0.000000   0.000000   0.000000
    11  C    0.000000   0.000000   0.000000   0.000000   0.000000
    12  C    0.000000   0.000000   0.000000   0.000000   0.000000
    13  C    0.000000   0.000000   0.000000   0.000000   0.000000
    14  C    0.000000   0.000000   0.000000   0.000000   0.000000
    15  C    0.000000   0.000000   0.000000   0.000000   0.000000
    16  C    0.000000   0.000000   0.000000   0.000000   0.000000
    17  O   -0.000468   0.001687  -0.000040  -0.000050   0.000023
    18  O    0.002711   0.001126   0.005796   0.000017  -0.001443
    19  H    0.000008  -0.000223   0.000089   0.000001  -0.000538
    20  H    0.000000   0.000001   0.000000  -0.000001   0.000002
    21  H    0.000131  -0.001065   0.000151  -0.000361  -0.000545
    22  H    0.000000  -0.000001   0.000000   0.000000   0.000005
    23  H    0.000000  -0.000017   0.000001  -0.000001   0.000070
    24  H    0.000000   0.000000   0.000000   0.000000  -0.000001
    25  H    0.000000  -0.000004   0.000000   0.000000   0.000001
    26  H    0.000000   0.000000   0.000000   0.000000   0.000000
    27  H    0.000000   0.000000   0.000000   0.000000   0.000000
    28  H    0.000000   0.000000   0.000000   0.000000   0.000000
    29  H    0.000000   0.000000   0.000000   0.000000   0.000000
    30  H    0.000000   0.000000   0.000000   0.000000   0.000000
    31  H    0.000000   0.000000   0.000000   0.000000   0.000000
    32  H    0.000000   0.000000   0.000000   0.000000   0.000000
    33  N   -0.046661   0.266996  -0.045196  -0.034244  -0.032043
    34  C    0.371706  -0.049468  -0.002457  -0.003760   0.004441
    35  H   -0.030209   0.004613  -0.000188   0.000020  -0.000185
    36  H   -0.040640  -0.002942  -0.001680   0.005430   0.000071
    37  H    0.576148  -0.002258   0.008428  -0.001461  -0.000208
    38  C   -0.002258   5.008121   0.367975   0.376415   0.374713
    39  H    0.008428   0.367975   0.576241  -0.036632  -0.029428
    40  H   -0.001461   0.376415  -0.036632   0.538592  -0.021082
    41  H   -0.000208   0.374713  -0.029428  -0.021082   0.484307
 Mulliken charges:
               1
     1  S    1.339774
     2  N   -0.728914
     3  C    0.165244
     4  C   -0.506548
     5  S    1.122284
     6  C   -0.500561
     7  O   -0.520496
     8  O   -0.511969
     9  C   -0.279703
    10  C   -0.378341
    11  C    0.172172
    12  C   -0.179744
    13  C   -0.127624
    14  C   -0.128869
    15  C   -0.127967
    16  C   -0.174829
    17  O   -0.547943
    18  O   -0.526004
    19  H    0.360008
    20  H    0.208300
    21  H    0.248086
    22  H    0.209788
    23  H    0.208372
    24  H    0.141492
    25  H    0.207226
    26  H    0.155444
    27  H    0.149532
    28  H    0.119713
    29  H    0.131694
    30  H    0.132120
    31  H    0.133699
    32  H    0.128598
    33  N   -0.528275
    34  C   -0.328983
    35  H    0.203733
    36  H    0.172072
    37  H    0.166423
    38  C   -0.325313
    39  H    0.165478
    40  H    0.173709
    41  H    0.207123
 Sum of Mulliken charges =   0.00000
 Mulliken charges with hydrogens summed into heavy atoms:
               1
     1  S    1.339774
     2  N   -0.368906
     3  C    0.165244
     4  C   -0.050162
     5  S    1.122284
     6  C   -0.082401
     7  O   -0.520496
     8  O   -0.511969
     9  C    0.069014
    10  C   -0.073365
    11  C    0.172172
    12  C   -0.060032
    13  C    0.004070
    14  C    0.003251
    15  C    0.005732
    16  C   -0.046231
    17  O   -0.547943
    18  O   -0.526004
    33  N   -0.528275
    34  C    0.213246
    38  C    0.220997
 Electronic spatial extent (au):  <R**2>=           8703.1169
 Charge=              0.0000 electrons
 Dipole moment (field-independent basis, Debye):
    X=              1.4279    Y=             -1.3414    Z=             -0.5962  Tot=              2.0478
 Quadrupole moment (field-independent basis, Debye-Ang):
   XX=           -128.9679   YY=           -165.4784   ZZ=           -130.6996
   XY=              8.9208   XZ=             -6.7913   YZ=            -13.5406
 Traceless Quadrupole moment (field-independent basis, Debye-Ang):
   XX=             12.7474   YY=            -23.7631   ZZ=             11.0157
   XY=              8.9208   XZ=             -6.7913   YZ=            -13.5406
 Octapole moment (field-independent basis, Debye-Ang**2):
  XXX=            -34.4387  YYY=            -47.7383  ZZZ=             -2.6311  XYY=             25.7102
  XXY=            -67.3599  XXZ=              8.8795  XZZ=            -14.3278  YZZ=              7.6195
  YYZ=             -4.3427  XYZ=              7.3913
 Hexadecapole moment (field-independent basis, Debye-Ang**3):
 XXXX=          -7389.9968 YYYY=          -3091.3516 ZZZZ=           -733.0140 XXXY=             -1.6502
 XXXZ=           -170.7761 YYYX=             94.4668 YYYZ=           -129.1164 ZZZX=            -11.0005
 ZZZY=            -18.8950 XXYY=          -1832.9197 XXZZ=          -1410.0704 YYZZ=           -592.8581
 XXYZ=           -110.6607 YYXZ=            -20.2078 ZZXY=            -15.9515
 N-N= 2.158030217071D+03 E-N=-8.341814278289D+03  KE= 1.702543621411D+03
 No NMR shielding tensors so no spin-rotation constants.
 Leave Link  601 at Mon Sep 21 21:01:03 2020, MaxMem=    33554432 cpu:         0.3
 (Enter /prod/apps/gaussian/g09d1/l9999.exe)
 1\1\GINC-PIRINEUS24\SP\RB3LYP\6-31G(d)\C13H20N2O4S2\UBAFAR01\21-Sep-20
 20\0\\#p b3lyp/6-31G(d)\\SM40_38w.n.2.pdb.xyz\\0,1\S,0,1.514,2.775,-0.
 48\N,0,1.357,1.32,-1.304\C,0,0.734,0.122,-0.698\C,0,1.539,-0.307,0.572
 \S,0,2.414,-1.584,-0.397\C,0,1.138,-1.087,-1.607\O,0,3.761,-1.15,-0.80
 4\O,0,2.224,-2.948,0.122\C,0,-0.786,0.297,-0.507\C,0,-1.535,-0.9,0.106
 \C,0,-3.02,-0.63,0.225\C,0,-3.904,-1.05,-0.776\C,0,-5.269,-0.777,-0.68
 6\C,0,-5.772,-0.079,0.412\C,0,-4.901,0.343,1.418\C,0,-3.537,0.069,1.32
 4\O,0,0.555,2.906,0.621\O,0,1.547,3.792,-1.538\H,0,1.,1.528,-2.233\H,0
 ,0.927,-0.777,1.339\H,0,2.201,0.452,0.988\H,0,0.372,-1.858,-1.678\H,0,
 1.533,-0.836,-2.592\H,0,-1.218,0.522,-1.489\H,0,-0.937,1.182,0.115\H,0
 ,-1.126,-1.121,1.098\H,0,-1.384,-1.795,-0.506\H,0,-3.518,-1.6,-1.63\H,
 0,-5.939,-1.115,-1.47\H,0,-6.834,0.132,0.486\H,0,-5.283,0.883,2.279\H,
 0,-2.866,0.395,2.113\N,0,3.014,2.54,0.253\C,0,3.284,3.48,1.354\H,0,2.4
 24,3.511,2.019\H,0,4.148,3.097,1.899\H,0,3.512,4.491,0.995\C,0,4.132,2
 .394,-0.691\H,0,4.368,3.334,-1.202\H,0,5.,2.069,-0.114\H,0,3.886,1.62,
 -1.416\\Version=AM64L-G09RevD.01\State=1-A\HF=-1714.0419206\RMSD=9.995
 e-09\Dipole=-0.6976143,0.3823359,-0.1275521\Quadrupole=4.9427993,-14.4
 117156,9.4689163,13.1481679,4.0136249,7.4474523\PG=C01 [X(C13H20N2O4S2
 )]\\@


 WE ARE PERHAPS NOT FAR REMOVED FROM THE TIME WHEN WE SHALL BE ABLE TO SUBMIT
 THE BULK OF CHEMICAL PHENOMENA TO CALCULATION.

            -- JOSEPH LOUIS GAY-LUSSAC
               MEMOIRES DE LA SOCIETE D'ARCUEIL, 2, 207 (1808)
 Job cpu time:       0 days  0 hours  6 minutes  0.8 seconds.
 File lengths (MBytes):  RWF=     73 Int=      0 D2E=      0 Chk=      6 Scr=      1
 Normal termination of Gaussian 09 at Mon Sep 21 21:01:03 2020.
 Initial command:
 /prod/apps/gaussian/g09d1/l1.exe "/tmp/ubafar01/1460310/Gau-53436.inp" -scrdir="/tmp/ubafar01/1460310/"
 Entering Link 1 = /prod/apps/gaussian/g09d1/l1.exe PID=     53903.
  
 Copyright (c) 1988,1990,1992,1993,1995,1998,2003,2009,2013,
            Gaussian, Inc.  All Rights Reserved.
  
 This is part of the Gaussian(R) 09 program.  It is based on
 the Gaussian(R) 03 system (copyright 2003, Gaussian, Inc.),
 the Gaussian(R) 98 system (copyright 1998, Gaussian, Inc.),
[...]
     9  C   -0.000081   0.000016   0.000019  -0.003746  -0.009084  -0.000189
    10  C    0.006884   0.000391   0.006581  -0.060520   0.000112  -0.000001
    11  C   -0.021238  -0.034418  -0.019775   0.545691   0.000002   0.000000
    12  C    0.522412  -0.037565  -0.047091  -0.037619   0.000000   0.000000
    13  C    4.879185   0.549502  -0.027182  -0.047185   0.000000   0.000000
    14  C    0.549502   4.865744   0.547489  -0.037299   0.000000   0.000000
    15  C   -0.027182   0.547489   4.877532   0.524558   0.000000   0.000000
    16  C   -0.047185  -0.037299   0.524558   4.965328  -0.000011   0.000000
    17  O    0.000000   0.000000   0.000000  -0.000011   8.277100  -0.043529
    18  O    0.000000   0.000000   0.000000   0.000000  -0.043529   8.241746
    19  H    0.000000   0.000000   0.000000   0.000000  -0.000063   0.005100
    20  H    0.000000   0.000000   0.000000   0.000000  -0.000177   0.000000
    21  H    0.000000   0.000000   0.000000   0.000000  -0.000785   0.000032
    22  H    0.000000   0.000000   0.000000   0.000001   0.000001   0.000000
    23  H    0.000000   0.000000   0.000000   0.000000   0.000002  -0.000010
    24  H   -0.000127  -0.000006  -0.000020  -0.000127   0.000109  -0.000007
    25  H   -0.000006  -0.000003  -0.000121   0.004093   0.014936  -0.000176
    26  H   -0.000211   0.000015   0.000072  -0.004130   0.000020   0.000000
    27  H    0.000139   0.000008  -0.000195   0.004022  -0.000003   0.000000
    28  H   -0.044317   0.004804   0.000322   0.006062   0.000000   0.000000
    29  H    0.358680  -0.042518   0.004497   0.000831   0.000000   0.000000
    30  H   -0.042480   0.361277  -0.042375   0.004640   0.000000   0.000000
    31  H    0.004489  -0.042395   0.358860  -0.038810   0.000000   0.000000
    32  H    0.000330   0.004801  -0.043939   0.358185   0.000004   0.000000
    33  N    0.000000   0.000000   0.000000   0.000000  -0.055493  -0.056495
    34  C    0.000000   0.000000   0.000000   0.000000  -0.004752  -0.002278
    35  H    0.000000   0.000000   0.000000   0.000000   0.011777  -0.000226
    36  H    0.000000   0.000000   0.000000   0.000000   0.000188  -0.000105
    37  H    0.000000   0.000000   0.000000   0.000000  -0.000461   0.002675
    38  C    0.000000   0.000000   0.000000   0.000000   0.001649   0.001074
    39  H    0.000000   0.000000   0.000000   0.000000  -0.000040   0.005845
    40  H    0.000000   0.000000   0.000000   0.000000  -0.000051   0.000013
    41  H    0.000000   0.000000   0.000000   0.000000   0.000026  -0.001452
              19         20         21         22         23         24
     1  S   -0.015676  -0.000454   0.003550   0.000000   0.000121   0.000329
     2  N    0.301499   0.003187  -0.006960   0.003211  -0.003355  -0.001682
     3  C   -0.023017  -0.030059  -0.021259  -0.028715  -0.022016  -0.035752
     4  C    0.004661   0.333509   0.332670   0.005466   0.008638   0.005290
     5  S    0.000077  -0.007299  -0.009382  -0.005663  -0.008080  -0.000063
     6  C   -0.005978   0.005988   0.008194   0.331823   0.341958  -0.006062
     7  O    0.000021   0.001191   0.000391   0.001127  -0.000353   0.000001
     8  O    0.000001   0.000815   0.000602   0.000665   0.000714   0.000002
     9  C   -0.000612  -0.006863   0.000636  -0.005089   0.001107   0.364384
    10  C   -0.000079   0.001850   0.000165   0.001185   0.000104  -0.037278
    11  C    0.000001   0.000011  -0.000001   0.000007   0.000000  -0.000972
    12  C    0.000000   0.000000   0.000000  -0.000005   0.000000   0.003391
    13  C    0.000000   0.000000   0.000000   0.000000   0.000000  -0.000127
    14  C    0.000000   0.000000   0.000000   0.000000   0.000000  -0.000006
    15  C    0.000000   0.000000   0.000000   0.000000   0.000000  -0.000020
    16  C    0.000000   0.000000   0.000000   0.000001   0.000000  -0.000127
    17  O   -0.000063  -0.000177  -0.000785   0.000001   0.000002   0.000109
    18  O    0.005100   0.000000   0.000032   0.000000  -0.000010  -0.000007
    19  H    0.340215  -0.000087   0.000153   0.000033   0.002678   0.003920
    20  H   -0.000087   0.484981  -0.012778  -0.000095  -0.000220   0.000147
    21  H    0.000153  -0.012778   0.433861  -0.000233  -0.000291  -0.000066
    22  H    0.000033  -0.000095  -0.000233   0.484308  -0.016451   0.000627
    23  H    0.002678  -0.000220  -0.000291  -0.016451   0.467918   0.000310
    24  H    0.003920   0.000147  -0.000066   0.000627   0.000310   0.576327
    25  H   -0.000547   0.000579   0.000153   0.000192  -0.000076  -0.030866
    26  H    0.000008   0.006755   0.000009   0.000013  -0.000005   0.005587
    27  H   -0.000006   0.000116   0.000001   0.006873   0.000009  -0.004601
    28  H    0.000000   0.000000   0.000000   0.000068   0.000000   0.000498
    29  H    0.000000   0.000000   0.000000   0.000000   0.000000   0.000003
    30  H    0.000000   0.000000   0.000000   0.000000   0.000000   0.000000
    31  H    0.000000   0.000000   0.000000   0.000000   0.000000   0.000000
    32  H    0.000000   0.000038   0.000000   0.000000   0.000000   0.000050
    33  N    0.002335   0.000315   0.021246   0.000000   0.000005   0.000007
    34  C   -0.000050  -0.000002  -0.000608   0.000000   0.000000   0.000000
    35  H   -0.000004  -0.000005  -0.000114   0.000000   0.000000   0.000000
    36  H    0.000001  -0.000003  -0.000422   0.000000   0.000000   0.000000
    37  H    0.000007   0.000000   0.000129   0.000000   0.000000   0.000000
    38  C   -0.000233   0.000000  -0.001045  -0.000001  -0.000016   0.000000
    39  H    0.000086   0.000000   0.000148   0.000000   0.000001   0.000000
    40  H    0.000001  -0.000001  -0.000348   0.000000  -0.000001   0.000000
    41  H   -0.000493   0.000002  -0.000540   0.000005   0.000070  -0.000001
              25         26         27         28         29         30
     1  S    0.002123   0.000000   0.000004   0.000000   0.000000   0.000000
     2  N   -0.003085  -0.000005  -0.000007   0.000000   0.000000   0.000000
     3  C   -0.030829  -0.005350  -0.004389  -0.000038   0.000000   0.000000
     4  C   -0.004927   0.001327  -0.000354   0.000000   0.000000   0.000000
     5  S   -0.000135   0.000071   0.000031   0.000001   0.000000   0.000000
     6  C    0.004859  -0.000239   0.001251  -0.000009   0.000000   0.000000
     7  O    0.000001   0.000001   0.000002   0.000000   0.000000   0.000000
     8  O    0.000002  -0.000025   0.000048   0.000000   0.000000   0.000000
     9  C    0.364904  -0.039934  -0.038898   0.000204  -0.000001   0.000000
    10  C   -0.031646   0.359052   0.358489  -0.009911  -0.000184   0.000006
    11  C   -0.002051  -0.026124  -0.028885  -0.046392   0.003719   0.000693
    12  C   -0.000017   0.003351  -0.003802   0.357049  -0.038781   0.004648
    13  C   -0.000006  -0.000211   0.000139  -0.044317   0.358680  -0.042480
    14  C   -0.000003   0.000015   0.000008   0.004804  -0.042518   0.361277
    15  C   -0.000121   0.000072  -0.000195   0.000322   0.004497  -0.042375
    16  C    0.004093  -0.004130   0.004022   0.006062   0.000831   0.004640
    17  O    0.014936   0.000020  -0.000003   0.000000   0.000000   0.000000
    18  O   -0.000176   0.000000   0.000000   0.000000   0.000000   0.000000
    19  H   -0.000547   0.000008  -0.000006   0.000000   0.000000   0.000000
    20  H    0.000579   0.006755   0.000116   0.000000   0.000000   0.000000
    21  H    0.000153   0.000009   0.000001   0.000000   0.000000   0.000000
    22  H    0.000192   0.000013   0.006873   0.000068   0.000000   0.000000
    23  H   -0.000076  -0.000005   0.000009   0.000000   0.000000   0.000000
    24  H   -0.030866   0.005587  -0.004601   0.000498   0.000003   0.000000
    25  H    0.513187  -0.004354   0.004793   0.000023   0.000000   0.000000
    26  H   -0.004354   0.574107  -0.035187   0.000086   0.000003   0.000000
    27  H    0.004793  -0.035187   0.578405   0.005909  -0.000007   0.000000
    28  H    0.000023   0.000086   0.005909   0.597426  -0.005448  -0.000175
    29  H    0.000000   0.000003  -0.000007  -0.005448   0.583460  -0.005370
    30  H    0.000000   0.000000   0.000000  -0.000175  -0.005370   0.583937
    31  H    0.000003  -0.000005   0.000003   0.000017  -0.000182  -0.005324
    32  H    0.001055   0.004501   0.000071  -0.000174   0.000017  -0.000175
    33  N   -0.000045   0.000000   0.000000   0.000000   0.000000   0.000000
    34  C    0.000007   0.000000   0.000000   0.000000   0.000000   0.000000
    35  H    0.000004   0.000000   0.000000   0.000000   0.000000   0.000000
    36  H    0.000000   0.000000   0.000000   0.000000   0.000000   0.000000
    37  H    0.000000   0.000000   0.000000   0.000000   0.000000   0.000000
    38  C   -0.000003   0.000000   0.000000   0.000000   0.000000   0.000000
    39  H    0.000000   0.000000   0.000000   0.000000   0.000000   0.000000
    40  H    0.000000   0.000000   0.000000   0.000000   0.000000   0.000000
    41  H    0.000001   0.000000   0.000000   0.000000   0.000000   0.000000
              31         32         33         34         35         36
     1  S    0.000000   0.000001   0.138162  -0.026437  -0.004368   0.002268
     2  N    0.000000   0.000001  -0.044775   0.002354   0.000116  -0.000086
     3  C    0.000000  -0.000063  -0.005112   0.000028   0.000015   0.000003
     4  C    0.000000  -0.000001  -0.010719   0.000105   0.000111   0.000120
     5  S    0.000000   0.000001  -0.000165   0.000004   0.000006  -0.000005
     6  C    0.000000   0.000000  -0.000346   0.000004   0.000000   0.000000
     7  O    0.000000   0.000000  -0.000055  -0.000001   0.000000   0.000000
     8  O    0.000000   0.000000   0.000000   0.000000   0.000000   0.000000
     9  C   -0.000001   0.000214  -0.000243   0.000010   0.000001   0.000000
    10  C   -0.000183  -0.009065   0.000000   0.000000   0.000000   0.000000
    11  C    0.003649  -0.047311   0.000000   0.000000   0.000000   0.000000
    12  C    0.000841   0.005939   0.000000   0.000000   0.000000   0.000000
    13  C    0.004489   0.000330   0.000000   0.000000   0.000000   0.000000
    14  C   -0.042395   0.004801   0.000000   0.000000   0.000000   0.000000
    15  C    0.358860  -0.043939   0.000000   0.000000   0.000000   0.000000
    16  C   -0.038810   0.358185   0.000000   0.000000   0.000000   0.000000
    17  O    0.000000   0.000004  -0.055493  -0.004752   0.011777   0.000188
    18  O    0.000000   0.000000  -0.056495  -0.002278  -0.000226  -0.000105
    19  H    0.000000   0.000000   0.002335  -0.000050  -0.000004   0.000001
    20  H    0.000000   0.000038   0.000315  -0.000002  -0.000005  -0.000003
    21  H    0.000000   0.000000   0.021246  -0.000608  -0.000114  -0.000422
    22  H    0.000000   0.000000   0.000000   0.000000   0.000000   0.000000
    23  H    0.000000   0.000000   0.000005   0.000000   0.000000   0.000000
    24  H    0.000000   0.000050   0.000007   0.000000   0.000000   0.000000
    25  H    0.000003   0.001055  -0.000045   0.000007   0.000004   0.000000
    26  H   -0.000005   0.004501   0.000000   0.000000   0.000000   0.000000
    27  H    0.000003   0.000071   0.000000   0.000000   0.000000   0.000000
    28  H    0.000017  -0.000174   0.000000   0.000000   0.000000   0.000000
    29  H   -0.000182   0.000017   0.000000   0.000000   0.000000   0.000000
    30  H   -0.005324  -0.000175   0.000000   0.000000   0.000000   0.000000
    31  H    0.582592  -0.005451   0.000000   0.000000   0.000000   0.000000
    32  H   -0.005451   0.595127   0.000000   0.000000   0.000000   0.000000
    33  N    0.000000   0.000000   7.216754   0.284139  -0.032111  -0.037674
    34  C    0.000000   0.000000   0.284139   4.998327   0.376991   0.380994
    35  H    0.000000   0.000000  -0.032111   0.376991   0.493767  -0.020228
    36  H    0.000000   0.000000  -0.037674   0.380994  -0.020228   0.529469
    37  H    0.000000   0.000000  -0.046660   0.372350  -0.030654  -0.038785
    38  C    0.000000   0.000000   0.266819  -0.049256   0.004602  -0.002942
    39  H    0.000000   0.000000  -0.045332  -0.002322  -0.000187  -0.001607
    40  H    0.000000   0.000000  -0.033720  -0.003626   0.000025   0.005169
    41  H    0.000000   0.000000  -0.032431   0.004456  -0.000188   0.000067
              37         38         39         40         41
     1  S   -0.003733  -0.011961  -0.008506   0.003076  -0.003337
     2  N   -0.000073  -0.009389  -0.000269   0.000071   0.011559
     3  C   -0.000007   0.000551  -0.000031   0.000001  -0.000169
     4  C   -0.000022   0.000021  -0.000035   0.000142   0.000030
     5  S    0.000000  -0.000072   0.000013   0.000012   0.001624
     6  C    0.000000   0.000054  -0.000001   0.000002  -0.000057
     7  O    0.000000  -0.000352   0.000049   0.000130   0.004936
     8  O    0.000000   0.000000   0.000000   0.000000   0.000004
     9  C    0.000000  -0.000005   0.000000   0.000000   0.000024
    10  C    0.000000   0.000000   0.000000   0.000000   0.000000
    11  C    0.000000   0.000000   0.000000   0.000000   0.000000
    12  C    0.000000   0.000000   0.000000   0.000000   0.000000
    13  C    0.000000   0.000000   0.000000   0.000000   0.000000
    14  C    0.000000   0.000000   0.000000   0.000000   0.000000
    15  C    0.000000   0.000000   0.000000   0.000000   0.000000
    16  C    0.000000   0.000000   0.000000   0.000000   0.000000
    17  O   -0.000461   0.001649  -0.000040  -0.000051   0.000026
    18  O    0.002675   0.001074   0.005845   0.000013  -0.001452
    19  H    0.000007  -0.000233   0.000086   0.000001  -0.000493
    20  H    0.000000   0.000000   0.000000  -0.000001   0.000002
    21  H    0.000129  -0.001045   0.000148  -0.000348  -0.000540
    22  H    0.000000  -0.000001   0.000000   0.000000   0.000005
    23  H    0.000000  -0.000016   0.000001  -0.000001   0.000070
    24  H    0.000000   0.000000   0.000000   0.000000  -0.000001
    25  H    0.000000  -0.000003   0.000000   0.000000   0.000001
    26  H    0.000000   0.000000   0.000000   0.000000   0.000000
    27  H    0.000000   0.000000   0.000000   0.000000   0.000000
    28  H    0.000000   0.000000   0.000000   0.000000   0.000000
    29  H    0.000000   0.000000   0.000000   0.000000   0.000000
    30  H    0.000000   0.000000   0.000000   0.000000   0.000000
    31  H    0.000000   0.000000   0.000000   0.000000   0.000000
    32  H    0.000000   0.000000   0.000000   0.000000   0.000000
    33  N   -0.046660   0.266819  -0.045332  -0.033720  -0.032431
    34  C    0.372350  -0.049256  -0.002322  -0.003626   0.004456
    35  H   -0.030654   0.004602  -0.000187   0.000025  -0.000188
    36  H   -0.038785  -0.002942  -0.001607   0.005169   0.000067
    37  H    0.572431  -0.002227   0.008246  -0.001425  -0.000202
    38  C   -0.002227   5.008750   0.369441   0.377447   0.373968
    39  H    0.008246   0.369441   0.572592  -0.035308  -0.029700
    40  H   -0.001425   0.377447  -0.035308   0.529934  -0.021431
    41  H   -0.000202   0.373968  -0.029700  -0.021431   0.489311
 Mulliken charges:
               1
     1  S    1.336618
     2  N   -0.735107
     3  C    0.164493
     4  C   -0.508854
     5  S    1.114804
     6  C   -0.499371
     7  O   -0.537301
     8  O   -0.535325
     9  C   -0.281976
    10  C   -0.382134
    11  C    0.167011
    12  C   -0.187712
    13  C   -0.138798
    14  C   -0.139841
    15  C   -0.139232
    16  C   -0.184080
    17  O   -0.557812
    18  O   -0.543529
    19  H    0.386049
    20  H    0.218558
    21  H    0.252891
    22  H    0.220646
    23  H    0.227240
    24  H    0.156650
    25  H    0.197970
    26  H    0.160592
    27  H    0.156161
    28  H    0.133996
    29  H    0.141281
    30  H    0.140697
    31  H    0.141895
    32  H    0.135845
    33  N   -0.528403
    34  C   -0.330438
    35  H    0.200670
    36  H    0.183579
    37  H    0.168413
    38  C   -0.326873
    39  H    0.166919
    40  H    0.179889
    41  H    0.203920
 Sum of Mulliken charges =   0.00000
 Mulliken charges with hydrogens summed into heavy atoms:
               1
     1  S    1.336618
     2  N   -0.349058
     3  C    0.164493
     4  C   -0.037405
     5  S    1.114804
     6  C   -0.051485
     7  O   -0.537301
     8  O   -0.535325
     9  C    0.072644
    10  C   -0.065381
    11  C    0.167011
    12  C   -0.053716
    13  C    0.002484
    14  C    0.000856
    15  C    0.002663
    16  C   -0.048235
    17  O   -0.557812
    18  O   -0.543529
    33  N   -0.528403
    34  C    0.222224
    38  C    0.223855
 Electronic spatial extent (au):  <R**2>=           8704.2837
 Charge=              0.0000 electrons
 Dipole moment (field-independent basis, Debye):
    X=              1.5521    Y=             -1.3553    Z=             -0.9485  Tot=              2.2684
 Quadrupole moment (field-independent basis, Debye-Ang):
   XX=           -128.9072   YY=           -168.3419   ZZ=           -129.4662
   XY=             10.1936   XZ=             -7.6088   YZ=            -14.8607
 Traceless Quadrupole moment (field-independent basis, Debye-Ang):
   XX=             13.3312   YY=            -26.1035   ZZ=             12.7722
   XY=             10.1936   XZ=             -7.6088   YZ=            -14.8607
 Octapole moment (field-independent basis, Debye-Ang**2):
  XXX=            -37.3520  YYY=            -52.7101  ZZZ=             -4.0922  XYY=             31.4931
  XXY=            -70.6546  XXZ=              9.0618  XZZ=            -14.1591  YZZ=              8.3520
  YYZ=             -5.8131  XYZ=              8.7353
 Hexadecapole moment (field-independent basis, Debye-Ang**3):
 XXXX=          -7352.2878 YYYY=          -3140.0643 ZZZZ=           -724.1919 XXXY=             14.1296
 XXXZ=           -192.6961 YYYX=            106.2001 YYYZ=           -143.5969 ZZZX=            -14.1710
 ZZZY=            -24.4539 XXYY=          -1839.4959 XXZZ=          -1400.2085 YYZZ=           -594.0914
 XXYZ=           -120.0716 YYXZ=            -21.9934 ZZXY=            -15.0211
 N-N= 2.158014872996D+03 E-N=-8.341915162822D+03  KE= 1.702555961272D+03
 No NMR shielding tensors so no spin-rotation constants.
 Leave Link  601 at Mon Sep 21 21:05:48 2020, MaxMem=    33554432 cpu:         0.3
 (Enter /prod/apps/gaussian/g09d1/l9999.exe)
 1\1\GINC-PIRINEUS24\SP\RB3LYP\6-31G(d)\C13H20N2O4S2\UBAFAR01\21-Sep-20
 20\0\\#p b3lyp/6-31G(d) scrf=(iefpcm,read,solvent=n-Octanol) geom=allc
 heck guess=read\\SM40_38w.n.2.pdb.xyz\\0,1\S,0,1.514,2.775,-0.48\N,0,1
 .357,1.32,-1.304\C,0,0.734,0.122,-0.698\C,0,1.539,-0.307,0.572\S,0,2.4
 14,-1.584,-0.397\C,0,1.138,-1.087,-1.607\O,0,3.761,-1.15,-0.804\O,0,2.
 224,-2.948,0.122\C,0,-0.786,0.297,-0.507\C,0,-1.535,-0.9,0.106\C,0,-3.
 02,-0.63,0.225\C,0,-3.904,-1.05,-0.776\C,0,-5.269,-0.777,-0.686\C,0,-5
 .772,-0.079,0.412\C,0,-4.901,0.343,1.418\C,0,-3.537,0.069,1.324\O,0,0.
 555,2.906,0.621\O,0,1.547,3.792,-1.538\H,0,1.,1.528,-2.233\H,0,0.927,-
 0.777,1.339\H,0,2.201,0.452,0.988\H,0,0.372,-1.858,-1.678\H,0,1.533,-0
 .836,-2.592\H,0,-1.218,0.522,-1.489\H,0,-0.937,1.182,0.115\H,0,-1.126,
 -1.121,1.098\H,0,-1.384,-1.795,-0.506\H,0,-3.518,-1.6,-1.63\H,0,-5.939
 ,-1.115,-1.47\H,0,-6.834,0.132,0.486\H,0,-5.283,0.883,2.279\H,0,-2.866
 ,0.395,2.113\N,0,3.014,2.54,0.253\C,0,3.284,3.48,1.354\H,0,2.424,3.511
 ,2.019\H,0,4.148,3.097,1.899\H,0,3.512,4.491,0.995\C,0,4.132,2.394,-0.
 691\H,0,4.368,3.334,-1.202\H,0,5.,2.069,-0.114\H,0,3.886,1.62,-1.416\\
 Version=AM64L-G09RevD.01\State=1-A\HF=-1714.0707408\RMSD=4.465e-09\Dip
 ole=-0.7598003,0.3889014,-0.2606507\Quadrupole=4.8508062,-15.7164234,1
 0.8656172,14.5533424,4.6383698,8.1498972\PG=C01 [X(C13H20N2O4S2)]\\@


 GETTING A SIMPLE ANSWER FROM A PROFESSOR IS LIKE
 GETTING A THIMBLE OF WATER FROM A FIRE HYDRANT.
     -- PROF. LEN SHAPIRO, NDSU
 Job cpu time:       0 days  0 hours  4 minutes 45.3 seconds.
 File lengths (MBytes):  RWF=    265 Int=      0 D2E=      0 Chk=      7 Scr=      1
 Normal termination of Gaussian 09 at Mon Sep 21 21:05:48 2020.
