 Entering Gaussian System, Link 0=g09
 Initial command:
 /prod/apps/gaussian/g09d1/l1.exe "/tmp/ubafar01/1460309/Gau-130676.inp" -scrdir="/tmp/ubafar01/1460309/"
 Entering Link 1 = /prod/apps/gaussian/g09d1/l1.exe PID=    130677.
  
 Copyright (c) 1988,1990,1992,1993,1995,1998,2003,2009,2013,
            Gaussian, Inc.  All Rights Reserved.
  
 This is part of the Gaussian(R) 09 program.  It is based on
 the Gaussian(R) 03 system (copyright 2003, Gaussian, Inc.),
 the Gaussian(R) 98 system (copyright 1998, Gaussian, Inc.),
 the Gaussian(R) 94 system (copyright 1995, Gaussian, Inc.),
 the Gaussian 92(TM) system (copyright 1992, Gaussian, Inc.),
 the Gaussian 90(TM) system (copyright 1990, Gaussian, Inc.),
 the Gaussian 88(TM) system (copyright 1988, Gaussian, Inc.),
 the Gaussian 86(TM) system (copyright 1986, Carnegie Mellon
 University), and the Gaussian 82(TM) system (copyright 1983,
 Carnegie Mellon University). Gaussian is a federally registered
 trademark of Gaussian, Inc.
  
 This software contains proprietary and confidential information,
 including trade secrets, belonging to Gaussian, Inc.
  
 This software is provided under written license and may be
 used, copied, transmitted, or stored only in accord with that
 written license.
  
 The following legend is applicable only to US Government
 contracts under FAR:
  
                    RESTRICTED RIGHTS LEGEND
  
 Use, reproduction and disclosure by the US Government is
 subject to restrictions as set forth in subparagraphs (a)
 and (c) of the Commercial Computer Software - Restricted
 Rights clause in FAR 52.227-19.
  
 Gaussian, Inc.
 340 Quinnipiac St., Bldg. 40, Wallingford CT 06492
  
  
 ---------------------------------------------------------------
 Warning -- This program may not be used in any manner that
 competes with the business of Gaussian, Inc. or will provide
 assistance to any competitor of Gaussian, Inc.  The licensee
 of this program is prohibited from giving any competitor of
 Gaussian, Inc. access to this program.  By using this program,
 the user acknowledges that Gaussian, Inc. is engaged in the
 business of creating and licensing software in the field of
 computational chemistry and represents and warrants to the
 licensee that it is not a competitor of Gaussian, Inc. and that
 it will not use this program in any manner prohibited above.
 ---------------------------------------------------------------
  

 Cite this work as:
 Gaussian 09, Revision D.01,
 M. J. Frisch, G. W. Trucks, H. B. Schlegel, G. E. Scuseria, 
 M. A. Robb, J. R. Cheeseman, G. Scalmani, V. Barone, B. Mennucci, 
 G. A. Petersson, H. Nakatsuji, M. Caricato, X. Li, H. P. Hratchian, 
 A. F. Izmaylov, J. Bloino, G. Zheng, J. L. Sonnenberg, M. Hada, 
 M. Ehara, K. Toyota, R. Fukuda, J. Hasegawa, M. Ishida, T. Nakajima, 
 Y. Honda, O. Kitao, H. Nakai, T. Vreven, J. A. Montgomery, Jr., 
 J. E. Peralta, F. Ogliaro, M. Bearpark, J. J. Heyd, E. Brothers, 
 K. N. Kudin, V. N. Staroverov, T. Keith, R. Kobayashi, J. Normand, 
 K. Raghavachari, A. Rendell, J. C. Burant, S. S. Iyengar, J. Tomasi, 
 M. Cossi, N. Rega, J. M. Millam, M. Klene, J. E. Knox, J. B. Cross, 
 V. Bakken, C. Adamo, J. Jaramillo, R. Gomperts, R. E. Stratmann, 
 O. Yazyev, A. J. Austin, R. Cammi, C. Pomelli, J. W. Ochterski, 
 R. L. Martin, K. Morokuma, V. G. Zakrzewski, G. A. Voth, 
 P. Salvador, J. J. Dannenberg, S. Dapprich, A. D. Daniels, 
 O. Farkas, J. B. Foresman, J. V. Ortiz, J. Cioslowski, 
 and D. J. Fox, Gaussian, Inc., Wallingford CT, 2013.
 
 ******************************************
 Gaussian 09:  AM64L-G09RevD.01 24-Apr-2013
                21-Sep-2020 
 ******************************************
 %nproc=1
 Will use up to    1 processors via shared memory.
 %Chk=SM40_38o.n.2.pdb.xyz.mst.n.w.chk
 -----------------
 #p b3lyp/6-31G(d)
 -----------------
 1/38=1/1;
 2/12=2,17=6,18=5,40=1/2;
 3/5=1,6=6,7=1,11=2,16=1,25=1,30=1,74=-5/1,2,3;
 4//1;
 5/5=2,38=5/2;
 6/7=2,8=2,9=2,10=2,28=1/1;
 99/5=1,9=1/99;
 Leave Link    1 at Mon Sep 21 20:55:01 2020, MaxMem=           0 cpu:         0.0
 (Enter /prod/apps/gaussian/g09d1/l101.exe)
 --------------------
 SM40_38o.n.2.pdb.xyz
 --------------------
 Symbolic Z-matrix:
 Charge =  0 Multiplicity = 1
 S                    -1.784    -2.69     -0.438 
 N                    -1.522    -1.263    -1.275 
 C                    -0.828    -0.102    -0.662 
 C                    -1.605     0.376     0.608 
 S                    -2.395     1.703    -0.361 
 C                    -1.156     1.131    -1.571 
 O                    -3.774     1.359    -0.764 
 O                    -2.141     3.061     0.159 
 C                     0.679    -0.372    -0.48 
 C                     1.51      0.767     0.141 
 C                     2.978     0.406     0.215 
 C                     3.847     0.723    -0.837 
 C                     5.196     0.367    -0.785 
 C                     5.698    -0.315     0.326 
 C                     4.842    -0.635     1.382 
 C                     3.494    -0.277     1.325 
 O                    -0.85     -2.877     0.681 
 O                    -1.855    -3.73     -1.477 
 H                    -1.139    -1.501    -2.194 
 H                    -0.968     0.807     1.379 
 H                    -2.317    -0.333     1.027 
 H                    -0.344     1.853    -1.641 
 H                    -1.567     0.907    -2.553 
 H                     1.087    -0.612    -1.468 
 H                     0.78     -1.27      0.134 
 H                     1.142     0.986     1.149 
 H                     1.396     1.682    -0.449 
 H                     3.463     1.259    -1.701 
 H                     5.854     0.626    -1.608 
 H                     6.746    -0.59      0.37 
 H                     5.224    -1.16      2.252 
 H                     2.835    -0.524     2.152 
 N                    -3.278    -2.37      0.267 
 C                    -3.602    -3.25      1.405 
 H                    -2.763    -3.269     2.099 
 H                    -4.47     -2.818     1.905 
 H                    -3.845    -4.271     1.089 
 C                    -4.383    -2.227    -0.694 
 H                    -4.673    -3.186    -1.137 
 H                    -5.233    -1.812    -0.15 
 H                    -4.092    -1.529    -1.477 
 
 NAtoms=     41 NQM=       41 NQMF=       0 NMMI=      0 NMMIF=      0
                NMic=       0 NMicF=      0.
                    Isotopes and Nuclear Properties:
 (Nuclear quadrupole moments (NQMom) in fm**2, nuclear magnetic moments (NMagM)
  in nuclear magnetons)

  Atom         1           2           3           4           5           6           7           8           9          10
 IAtWgt=          32          14          12          12          32          12          16          16          12          12
 AtmWgt=  31.9720718  14.0030740  12.0000000  12.0000000  31.9720718  12.0000000  15.9949146  15.9949146  12.0000000  12.0000000
 NucSpn=           0           2           0           0           0           0           0           0           0           0
 AtZEff=   0.0000000   0.0000000   0.0000000   0.0000000   0.0000000   0.0000000   0.0000000   0.0000000   0.0000000   0.0000000
 NQMom=    0.0000000   2.0440000   0.0000000   0.0000000   0.0000000   0.0000000   0.0000000   0.0000000   0.0000000   0.0000000
 NMagM=    0.0000000   0.4037610   0.0000000   0.0000000   0.0000000   0.0000000   0.0000000   0.0000000   0.0000000   0.0000000
 AtZNuc=  16.0000000   7.0000000   6.0000000   6.0000000  16.0000000   6.0000000   8.0000000   8.0000000   6.0000000   6.0000000

  Atom        11          12          13          14          15          16          17          18          19          20
 IAtWgt=          12          12          12          12          12          12          16          16           1           1
 AtmWgt=  12.0000000  12.0000000  12.0000000  12.0000000  12.0000000  12.0000000  15.9949146  15.9949146   1.0078250   1.0078250
 NucSpn=           0           0           0           0           0           0           0           0           1           1
 AtZEff=   0.0000000   0.0000000   0.0000000   0.0000000   0.0000000   0.0000000   0.0000000   0.0000000   0.0000000   0.0000000
 NQMom=    0.0000000   0.0000000   0.0000000   0.0000000   0.0000000   0.0000000   0.0000000   0.0000000   0.0000000   0.0000000
 NMagM=    0.0000000   0.0000000   0.0000000   0.0000000   0.0000000   0.0000000   0.0000000   0.0000000   2.7928460   2.7928460
 AtZNuc=   6.0000000   6.0000000   6.0000000   6.0000000   6.0000000   6.0000000   8.0000000   8.0000000   1.0000000   1.0000000

  Atom        21          22          23          24          25          26          27          28          29          30
 IAtWgt=           1           1           1           1           1           1           1           1           1           1
 AtmWgt=   1.0078250   1.0078250   1.0078250   1.0078250   1.0078250   1.0078250   1.0078250   1.0078250   1.0078250   1.0078250
 NucSpn=           1           1           1           1           1           1           1           1           1           1
 AtZEff=   0.0000000   0.0000000   0.0000000   0.0000000   0.0000000   0.0000000   0.0000000   0.0000000   0.0000000   0.0000000
 NQMom=    0.0000000   0.0000000   0.0000000   0.0000000   0.0000000   0.0000000   0.0000000   0.0000000   0.0000000   0.0000000
 NMagM=    2.7928460   2.7928460   2.7928460   2.7928460   2.7928460   2.7928460   2.7928460   2.7928460   2.7928460   2.7928460
 AtZNuc=   1.0000000   1.0000000   1.0000000   1.0000000   1.0000000   1.0000000   1.0000000   1.0000000   1.0000000   1.0000000

  Atom        31          32          33          34          35          36          37          38          39          40
 IAtWgt=           1           1          14          12           1           1           1          12           1           1
 AtmWgt=   1.0078250   1.0078250  14.0030740  12.0000000   1.0078250   1.0078250   1.0078250  12.0000000   1.0078250   1.0078250
 NucSpn=           1           1           2           0           1           1           1           0           1           1
 AtZEff=   0.0000000   0.0000000   0.0000000   0.0000000   0.0000000   0.0000000   0.0000000   0.0000000   0.0000000   0.0000000
 NQMom=    0.0000000   0.0000000   2.0440000   0.0000000   0.0000000   0.0000000   0.0000000   0.0000000   0.0000000   0.0000000
 NMagM=    2.7928460   2.7928460   0.4037610   0.0000000   2.7928460   2.7928460   2.7928460   0.0000000   2.7928460   2.7928460
 AtZNuc=   1.0000000   1.0000000   7.0000000   6.0000000   1.0000000   1.0000000   1.0000000   6.0000000   1.0000000   1.0000000

  Atom        41
 IAtWgt=           1
 AtmWgt=   1.0078250
 NucSpn=           1
 AtZEff=   0.0000000
 NQMom=    0.0000000
 NMagM=    2.7928460
 AtZNuc=   1.0000000
 Leave Link  101 at Mon Sep 21 20:55:01 2020, MaxMem=    33554432 cpu:         0.1
 (Enter /prod/apps/gaussian/g09d1/l202.exe)
                          Input orientation:                          
 ---------------------------------------------------------------------
 Center     Atomic      Atomic             Coordinates (Angstroms)
 Number     Number       Type             X           Y           Z
 ---------------------------------------------------------------------
      1         16           0       -1.784000   -2.690000   -0.438000
      2          7           0       -1.522000   -1.263000   -1.275000
      3          6           0       -0.828000   -0.102000   -0.662000
      4          6           0       -1.605000    0.376000    0.608000
      5         16           0       -2.395000    1.703000   -0.361000
      6          6           0       -1.156000    1.131000   -1.571000
      7          8           0       -3.774000    1.359000   -0.764000
      8          8           0       -2.141000    3.061000    0.159000
      9          6           0        0.679000   -0.372000   -0.480000
     10          6           0        1.510000    0.767000    0.141000
     11          6           0        2.978000    0.406000    0.215000
     12          6           0        3.847000    0.723000   -0.837000
     13          6           0        5.196000    0.367000   -0.785000
     14          6           0        5.698000   -0.315000    0.326000
     15          6           0        4.842000   -0.635000    1.382000
     16          6           0        3.494000   -0.277000    1.325000
     17          8           0       -0.850000   -2.877000    0.681000
     18          8           0       -1.855000   -3.730000   -1.477000
     19          1           0       -1.139000   -1.501000   -2.194000
     20          1           0       -0.968000    0.807000    1.379000
     21          1           0       -2.317000   -0.333000    1.027000
     22          1           0       -0.344000    1.853000   -1.641000
     23          1           0       -1.567000    0.907000   -2.553000
     24          1           0        1.087000   -0.612000   -1.468000
     25          1           0        0.780000   -1.270000    0.134000
     26          1           0        1.142000    0.986000    1.149000
     27          1           0        1.396000    1.682000   -0.449000
     28          1           0        3.463000    1.259000   -1.701000
     29          1           0        5.854000    0.626000   -1.608000
     30          1           0        6.746000   -0.590000    0.370000
     31          1           0        5.224000   -1.160000    2.252000
     32          1           0        2.835000   -0.524000    2.152000
     33          7           0       -3.278000   -2.370000    0.267000
     34          6           0       -3.602000   -3.250000    1.405000
     35          1           0       -2.763000   -3.269000    2.099000
     36          1           0       -4.470000   -2.818000    1.905000
     37          1           0       -3.845000   -4.271000    1.089000
     38          6           0       -4.383000   -2.227000   -0.694000
     39          1           0       -4.673000   -3.186000   -1.137000
     40          1           0       -5.233000   -1.812000   -0.150000
     41          1           0       -4.092000   -1.529000   -1.477000
 ---------------------------------------------------------------------
                    Distance matrix (angstroms):
                    1          2          3          4          5
     1  S    0.000000
     2  N    1.674975   0.000000
     3  C    2.768006   1.485034   0.000000
     4  C    3.244459   2.497779   1.563686   0.000000
     5  S    4.435955   3.224078   2.409173   1.823181   0.000000
     6  C    4.034614   2.439838   1.566574   2.349397   1.823843
     7  O    4.523359   3.493925   3.289961   2.748315   1.477290
     8  O    5.792915   4.597444   3.521730   2.774549   1.476171
     9  C    3.382493   2.504058   1.541776   2.638163   3.710696
    10  C    4.810044   3.913947   2.620346   3.173987   4.046866
    11  C    5.717366   5.025501   3.938633   4.599917   5.557258
    12  C    6.596661   5.741272   4.750461   5.650906   6.336366
    13  C    7.627979   6.930261   6.043481   6.942199   7.719323
    14  C    7.886992   7.455891   6.603801   7.341036   8.369047
    15  C    7.172120   6.924921   6.050696   6.571530   7.802465
    16  C    6.065313   5.735194   4.760092   5.190405   6.437648
    17  O    1.469519   2.623455   3.082979   3.340264   4.944612
    18  O    1.471789   2.497555   3.857634   4.611828   5.572660
    19  H    2.216592   1.023667   2.097843   3.404628   3.899108
    20  H    4.024469   3.411090   2.238652   1.089023   2.422136
    21  H    2.825909   2.606939   2.263449   1.088662   2.465345
    22  H    4.915248   3.351283   2.239357   2.971473   2.422293
    23  H    4.178364   2.518771   2.267175   3.205515   2.474685
    24  H    3.690749   2.695910   2.139383   3.540167   4.325390
    25  H    2.986248   2.698988   2.140912   2.936361   4.377714
    26  H    4.959135   4.246254   2.888661   2.865448   3.912104
    27  H    5.406191   4.227295   2.859056   3.439315   3.792079
    28  H    6.687360   5.602873   4.620013   5.638776   6.025687
    29  H    8.408555   7.621324   6.787785   7.785232   8.411952
    30  H    8.821778   8.456878   7.659546   8.410054   9.452518
    31  H    7.660879   7.613071   6.799814   7.190082   8.548316
    32  H    5.721435   5.592307   4.638346   4.786182   6.215110
    33  N    1.682695   2.585875   3.465453   3.233532   4.214665
    34  C    2.648655   3.931535   4.677336   4.215578   5.395166
    35  H    2.780297   4.116794   4.625715   4.104884   5.559479
    36  H    3.566599   4.606640   5.218267   4.482418   5.466244
    37  H    3.013140   4.475812   5.435885   5.181078   6.316144
    38  C    2.652302   3.074439   4.141820   4.023443   4.416779
    39  H    3.013459   3.694019   4.951839   5.014528   5.449200
    40  H    3.570634   3.916446   4.752922   4.303986   4.522609
    41  H    2.784655   2.591613   3.654347   3.763166   3.817210
                    6          7          8          9         10
     6  C    0.000000
     7  O    2.749028   0.000000
     8  O    2.772729   2.532868   0.000000
     9  C    2.610846   4.786045   4.488453   0.000000
    10  C    3.189200   5.393528   4.311909   1.540624   0.000000
    11  C    4.561291   6.888843   5.766829   2.524621   1.513546
    12  C    5.072990   7.647841   6.504952   3.370860   2.533770
    13  C    6.445882   9.024711   7.872759   4.587203   3.821527
    14  C    7.257192   9.680349   8.536696   5.083625   4.329468
    15  C    6.914837   9.100374   7.994900   4.568017   3.822029
    16  C    5.656128   7.737199   6.652445   3.345336   2.535360
    17  O    4.607516   5.346167   6.099099   3.156071   4.374921
    18  O    4.911900   5.485331   6.991135   4.323347   5.845011
    19  H    2.704781   4.143395   5.229958   2.741817   4.196814
    20  H    2.973688   3.573624   2.818660   2.749278   2.770330
    21  H    3.200128   2.862411   3.507654   3.353891   4.079329
    22  H    1.088820   3.574642   2.815754   2.710180   2.791458
    23  H    1.087852   2.876747   3.510575   3.313259   4.092086
    24  H    2.842483   5.292426   5.153450   1.095540   2.160891
    25  H    3.524191   5.334507   5.224024   1.092520   2.163866
    26  H    3.563738   5.288266   4.007969   2.170754   1.095194
    27  H    2.841688   5.189649   3.844694   2.175768   1.094678
    28  H    4.622602   7.298091   6.173461   3.449878   2.729329
    29  H    7.028264   9.692678   8.542338   5.389714   4.684999
    30  H    8.316906  10.758948   9.610052   6.130132   5.413833
    31  H    7.782571   9.818636   8.743038   5.361137   4.686517
    32  H    5.703318   7.465094   6.448632   3.405710   2.732476
    33  N    4.487553   3.900566   5.549792   4.495316   5.725521
    34  C    5.833751   5.096766   6.596647   5.492092   6.623181
    35  H    5.950744   5.535095   6.649766   5.185674   6.195288
    36  H    6.217698   5.005528   6.560137   6.179267   7.191962
    37  H    6.594538   5.927525   7.584638   6.174993   7.413243
    38  C    4.739074   3.638018   5.806644   5.395430   6.662485
    39  H    5.585171   4.648049   6.864084   6.082282   7.449093
    40  H    5.225172   3.544139   5.779453   6.093787   7.225232
    41  H    3.962894   2.991661   5.248904   5.009501   6.266733
                   11         12         13         14         15
    11  C    0.000000
    12  C    1.400840   0.000000
    13  C    2.433320   1.396152   0.000000
    14  C    2.816125   2.419962   1.396943   0.000000
    15  C    2.433119   2.785346   2.413547   1.396521   0.000000
    16  C    1.401729   2.408081   2.786331   2.420137   1.395893
    17  O    5.064467   6.109512   7.016182   7.040325   6.157664
    18  O    6.582344   7.263031   8.184184   8.482974   7.912188
    19  H    5.137083   5.625640   6.753290   7.382518   7.022115
    20  H    4.133596   5.301126   6.547625   6.841290   5.986274
    21  H    5.407633   6.525682   7.760059   8.045617   7.174156
    22  H    4.071146   4.414498   5.799356   6.713798   6.497943
    23  H    5.345077   5.682421   7.011105   7.909624   7.677061
    24  H    2.728497   3.130173   4.278880   4.956608   4.714133
    25  H    2.765274   3.784360   4.798477   5.013543   4.296577
    26  H    2.140012   3.366064   4.534141   4.809061   4.046224
    27  H    2.138176   2.660381   4.035111   4.805813   4.538278
    28  H    2.152647   1.086852   2.153604   3.403150   3.872178
    29  H    3.412199   2.152185   1.085069   2.156426   3.399171
    30  H    3.900495   3.403677   2.156936   1.084373   2.156707
    31  H    3.412659   3.870883   3.399394   2.155963   1.085564
    32  H    2.153443   3.393122   3.872231   3.402165   2.152503
    33  N    6.844444   7.845450   8.966970   9.208425   8.377819
    34  C    7.620947   8.734924   9.761332   9.811650   8.839677
    35  H    7.072069   8.261251   9.213231   9.135544   8.080103
    36  H    8.289932   9.446149  10.526722  10.589923   9.578745
    37  H    8.318145   9.371039  10.332599  10.358617   9.421800
    38  C    7.870406   8.743904   9.924432  10.311290   9.588789
    39  H    8.559683   9.378736  10.494993  10.860048  10.167998
    40  H    8.513123   9.452227  10.673111  11.043294  10.258556
    41  H    7.522765   8.277006   9.504768  10.028395   9.422817
                   16         17         18         19         20
    16  C    0.000000
    17  O    5.103437   0.000000
    18  O    6.956020   2.528754   0.000000
    19  H    5.945269   3.200394   2.448507   0.000000
    20  H    4.592104   3.751398   5.433956   4.257045   0.000000
    21  H    5.818905   2.956982   4.245359   3.623086   1.800918
    22  H    5.297575   5.293451   5.786182   3.491010   3.256362
    23  H    6.484941   5.029066   4.768909   2.471948   3.978621
    24  H    3.702259   3.674288   4.286883   2.504491   3.787083
    25  H    3.125752   2.353414   3.948436   3.025807   2.986546
    26  H    2.675453   4.371482   6.174021   4.750135   2.130033
    27  H    3.374368   5.206332   6.396525   4.427498   3.113793
    28  H    3.393661   6.432915   7.295301   5.388790   5.415207
    29  H    3.871369   7.902794   8.855539   7.332774   7.449471
    30  H    3.403748   7.938911   9.340675   8.341297   7.904144
    31  H    2.152189   6.504583   8.403724   7.769876   6.555309
    32  H    1.085919   4.612990   6.741230   5.969499   4.102670
    33  N    7.166589   2.514683   2.629841   3.374463   4.082398
    34  C    7.694046   2.869984   3.404164   4.698741   4.837136
    35  H    6.978624   2.413288   3.718166   4.918643   4.511563
    36  H    8.379641   3.821787   4.371258   5.443515   5.067673
    37  H    8.358747   3.328622   3.291981   5.076753   5.843570
    38  C    8.362176   3.846455   3.043498   3.647000   5.016444
    39  H    9.012414   4.244518   2.890097   4.055321   6.000111
    40  H    8.982894   4.586445   4.104941   4.586447   5.233281
    41  H    8.183282   4.121242   3.138243   3.038928   4.834564
                   21         22         23         24         25
    21  H    0.000000
    22  H    3.973607   0.000000
    23  H    3.862188   1.795101   0.000000
    24  H    4.229667   2.855506   3.244735   0.000000
    25  H    3.356609   3.763925   4.179439   1.758868   0.000000
    26  H    3.703961   3.277802   4.587998   3.066809   2.500161
    27  H    4.474949   2.116059   3.715752   2.529086   3.071425
    28  H    6.586718   3.853529   5.113776   3.033201   4.118441
    29  H    8.638758   6.318372   7.486202   4.927122   5.689891
    30  H    9.090416   7.764050   8.938171   5.950043   6.009264
    31  H    7.684480   7.432109   8.571942   5.590481   4.924141
    32  H    5.276856   5.490266   6.600181   4.020901   2.975208
    33  N    2.377076   5.484756   4.649586   5.015378   4.206549
    34  C    3.209828   6.777410   6.089962   6.099172   4.973707
    35  H    3.157245   6.787786   6.364786   5.882656   4.517751
    36  H    3.403163   7.170511   6.494367   6.864679   5.752847
    37  H    4.224508   7.563946   6.727937   6.652154   5.595413
    38  C    3.288987   5.818654   4.605181   5.755710   5.315826
    39  H    4.286402   6.662265   5.329629   6.317645   5.917914
    40  H    3.475029   6.289485   5.158190   6.566546   6.044054
    41  H    3.294094   5.050973   3.669809   5.259564   5.137975
                   26         27         28         29         30
    26  H    0.000000
    27  H    1.761402   0.000000
    28  H    3.685657   2.453349   0.000000
    29  H    5.471160   4.725694   2.475120   0.000000
    30  H    5.873281   5.869859   4.299527   2.487329   0.000000
    31  H    4.741798   5.479594   4.957710   4.299569   2.486626
    32  H    2.480395   3.701670   4.291746   4.957263   4.298349
    33  N    5.619347   6.227169   7.904666   9.792092  10.181335
    34  C    6.365121   7.262365   8.938263  10.654458  10.734427
    35  H    5.852910   6.949963   8.585212  10.157045  10.029335
    36  H    6.821766   7.758948   9.620689  11.436227  11.537715
    37  H    7.246366   8.079092   9.579763  11.194866  11.235480
    38  C    6.651740   6.981200   8.644418  10.666357  11.298960
    39  H    7.513029   7.810476   9.288198  11.205843  11.806940
    40  H    7.082149   7.499405   9.351848  11.445138  12.052391
    41  H    6.373057   6.440920   8.056125  10.177628  11.034282
                   31         32         33         34         35
    31  H    0.000000
    32  H    2.474231   0.000000
    33  N    8.814098   6.658056   0.000000
    34  C    9.109544   7.030224   1.474591   0.000000
    35  H    8.262170   6.235017   2.104673   1.088999   0.000000
    36  H    9.840885   7.660709   2.074756   1.090893   1.776200
    37  H    9.658036   7.732553   2.147318   1.096059   1.787408
    38  C   10.105041   7.943516   1.471392   2.462172   3.392788
    39  H   10.655543   8.618227   2.140817   2.759149   3.758548
    40  H   10.749119   8.488273   2.075398   2.673206   3.644414
    41  H   10.041387   7.884351   2.100336   3.392324   4.193044
                   36         37         38         39         40
    36  H    0.000000
    37  H    1.779801   0.000000
    38  C    2.666768   2.765225   0.000000
    39  H    3.070895   2.611108   1.095459   0.000000
    40  H    2.411893   3.083561   1.091174   1.782034   0.000000
    41  H    3.639001   3.763500   1.088565   1.788522   1.772822
                   41
    41  H    0.000000
 Stoichiometry    C13H20N2O4S2
 Framework group  C1[X(C13H20N2O4S2)]
 Deg. of freedom   117
 Full point group                 C1      NOp   1
 Largest Abelian subgroup         C1      NOp   1
 Largest concise Abelian subgroup C1      NOp   1
                         Standard orientation:                         
 ---------------------------------------------------------------------
 Center     Atomic      Atomic             Coordinates (Angstroms)
 Number     Number       Type             X           Y           Z
 ---------------------------------------------------------------------
      1         16           0       -1.792082   -1.803264   -0.380945
      2          7           0       -1.297807   -0.365289   -1.083415
      3          6           0       -0.350033    0.559246   -0.410893
      4          6           0       -0.939673    1.025330    0.960312
      5         16           0       -1.501893    2.584734    0.201261
      6          6           0       -0.475887    1.930746   -1.157421
      7          8           0       -2.942998    2.563616   -0.123016
      8          8           0       -0.950190    3.797139    0.837483
      9          6           0        1.079913   -0.016395   -0.379832
     10          6           0        2.157695    0.859297    0.287307
     11          6           0        3.524913    0.215279    0.204984
     12          6           0        4.377052    0.480100   -0.874869
     13          6           0        5.627629   -0.133459   -0.968904
     14          6           0        6.046179   -1.025683    0.021148
     15          6           0        5.206382   -1.296409    1.103609
     16          6           0        3.956893   -0.680505    1.192814
     17          8           0       -0.851122   -2.297751    0.633729
     18          8           0       -2.131170   -2.680124   -1.513331
     19          1           0       -1.024723   -0.562828   -2.050005
     20          1           0       -0.185183    1.231204    1.718158
     21          1           0       -1.754006    0.422935    1.359271
     22          1           0        0.459193    2.485355   -1.217106
     23          1           0       -0.980072    1.907694   -2.121105
     24          1           0        1.373018   -0.212582   -1.417044
     25          1           0        1.033943   -0.982961    0.127353
     26          1           0        1.900649    1.024943    1.338942
     27          1           0        2.195770    1.842106   -0.193273
     28          1           0        4.058939    1.178205   -1.644741
     29          1           0        6.275135    0.088654   -1.810792
     30          1           0        7.018242   -1.501239   -0.048170
     31          1           0        5.525101   -1.984120    1.880733
     32          1           0        3.311056   -0.891208    2.039996
     33          7           0       -3.147546   -1.285954    0.471446
     34          6           0       -3.574929   -2.214612    1.534159
     35          1           0       -2.717870   -2.477020    2.152633
     36          1           0       -4.307697   -1.685015    2.144590
     37          1           0       -4.036231   -3.124926    1.134316
     38          6           0       -4.255351   -0.819901   -0.377411
     39          1           0       -4.757552   -1.645777   -0.892924
     40          1           0       -4.971370   -0.315527    0.273422
     41          1           0       -3.876127   -0.103977   -1.104471
 ---------------------------------------------------------------------
 Rotational constants (GHZ):      0.3761248      0.1554927      0.1228148
 Leave Link  202 at Mon Sep 21 20:55:02 2020, MaxMem=    33554432 cpu:         0.0
 (Enter /prod/apps/gaussian/g09d1/l301.exe)
 Standard basis: 6-31G(d) (6D, 7F)
 Ernie: Thresh=  0.10000D-02 Tol=  0.10000D-05 Strict=F.
 There are   363 symmetry adapted cartesian basis functions of A   symmetry.
 There are   363 symmetry adapted basis functions of A   symmetry.
   363 basis functions,   716 primitive gaussians,   363 cartesian basis functions
    88 alpha electrons       88 beta electrons
       nuclear repulsion energy      2155.5605354293 Hartrees.
 IExCor=  402 DFT=T Ex+Corr=B3LYP ExCW=0 ScaHFX=  0.200000
 ScaDFX=  0.800000  0.720000  1.000000  0.810000 ScalE2=  1.000000  1.000000
 IRadAn=      0 IRanWt=     -1 IRanGd=            0 ICorTp=0 IEmpDi=  4
 NAtoms=   41 NActive=   41 NUniq=   41 SFac= 1.00D+00 NAtFMM=   60 NAOKFM=F Big=F
 Integral buffers will be    131072 words long.
 Raffenetti 2 integral format.
 Two-electron integral symmetry is turned on.
 Leave Link  301 at Mon Sep 21 20:55:02 2020, MaxMem=    33554432 cpu:         0.0
 (Enter /prod/apps/gaussian/g09d1/l302.exe)
 NPDir=0 NMtPBC=     1 NCelOv=     1 NCel=       1 NClECP=     1 NCelD=      1
         NCelK=      1 NCelE2=     1 NClLst=     1 CellRange=     0.0.
 One-electron integrals computed using PRISM.
 NBasis=   363 RedAO= T EigKep=  4.67D-04  NBF=   363
 NBsUse=   363 1.00D-06 EigRej= -1.00D+00 NBFU=   363
 Precomputing XC quadrature grid using
 IXCGrd= 4 IRadAn=           0 IRanWt=          -1 IRanGd=           0 AccXCQ= 0.00D+00.
 Generated NRdTot=       0 NPtTot=           0 NUsed=           0 NTot=          32
 NSgBfM=   358   359   359   359   359 MxSgAt=    41 MxSgA2=    41.
 Leave Link  302 at Mon Sep 21 20:55:03 2020, MaxMem=    33554432 cpu:         1.3
 (Enter /prod/apps/gaussian/g09d1/l303.exe)
 DipDrv:  MaxL=1.
 Leave Link  303 at Mon Sep 21 20:55:03 2020, MaxMem=    33554432 cpu:         0.0
 (Enter /prod/apps/gaussian/g09d1/l401.exe)
 ExpMin= 1.17D-01 ExpMax= 2.19D+04 ExpMxC= 3.30D+03 IAcc=1 IRadAn=         1 AccDes= 0.00D+00
 Harris functional with IExCor=  402 and IRadAn=       1 diagonalized for initial guess.
 HarFok:  IExCor=  402 AccDes= 0.00D+00 IRadAn=         1 IDoV= 1 UseB2=F ITyADJ=14
 ICtDFT=  3500011 ScaDFX=  1.000000  1.000000  1.000000  1.000000
 FoFCou: FMM=F IPFlag=           0 FMFlag=      100000 FMFlg1=           0
         NFxFlg=           0 DoJE=T BraDBF=F KetDBF=T FulRan=T
         wScrn=  0.000000 ICntrl=     500 IOpCl=  0 I1Cent=   200000004 NGrid=           0
         NMat0=    1 NMatS0=      1 NMatT0=    0 NMatD0=    1 NMtDS0=    0 NMtDT0=    0
 Petite list used in FoFCou.
 Harris En= -1714.15131476523    
 JPrj=0 DoOrth=F DoCkMO=F.
 Leave Link  401 at Mon Sep 21 20:55:08 2020, MaxMem=    33554432 cpu:         4.6
 (Enter /prod/apps/gaussian/g09d1/l502.exe)
 Closed shell SCF:
 Using DIIS extrapolation, IDIIS=  1040.
 Integral symmetry usage will be decided dynamically.
 IVT=      418784 IEndB=      418784 NGot=    33554432 MDV=    33284421
 LenX=    33284421 LenY=    33152211
 Requested convergence on RMS density matrix=1.00D-08 within 128 cycles.
 Requested convergence on MAX density matrix=1.00D-06.
 Requested convergence on             energy=1.00D-06.
 No special actions if energy rises.
 Fock matrices will be formed incrementally for  20 cycles.
 Integral accuracy reduced to 1.0D-05 until final iterations.

 Cycle   1  Pass 0  IDiag  1:
 FoFJK:  IHMeth= 1 ICntrl=       0 DoSepK=F KAlg= 0 I1Cent=   0 FoldK=F
 IRaf= 730000000 NMat=   1 IRICut=       1 DoRegI=T DoRafI=F ISym2E= 0.
 FoFCou: FMM=F IPFlag=           0 FMFlag=      100000 FMFlg1=           0
         NFxFlg=           0 DoJE=F BraDBF=F KetDBF=F FulRan=T
         wScrn=  0.000000 ICntrl=       0 IOpCl=  0 I1Cent=           0 NGrid=           0
         NMat0=    1 NMatS0=      1 NMatT0=    0 NMatD0=    1 NMtDS0=    0 NMtDT0=    0
 Symmetry not used in FoFCou.
 E= -1713.19347961336    
 DIIS: error= 3.56D-02 at cycle   1 NSaved=   1.
 NSaved= 1 IEnMin= 1 EnMin= -1713.19347961336     IErMin= 1 ErrMin= 3.56D-02
 ErrMax= 3.56D-02  0.00D+00 EMaxC= 1.00D-01 BMatC= 9.96D-01 BMatP= 9.96D-01
 IDIUse=3 WtCom= 6.44D-01 WtEn= 3.56D-01
 Coeff-Com:  0.100D+01
 Coeff-En:   0.100D+01
 Coeff:      0.100D+01
 Gap=     0.359 Goal=   None    Shift=    0.000
 GapD=    0.359 DampG=1.000 DampE=0.500 DampFc=0.5000 IDamp=-1.
 Damping current iteration by 5.00D-01
 RMSDP=7.12D-03 MaxDP=6.04D-01              OVMax= 2.40D-01

 Cycle   2  Pass 0  IDiag  1:
 RMSU=  3.56D-03    CP:  9.99D-01
 E= -1713.36147708931     Delta-E=       -0.167997475955 Rises=F Damp=T
 DIIS: error= 1.97D-02 at cycle   2 NSaved=   2.
 NSaved= 2 IEnMin= 2 EnMin= -1713.36147708931     IErMin= 2 ErrMin= 1.97D-02
 ErrMax= 1.97D-02  0.00D+00 EMaxC= 1.00D-01 BMatC= 1.79D-01 BMatP= 9.96D-01
 IDIUse=3 WtCom= 8.03D-01 WtEn= 1.97D-01
 Coeff-Com:  0.256D+00 0.744D+00
 Coeff-En:   0.403D+00 0.597D+00
 Coeff:      0.285D+00 0.715D+00
 Gap=     0.289 Goal=   None    Shift=    0.000
 RMSDP=2.10D-03 MaxDP=1.27D-01 DE=-1.68D-01 OVMax= 2.12D-01

 Cycle   3  Pass 0  IDiag  1:
 RMSU=  1.66D-03    CP:  9.90D-01  6.43D-01
 E= -1713.94606885852     Delta-E=       -0.584591769213 Rises=F Damp=F
 DIIS: error= 1.08D-02 at cycle   3 NSaved=   3.
 NSaved= 3 IEnMin= 3 EnMin= -1713.94606885852     IErMin= 3 ErrMin= 1.08D-02
 ErrMax= 1.08D-02  0.00D+00 EMaxC= 1.00D-01 BMatC= 1.01D-01 BMatP= 1.79D-01
 IDIUse=3 WtCom= 8.92D-01 WtEn= 1.08D-01
 Coeff-Com:  0.110D+00 0.434D+00 0.456D+00
 Coeff-En:   0.000D+00 0.000D+00 0.100D+01
 Coeff:      0.981D-01 0.387D+00 0.514D+00
 Gap=     0.244 Goal=   None    Shift=    0.000
 RMSDP=1.30D-03 MaxDP=3.94D-02 DE=-5.85D-01 OVMax= 8.17D-02

 Cycle   4  Pass 0  IDiag  1:
 RMSU=  7.44D-04    CP:  9.95D-01  7.19D-01  3.84D-01
 E= -1714.02838717770     Delta-E=       -0.082318319173 Rises=F Damp=F
 DIIS: error= 3.30D-03 at cycle   4 NSaved=   4.
 NSaved= 4 IEnMin= 4 EnMin= -1714.02838717770     IErMin= 4 ErrMin= 3.30D-03
 ErrMax= 3.30D-03  0.00D+00 EMaxC= 1.00D-01 BMatC= 1.44D-02 BMatP= 1.01D-01
 IDIUse=3 WtCom= 9.67D-01 WtEn= 3.30D-02
 Coeff-Com:  0.133D-01 0.736D-01 0.284D+00 0.629D+00
 Coeff-En:   0.000D+00 0.000D+00 0.124D+00 0.876D+00
 Coeff:      0.129D-01 0.712D-01 0.279D+00 0.637D+00
 Gap=     0.241 Goal=   None    Shift=    0.000
 RMSDP=4.08D-04 MaxDP=1.57D-02 DE=-8.23D-02 OVMax= 2.26D-02

 Cycle   5  Pass 0  IDiag  1:
 RMSU=  1.76D-04    CP:  9.95D-01  7.02D-01  5.39D-01  6.59D-01
 E= -1714.04035693811     Delta-E=       -0.011969760413 Rises=F Damp=F
 DIIS: error= 8.95D-04 at cycle   5 NSaved=   5.
 NSaved= 5 IEnMin= 5 EnMin= -1714.04035693811     IErMin= 5 ErrMin= 8.95D-04
 ErrMax= 8.95D-04  0.00D+00 EMaxC= 1.00D-01 BMatC= 1.05D-03 BMatP= 1.44D-02
 IDIUse=3 WtCom= 9.91D-01 WtEn= 8.95D-03
 Coeff-Com:  0.343D-03 0.149D-01 0.121D+00 0.346D+00 0.517D+00
 Coeff-En:   0.000D+00 0.000D+00 0.000D+00 0.000D+00 0.100D+01
 Coeff:      0.340D-03 0.148D-01 0.120D+00 0.343D+00 0.521D+00
 Gap=     0.240 Goal=   None    Shift=    0.000
 RMSDP=1.11D-04 MaxDP=6.85D-03 DE=-1.20D-02 OVMax= 6.14D-03

 Cycle   6  Pass 0  IDiag  1:
 RMSU=  5.94D-05    CP:  9.95D-01  7.05D-01  5.33D-01  7.11D-01  5.23D-01
 E= -1714.04116011447     Delta-E=       -0.000803176356 Rises=F Damp=F
 DIIS: error= 4.73D-04 at cycle   6 NSaved=   6.
 NSaved= 6 IEnMin= 6 EnMin= -1714.04116011447     IErMin= 6 ErrMin= 4.73D-04
 ErrMax= 4.73D-04  0.00D+00 EMaxC= 1.00D-01 BMatC= 1.49D-04 BMatP= 1.05D-03
 IDIUse=3 WtCom= 9.95D-01 WtEn= 4.73D-03
 Coeff-Com: -0.850D-03 0.304D-02 0.486D-01 0.152D+00 0.324D+00 0.474D+00
 Coeff-En:   0.000D+00 0.000D+00 0.000D+00 0.000D+00 0.626D-01 0.937D+00
 Coeff:     -0.846D-03 0.303D-02 0.484D-01 0.151D+00 0.323D+00 0.476D+00
 Gap=     0.240 Goal=   None    Shift=    0.000
 RMSDP=3.92D-05 MaxDP=2.24D-03 DE=-8.03D-04 OVMax= 3.26D-03

 Cycle   7  Pass 0  IDiag  1:
 RMSU=  2.53D-05    CP:  9.95D-01  7.05D-01  5.34D-01  7.11D-01  5.83D-01
                    CP:  5.29D-01
 E= -1714.04125996710     Delta-E=       -0.000099852638 Rises=F Damp=F
 DIIS: error= 1.85D-04 at cycle   7 NSaved=   7.
 NSaved= 7 IEnMin= 7 EnMin= -1714.04125996710     IErMin= 7 ErrMin= 1.85D-04
 ErrMax= 1.85D-04  0.00D+00 EMaxC= 1.00D-01 BMatC= 2.11D-05 BMatP= 1.49D-04
 IDIUse=3 WtCom= 9.98D-01 WtEn= 1.85D-03
 Coeff-Com: -0.615D-03-0.309D-03 0.135D-01 0.462D-01 0.137D+00 0.314D+00
 Coeff-Com:  0.490D+00
 Coeff-En:   0.000D+00 0.000D+00 0.000D+00 0.000D+00 0.000D+00 0.119D+00
 Coeff-En:   0.881D+00
 Coeff:     -0.614D-03-0.308D-03 0.134D-01 0.461D-01 0.136D+00 0.314D+00
 Coeff:      0.491D+00
 Gap=     0.240 Goal=   None    Shift=    0.000
 RMSDP=1.30D-05 MaxDP=6.91D-04 DE=-9.99D-05 OVMax= 1.01D-03

 Cycle   8  Pass 0  IDiag  1:
 RMSU=  5.94D-06    CP:  9.95D-01  7.05D-01  5.34D-01  7.11D-01  5.88D-01
                    CP:  6.03D-01  5.79D-01
 E= -1714.04127689741     Delta-E=       -0.000016930308 Rises=F Damp=F
 DIIS: error= 3.37D-05 at cycle   8 NSaved=   8.
 NSaved= 8 IEnMin= 8 EnMin= -1714.04127689741     IErMin= 8 ErrMin= 3.37D-05
 ErrMax= 3.37D-05  0.00D+00 EMaxC= 1.00D-01 BMatC= 6.12D-07 BMatP= 2.11D-05
 IDIUse=1 WtCom= 1.00D+00 WtEn= 0.00D+00
 Coeff-Com: -0.214D-03-0.377D-03 0.197D-02 0.806D-02 0.366D-01 0.106D+00
 Coeff-Com:  0.222D+00 0.627D+00
 Coeff:     -0.214D-03-0.377D-03 0.197D-02 0.806D-02 0.366D-01 0.106D+00
 Coeff:      0.222D+00 0.627D+00
 Gap=     0.240 Goal=   None    Shift=    0.000
 RMSDP=3.03D-06 MaxDP=1.74D-04 DE=-1.69D-05 OVMax= 1.73D-04

 Initial convergence to 1.0D-05 achieved.  Increase integral accuracy.
 Cycle   9  Pass 1  IDiag  1:
 E= -1714.04116277711     Delta-E=        0.000114120303 Rises=F Damp=F
 DIIS: error= 1.15D-04 at cycle   1 NSaved=   1.
 NSaved= 1 IEnMin= 1 EnMin= -1714.04116277711     IErMin= 1 ErrMin= 1.15D-04
 ErrMax= 1.15D-04  0.00D+00 EMaxC= 1.00D-01 BMatC= 1.17D-06 BMatP= 1.17D-06
 IDIUse=3 WtCom= 9.99D-01 WtEn= 1.15D-03
 Coeff-Com:  0.100D+01
 Coeff-En:   0.100D+01
 Coeff:      0.100D+01
 Gap=     0.240 Goal=   None    Shift=    0.000
 RMSDP=3.03D-06 MaxDP=1.74D-04 DE= 1.14D-04 OVMax= 2.27D-04

 Cycle  10  Pass 1  IDiag  1:
 RMSU=  3.91D-05    CP:  1.00D+00
 E= -1714.04116353950     Delta-E=       -0.000000762392 Rises=F Damp=F
 DIIS: error= 3.28D-05 at cycle   2 NSaved=   2.
 NSaved= 2 IEnMin= 2 EnMin= -1714.04116353950     IErMin= 2 ErrMin= 3.28D-05
 ErrMax= 3.28D-05  0.00D+00 EMaxC= 1.00D-01 BMatC= 6.52D-07 BMatP= 1.17D-06
 IDIUse=1 WtCom= 1.00D+00 WtEn= 0.00D+00
 Coeff-Com:  0.392D+00 0.608D+00
 Coeff:      0.392D+00 0.608D+00
 Gap=     0.240 Goal=   None    Shift=    0.000
 RMSDP=3.94D-06 MaxDP=1.72D-04 DE=-7.62D-07 OVMax= 2.54D-04

 Cycle  11  Pass 1  IDiag  1:
 RMSU=  3.94D-06    CP:  1.00D+00  9.98D-01
 E= -1714.04116360172     Delta-E=       -0.000000062222 Rises=F Damp=F
 DIIS: error= 3.22D-05 at cycle   3 NSaved=   3.
 NSaved= 3 IEnMin= 3 EnMin= -1714.04116360172     IErMin= 3 ErrMin= 3.22D-05
 ErrMax= 3.22D-05  0.00D+00 EMaxC= 1.00D-01 BMatC= 5.84D-07 BMatP= 6.52D-07
 IDIUse=1 WtCom= 1.00D+00 WtEn= 0.00D+00
 Coeff-Com:  0.265D-03 0.486D+00 0.514D+00
 Coeff:      0.265D-03 0.486D+00 0.514D+00
 Gap=     0.240 Goal=   None    Shift=    0.000
 RMSDP=2.03D-06 MaxDP=9.62D-05 DE=-6.22D-08 OVMax= 1.40D-04

 Cycle  12  Pass 1  IDiag  1:
 RMSU=  6.46D-07    CP:  1.00D+00  1.01D+00  5.19D-01
 E= -1714.04116404699     Delta-E=       -0.000000445265 Rises=F Damp=F
 DIIS: error= 2.93D-06 at cycle   4 NSaved=   4.
 NSaved= 4 IEnMin= 4 EnMin= -1714.04116404699     IErMin= 4 ErrMin= 2.93D-06
 ErrMax= 2.93D-06  0.00D+00 EMaxC= 1.00D-01 BMatC= 1.21D-08 BMatP= 5.84D-07
 IDIUse=1 WtCom= 1.00D+00 WtEn= 0.00D+00
 Coeff-Com: -0.816D-02 0.275D+00 0.305D+00 0.428D+00
 Coeff:     -0.816D-02 0.275D+00 0.305D+00 0.428D+00
 Gap=     0.240 Goal=   None    Shift=    0.000
 RMSDP=3.44D-07 MaxDP=1.39D-05 DE=-4.45D-07 OVMax= 1.98D-05

 Cycle  13  Pass 1  IDiag  1:
 RMSU=  1.92D-07    CP:  1.00D+00  1.01D+00  5.26D-01  5.61D-01
 E= -1714.04116405749     Delta-E=       -0.000000010504 Rises=F Damp=F
 DIIS: error= 8.21D-07 at cycle   5 NSaved=   5.
 NSaved= 5 IEnMin= 5 EnMin= -1714.04116405749     IErMin= 5 ErrMin= 8.21D-07
 ErrMax= 8.21D-07  0.00D+00 EMaxC= 1.00D-01 BMatC= 5.63D-10 BMatP= 1.21D-08
 IDIUse=1 WtCom= 1.00D+00 WtEn= 0.00D+00
 Coeff-Com: -0.458D-02 0.128D+00 0.145D+00 0.242D+00 0.490D+00
 Coeff:     -0.458D-02 0.128D+00 0.145D+00 0.242D+00 0.490D+00
 Gap=     0.240 Goal=   None    Shift=    0.000
 RMSDP=8.35D-08 MaxDP=4.67D-06 DE=-1.05D-08 OVMax= 5.50D-06

 Cycle  14  Pass 1  IDiag  1:
 RMSU=  7.24D-08    CP:  1.00D+00  1.01D+00  5.27D-01  5.86D-01  8.02D-01
 E= -1714.04116405770     Delta-E=       -0.000000000212 Rises=F Damp=F
 DIIS: error= 3.86D-07 at cycle   6 NSaved=   6.
 NSaved= 6 IEnMin= 6 EnMin= -1714.04116405770     IErMin= 6 ErrMin= 3.86D-07
 ErrMax= 3.86D-07  0.00D+00 EMaxC= 1.00D-01 BMatC= 9.12D-11 BMatP= 5.63D-10
 IDIUse=1 WtCom= 1.00D+00 WtEn= 0.00D+00
 Coeff-Com: -0.123D-02 0.257D-01 0.299D-01 0.661D-01 0.303D+00 0.576D+00
 Coeff:     -0.123D-02 0.257D-01 0.299D-01 0.661D-01 0.303D+00 0.576D+00
 Gap=     0.240 Goal=   None    Shift=    0.000
 RMSDP=2.96D-08 MaxDP=1.59D-06 DE=-2.12D-10 OVMax= 1.89D-06

 Cycle  15  Pass 1  IDiag  1:
 RMSU=  2.03D-08    CP:  1.00D+00  1.01D+00  5.27D-01  5.87D-01  8.61D-01
                    CP:  7.47D-01
 E= -1714.04116405789     Delta-E=       -0.000000000191 Rises=F Damp=F
 DIIS: error= 1.23D-07 at cycle   7 NSaved=   7.
 NSaved= 7 IEnMin= 7 EnMin= -1714.04116405789     IErMin= 7 ErrMin= 1.23D-07
 ErrMax= 1.23D-07  0.00D+00 EMaxC= 1.00D-01 BMatC= 8.77D-12 BMatP= 9.12D-11
 IDIUse=1 WtCom= 1.00D+00 WtEn= 0.00D+00
 Coeff-Com: -0.176D-03-0.268D-03 0.214D-03 0.917D-02 0.109D+00 0.315D+00
 Coeff-Com:  0.567D+00
 Coeff:     -0.176D-03-0.268D-03 0.214D-03 0.917D-02 0.109D+00 0.315D+00
 Coeff:      0.567D+00
 Gap=     0.240 Goal=   None    Shift=    0.000
 RMSDP=1.09D-08 MaxDP=9.08D-07 DE=-1.91D-10 OVMax= 5.15D-07

 Cycle  16  Pass 1  IDiag  1:
 RMSU=  6.88D-09    CP:  1.00D+00  1.01D+00  5.27D-01  5.91D-01  8.74D-01
                    CP:  7.77D-01  6.33D-01
 E= -1714.04116405783     Delta-E=        0.000000000064 Rises=F Damp=F
 DIIS: error= 4.95D-08 at cycle   8 NSaved=   8.
 NSaved= 8 IEnMin= 7 EnMin= -1714.04116405789     IErMin= 8 ErrMin= 4.95D-08
 ErrMax= 4.95D-08  0.00D+00 EMaxC= 1.00D-01 BMatC= 1.38D-12 BMatP= 8.77D-12
 IDIUse=1 WtCom= 1.00D+00 WtEn= 0.00D+00
 Coeff-Com:  0.270D-04-0.288D-02-0.307D-02-0.133D-02 0.335D-01 0.129D+00
 Coeff-Com:  0.342D+00 0.502D+00
 Coeff:      0.270D-04-0.288D-02-0.307D-02-0.133D-02 0.335D-01 0.129D+00
 Coeff:      0.342D+00 0.502D+00
 Gap=     0.240 Goal=   None    Shift=    0.000
 RMSDP=4.04D-09 MaxDP=2.04D-07 DE= 6.37D-11 OVMax= 3.02D-07

 SCF Done:  E(RB3LYP) =  -1714.04116406     A.U. after   16 cycles
            NFock= 16  Conv=0.40D-08     -V/T= 2.0068
 KE= 1.702477534022D+03 PE=-8.336814458942D+03 EE= 2.764735225432D+03
 Leave Link  502 at Mon Sep 21 21:01:26 2020, MaxMem=    33554432 cpu:       378.4
 (Enter /prod/apps/gaussian/g09d1/l601.exe)
 Copying SCF densities to generalized density rwf, IOpCl= 0 IROHF=0.

 **********************************************************************

            Population analysis using the SCF density.

 **********************************************************************

 Orbital symmetries:
       Occupied  (A) (A) (A) (A) (A) (A) (A) (A) (A) (A) (A) (A)
                 (A) (A) (A) (A) (A) (A) (A) (A) (A) (A) (A) (A)
                 (A) (A) (A) (A) (A) (A) (A) (A) (A) (A) (A) (A)
                 (A) (A) (A) (A) (A) (A) (A) (A) (A) (A) (A) (A)
                 (A) (A) (A) (A) (A) (A) (A) (A) (A) (A) (A) (A)
                 (A) (A) (A) (A) (A) (A) (A) (A) (A) (A) (A) (A)
                 (A) (A) (A) (A) (A) (A) (A) (A) (A) (A) (A) (A)
                 (A) (A) (A) (A)
       Virtual   (A) (A) (A) (A) (A) (A) (A) (A) (A) (A) (A) (A)
                 (A) (A) (A) (A) (A) (A) (A) (A) (A) (A) (A) (A)
                 (A) (A) (A) (A) (A) (A) (A) (A) (A) (A) (A) (A)
                 (A) (A) (A) (A) (A) (A) (A) (A) (A) (A) (A) (A)
                 (A) (A) (A) (A) (A) (A) (A) (A) (A) (A) (A) (A)
                 (A) (A) (A) (A) (A) (A) (A) (A) (A) (A) (A) (A)
                 (A) (A) (A) (A) (A) (A) (A) (A) (A) (A) (A) (A)
                 (A) (A) (A) (A) (A) (A) (A) (A) (A) (A) (A) (A)
                 (A) (A) (A) (A) (A) (A) (A) (A) (A) (A) (A) (A)
                 (A) (A) (A) (A) (A) (A) (A) (A) (A) (A) (A) (A)
                 (A) (A) (A) (A) (A) (A) (A) (A) (A) (A) (A) (A)
                 (A) (A) (A) (A) (A) (A) (A) (A) (A) (A) (A) (A)
                 (A) (A) (A) (A) (A) (A) (A) (A) (A) (A) (A) (A)
                 (A) (A) (A) (A) (A) (A) (A) (A) (A) (A) (A) (A)
                 (A) (A) (A) (A) (A) (A) (A) (A) (A) (A) (A) (A)
                 (A) (A) (A) (A) (A) (A) (A) (A) (A) (A) (A) (A)
                 (A) (A) (A) (A) (A) (A) (A) (A) (A) (A) (A) (A)
                 (A) (A) (A) (A) (A) (A) (A) (A) (A) (A) (A) (A)
                 (A) (A) (A) (A) (A) (A) (A) (A) (A) (A) (A) (A)
                 (A) (A) (A) (A) (A) (A) (A) (A) (A) (A) (A) (A)
                 (A) (A) (A) (A) (A) (A) (A) (A) (A) (A) (A) (A)
                 (A) (A) (A) (A) (A) (A) (A) (A) (A) (A) (A) (A)
                 (A) (A) (A) (A) (A) (A) (A) (A) (A) (A) (A)
 The electronic state is 1-A.
 Alpha  occ. eigenvalues --  -89.14013 -89.09395 -19.15551 -19.15281 -19.14602
 Alpha  occ. eigenvalues --  -19.14474 -14.39158 -14.38483 -10.28809 -10.24089
 Alpha  occ. eigenvalues --  -10.23429 -10.23077 -10.22426 -10.20943 -10.20865
 Alpha  occ. eigenvalues --  -10.20481 -10.19600 -10.19538 -10.19532 -10.19433
 Alpha  occ. eigenvalues --  -10.19396  -8.16256  -8.12423  -6.12753  -6.12677
 Alpha  occ. eigenvalues --   -6.12631  -6.08836  -6.08783  -6.08718  -1.13060
 Alpha  occ. eigenvalues --   -1.09753  -1.01025  -0.99290  -0.96183  -0.94663
 Alpha  occ. eigenvalues --   -0.86598  -0.85887  -0.80299  -0.74931  -0.74896
 Alpha  occ. eigenvalues --   -0.73737  -0.73272  -0.71755  -0.68028  -0.63236
 Alpha  occ. eigenvalues --   -0.61143  -0.60720  -0.59053  -0.58097  -0.54874
 Alpha  occ. eigenvalues --   -0.53979  -0.51855  -0.51402  -0.50343  -0.49967
 Alpha  occ. eigenvalues --   -0.48692  -0.47543  -0.47092  -0.46303  -0.45895
 Alpha  occ. eigenvalues --   -0.45223  -0.44662  -0.43972  -0.43447  -0.42512
 Alpha  occ. eigenvalues --   -0.42400  -0.41827  -0.41734  -0.41397  -0.39629
 Alpha  occ. eigenvalues --   -0.39411  -0.38425  -0.37037  -0.36102  -0.35256
 Alpha  occ. eigenvalues --   -0.34882  -0.34518  -0.33958  -0.33032  -0.32344
 Alpha  occ. eigenvalues --   -0.31413  -0.31113  -0.29740  -0.29237  -0.29070
 Alpha  occ. eigenvalues --   -0.26435  -0.25501  -0.24803
 Alpha virt. eigenvalues --   -0.00756  -0.00671   0.02348   0.03219   0.04871
 Alpha virt. eigenvalues --    0.05625   0.06290   0.06471   0.07253   0.08210
 Alpha virt. eigenvalues --    0.08455   0.08953   0.09527   0.09669   0.11562
 Alpha virt. eigenvalues --    0.12633   0.13238   0.13557   0.13935   0.14469
 Alpha virt. eigenvalues --    0.15083   0.15893   0.16023   0.16323   0.16795
 Alpha virt. eigenvalues --    0.17562   0.17912   0.18318   0.18595   0.19107
 Alpha virt. eigenvalues --    0.19620   0.20685   0.21229   0.22160   0.22705
 Alpha virt. eigenvalues --    0.23418   0.25627   0.27438   0.28306   0.30032
 Alpha virt. eigenvalues --    0.32603   0.33434   0.33630   0.34207   0.35895
 Alpha virt. eigenvalues --    0.36154   0.39321   0.41206   0.42899   0.43866
 Alpha virt. eigenvalues --    0.44889   0.45979   0.47779   0.49214   0.49407
 Alpha virt. eigenvalues --    0.50476   0.51068   0.52456   0.52877   0.54323
 Alpha virt. eigenvalues --    0.54524   0.55066   0.55760   0.56803   0.57866
 Alpha virt. eigenvalues --    0.58044   0.59008   0.59371   0.59861   0.60412
 Alpha virt. eigenvalues --    0.60796   0.61446   0.61750   0.62729   0.63947
 Alpha virt. eigenvalues --    0.65791   0.66067   0.67372   0.68141   0.69067
 Alpha virt. eigenvalues --    0.70093   0.72573   0.72819   0.74386   0.75863
 Alpha virt. eigenvalues --    0.76607   0.78214   0.79340   0.79620   0.80764
 Alpha virt. eigenvalues --    0.81064   0.82159   0.82322   0.82569   0.82979
 Alpha virt. eigenvalues --    0.83360   0.83846   0.84198   0.84903   0.85648
 Alpha virt. eigenvalues --    0.86002   0.86419   0.87194   0.88486   0.88962
 Alpha virt. eigenvalues --    0.89632   0.90652   0.91152   0.92429   0.92650
 Alpha virt. eigenvalues --    0.92957   0.93787   0.94754   0.95688   0.96016
 Alpha virt. eigenvalues --    0.97244   0.98061   0.98958   0.99781   1.00207
 Alpha virt. eigenvalues --    1.00949   1.01306   1.03453   1.04369   1.06586
 Alpha virt. eigenvalues --    1.07616   1.07788   1.08896   1.10146   1.10507
 Alpha virt. eigenvalues --    1.11136   1.11687   1.14013   1.15210   1.16588
 Alpha virt. eigenvalues --    1.16839   1.18367   1.18656   1.19898   1.21365
 Alpha virt. eigenvalues --    1.22017   1.25142   1.25459   1.28154   1.29421
 Alpha virt. eigenvalues --    1.32629   1.34520   1.37708   1.38347   1.39109
 Alpha virt. eigenvalues --    1.41345   1.42056   1.43888   1.44068   1.46786
 Alpha virt. eigenvalues --    1.47820   1.48658   1.50604   1.50861   1.52593
 Alpha virt. eigenvalues --    1.55176   1.57013   1.58822   1.64394   1.66582
 Alpha virt. eigenvalues --    1.68450   1.70418   1.71642   1.72873   1.74044
 Alpha virt. eigenvalues --    1.77497   1.77572   1.79552   1.79764   1.80239
 Alpha virt. eigenvalues --    1.80547   1.81268   1.81395   1.82164   1.82504
 Alpha virt. eigenvalues --    1.83287   1.84266   1.85319   1.85830   1.88857
 Alpha virt. eigenvalues --    1.89239   1.91461   1.92224   1.92706   1.93904
 Alpha virt. eigenvalues --    1.95015   1.96801   1.97130   1.97359   1.97798
 Alpha virt. eigenvalues --    1.98397   2.00608   2.02616   2.03137   2.04769
 Alpha virt. eigenvalues --    2.05361   2.06268   2.06689   2.07398   2.09104
 Alpha virt. eigenvalues --    2.10027   2.12628   2.13591   2.13796   2.14225
 Alpha virt. eigenvalues --    2.15625   2.16565   2.17891   2.19721   2.20725
 Alpha virt. eigenvalues --    2.22158   2.23853   2.25727   2.26564   2.26984
 Alpha virt. eigenvalues --    2.28163   2.30295   2.31039   2.31958   2.35349
 Alpha virt. eigenvalues --    2.36404   2.37774   2.39007   2.40320   2.41728
 Alpha virt. eigenvalues --    2.46899   2.47999   2.53523   2.54391   2.56893
 Alpha virt. eigenvalues --    2.57231   2.60375   2.65541   2.66645   2.69000
 Alpha virt. eigenvalues --    2.71625   2.71842   2.71956   2.73051   2.73804
 Alpha virt. eigenvalues --    2.75358   2.76117   2.77981   2.82609   2.83247
 Alpha virt. eigenvalues --    2.88459   2.93074   3.04299   3.40357   3.79761
 Alpha virt. eigenvalues --    3.81105   3.89622   3.95327   3.97734   4.00728
 Alpha virt. eigenvalues --    4.07723   4.08578   4.10994   4.14261   4.14886
 Alpha virt. eigenvalues --    4.19920   4.23506   4.24875   4.31703   4.32481
 Alpha virt. eigenvalues --    4.35087   4.40727   4.49846   4.69695   4.73148
          Condensed to atoms (all electrons):
               1          2          3          4          5          6
     1  S   13.627984   0.117945   0.005034  -0.006664  -0.000001   0.000351
     2  N    0.117945   7.411001   0.191178  -0.042411   0.005224  -0.049800
     3  C    0.005034   0.191178   4.915268   0.351777  -0.105068   0.342975
     4  C   -0.006664  -0.042411   0.351777   5.717709   0.144302  -0.198540
     5  S   -0.000001   0.005224  -0.105068   0.144302  13.891604   0.122837
     6  C    0.000351  -0.049800   0.342975  -0.198540   0.122837   5.746781
     7  O   -0.000510   0.000092  -0.000220  -0.044076   0.413939  -0.043789
     8  O    0.000001  -0.000038   0.001793  -0.045729   0.434333  -0.045422
     9  C   -0.003029  -0.058200   0.361953  -0.040889   0.002264  -0.046994
    10  C   -0.000037   0.004205  -0.028328  -0.006376  -0.000388  -0.004975
    11  C   -0.000019  -0.000103   0.003912   0.000136   0.000034   0.000002
    12  C    0.000000  -0.000003   0.000079  -0.000004   0.000000   0.000003
    13  C    0.000000   0.000000   0.000002   0.000000   0.000000   0.000000
    14  C    0.000000   0.000000   0.000000   0.000000   0.000000   0.000000
    15  C    0.000000   0.000000   0.000002   0.000000   0.000000   0.000000
    16  C   -0.000007  -0.000002   0.000109  -0.000003   0.000001  -0.000005
    17  O    0.408334  -0.053701   0.007270  -0.000074   0.000128   0.000050
    18  O    0.447837  -0.056316   0.002211  -0.000093   0.000007  -0.000084
    19  H   -0.016858   0.299881  -0.025747   0.004974   0.000170  -0.005961
    20  H   -0.000523   0.003161  -0.029916   0.331492  -0.007209   0.006194
    21  H    0.003751  -0.006678  -0.020665   0.333631  -0.009774   0.008274
    22  H    0.000009   0.003290  -0.028973   0.005451  -0.004622   0.329053
    23  H    0.000113  -0.003414  -0.022081   0.008980  -0.007327   0.339371
    24  H    0.000254  -0.002233  -0.037441   0.005449  -0.000036  -0.006292
    25  H    0.002105  -0.002941  -0.030259  -0.004759  -0.000114   0.004836
    26  H    0.000001  -0.000012  -0.005274   0.001387   0.000064  -0.000188
    27  H    0.000004  -0.000004  -0.004279  -0.000418   0.000061   0.001078
    28  H    0.000000   0.000000  -0.000052   0.000000   0.000001  -0.000009
    29  H    0.000000   0.000000   0.000000   0.000000   0.000000   0.000000
    30  H    0.000000   0.000000   0.000000   0.000000   0.000000   0.000000
    31  H    0.000000   0.000000   0.000000   0.000000   0.000000   0.000000
    32  H    0.000000   0.000000  -0.000051  -0.000002   0.000001   0.000000
    33  N    0.128949  -0.042224  -0.005567  -0.009810  -0.000125  -0.000355
    34  C   -0.028037   0.002334   0.000040   0.000075   0.000006   0.000004
    35  H   -0.004455   0.000107   0.000018   0.000138   0.000007   0.000000
    36  H    0.002225  -0.000078   0.000003   0.000120  -0.000005   0.000000
    37  H   -0.003250  -0.000076  -0.000008  -0.000023   0.000000   0.000000
    38  C   -0.010190  -0.008946   0.000486   0.000002   0.000037   0.000050
    39  H   -0.008250  -0.000180  -0.000029  -0.000028   0.000017  -0.000001
    40  H    0.003122  -0.000026   0.000003   0.000133   0.000005   0.000003
    41  H   -0.002922   0.011614  -0.000088  -0.000010   0.001308  -0.000058
               7          8          9         10         11         12
     1  S   -0.000510   0.000001  -0.003029  -0.000037  -0.000019   0.000000
     2  N    0.000092  -0.000038  -0.058200   0.004205  -0.000103  -0.000003
     3  C   -0.000220   0.001793   0.361953  -0.028328   0.003912   0.000079
     4  C   -0.044076  -0.045729  -0.040889  -0.006376   0.000136  -0.000004
     5  S    0.413939   0.434333   0.002264  -0.000388   0.000034   0.000000
     6  C   -0.043789  -0.045422  -0.046994  -0.004975   0.000002   0.000003
     7  O    8.236971  -0.047096  -0.000061  -0.000002   0.000000   0.000000
     8  O   -0.047096   8.211657  -0.000212   0.000034   0.000001   0.000000
     9  C   -0.000061  -0.000212   5.153492   0.332572  -0.038717  -0.004369
    10  C   -0.000002   0.000034   0.332572   5.205312   0.346922  -0.057775
    11  C    0.000000   0.000001  -0.038717   0.346922   4.637644   0.548585
    12  C    0.000000   0.000000  -0.004369  -0.057775   0.548585   4.957070
    13  C    0.000000   0.000000  -0.000050   0.006736  -0.019391   0.525234
    14  C    0.000000   0.000000   0.000016   0.000405  -0.034378  -0.036100
    15  C    0.000000   0.000000  -0.000016   0.006653  -0.019294  -0.047027
    16  C    0.000000   0.000000  -0.003631  -0.058136   0.549520  -0.036894
    17  O    0.000000   0.000000  -0.009003   0.000097   0.000001   0.000000
    18  O    0.000000   0.000000  -0.000187  -0.000001   0.000000   0.000000
    19  H    0.000026   0.000002  -0.000874  -0.000091   0.000000   0.000000
    20  H    0.001220   0.000978  -0.007033   0.001738   0.000025   0.000000
    21  H    0.000502   0.000575   0.000688   0.000150  -0.000001   0.000000
    22  H    0.001124   0.000749  -0.005023   0.001014  -0.000020  -0.000001
    23  H   -0.000279   0.000692   0.001219   0.000107   0.000001   0.000000
    24  H    0.000001   0.000002   0.360626  -0.038334  -0.001452   0.003890
    25  H    0.000001   0.000002   0.364708  -0.030222  -0.001655  -0.000044
    26  H    0.000001  -0.000030  -0.039204   0.358352  -0.026736   0.003665
    27  H    0.000002   0.000059  -0.040742   0.357958  -0.029240  -0.003881
    28  H    0.000000   0.000000   0.000203  -0.009844  -0.048768   0.354278
    29  H    0.000000   0.000000  -0.000001  -0.000186   0.003742  -0.039467
    30  H    0.000000   0.000000   0.000000   0.000007   0.000739   0.004670
    31  H    0.000000   0.000000  -0.000001  -0.000185   0.003691   0.000886
    32  H    0.000000   0.000000   0.000206  -0.009611  -0.047136   0.006035
    33  N   -0.000059   0.000000  -0.000210   0.000000   0.000000   0.000000
    34  C    0.000000   0.000000   0.000010   0.000000   0.000000   0.000000
    35  H    0.000000   0.000000   0.000001   0.000000   0.000000   0.000000
    36  H    0.000000   0.000000   0.000000   0.000000   0.000000   0.000000
    37  H    0.000000   0.000000   0.000000   0.000000   0.000000   0.000000
    38  C    0.000182   0.000000  -0.000004   0.000000   0.000000   0.000000
    39  H    0.000035   0.000000   0.000000   0.000000   0.000000   0.000000
    40  H    0.000157   0.000000   0.000000   0.000000   0.000000   0.000000
    41  H    0.003366   0.000002   0.000020   0.000000   0.000000   0.000000
              13         14         15         16         17         18
     1  S    0.000000   0.000000   0.000000  -0.000007   0.408334   0.447837
     2  N    0.000000   0.000000   0.000000  -0.000002  -0.053701  -0.056316
     3  C    0.000002   0.000000   0.000002   0.000109   0.007270   0.002211
     4  C    0.000000   0.000000   0.000000  -0.000003  -0.000074  -0.000093
     5  S    0.000000   0.000000   0.000000   0.000001   0.000128   0.000007
     6  C    0.000000   0.000000   0.000000  -0.000005   0.000050  -0.000084
     7  O    0.000000   0.000000   0.000000   0.000000   0.000000   0.000000
     8  O    0.000000   0.000000   0.000000   0.000000   0.000000   0.000000
     9  C   -0.000050   0.000016  -0.000016  -0.003631  -0.009003  -0.000187
    10  C    0.006736   0.000405   0.006653  -0.058136   0.000097  -0.000001
    11  C   -0.019391  -0.034378  -0.019294   0.549520   0.000001   0.000000
    12  C    0.525234  -0.036100  -0.047027  -0.036894   0.000000   0.000000
    13  C    4.863984   0.550584  -0.025867  -0.046938   0.000000   0.000000
    14  C    0.550584   4.850891   0.549789  -0.035843   0.000000   0.000000
    15  C   -0.025867   0.549789   4.863024   0.525523   0.000000   0.000000
    16  C   -0.046938  -0.035843   0.525523   4.950349  -0.000007   0.000000
    17  O    0.000000   0.000000   0.000000  -0.000007   8.275336  -0.045884
    18  O    0.000000   0.000000   0.000000   0.000000  -0.045884   8.226585
    19  H    0.000000   0.000000   0.000000   0.000000  -0.000058   0.005366
    20  H    0.000000   0.000000   0.000000  -0.000003  -0.000195   0.000000
    21  H    0.000000   0.000000   0.000000   0.000000  -0.000743   0.000031
    22  H    0.000000   0.000000   0.000000   0.000001   0.000001   0.000000
    23  H    0.000000   0.000000   0.000000   0.000000   0.000002  -0.000010
    24  H   -0.000149  -0.000006  -0.000018  -0.000108   0.000129  -0.000007
    25  H   -0.000008  -0.000004  -0.000109   0.003697   0.015417  -0.000198
    26  H   -0.000208   0.000013   0.000080  -0.004344   0.000023   0.000000
    27  H    0.000119   0.000010  -0.000199   0.003789  -0.000003   0.000000
    28  H   -0.044948   0.004891   0.000359   0.006120   0.000000   0.000000
    29  H    0.356768  -0.042703   0.004525   0.000866   0.000000   0.000000
    30  H   -0.042842   0.359480  -0.042658   0.004652   0.000000   0.000000
    31  H    0.004510  -0.042839   0.357078  -0.038955   0.000000   0.000000
    32  H    0.000370   0.004811  -0.044323   0.355960   0.000002   0.000000
    33  N    0.000000   0.000000   0.000000   0.000000  -0.054844  -0.056739
    34  C    0.000000   0.000000   0.000000   0.000000  -0.003698  -0.002598
    35  H    0.000000   0.000000   0.000000   0.000000   0.011566  -0.000169
    36  H    0.000000   0.000000   0.000000   0.000000   0.000238  -0.000111
    37  H    0.000000   0.000000   0.000000   0.000000  -0.000547   0.002664
    38  C    0.000000   0.000000   0.000000   0.000000   0.001683   0.001808
    39  H    0.000000   0.000000   0.000000   0.000000  -0.000039   0.005422
    40  H    0.000000   0.000000   0.000000   0.000000  -0.000050   0.000037
    41  H    0.000000   0.000000   0.000000   0.000000   0.000019  -0.001608
              19         20         21         22         23         24
     1  S   -0.016858  -0.000523   0.003751   0.000009   0.000113   0.000254
     2  N    0.299881   0.003161  -0.006678   0.003290  -0.003414  -0.002233
     3  C   -0.025747  -0.029916  -0.020665  -0.028973  -0.022081  -0.037441
     4  C    0.004974   0.331492   0.333631   0.005451   0.008980   0.005449
     5  S    0.000170  -0.007209  -0.009774  -0.004622  -0.007327  -0.000036
     6  C   -0.005961   0.006194   0.008274   0.329053   0.339371  -0.006292
     7  O    0.000026   0.001220   0.000502   0.001124  -0.000279   0.000001
     8  O    0.000002   0.000978   0.000575   0.000749   0.000692   0.000002
     9  C   -0.000874  -0.007033   0.000688  -0.005023   0.001219   0.360626
    10  C   -0.000091   0.001738   0.000150   0.001014   0.000107  -0.038334
    11  C    0.000000   0.000025  -0.000001  -0.000020   0.000001  -0.001452
    12  C    0.000000   0.000000   0.000000  -0.000001   0.000000   0.003890
    13  C    0.000000   0.000000   0.000000   0.000000   0.000000  -0.000149
    14  C    0.000000   0.000000   0.000000   0.000000   0.000000  -0.000006
    15  C    0.000000   0.000000   0.000000   0.000000   0.000000  -0.000018
    16  C    0.000000  -0.000003   0.000000   0.000001   0.000000  -0.000108
    17  O   -0.000058  -0.000195  -0.000743   0.000001   0.000002   0.000129
    18  O    0.005366   0.000000   0.000031   0.000000  -0.000010  -0.000007
    19  H    0.369623  -0.000095   0.000155   0.000021   0.002822   0.004934
    20  H   -0.000095   0.497494  -0.014186  -0.000090  -0.000236   0.000154
    21  H    0.000155  -0.014186   0.438318  -0.000240  -0.000295  -0.000070
    22  H    0.000021  -0.000090  -0.000240   0.498894  -0.018994   0.000663
    23  H    0.002822  -0.000236  -0.000295  -0.018994   0.488177   0.000344
    24  H    0.004934   0.000154  -0.000070   0.000663   0.000344   0.596942
    25  H   -0.000624   0.000555   0.000138   0.000200  -0.000080  -0.030530
    26  H    0.000009   0.006391  -0.000002   0.000008  -0.000005   0.005738
    27  H   -0.000006   0.000144   0.000002   0.007133   0.000003  -0.004434
    28  H    0.000000   0.000000   0.000000   0.000094   0.000001   0.000729
    29  H    0.000000   0.000000   0.000000   0.000000   0.000000   0.000003
    30  H    0.000000   0.000000   0.000000   0.000000   0.000000   0.000000
    31  H    0.000000   0.000000   0.000000   0.000000   0.000000   0.000000
    32  H    0.000000   0.000029   0.000000   0.000000   0.000000   0.000044
    33  N    0.002519   0.000328   0.020104   0.000000   0.000004   0.000007
    34  C   -0.000057  -0.000002  -0.000589   0.000000   0.000000   0.000000
    35  H   -0.000004  -0.000006  -0.000071   0.000000   0.000000   0.000000
    36  H    0.000001  -0.000003  -0.000434   0.000000   0.000000   0.000000
    37  H    0.000007   0.000000   0.000133   0.000000   0.000000   0.000000
    38  C   -0.000206   0.000001  -0.000819  -0.000001  -0.000018   0.000000
    39  H    0.000076   0.000000   0.000123   0.000000   0.000000   0.000000
    40  H    0.000001  -0.000001  -0.000330   0.000000  -0.000001   0.000000
    41  H   -0.000534   0.000001  -0.000374   0.000003   0.000073  -0.000001
              25         26         27         28         29         30
     1  S    0.002105   0.000001   0.000004   0.000000   0.000000   0.000000
     2  N   -0.002941  -0.000012  -0.000004   0.000000   0.000000   0.000000
     3  C   -0.030259  -0.005274  -0.004279  -0.000052   0.000000   0.000000
     4  C   -0.004759   0.001387  -0.000418   0.000000   0.000000   0.000000
     5  S   -0.000114   0.000064   0.000061   0.000001   0.000000   0.000000
     6  C    0.004836  -0.000188   0.001078  -0.000009   0.000000   0.000000
     7  O    0.000001   0.000001   0.000002   0.000000   0.000000   0.000000
     8  O    0.000002  -0.000030   0.000059   0.000000   0.000000   0.000000
     9  C    0.364708  -0.039204  -0.040742   0.000203  -0.000001   0.000000
    10  C   -0.030222   0.358352   0.357958  -0.009844  -0.000186   0.000007
    11  C   -0.001655  -0.026736  -0.029240  -0.048768   0.003742   0.000739
    12  C   -0.000044   0.003665  -0.003881   0.354278  -0.039467   0.004670
    13  C   -0.000008  -0.000208   0.000119  -0.044948   0.356768  -0.042842
    14  C   -0.000004   0.000013   0.000010   0.004891  -0.042703   0.359480
    15  C   -0.000109   0.000080  -0.000199   0.000359   0.004525  -0.042658
    16  C    0.003697  -0.004344   0.003789   0.006120   0.000866   0.004652
    17  O    0.015417   0.000023  -0.000003   0.000000   0.000000   0.000000
    18  O   -0.000198   0.000000   0.000000   0.000000   0.000000   0.000000
    19  H   -0.000624   0.000009  -0.000006   0.000000   0.000000   0.000000
    20  H    0.000555   0.006391   0.000144   0.000000   0.000000   0.000000
    21  H    0.000138  -0.000002   0.000002   0.000000   0.000000   0.000000
    22  H    0.000200   0.000008   0.007133   0.000094   0.000000   0.000000
    23  H   -0.000080  -0.000005   0.000003   0.000001   0.000000   0.000000
    24  H   -0.030530   0.005738  -0.004434   0.000729   0.000003   0.000000
    25  H    0.501168  -0.004443   0.004809   0.000030   0.000000   0.000000
    26  H   -0.004443   0.579268  -0.035212   0.000075   0.000003   0.000000
    27  H    0.004809  -0.035212   0.587121   0.005629  -0.000007   0.000000
    28  H    0.000030   0.000075   0.005629   0.618046  -0.005683  -0.000183
    29  H    0.000000   0.000003  -0.000007  -0.005683   0.595699  -0.005467
    30  H    0.000000   0.000000   0.000000  -0.000183  -0.005467   0.594664
    31  H    0.000003  -0.000006   0.000003   0.000018  -0.000189  -0.005460
    32  H    0.000782   0.005242   0.000073  -0.000183   0.000018  -0.000180
    33  N   -0.000035   0.000000   0.000000   0.000000   0.000000   0.000000
    34  C    0.000007   0.000000   0.000000   0.000000   0.000000   0.000000
    35  H    0.000004   0.000000   0.000000   0.000000   0.000000   0.000000
    36  H    0.000000   0.000000   0.000000   0.000000   0.000000   0.000000
    37  H    0.000000   0.000000   0.000000   0.000000   0.000000   0.000000
    38  C   -0.000003   0.000000   0.000000   0.000000   0.000000   0.000000
    39  H    0.000000   0.000000   0.000000   0.000000   0.000000   0.000000
    40  H    0.000000   0.000000   0.000000   0.000000   0.000000   0.000000
    41  H    0.000000   0.000000   0.000000   0.000000   0.000000   0.000000
              31         32         33         34         35         36
     1  S    0.000000   0.000000   0.128949  -0.028037  -0.004455   0.002225
     2  N    0.000000   0.000000  -0.042224   0.002334   0.000107  -0.000078
     3  C    0.000000  -0.000051  -0.005567   0.000040   0.000018   0.000003
     4  C    0.000000  -0.000002  -0.009810   0.000075   0.000138   0.000120
     5  S    0.000000   0.000001  -0.000125   0.000006   0.000007  -0.000005
     6  C    0.000000   0.000000  -0.000355   0.000004   0.000000   0.000000
     7  O    0.000000   0.000000  -0.000059   0.000000   0.000000   0.000000
     8  O    0.000000   0.000000   0.000000   0.000000   0.000000   0.000000
     9  C   -0.000001   0.000206  -0.000210   0.000010   0.000001   0.000000
    10  C   -0.000185  -0.009611   0.000000   0.000000   0.000000   0.000000
    11  C    0.003691  -0.047136   0.000000   0.000000   0.000000   0.000000
    12  C    0.000886   0.006035   0.000000   0.000000   0.000000   0.000000
    13  C    0.004510   0.000370   0.000000   0.000000   0.000000   0.000000
    14  C   -0.042839   0.004811   0.000000   0.000000   0.000000   0.000000
    15  C    0.357078  -0.044323   0.000000   0.000000   0.000000   0.000000
    16  C   -0.038955   0.355960   0.000000   0.000000   0.000000   0.000000
    17  O    0.000000   0.000002  -0.054844  -0.003698   0.011566   0.000238
    18  O    0.000000   0.000000  -0.056739  -0.002598  -0.000169  -0.000111
    19  H    0.000000   0.000000   0.002519  -0.000057  -0.000004   0.000001
    20  H    0.000000   0.000029   0.000328  -0.000002  -0.000006  -0.000003
    21  H    0.000000   0.000000   0.020104  -0.000589  -0.000071  -0.000434
    22  H    0.000000   0.000000   0.000000   0.000000   0.000000   0.000000
    23  H    0.000000   0.000000   0.000004   0.000000   0.000000   0.000000
    24  H    0.000000   0.000044   0.000007   0.000000   0.000000   0.000000
    25  H    0.000003   0.000782  -0.000035   0.000007   0.000004   0.000000
    26  H   -0.000006   0.005242   0.000000   0.000000   0.000000   0.000000
    27  H    0.000003   0.000073   0.000000   0.000000   0.000000   0.000000
    28  H    0.000018  -0.000183   0.000000   0.000000   0.000000   0.000000
    29  H   -0.000189   0.000018   0.000000   0.000000   0.000000   0.000000
    30  H   -0.005460  -0.000180   0.000000   0.000000   0.000000   0.000000
    31  H    0.592977  -0.005556   0.000000   0.000000   0.000000   0.000000
    32  H   -0.005556   0.605057   0.000000   0.000000   0.000000   0.000000
    33  N    0.000000   0.000000   7.215996   0.289248  -0.031279  -0.038894
    34  C    0.000000   0.000000   0.289248   4.994839   0.377416   0.378528
    35  H    0.000000   0.000000  -0.031279   0.377416   0.490547  -0.021223
    36  H    0.000000   0.000000  -0.038894   0.378528  -0.021223   0.547026
    37  H    0.000000   0.000000  -0.046355   0.371926  -0.029974  -0.040371
    38  C    0.000000   0.000000   0.268007  -0.050029   0.004558  -0.002805
    39  H    0.000000   0.000000  -0.045260  -0.002403  -0.000177  -0.001811
    40  H    0.000000   0.000000  -0.034297  -0.003839   0.000012   0.005366
    41  H    0.000000   0.000000  -0.031281   0.004498  -0.000184   0.000073
              37         38         39         40         41
     1  S   -0.003250  -0.010190  -0.008250   0.003122  -0.002922
     2  N   -0.000076  -0.008946  -0.000180  -0.000026   0.011614
     3  C   -0.000008   0.000486  -0.000029   0.000003  -0.000088
     4  C   -0.000023   0.000002  -0.000028   0.000133  -0.000010
     5  S    0.000000   0.000037   0.000017   0.000005   0.001308
     6  C    0.000000   0.000050  -0.000001   0.000003  -0.000058
     7  O    0.000000   0.000182   0.000035   0.000157   0.003366
     8  O    0.000000   0.000000   0.000000   0.000000   0.000002
     9  C    0.000000  -0.000004   0.000000   0.000000   0.000020
    10  C    0.000000   0.000000   0.000000   0.000000   0.000000
    11  C    0.000000   0.000000   0.000000   0.000000   0.000000
    12  C    0.000000   0.000000   0.000000   0.000000   0.000000
    13  C    0.000000   0.000000   0.000000   0.000000   0.000000
    14  C    0.000000   0.000000   0.000000   0.000000   0.000000
    15  C    0.000000   0.000000   0.000000   0.000000   0.000000
    16  C    0.000000   0.000000   0.000000   0.000000   0.000000
    17  O   -0.000547   0.001683  -0.000039  -0.000050   0.000019
    18  O    0.002664   0.001808   0.005422   0.000037  -0.001608
    19  H    0.000007  -0.000206   0.000076   0.000001  -0.000534
    20  H    0.000000   0.000001   0.000000  -0.000001   0.000001
    21  H    0.000133  -0.000819   0.000123  -0.000330  -0.000374
    22  H    0.000000  -0.000001   0.000000   0.000000   0.000003
    23  H    0.000000  -0.000018   0.000000  -0.000001   0.000073
    24  H    0.000000   0.000000   0.000000   0.000000  -0.000001
    25  H    0.000000  -0.000003   0.000000   0.000000   0.000000
    26  H    0.000000   0.000000   0.000000   0.000000   0.000000
    27  H    0.000000   0.000000   0.000000   0.000000   0.000000
    28  H    0.000000   0.000000   0.000000   0.000000   0.000000
    29  H    0.000000   0.000000   0.000000   0.000000   0.000000
    30  H    0.000000   0.000000   0.000000   0.000000   0.000000
    31  H    0.000000   0.000000   0.000000   0.000000   0.000000
    32  H    0.000000   0.000000   0.000000   0.000000   0.000000
    33  N   -0.046355   0.268007  -0.045260  -0.034297  -0.031281
    34  C    0.371926  -0.050029  -0.002403  -0.003839   0.004498
    35  H   -0.029974   0.004558  -0.000177   0.000012  -0.000184
    36  H   -0.040371  -0.002805  -0.001811   0.005366   0.000073
    37  H    0.573497  -0.002239   0.008492  -0.001384  -0.000204
    38  C   -0.002239   4.999534   0.369145   0.376448   0.374968
    39  H    0.008492   0.369145   0.576151  -0.037324  -0.029778
    40  H   -0.001384   0.376448  -0.037324   0.537597  -0.021042
    41  H   -0.000204   0.374968  -0.029778  -0.021042   0.489445
 Mulliken charges:
               1
     1  S    1.336734
     2  N   -0.722653
     3  C    0.159933
     4  C   -0.505848
     5  S    1.118319
     6  C   -0.499389
     7  O   -0.521529
     8  O   -0.512351
     9  C   -0.279531
    10  C   -0.377771
    11  C    0.171954
    12  C   -0.178828
    13  C   -0.127903
    14  C   -0.129017
    15  C   -0.127520
    16  C   -0.175709
    17  O   -0.551450
    18  O   -0.527963
    19  H    0.360526
    20  H    0.209592
    21  H    0.248695
    22  H    0.210255
    23  H    0.210830
    24  H    0.141202
    25  H    0.207566
    26  H    0.155345
    27  H    0.150430
    28  H    0.119196
    29  H    0.132078
    30  H    0.132579
    31  H    0.134025
    32  H    0.128410
    33  N   -0.527827
    34  C   -0.327678
    35  H    0.203165
    36  H    0.172154
    37  H    0.167710
    38  C   -0.321651
    39  H    0.165819
    40  H    0.175408
    41  H    0.202694
 Sum of Mulliken charges =   0.00000
 Mulliken charges with hydrogens summed into heavy atoms:
               1
     1  S    1.336734
     2  N   -0.362127
     3  C    0.159933
     4  C   -0.047561
     5  S    1.118319
     6  C   -0.078304
     7  O   -0.521529
     8  O   -0.512351
     9  C    0.069238
    10  C   -0.071997
    11  C    0.171954
    12  C   -0.059633
    13  C    0.004175
    14  C    0.003562
    15  C    0.006504
    16  C   -0.047299
    17  O   -0.551450
    18  O   -0.527963
    33  N   -0.527827
    34  C    0.215352
    38  C    0.222270
 Electronic spatial extent (au):  <R**2>=           8730.8816
 Charge=              0.0000 electrons
 Dipole moment (field-independent basis, Debye):
    X=              1.5426    Y=             -1.3727    Z=             -0.6307  Tot=              2.1591
 Quadrupole moment (field-independent basis, Debye-Ang):
   XX=           -128.5001   YY=           -166.7292   ZZ=           -130.1675
   XY=              9.1846   XZ=             -6.6910   YZ=            -13.0740
 Traceless Quadrupole moment (field-independent basis, Debye-Ang):
   XX=             13.2988   YY=            -24.9303   ZZ=             11.6315
   XY=              9.1846   XZ=             -6.6910   YZ=            -13.0740
 Octapole moment (field-independent basis, Debye-Ang**2):
  XXX=            -37.1014  YYY=            -47.5790  ZZZ=             -2.4000  XYY=             26.9234
  XXY=            -70.9185  XXZ=              9.1579  XZZ=            -12.9574  YZZ=              7.5293
  YYZ=             -4.6821  XYZ=              7.3707
 Hexadecapole moment (field-independent basis, Debye-Ang**3):
 XXXX=          -7411.9655 YYYY=          -3093.7042 ZZZZ=           -741.5369 XXXY=             -6.2703
 XXXZ=           -163.8796 YYYX=             98.4091 YYYZ=           -127.9909 ZZZX=            -11.2005
 ZZZY=            -19.3097 XXYY=          -1844.7425 XXZZ=          -1407.9128 YYZZ=           -593.4413
 XXYZ=           -106.0490 YYXZ=            -20.1929 ZZXY=            -16.0180
 N-N= 2.155560535429D+03 E-N=-8.336814448843D+03  KE= 1.702477534022D+03
 No NMR shielding tensors so no spin-rotation constants.
 Leave Link  601 at Mon Sep 21 21:01:27 2020, MaxMem=    33554432 cpu:         0.3
 (Enter /prod/apps/gaussian/g09d1/l9999.exe)
 1\1\GINC-PIRINEUS30\SP\RB3LYP\6-31G(d)\C13H20N2O4S2\UBAFAR01\21-Sep-20
 20\0\\#p b3lyp/6-31G(d)\\SM40_38o.n.2.pdb.xyz\\0,1\S,0,-1.784,-2.69,-0
 .438\N,0,-1.522,-1.263,-1.275\C,0,-0.828,-0.102,-0.662\C,0,-1.605,0.37
 6,0.608\S,0,-2.395,1.703,-0.361\C,0,-1.156,1.131,-1.571\O,0,-3.774,1.3
 59,-0.764\O,0,-2.141,3.061,0.159\C,0,0.679,-0.372,-0.48\C,0,1.51,0.767
 ,0.141\C,0,2.978,0.406,0.215\C,0,3.847,0.723,-0.837\C,0,5.196,0.367,-0
 .785\C,0,5.698,-0.315,0.326\C,0,4.842,-0.635,1.382\C,0,3.494,-0.277,1.
 325\O,0,-0.85,-2.877,0.681\O,0,-1.855,-3.73,-1.477\H,0,-1.139,-1.501,-
 2.194\H,0,-0.968,0.807,1.379\H,0,-2.317,-0.333,1.027\H,0,-0.344,1.853,
 -1.641\H,0,-1.567,0.907,-2.553\H,0,1.087,-0.612,-1.468\H,0,0.78,-1.27,
 0.134\H,0,1.142,0.986,1.149\H,0,1.396,1.682,-0.449\H,0,3.463,1.259,-1.
 701\H,0,5.854,0.626,-1.608\H,0,6.746,-0.59,0.37\H,0,5.224,-1.16,2.252\
 H,0,2.835,-0.524,2.152\N,0,-3.278,-2.37,0.267\C,0,-3.602,-3.25,1.405\H
 ,0,-2.763,-3.269,2.099\H,0,-4.47,-2.818,1.905\H,0,-3.845,-4.271,1.089\
 C,0,-4.383,-2.227,-0.694\H,0,-4.673,-3.186,-1.137\H,0,-5.233,-1.812,-0
 .15\H,0,-4.092,-1.529,-1.477\\Version=AM64L-G09RevD.01\State=1-A\HF=-1
 714.0411641\RMSD=4.044e-09\Dipole=0.7177937,-0.4298337,-0.1469363\Quad
 rupole=6.7182454,-16.5947362,9.8764908,12.1307413,-4.4410926,-6.927643
 9\PG=C01 [X(C13H20N2O4S2)]\\@


 THE RED LIGHT IS ALWAYS LONGER THAN THE GREEN LIGHT.

                     -- PETER'S THEORY OF RELATIVITY
[...]
     8  O    0.000000   0.000000   0.000000   0.000000   0.000000   0.000000
     9  C   -0.000060   0.000016  -0.000022  -0.003729  -0.008778  -0.000179
    10  C    0.006706   0.000350   0.006642  -0.058708   0.000096  -0.000001
    11  C   -0.022057  -0.034218  -0.021708   0.545820   0.000001   0.000000
    12  C    0.519711  -0.038511  -0.047005  -0.038764   0.000000   0.000000
    13  C    4.896736   0.545193  -0.028726  -0.046892   0.000000   0.000000
    14  C    0.545193   4.883003   0.544838  -0.038390   0.000000   0.000000
    15  C   -0.028726   0.544838   4.896534   0.519984   0.000000   0.000000
    16  C   -0.046892  -0.038390   0.519984   4.979654  -0.000007   0.000000
    17  O    0.000000   0.000000   0.000000  -0.000007   8.300750  -0.045048
    18  O    0.000000   0.000000   0.000000   0.000000  -0.045048   8.267988
    19  H    0.000000   0.000000   0.000000   0.000000  -0.000132   0.004305
    20  H    0.000000   0.000000   0.000000  -0.000002  -0.000196   0.000000
    21  H    0.000000   0.000000   0.000000   0.000000  -0.000767   0.000029
    22  H    0.000000   0.000000   0.000000   0.000001   0.000001   0.000000
    23  H    0.000000   0.000000   0.000000   0.000000   0.000002  -0.000009
    24  H   -0.000141  -0.000006  -0.000014  -0.000074   0.000120  -0.000007
    25  H   -0.000007  -0.000004  -0.000119   0.003819   0.014548  -0.000198
    26  H   -0.000207   0.000013   0.000099  -0.004183   0.000021   0.000000
    27  H    0.000127   0.000010  -0.000200   0.003792  -0.000003   0.000000
    28  H   -0.043934   0.004735   0.000279   0.005967   0.000000   0.000000
    29  H    0.360658  -0.042117   0.004473   0.000769   0.000000   0.000000
    30  H   -0.042073   0.363224  -0.042047   0.004604   0.000000   0.000000
    31  H    0.004475  -0.042146   0.360699  -0.038467   0.000000   0.000000
    32  H    0.000276   0.004743  -0.044155   0.360077   0.000002   0.000000
    33  N    0.000000   0.000000   0.000000   0.000000  -0.055553  -0.056899
    34  C    0.000000   0.000000   0.000000   0.000000  -0.003922  -0.002373
    35  H    0.000000   0.000000   0.000000   0.000000   0.011029  -0.000162
    36  H    0.000000   0.000000   0.000000   0.000000   0.000227  -0.000106
    37  H    0.000000   0.000000   0.000000   0.000000  -0.000525   0.002600
    38  C    0.000000   0.000000   0.000000   0.000000   0.001606   0.001733
    39  H    0.000000   0.000000   0.000000   0.000000  -0.000038   0.005504
    40  H    0.000000   0.000000   0.000000   0.000000  -0.000050   0.000029
    41  H    0.000000   0.000000   0.000000   0.000000   0.000026  -0.001634
              19         20         21         22         23         24
     1  S   -0.014392  -0.000451   0.004047  -0.000006   0.000136   0.000293
     2  N    0.299382   0.003054  -0.006844   0.003102  -0.002899  -0.001829
     3  C   -0.021979  -0.029392  -0.021728  -0.028486  -0.021650  -0.034571
     4  C    0.004265   0.335298   0.334433   0.005312   0.008351   0.005138
     5  S    0.000082  -0.006874  -0.009797  -0.005904  -0.008679  -0.000062
     6  C   -0.005496   0.005601   0.008011   0.333902   0.343946  -0.006234
     7  O    0.000019   0.001164   0.000397   0.001092  -0.000403   0.000001
     8  O    0.000001   0.000788   0.000570   0.000642   0.000667   0.000002
     9  C   -0.000541  -0.006791   0.000753  -0.005085   0.001094   0.366986
    10  C   -0.000071   0.002080   0.000143   0.001280   0.000095  -0.037606
    11  C    0.000000   0.000019  -0.000001  -0.000006   0.000001  -0.001485
    12  C    0.000000   0.000000   0.000000  -0.000001   0.000000   0.003743
    13  C    0.000000   0.000000   0.000000   0.000000   0.000000  -0.000141
    14  C    0.000000   0.000000   0.000000   0.000000   0.000000  -0.000006
    15  C    0.000000   0.000000   0.000000   0.000000   0.000000  -0.000014
    16  C    0.000000  -0.000002   0.000000   0.000001   0.000000  -0.000074
    17  O   -0.000132  -0.000196  -0.000767   0.000001   0.000002   0.000120
    18  O    0.004305   0.000000   0.000029   0.000000  -0.000009  -0.000007
    19  H    0.314755  -0.000074   0.000138   0.000035   0.002252   0.003904
    20  H   -0.000074   0.469551  -0.011613  -0.000100  -0.000204   0.000140
    21  H    0.000138  -0.011613   0.429377  -0.000221  -0.000288  -0.000065
    22  H    0.000035  -0.000100  -0.000221   0.469559  -0.014195   0.000642
    23  H    0.002252  -0.000204  -0.000288  -0.014195   0.452102   0.000297
    24  H    0.003904   0.000140  -0.000065   0.000642   0.000297   0.563320
    25  H   -0.000563   0.000574   0.000141   0.000187  -0.000073  -0.030921
    26  H    0.000007   0.005948   0.000004   0.000010  -0.000005   0.005341
    27  H   -0.000005   0.000133   0.000001   0.006531   0.000011  -0.004325
    28  H    0.000000   0.000000   0.000000   0.000082   0.000000   0.000657
    29  H    0.000000   0.000000   0.000000   0.000000   0.000000   0.000003
    30  H    0.000000   0.000000   0.000000   0.000000   0.000000   0.000000
    31  H    0.000000   0.000000   0.000000   0.000000   0.000000   0.000000
    32  H    0.000000   0.000027   0.000000   0.000000   0.000000   0.000041
    33  N    0.002072   0.000306   0.019772   0.000000   0.000005   0.000007
    34  C   -0.000043  -0.000003  -0.000684   0.000000   0.000000   0.000000
    35  H   -0.000004  -0.000006  -0.000089   0.000000   0.000000   0.000000
    36  H    0.000001  -0.000003  -0.000406   0.000000   0.000000   0.000000
    37  H    0.000007   0.000000   0.000128   0.000000   0.000000   0.000000
    38  C   -0.000223   0.000000  -0.000782  -0.000001  -0.000017   0.000000
    39  H    0.000070   0.000000   0.000117   0.000000   0.000000   0.000000
    40  H    0.000000  -0.000001  -0.000305   0.000000  -0.000001   0.000000
    41  H   -0.000451   0.000001  -0.000366   0.000003   0.000073  -0.000001
              25         26         27         28         29         30
     1  S    0.002346  -0.000001   0.000006   0.000000   0.000000   0.000000
     2  N   -0.003239  -0.000011   0.000000   0.000000   0.000000   0.000000
     3  C   -0.031475  -0.005102  -0.004338  -0.000049   0.000000   0.000000
     4  C   -0.004877   0.001516  -0.000432   0.000000   0.000000   0.000000
     5  S   -0.000138   0.000052   0.000069   0.000001   0.000000   0.000000
     6  C    0.004859  -0.000200   0.001401  -0.000008   0.000000   0.000000
     7  O    0.000001   0.000001   0.000002   0.000000   0.000000   0.000000
     8  O    0.000002  -0.000028   0.000056   0.000000   0.000000   0.000000
     9  C    0.363790  -0.037541  -0.039101   0.000236  -0.000001   0.000000
    10  C   -0.032291   0.359904   0.360167  -0.009253  -0.000176   0.000006
    11  C   -0.001636  -0.026557  -0.028038  -0.045600   0.003660   0.000631
    12  C   -0.000041   0.003637  -0.003852   0.359643  -0.038388   0.004612
    13  C   -0.000007  -0.000207   0.000127  -0.043934   0.360658  -0.042073
    14  C   -0.000004   0.000013   0.000010   0.004735  -0.042117   0.363224
    15  C   -0.000119   0.000099  -0.000200   0.000279   0.004473  -0.042047
    16  C    0.003819  -0.004183   0.003792   0.005967   0.000769   0.004604
    17  O    0.014548   0.000021  -0.000003   0.000000   0.000000   0.000000
    18  O   -0.000198   0.000000   0.000000   0.000000   0.000000   0.000000
    19  H   -0.000563   0.000007  -0.000005   0.000000   0.000000   0.000000
    20  H    0.000574   0.005948   0.000133   0.000000   0.000000   0.000000
    21  H    0.000141   0.000004   0.000001   0.000000   0.000000   0.000000
    22  H    0.000187   0.000010   0.006531   0.000082   0.000000   0.000000
    23  H   -0.000073  -0.000005   0.000011   0.000000   0.000000   0.000000
    24  H   -0.030921   0.005341  -0.004325   0.000657   0.000003   0.000000
    25  H    0.524917  -0.004566   0.004863   0.000027   0.000000   0.000000
    26  H   -0.004566   0.563349  -0.034332   0.000078   0.000003   0.000000
    27  H    0.004863  -0.034332   0.568054   0.005114  -0.000006   0.000000
    28  H    0.000027   0.000078   0.005114   0.582846  -0.005256  -0.000167
    29  H    0.000000   0.000003  -0.000006  -0.005256   0.571794  -0.005198
    30  H    0.000000   0.000000   0.000000  -0.000167  -0.005198   0.572815
    31  H    0.000003  -0.000006   0.000003   0.000017  -0.000175  -0.005209
    32  H    0.000796   0.004829   0.000076  -0.000166   0.000017  -0.000167
    33  N   -0.000040   0.000000   0.000000   0.000000   0.000000   0.000000
    34  C    0.000007   0.000000   0.000000   0.000000   0.000000   0.000000
    35  H    0.000004   0.000000   0.000000   0.000000   0.000000   0.000000
    36  H    0.000000   0.000000   0.000000   0.000000   0.000000   0.000000
    37  H    0.000000   0.000000   0.000000   0.000000   0.000000   0.000000
    38  C   -0.000003   0.000000   0.000000   0.000000   0.000000   0.000000
    39  H    0.000000   0.000000   0.000000   0.000000   0.000000   0.000000
    40  H    0.000000   0.000000   0.000000   0.000000   0.000000   0.000000
    41  H    0.000001   0.000000   0.000000   0.000000   0.000000   0.000000
              31         32         33         34         35         36
     1  S    0.000000   0.000000   0.145433  -0.026542  -0.004254   0.002365
     2  N    0.000000   0.000000  -0.044658   0.002274   0.000102  -0.000085
     3  C    0.000000  -0.000049  -0.005212   0.000033   0.000017   0.000003
     4  C    0.000000  -0.000002  -0.009740   0.000080   0.000135   0.000110
     5  S    0.000000   0.000001  -0.000132   0.000009   0.000007  -0.000006
     6  C    0.000000   0.000000  -0.000352   0.000004   0.000000   0.000000
     7  O    0.000000   0.000000  -0.000053   0.000000   0.000000   0.000000
     8  O    0.000000   0.000000   0.000000   0.000000   0.000000   0.000000
     9  C   -0.000001   0.000201  -0.000226   0.000010   0.000001   0.000000
    10  C   -0.000176  -0.009122   0.000000   0.000000   0.000000   0.000000
    11  C    0.003646  -0.045484   0.000000   0.000000   0.000000   0.000000
    12  C    0.000770   0.005965   0.000000   0.000000   0.000000   0.000000
    13  C    0.004475   0.000276   0.000000   0.000000   0.000000   0.000000
    14  C   -0.042146   0.004743   0.000000   0.000000   0.000000   0.000000
    15  C    0.360699  -0.044155   0.000000   0.000000   0.000000   0.000000
    16  C   -0.038467   0.360077   0.000000   0.000000   0.000000   0.000000
    17  O    0.000000   0.000002  -0.055553  -0.003922   0.011029   0.000227
    18  O    0.000000   0.000000  -0.056899  -0.002373  -0.000162  -0.000106
    19  H    0.000000   0.000000   0.002072  -0.000043  -0.000004   0.000001
    20  H    0.000000   0.000027   0.000306  -0.000003  -0.000006  -0.000003
    21  H    0.000000   0.000000   0.019772  -0.000684  -0.000089  -0.000406
    22  H    0.000000   0.000000   0.000000   0.000000   0.000000   0.000000
    23  H    0.000000   0.000000   0.000005   0.000000   0.000000   0.000000
    24  H    0.000000   0.000041   0.000007   0.000000   0.000000   0.000000
    25  H    0.000003   0.000796  -0.000040   0.000007   0.000004   0.000000
    26  H   -0.000006   0.004829   0.000000   0.000000   0.000000   0.000000
    27  H    0.000003   0.000076   0.000000   0.000000   0.000000   0.000000
    28  H    0.000017  -0.000166   0.000000   0.000000   0.000000   0.000000
    29  H   -0.000175   0.000017   0.000000   0.000000   0.000000   0.000000
    30  H   -0.005209  -0.000167   0.000000   0.000000   0.000000   0.000000
    31  H    0.571885  -0.005260   0.000000   0.000000   0.000000   0.000000
    32  H   -0.005260   0.581754   0.000000   0.000000   0.000000   0.000000
    33  N    0.000000   0.000000   7.212862   0.280452  -0.032227  -0.036780
    34  C    0.000000   0.000000   0.280452   4.997697   0.376961   0.381102
    35  H    0.000000   0.000000  -0.032227   0.376961   0.497531  -0.020342
    36  H    0.000000   0.000000  -0.036780   0.381102  -0.020342   0.521481
    37  H    0.000000   0.000000  -0.046119   0.373159  -0.030585  -0.037420
    38  C    0.000000   0.000000   0.266715  -0.049478   0.004520  -0.002844
    39  H    0.000000   0.000000  -0.045398  -0.002156  -0.000176  -0.001683
    40  H    0.000000   0.000000  -0.033522  -0.003677   0.000022   0.004968
    41  H    0.000000   0.000000  -0.032367   0.004525  -0.000190   0.000063
              37         38         39         40         41
     1  S   -0.003659  -0.011525  -0.008657   0.003121  -0.002473
     2  N   -0.000074  -0.009302  -0.000183  -0.000010   0.011847
     3  C   -0.000008   0.000482  -0.000028   0.000004  -0.000088
     4  C   -0.000021  -0.000028  -0.000027   0.000123  -0.000018
     5  S    0.000000   0.000058   0.000013   0.000015   0.001277
     6  C    0.000000   0.000050  -0.000001   0.000002  -0.000071
     7  O    0.000000   0.000200   0.000034   0.000163   0.003185
     8  O    0.000000   0.000000   0.000000   0.000000   0.000002
     9  C    0.000000  -0.000005   0.000000   0.000000   0.000020
    10  C    0.000000   0.000000   0.000000   0.000000   0.000000
    11  C    0.000000   0.000000   0.000000   0.000000   0.000000
    12  C    0.000000   0.000000   0.000000   0.000000   0.000000
    13  C    0.000000   0.000000   0.000000   0.000000   0.000000
    14  C    0.000000   0.000000   0.000000   0.000000   0.000000
    15  C    0.000000   0.000000   0.000000   0.000000   0.000000
    16  C    0.000000   0.000000   0.000000   0.000000   0.000000
    17  O   -0.000525   0.001606  -0.000038  -0.000050   0.000026
    18  O    0.002600   0.001733   0.005504   0.000029  -0.001634
    19  H    0.000007  -0.000223   0.000070   0.000000  -0.000451
    20  H    0.000000   0.000000   0.000000  -0.000001   0.000001
    21  H    0.000128  -0.000782   0.000117  -0.000305  -0.000366
    22  H    0.000000  -0.000001   0.000000   0.000000   0.000003
    23  H    0.000000  -0.000017   0.000000  -0.000001   0.000073
    24  H    0.000000   0.000000   0.000000   0.000000  -0.000001
    25  H    0.000000  -0.000003   0.000000   0.000000   0.000001
    26  H    0.000000   0.000000   0.000000   0.000000   0.000000
    27  H    0.000000   0.000000   0.000000   0.000000   0.000000
    28  H    0.000000   0.000000   0.000000   0.000000   0.000000
    29  H    0.000000   0.000000   0.000000   0.000000   0.000000
    30  H    0.000000   0.000000   0.000000   0.000000   0.000000
    31  H    0.000000   0.000000   0.000000   0.000000   0.000000
    32  H    0.000000   0.000000   0.000000   0.000000   0.000000
    33  N   -0.046119   0.266715  -0.045398  -0.033522  -0.032367
    34  C    0.373159  -0.049478  -0.002156  -0.003677   0.004525
    35  H   -0.030585   0.004520  -0.000176   0.000022  -0.000190
    36  H   -0.037420  -0.002844  -0.001683   0.004968   0.000063
    37  H    0.566376  -0.002136   0.008158  -0.001323  -0.000195
    38  C   -0.002136   5.002623   0.372089   0.378244   0.373278
    39  H    0.008158   0.372089   0.567147  -0.034646  -0.029947
    40  H   -0.001323   0.378244  -0.034646   0.522437  -0.021587
    41  H   -0.000195   0.373278  -0.029947  -0.021587   0.497108
 Mulliken charges:
               1
     1  S    1.337395
     2  N   -0.733953
     3  C    0.156782
     4  C   -0.506428
     5  S    1.116300
     6  C   -0.490665
     7  O   -0.561958
     8  O   -0.559890
     9  C   -0.279453
    10  C   -0.383166
    11  C    0.159716
    12  C   -0.195936
    13  C   -0.149788
    14  C   -0.150734
    15  C   -0.149553
    16  C   -0.195358
    17  O   -0.577069
    18  O   -0.565668
    19  H    0.412681
    20  H    0.231024
    21  H    0.255897
    22  H    0.231626
    23  H    0.239392
    24  H    0.166704
    25  H    0.189307
    26  H    0.167927
    27  H    0.164217
    28  H    0.144750
    29  H    0.149942
    30  H    0.148969
    31  H    0.149940
    32  H    0.145596
    33  N   -0.528344
    34  C   -0.327434
    35  H    0.197706
    36  H    0.189356
    37  H    0.171641
    38  C   -0.325254
    39  H    0.169809
    40  H    0.185993
    41  H    0.197982
 Sum of Mulliken charges =   0.00000
 Mulliken charges with hydrogens summed into heavy atoms:
               1
     1  S    1.337395
     2  N   -0.321272
     3  C    0.156782
     4  C   -0.019507
     5  S    1.116300
     6  C   -0.019647
     7  O   -0.561958
     8  O   -0.559890
     9  C    0.076557
    10  C   -0.051021
    11  C    0.159716
    12  C   -0.051186
    13  C    0.000154
    14  C   -0.001765
    15  C    0.000387
    16  C   -0.049762
    17  O   -0.577069
    18  O   -0.565668
    33  N   -0.528344
    34  C    0.231268
    38  C    0.228530
 Electronic spatial extent (au):  <R**2>=           8733.7623
 Charge=              0.0000 electrons
 Dipole moment (field-independent basis, Debye):
    X=              1.7646    Y=             -1.3006    Z=             -1.2620  Tot=              2.5294
 Quadrupole moment (field-independent basis, Debye-Ang):
   XX=           -129.2926   YY=           -172.1364   ZZ=           -127.8425
   XY=             11.6057   XZ=             -8.0141   YZ=            -15.3208
 Traceless Quadrupole moment (field-independent basis, Debye-Ang):
   XX=             13.7979   YY=            -29.0459   ZZ=             15.2480
   XY=             11.6057   XZ=             -8.0141   YZ=            -15.3208
 Octapole moment (field-independent basis, Debye-Ang**2):
  XXX=            -45.2094  YYY=            -56.0816  ZZZ=             -4.9019  XYY=             38.0222
  XXY=            -77.5269  XXZ=              9.7316  XZZ=            -12.0890  YZZ=              9.1285
  YYZ=             -7.3360  XYZ=              9.4721
 Hexadecapole moment (field-independent basis, Debye-Ang**3):
 XXXX=          -7363.1234 YYYY=          -3185.5246 ZZZZ=           -725.1690 XXXY=             23.5751
 XXXZ=           -199.6400 YYYX=            120.0529 YYYZ=           -154.5397 ZZZX=            -16.0041
 ZZZY=            -28.5697 XXYY=          -1858.9894 XXZZ=          -1390.3000 YYZZ=           -596.2322
 XXYZ=           -122.0537 YYXZ=            -23.4920 ZZXY=            -15.1707
 N-N= 2.155564135775D+03 E-N=-8.336947362717D+03  KE= 1.702498720056D+03
 No NMR shielding tensors so no spin-rotation constants.
 Leave Link  601 at Mon Sep 21 21:06:10 2020, MaxMem=    33554432 cpu:         0.3
 (Enter /prod/apps/gaussian/g09d1/l9999.exe)
 1\1\GINC-PIRINEUS30\SP\RB3LYP\6-31G(d)\C13H20N2O4S2\UBAFAR01\21-Sep-20
 20\0\\#p b3lyp/6-31G(d) scrf=(iefpcm,read,solvent=Water) geom=allcheck
  guess=read\\SM40_38o.n.2.pdb.xyz\\0,1\S,0,-1.784,-2.69,-0.438\N,0,-1.
 522,-1.263,-1.275\C,0,-0.828,-0.102,-0.662\C,0,-1.605,0.376,0.608\S,0,
 -2.395,1.703,-0.361\C,0,-1.156,1.131,-1.571\O,0,-3.774,1.359,-0.764\O,
 0,-2.141,3.061,0.159\C,0,0.679,-0.372,-0.48\C,0,1.51,0.767,0.141\C,0,2
 .978,0.406,0.215\C,0,3.847,0.723,-0.837\C,0,5.196,0.367,-0.785\C,0,5.6
 98,-0.315,0.326\C,0,4.842,-0.635,1.382\C,0,3.494,-0.277,1.325\O,0,-0.8
 5,-2.877,0.681\O,0,-1.855,-3.73,-1.477\H,0,-1.139,-1.501,-2.194\H,0,-0
 .968,0.807,1.379\H,0,-2.317,-0.333,1.027\H,0,-0.344,1.853,-1.641\H,0,-
 1.567,0.907,-2.553\H,0,1.087,-0.612,-1.468\H,0,0.78,-1.27,0.134\H,0,1.
 142,0.986,1.149\H,0,1.396,1.682,-0.449\H,0,3.463,1.259,-1.701\H,0,5.85
 4,0.626,-1.608\H,0,6.746,-0.59,0.37\H,0,5.224,-1.16,2.252\H,0,2.835,-0
 .524,2.152\N,0,-3.278,-2.37,0.267\C,0,-3.602,-3.25,1.405\H,0,-2.763,-3
 .269,2.099\H,0,-4.47,-2.818,1.905\H,0,-3.845,-4.271,1.089\C,0,-4.383,-
 2.227,-0.694\H,0,-4.673,-3.186,-1.137\H,0,-5.233,-1.812,-0.15\H,0,-4.0
 92,-1.529,-1.477\\Version=AM64L-G09RevD.01\State=1-A\HF=-1714.0668938\
 RMSD=6.629e-09\Dipole=0.8176964,-0.4104589,-0.3914298\Quadrupole=6.398
 8358,-19.1282321,12.7293963,14.4821362,-5.5766354,-8.0298728\PG=C01 [X
 (C13H20N2O4S2)]\\@


 ALL THINGS ARE POSSIBLE EXCEPT SKIING THROUGH A REVOLVING DOOR.
 Job cpu time:       0 days  0 hours  4 minutes 42.7 seconds.
 File lengths (MBytes):  RWF=    274 Int=      0 D2E=      0 Chk=      7 Scr=      1
 Normal termination of Gaussian 09 at Mon Sep 21 21:06:10 2020.
