 Entering Gaussian System, Link 0=g09
 Initial command:
 /prod/apps/gaussian/g09d1/l1.exe "/tmp/ubafar01/1460308/Gau-53418.inp" -scrdir="/tmp/ubafar01/1460308/"
 Entering Link 1 = /prod/apps/gaussian/g09d1/l1.exe PID=     53425.
  
 Copyright (c) 1988,1990,1992,1993,1995,1998,2003,2009,2013,
            Gaussian, Inc.  All Rights Reserved.
  
 This is part of the Gaussian(R) 09 program.  It is based on
 the Gaussian(R) 03 system (copyright 2003, Gaussian, Inc.),
 the Gaussian(R) 98 system (copyright 1998, Gaussian, Inc.),
 the Gaussian(R) 94 system (copyright 1995, Gaussian, Inc.),
 the Gaussian 92(TM) system (copyright 1992, Gaussian, Inc.),
 the Gaussian 90(TM) system (copyright 1990, Gaussian, Inc.),
 the Gaussian 88(TM) system (copyright 1988, Gaussian, Inc.),
 the Gaussian 86(TM) system (copyright 1986, Carnegie Mellon
 University), and the Gaussian 82(TM) system (copyright 1983,
 Carnegie Mellon University). Gaussian is a federally registered
 trademark of Gaussian, Inc.
  
 This software contains proprietary and confidential information,
 including trade secrets, belonging to Gaussian, Inc.
  
 This software is provided under written license and may be
 used, copied, transmitted, or stored only in accord with that
 written license.
  
 The following legend is applicable only to US Government
 contracts under FAR:
  
                    RESTRICTED RIGHTS LEGEND
  
 Use, reproduction and disclosure by the US Government is
 subject to restrictions as set forth in subparagraphs (a)
 and (c) of the Commercial Computer Software - Restricted
 Rights clause in FAR 52.227-19.
  
 Gaussian, Inc.
 340 Quinnipiac St., Bldg. 40, Wallingford CT 06492
  
  
 ---------------------------------------------------------------
 Warning -- This program may not be used in any manner that
 competes with the business of Gaussian, Inc. or will provide
 assistance to any competitor of Gaussian, Inc.  The licensee
 of this program is prohibited from giving any competitor of
 Gaussian, Inc. access to this program.  By using this program,
 the user acknowledges that Gaussian, Inc. is engaged in the
 business of creating and licensing software in the field of
 computational chemistry and represents and warrants to the
 licensee that it is not a competitor of Gaussian, Inc. and that
 it will not use this program in any manner prohibited above.
 ---------------------------------------------------------------
  

 Cite this work as:
 Gaussian 09, Revision D.01,
 M. J. Frisch, G. W. Trucks, H. B. Schlegel, G. E. Scuseria, 
 M. A. Robb, J. R. Cheeseman, G. Scalmani, V. Barone, B. Mennucci, 
 G. A. Petersson, H. Nakatsuji, M. Caricato, X. Li, H. P. Hratchian, 
 A. F. Izmaylov, J. Bloino, G. Zheng, J. L. Sonnenberg, M. Hada, 
 M. Ehara, K. Toyota, R. Fukuda, J. Hasegawa, M. Ishida, T. Nakajima, 
 Y. Honda, O. Kitao, H. Nakai, T. Vreven, J. A. Montgomery, Jr., 
 J. E. Peralta, F. Ogliaro, M. Bearpark, J. J. Heyd, E. Brothers, 
 K. N. Kudin, V. N. Staroverov, T. Keith, R. Kobayashi, J. Normand, 
 K. Raghavachari, A. Rendell, J. C. Burant, S. S. Iyengar, J. Tomasi, 
 M. Cossi, N. Rega, J. M. Millam, M. Klene, J. E. Knox, J. B. Cross, 
 V. Bakken, C. Adamo, J. Jaramillo, R. Gomperts, R. E. Stratmann, 
 O. Yazyev, A. J. Austin, R. Cammi, C. Pomelli, J. W. Ochterski, 
 R. L. Martin, K. Morokuma, V. G. Zakrzewski, G. A. Voth, 
 P. Salvador, J. J. Dannenberg, S. Dapprich, A. D. Daniels, 
 O. Farkas, J. B. Foresman, J. V. Ortiz, J. Cioslowski, 
 and D. J. Fox, Gaussian, Inc., Wallingford CT, 2013.
 
 ******************************************
 Gaussian 09:  AM64L-G09RevD.01 24-Apr-2013
                21-Sep-2020 
 ******************************************
 %nproc=1
 Will use up to    1 processors via shared memory.
 %Chk=SM40_38o.n.2.pdb.xyz.mst.n.o.chk
 -----------------
 #p b3lyp/6-31G(d)
 -----------------
 1/38=1/1;
 2/12=2,17=6,18=5,40=1/2;
 3/5=1,6=6,7=1,11=2,16=1,25=1,30=1,74=-5/1,2,3;
 4//1;
 5/5=2,38=5/2;
 6/7=2,8=2,9=2,10=2,28=1/1;
 99/5=1,9=1/99;
 Leave Link    1 at Mon Sep 21 20:55:01 2020, MaxMem=           0 cpu:         0.0
 (Enter /prod/apps/gaussian/g09d1/l101.exe)
 --------------------
 SM40_38o.n.2.pdb.xyz
 --------------------
 Symbolic Z-matrix:
 Charge =  0 Multiplicity = 1
 S                    -1.775    -2.699    -0.467 
 N                    -1.531    -1.252    -1.288 
 C                    -0.832    -0.099    -0.671 
 C                    -1.602     0.359     0.609 
 S                    -2.41      1.697    -0.336 
 C                    -1.169     1.144    -1.56 
 O                    -3.781     1.343    -0.74 
 O                    -2.141     3.04      0.2 
 C                     0.676    -0.367    -0.494 
 C                     1.507     0.779     0.111 
 C                     2.972     0.414     0.21 
 C                     3.867     0.776    -0.803 
 C                     5.213     0.416    -0.731 
 C                     5.684    -0.315     0.361 
 C                     4.801    -0.68      1.378 
 C                     3.457    -0.318     1.302 
 O                    -0.82     -2.888     0.63 
 O                    -1.871    -3.709    -1.527 
 H                    -1.181    -1.479    -2.22 
 H                    -0.96      0.782     1.38 
 H                    -2.304    -0.365     1.022 
 H                    -0.36      1.871    -1.624 
 H                    -1.584     0.93     -2.543 
 H                     1.084    -0.617    -1.48 
 H                     0.778    -1.262     0.125 
 H                     1.126     1.027     1.108 
 H                     1.406     1.682    -0.5 
 H                     3.505     1.35     -1.651 
 H                     5.893     0.709    -1.524 
 H                     6.731    -0.594     0.42 
 H                     5.16     -1.243     2.233 
 H                     2.777    -0.601     2.1 
 N                    -3.256    -2.382     0.273 
 C                    -3.567    -3.309     1.375 
 H                    -2.709    -3.381     2.039 
 H                    -4.411    -2.885     1.922 
 H                    -3.843    -4.308     1.017 
 C                    -4.372    -2.184    -0.664 
 H                    -4.653    -3.111    -1.177 
 H                    -5.221    -1.824    -0.08 
 H                    -4.1      -1.419    -1.389 
 
 NAtoms=     41 NQM=       41 NQMF=       0 NMMI=      0 NMMIF=      0
                NMic=       0 NMicF=      0.
                    Isotopes and Nuclear Properties:
 (Nuclear quadrupole moments (NQMom) in fm**2, nuclear magnetic moments (NMagM)
  in nuclear magnetons)

  Atom         1           2           3           4           5           6           7           8           9          10
 IAtWgt=          32          14          12          12          32          12          16          16          12          12
 AtmWgt=  31.9720718  14.0030740  12.0000000  12.0000000  31.9720718  12.0000000  15.9949146  15.9949146  12.0000000  12.0000000
 NucSpn=           0           2           0           0           0           0           0           0           0           0
 AtZEff=   0.0000000   0.0000000   0.0000000   0.0000000   0.0000000   0.0000000   0.0000000   0.0000000   0.0000000   0.0000000
 NQMom=    0.0000000   2.0440000   0.0000000   0.0000000   0.0000000   0.0000000   0.0000000   0.0000000   0.0000000   0.0000000
 NMagM=    0.0000000   0.4037610   0.0000000   0.0000000   0.0000000   0.0000000   0.0000000   0.0000000   0.0000000   0.0000000
 AtZNuc=  16.0000000   7.0000000   6.0000000   6.0000000  16.0000000   6.0000000   8.0000000   8.0000000   6.0000000   6.0000000

  Atom        11          12          13          14          15          16          17          18          19          20
 IAtWgt=          12          12          12          12          12          12          16          16           1           1
 AtmWgt=  12.0000000  12.0000000  12.0000000  12.0000000  12.0000000  12.0000000  15.9949146  15.9949146   1.0078250   1.0078250
 NucSpn=           0           0           0           0           0           0           0           0           1           1
 AtZEff=   0.0000000   0.0000000   0.0000000   0.0000000   0.0000000   0.0000000   0.0000000   0.0000000   0.0000000   0.0000000
 NQMom=    0.0000000   0.0000000   0.0000000   0.0000000   0.0000000   0.0000000   0.0000000   0.0000000   0.0000000   0.0000000
 NMagM=    0.0000000   0.0000000   0.0000000   0.0000000   0.0000000   0.0000000   0.0000000   0.0000000   2.7928460   2.7928460
 AtZNuc=   6.0000000   6.0000000   6.0000000   6.0000000   6.0000000   6.0000000   8.0000000   8.0000000   1.0000000   1.0000000

  Atom        21          22          23          24          25          26          27          28          29          30
 IAtWgt=           1           1           1           1           1           1           1           1           1           1
 AtmWgt=   1.0078250   1.0078250   1.0078250   1.0078250   1.0078250   1.0078250   1.0078250   1.0078250   1.0078250   1.0078250
 NucSpn=           1           1           1           1           1           1           1           1           1           1
 AtZEff=   0.0000000   0.0000000   0.0000000   0.0000000   0.0000000   0.0000000   0.0000000   0.0000000   0.0000000   0.0000000
 NQMom=    0.0000000   0.0000000   0.0000000   0.0000000   0.0000000   0.0000000   0.0000000   0.0000000   0.0000000   0.0000000
 NMagM=    2.7928460   2.7928460   2.7928460   2.7928460   2.7928460   2.7928460   2.7928460   2.7928460   2.7928460   2.7928460
 AtZNuc=   1.0000000   1.0000000   1.0000000   1.0000000   1.0000000   1.0000000   1.0000000   1.0000000   1.0000000   1.0000000

  Atom        31          32          33          34          35          36          37          38          39          40
 IAtWgt=           1           1          14          12           1           1           1          12           1           1
 AtmWgt=   1.0078250   1.0078250  14.0030740  12.0000000   1.0078250   1.0078250   1.0078250  12.0000000   1.0078250   1.0078250
 NucSpn=           1           1           2           0           1           1           1           0           1           1
 AtZEff=   0.0000000   0.0000000   0.0000000   0.0000000   0.0000000   0.0000000   0.0000000   0.0000000   0.0000000   0.0000000
 NQMom=    0.0000000   0.0000000   2.0440000   0.0000000   0.0000000   0.0000000   0.0000000   0.0000000   0.0000000   0.0000000
 NMagM=    2.7928460   2.7928460   0.4037610   0.0000000   2.7928460   2.7928460   2.7928460   0.0000000   2.7928460   2.7928460
 AtZNuc=   1.0000000   1.0000000   7.0000000   6.0000000   1.0000000   1.0000000   1.0000000   6.0000000   1.0000000   1.0000000

  Atom        41
 IAtWgt=           1
 AtmWgt=   1.0078250
 NucSpn=           1
 AtZEff=   0.0000000
 NQMom=    0.0000000
 NMagM=    2.7928460
 AtZNuc=   1.0000000
 Leave Link  101 at Mon Sep 21 20:55:01 2020, MaxMem=    33554432 cpu:         0.1
 (Enter /prod/apps/gaussian/g09d1/l202.exe)
                          Input orientation:                          
 ---------------------------------------------------------------------
 Center     Atomic      Atomic             Coordinates (Angstroms)
 Number     Number       Type             X           Y           Z
 ---------------------------------------------------------------------
      1         16           0       -1.775000   -2.699000   -0.467000
      2          7           0       -1.531000   -1.252000   -1.288000
      3          6           0       -0.832000   -0.099000   -0.671000
      4          6           0       -1.602000    0.359000    0.609000
      5         16           0       -2.410000    1.697000   -0.336000
      6          6           0       -1.169000    1.144000   -1.560000
      7          8           0       -3.781000    1.343000   -0.740000
      8          8           0       -2.141000    3.040000    0.200000
      9          6           0        0.676000   -0.367000   -0.494000
     10          6           0        1.507000    0.779000    0.111000
     11          6           0        2.972000    0.414000    0.210000
     12          6           0        3.867000    0.776000   -0.803000
     13          6           0        5.213000    0.416000   -0.731000
     14          6           0        5.684000   -0.315000    0.361000
     15          6           0        4.801000   -0.680000    1.378000
     16          6           0        3.457000   -0.318000    1.302000
     17          8           0       -0.820000   -2.888000    0.630000
     18          8           0       -1.871000   -3.709000   -1.527000
     19          1           0       -1.181000   -1.479000   -2.220000
     20          1           0       -0.960000    0.782000    1.380000
     21          1           0       -2.304000   -0.365000    1.022000
     22          1           0       -0.360000    1.871000   -1.624000
     23          1           0       -1.584000    0.930000   -2.543000
     24          1           0        1.084000   -0.617000   -1.480000
     25          1           0        0.778000   -1.262000    0.125000
     26          1           0        1.126000    1.027000    1.108000
     27          1           0        1.406000    1.682000   -0.500000
     28          1           0        3.505000    1.350000   -1.651000
     29          1           0        5.893000    0.709000   -1.524000
     30          1           0        6.731000   -0.594000    0.420000
     31          1           0        5.160000   -1.243000    2.233000
     32          1           0        2.777000   -0.601000    2.100000
     33          7           0       -3.256000   -2.382000    0.273000
     34          6           0       -3.567000   -3.309000    1.375000
     35          1           0       -2.709000   -3.381000    2.039000
     36          1           0       -4.411000   -2.885000    1.922000
     37          1           0       -3.843000   -4.308000    1.017000
     38          6           0       -4.372000   -2.184000   -0.664000
     39          1           0       -4.653000   -3.111000   -1.177000
     40          1           0       -5.221000   -1.824000   -0.080000
     41          1           0       -4.100000   -1.419000   -1.389000
 ---------------------------------------------------------------------
                    Distance matrix (angstroms):
                    1          2          3          4          5
     1  S    0.000000
     2  N    1.681483   0.000000
     3  C    2.773241   1.482801   0.000000
     4  C    3.246393   2.489773   1.562390   0.000000
     5  S    4.443557   3.221109   2.414110   1.826508   0.000000
     6  C    4.041106   2.438410   1.564909   2.346971   1.828679
     7  O    4.520656   3.478050   3.283402   2.745195   1.472472
     8  O    5.789211   4.583395   3.510761   2.765061   1.470818
     9  C    3.383246   2.506892   1.541823   2.633053   3.715973
    10  C    4.816855   3.913005   2.617886   3.176521   4.047891
    11  C    5.716914   5.029569   3.938241   4.591699   5.559688
    12  C    6.634809   5.786745   4.781595   5.663709   6.361372
    13  C    7.655395   6.969506   6.067195   6.945723   7.739969
    14  C    7.874371   7.460120   6.600753   7.321310   8.369396
    15  C    7.122090   6.894125   6.022180   6.532174   7.783730
    16  C    6.014345   5.697420   4.726120   5.150928   6.415992
    17  O    1.466682   2.619302   3.077542   3.339906   4.948079
    18  O    1.467282   2.491901   3.852838   4.602552   5.561820
    19  H    2.216810   1.021104   2.103711   3.399813   3.891898
    20  H    4.024052   3.403149   2.235877   1.088822   2.425774
    21  H    2.818602   2.592373   2.259157   1.089747   2.471284
    22  H    4.921969   3.352203   2.238726   2.969006   2.427287
    23  H    4.185200   2.517729   2.264670   3.203353   2.478188
    24  H    3.678964   2.697835   2.143329   3.539928   4.344119
    25  H    2.988853   2.707056   2.139693   2.919982   4.373962
    26  H    4.977901   4.241970   2.875149   2.852579   3.877800
    27  H    5.414149   4.225550   2.865283   3.468180   3.819552
    28  H    6.758303   5.680094   4.676491   5.671960   6.069338
    29  H    8.457537   7.682252   6.826866   7.800462   8.445549
    30  H    8.807374   8.462321   7.657302   8.389447   9.453999
    31  H    7.583150   7.560886   6.756184   7.136415   8.517527
    32  H    5.631323   5.519167   4.577699   4.724439   6.174129
    33  N    1.685660   2.586358   3.461069   3.218958   4.210088
    34  C    2.641274   3.932952   4.687264   4.231100   5.415368
    35  H    2.759985   4.121802   4.651747   4.154269   5.613921
    36  H    3.562361   4.611419   5.224432   4.487537   5.486100
    37  H    3.011272   4.471857   5.443450   5.193210   6.320136
    38  C    2.654890   3.054387   4.108391   3.969922   4.361100
    39  H    2.992779   3.635256   4.891648   4.953715   5.371703
    40  H    3.576354   3.924608   4.752707   4.282216   4.512726
    41  H    2.809646   2.576403   3.596908   3.659685   3.697887
                    6          7          8          9         10
     6  C    0.000000
     7  O    2.744913   0.000000
     8  O    2.763548   2.540277   0.000000
     9  C    2.612183   4.780111   4.474905   0.000000
    10  C    3.175916   5.385651   4.292778   1.539449   0.000000
    11  C    4.562201   6.882481   5.747934   2.525310   1.513027
    12  C    5.105856   7.669248   6.498290   3.403588   2.530811
    13  C    6.476662   9.041651   7.863425   4.610166   3.817744
    14  C    7.265159   9.671990   8.515431   5.080728   4.325120
    15  C    6.899255   9.068030   7.963507   4.540702   3.818954
    16  C    5.632794   7.701774   6.620285   3.310888   2.534638
    17  O    4.601622   5.342825   6.088606   3.139559   4.373920
    18  O    4.903621   5.458037   6.971688   4.327038   5.851160
    19  H    2.704787   4.112674   5.215301   2.768405   4.213961
    20  H    2.969566   3.573117   2.808153   2.740178   2.774249
    21  H    3.198754   2.864164   3.506605   3.343450   4.081958
    22  H    1.089544   3.572601   2.804550   2.712718   2.772792
    23  H    1.088260   2.871966   3.505196   3.314847   4.076861
    24  H    2.860687   5.296926   5.157196   1.095974   2.158478
    25  H    3.524042   5.321535   5.199364   1.092973   2.167330
    26  H    3.521213   5.252962   3.943339   2.170746   1.095753
    27  H    2.836136   5.203604   3.862043   2.175164   1.094957
    28  H    4.679422   7.342736   6.177347   3.505707   2.724461
    29  H    7.075476   9.726402   8.541129   5.425474   4.681359
    30  H    8.327727  10.751731   9.589929   6.127801   5.410248
    31  H    7.755054   9.770753   8.705273   5.320729   4.683565
    32  H    5.657874   7.406220   6.407309   3.346310   2.733756
    33  N    4.488667   3.895821   5.535941   4.484321   5.718770
    34  C    5.847550   5.114697   6.612405   5.491045   6.637388
    35  H    5.983312   5.584640   6.703267   5.192159   6.228759
    36  H    6.234399   5.035785   6.574482   6.168869   7.192172
    37  H    6.596629   5.918166   7.586659   6.183524   7.437802
    38  C    4.705062   3.576980   5.745784   5.367746   6.628924
    39  H    5.512710   4.559547   6.785357   6.032766   7.398422
    40  H    5.236232   3.541058   5.763965   6.088420   7.216514
    41  H    3.897303   2.855102   5.123015   4.971710   6.206420
                   11         12         13         14         15
    11  C    0.000000
    12  C    1.399371   0.000000
    13  C    2.430548   1.395170   0.000000
    14  C    2.812328   2.417988   1.395946   0.000000
    15  C    2.430288   2.783712   2.412227   1.395422   0.000000
    16  C    1.401254   2.407480   2.784848   2.417647   1.393971
    17  O    5.045678   6.119343   7.011835   6.999622   6.085262
    18  O    6.593250   7.318746   8.236036   8.494810   7.882224
    19  H    5.170663   5.707470   6.833109   7.425947   7.026260
    20  H    4.118853   5.297684   6.534233   6.810617   5.943616
    21  H    5.394660   6.535575   7.758109   8.015458   7.120884
    22  H    4.072914   4.443039   5.828619   6.726720   6.492729
    23  H    5.348121   5.724047   7.053138   7.925091   7.663848
    24  H    2.735618   3.184944   4.321658   4.963918   4.689160
    25  H    2.762216   3.815305   4.818469   5.002134   4.253618
    26  H    2.142403   3.350821   4.523142   4.809817   4.061080
    27  H    2.136418   2.639918   4.018627   4.799022   4.542241
    28  H    2.150234   1.086105   2.153142   3.401237   3.869801
    29  H    3.409695   2.151512   1.084941   2.155338   3.397556
    30  H    3.897466   3.402224   2.156206   1.085141   2.156400
    31  H    3.409622   3.868528   3.397114   2.154099   1.084839
    32  H    2.154147   3.392880   3.870781   3.399495   2.150372
    33  N    6.827120   7.865613   8.975566   9.176265   8.308615
    34  C    7.614228   8.757583   9.767255   9.776156   8.771264
    35  H    7.072554   8.282596   9.211308   9.091671   8.008272
    36  H    8.265775   9.452715  10.514580  10.533311   9.487829
    37  H    8.330232   9.412946  10.362568  10.350754   9.381441
    38  C    7.838866   8.755686   9.931602  10.279442   9.517127
    39  H    8.514107   9.372249  10.486973  10.818347  10.090387
    40  H    8.498117   9.480215  10.691574  11.017740  10.191908
    41  H    7.478628   8.284595   9.514839  10.000399   9.350412
                   16         17         18         19         20
    16  C    0.000000
    17  O    5.034800   0.000000
    18  O    6.920239   2.535999   0.000000
    19  H    5.938304   3.199703   2.435005   0.000000
    20  H    4.552579   3.748466   5.426753   4.256872   0.000000
    21  H    5.767992   2.953210   4.226964   3.607310   1.802806
    22  H    5.284192   5.285849   5.781776   3.500251   3.251144
    23  H    6.461672   5.022823   4.757620   2.463741   3.975073
    24  H    3.668795   3.637961   4.277230   2.533943   3.783482
    25  H    3.074655   2.335060   3.966625   3.063298   2.962027
    26  H    2.698189   4.398025   6.193136   4.762129   2.117877
    27  H    3.384347   5.207387   6.391896   4.432030   3.153150
    28  H    3.391863   6.470644   7.383105   5.503235   5.426399
    29  H    3.869768   7.914701   8.932997   7.437287   7.443262
    30  H    3.401937   7.894564   9.353525   8.387644   7.871878
    31  H    2.150022   6.405937   8.345880   7.751979   6.502510
    32  H    1.085953   4.508844   6.664735   5.924445   4.049229
    33  N    7.098120   2.513480   2.630428   3.366910   4.062999
    34  C    7.634657   2.877199   3.384970   4.686782   4.851057
    35  H    6.924211   2.407624   3.677796   4.908306   4.563316
    36  H    8.299356   3.816353   4.361901   5.437453   5.064588
    37  H    8.324141   3.362246   3.274068   5.056447   5.861020
    38  C    8.284947   3.845355   3.053751   3.619481   4.961536
    39  H    8.928516   4.243450   2.866989   3.975683   5.944068
    40  H    8.915472   4.583121   4.107254   4.584782   5.203745
    41  H    8.097032   4.122223   3.198685   3.035576   4.729837
                   21         22         23         24         25
    21  H    0.000000
    22  H    3.972423   0.000000
    23  H    3.860654   1.796724   0.000000
    24  H    4.219248   2.880281   3.262116   0.000000
    25  H    3.332858   3.764271   4.183555   1.756612   0.000000
    26  H    3.702696   3.222477   4.547891   3.066308   2.515336
    27  H    4.502310   2.101869   3.698574   2.519818   3.074434
    28  H    6.620471   3.900051   5.183627   3.124031   4.172919
    29  H    8.650225   6.360837   7.549353   4.988656   5.724270
    30  H    9.057929   7.780517   8.957744   5.958115   5.997621
    31  H    7.612404   7.419154   8.544802   5.549056   4.862710
    32  H    5.199456   5.460744   6.551315   3.960165   2.886788
    33  N    2.352784   5.483925   4.657766   5.002383   4.189208
    34  C    3.222874   6.790526   6.103453   6.085203   4.963037
    35  H    3.208515   6.820475   6.391015   5.865996   4.506964
    36  H    3.405855   7.183610   6.517851   6.849267   5.726173
    37  H    4.232705   7.568765   6.724085   6.643329   5.606017
    38  C    3.229238   5.784528   4.582639   5.734918   5.291040
    39  H    4.230120   6.591660   5.254940   6.262988   5.883007
    40  H    3.442670   6.298117   5.184463   6.570379   6.028754
    41  H    3.185821   4.986675   3.630396   5.246460   5.109964
                   26         27         28         29         30
    26  H    0.000000
    27  H    1.758718   0.000000
    28  H    3.657328   2.416780   0.000000
    29  H    5.454616   4.704091   2.475794   0.000000
    30  H    5.875118   5.863634   4.298285   2.485797   0.000000
    31  H    4.763579   5.487935   4.954607   4.296818   2.485198
    32  H    2.521953   3.721791   4.290266   4.955697   4.296110
    33  N    5.614306   6.232806   7.958688   9.822815  10.146858
    34  C    6.395032   7.290846   8.993116  10.678957  10.692617
    35  H    5.916456   7.000980   8.637839  10.169438   9.975075
    36  H    6.828229   7.782099   9.662536  11.443958  11.473833
    37  H    7.291191   8.107613   9.650093  11.243517  11.223176
    38  C    6.608972   6.954001   8.689675  10.699499  11.268530
    39  H    7.465997   7.755170   9.310111  11.221895  11.767802
    40  H    7.058609   7.509032   9.417292  11.490092  12.025523
    41  H    6.287209   6.381423   8.097656  10.217958  11.011978
                   31         32         33         34         35
    31  H    0.000000
    32  H    2.471546   0.000000
    33  N    8.715961   6.550342   0.000000
    34  C    9.009165   6.935793   1.473246   0.000000
    35  H    8.156583   6.150473   2.101420   1.087310   0.000000
    36  H    9.715808   7.544248   2.075147   1.091477   1.776657
    37  H    9.587851   7.664146   2.146528   1.096513   1.785992
    38  C   10.006853   7.826480   1.470588   2.463975   3.391841
    39  H   10.555212   8.499631   2.141390   2.780522   3.767584
    40  H   10.651417   8.379507   2.072968   2.656683   3.636558
    41  H    9.944720   7.754700   2.098082   3.390558   4.187542
                   36         37         38         39         40
    36  H    0.000000
    37  H    1.779488   0.000000
    38  C    2.679612   2.759887   0.000000
    39  H    3.116639   2.627269   1.096111   0.000000
    40  H    2.406206   3.045086   1.091539   1.783929   0.000000
    41  H    3.634363   3.768449   1.088501   1.792656   1.770352
                   41
    41  H    0.000000
 Stoichiometry    C13H20N2O4S2
 Framework group  C1[X(C13H20N2O4S2)]
 Deg. of freedom   117
 Full point group                 C1      NOp   1
 Largest Abelian subgroup         C1      NOp   1
 Largest concise Abelian subgroup C1      NOp   1
                         Standard orientation:                         
 ---------------------------------------------------------------------
 Center     Atomic      Atomic             Coordinates (Angstroms)
 Number     Number       Type             X           Y           Z
 ---------------------------------------------------------------------
      1         16           0       -1.789347   -1.808619   -0.395415
      2          7           0       -1.307027   -0.354573   -1.088598
      3          6           0       -0.352785    0.563404   -0.421183
      4          6           0       -0.935181    1.016899    0.955850
      5         16           0       -1.510635    2.584007    0.214798
      6          6           0       -0.483785    1.939723   -1.154342
      7          8           0       -2.946777    2.551939   -0.108682
      8          8           0       -0.943021    3.780125    0.855440
      9          6           0        1.077418   -0.011952   -0.394662
     10          6           0        2.158527    0.874773    0.249407
     11          6           0        3.522323    0.222021    0.192610
     12          6           0        4.409292    0.513244   -0.849845
     13          6           0        5.656166   -0.108383   -0.923236
     14          6           0        6.034215   -1.034689    0.050264
     15          6           0        5.158607   -1.331625    1.095416
     16          6           0        3.913852   -0.707993    1.164871
     17          8           0       -0.828046   -2.301883    0.596426
     18          8           0       -2.151995   -2.655470   -1.537450
     19          1           0       -1.067265   -0.539892   -2.063700
     20          1           0       -0.175379    1.217504    1.709503
     21          1           0       -1.743160    0.402354    1.352150
     22          1           0        0.450456    2.497281   -1.212900
     23          1           0       -0.992147    1.922139   -2.116407
     24          1           0        1.365941   -0.224969   -1.430296
     25          1           0        1.033000   -0.973124    0.123763
     26          1           0        1.896650    1.079339    1.293556
     27          1           0        2.206026    1.842650   -0.260384
     28          1           0        4.120674    1.238014   -1.605511
     29          1           0        6.332297    0.132992   -1.736675
     30          1           0        7.004498   -1.517559   -0.003754
     31          1           0        5.446947   -2.045875    1.859342
     32          1           0        3.240051   -0.940184    1.984244
     33          7           0       -3.127848   -1.293313    0.490207
     34          6           0       -3.553236   -2.259026    1.518262
     35          1           0       -2.689162   -2.570941    2.099924
     36          1           0       -4.259116   -1.742261    2.170955
     37          1           0       -4.047185   -3.138498    1.088280
     38          6           0       -4.235016   -0.777733   -0.328930
     39          1           0       -4.728612   -1.568746   -0.905229
     40          1           0       -4.956526   -0.326487    0.354632
     41          1           0       -3.857829   -0.004400   -0.995653
 ---------------------------------------------------------------------
 Rotational constants (GHZ):      0.3766183      0.1561156      0.1230672
 Leave Link  202 at Mon Sep 21 20:55:01 2020, MaxMem=    33554432 cpu:         0.0
 (Enter /prod/apps/gaussian/g09d1/l301.exe)
 Standard basis: 6-31G(d) (6D, 7F)
 Ernie: Thresh=  0.10000D-02 Tol=  0.10000D-05 Strict=F.
 There are   363 symmetry adapted cartesian basis functions of A   symmetry.
 There are   363 symmetry adapted basis functions of A   symmetry.
   363 basis functions,   716 primitive gaussians,   363 cartesian basis functions
    88 alpha electrons       88 beta electrons
       nuclear repulsion energy      2157.8521357221 Hartrees.
 IExCor=  402 DFT=T Ex+Corr=B3LYP ExCW=0 ScaHFX=  0.200000
 ScaDFX=  0.800000  0.720000  1.000000  0.810000 ScalE2=  1.000000  1.000000
 IRadAn=      0 IRanWt=     -1 IRanGd=            0 ICorTp=0 IEmpDi=  4
 NAtoms=   41 NActive=   41 NUniq=   41 SFac= 1.00D+00 NAtFMM=   60 NAOKFM=F Big=F
 Integral buffers will be    131072 words long.
 Raffenetti 2 integral format.
 Two-electron integral symmetry is turned on.
 Leave Link  301 at Mon Sep 21 20:55:02 2020, MaxMem=    33554432 cpu:         0.0
 (Enter /prod/apps/gaussian/g09d1/l302.exe)
 NPDir=0 NMtPBC=     1 NCelOv=     1 NCel=       1 NClECP=     1 NCelD=      1
         NCelK=      1 NCelE2=     1 NClLst=     1 CellRange=     0.0.
 One-electron integrals computed using PRISM.
 NBasis=   363 RedAO= T EigKep=  4.64D-04  NBF=   363
 NBsUse=   363 1.00D-06 EigRej= -1.00D+00 NBFU=   363
 Precomputing XC quadrature grid using
 IXCGrd= 4 IRadAn=           0 IRanWt=          -1 IRanGd=           0 AccXCQ= 0.00D+00.
 Generated NRdTot=       0 NPtTot=           0 NUsed=           0 NTot=          32
 NSgBfM=   359   359   359   359   359 MxSgAt=    41 MxSgA2=    41.
 Leave Link  302 at Mon Sep 21 20:55:03 2020, MaxMem=    33554432 cpu:         1.3
 (Enter /prod/apps/gaussian/g09d1/l303.exe)
 DipDrv:  MaxL=1.
 Leave Link  303 at Mon Sep 21 20:55:03 2020, MaxMem=    33554432 cpu:         0.0
 (Enter /prod/apps/gaussian/g09d1/l401.exe)
 ExpMin= 1.17D-01 ExpMax= 2.19D+04 ExpMxC= 3.30D+03 IAcc=1 IRadAn=         1 AccDes= 0.00D+00
 Harris functional with IExCor=  402 and IRadAn=       1 diagonalized for initial guess.
 HarFok:  IExCor=  402 AccDes= 0.00D+00 IRadAn=         1 IDoV= 1 UseB2=F ITyADJ=14
 ICtDFT=  3500011 ScaDFX=  1.000000  1.000000  1.000000  1.000000
 FoFCou: FMM=F IPFlag=           0 FMFlag=      100000 FMFlg1=           0
         NFxFlg=           0 DoJE=T BraDBF=F KetDBF=T FulRan=T
         wScrn=  0.000000 ICntrl=     500 IOpCl=  0 I1Cent=   200000004 NGrid=           0
         NMat0=    1 NMatS0=      1 NMatT0=    0 NMatD0=    1 NMtDS0=    0 NMtDT0=    0
 Petite list used in FoFCou.
 Harris En= -1714.15054059004    
 JPrj=0 DoOrth=F DoCkMO=F.
 Leave Link  401 at Mon Sep 21 20:55:08 2020, MaxMem=    33554432 cpu:         4.6
 (Enter /prod/apps/gaussian/g09d1/l502.exe)
 Closed shell SCF:
 Using DIIS extrapolation, IDIIS=  1040.
 Integral symmetry usage will be decided dynamically.
 IVT=      418784 IEndB=      418784 NGot=    33554432 MDV=    33284421
 LenX=    33284421 LenY=    33152211
 Requested convergence on RMS density matrix=1.00D-08 within 128 cycles.
 Requested convergence on MAX density matrix=1.00D-06.
 Requested convergence on             energy=1.00D-06.
 No special actions if energy rises.
 Fock matrices will be formed incrementally for  20 cycles.
 Integral accuracy reduced to 1.0D-05 until final iterations.

 Cycle   1  Pass 0  IDiag  1:
 FoFJK:  IHMeth= 1 ICntrl=       0 DoSepK=F KAlg= 0 I1Cent=   0 FoldK=F
 IRaf= 730000000 NMat=   1 IRICut=       1 DoRegI=T DoRafI=F ISym2E= 0.
 FoFCou: FMM=F IPFlag=           0 FMFlag=      100000 FMFlg1=           0
         NFxFlg=           0 DoJE=F BraDBF=F KetDBF=F FulRan=T
         wScrn=  0.000000 ICntrl=       0 IOpCl=  0 I1Cent=           0 NGrid=           0
         NMat0=    1 NMatS0=      1 NMatT0=    0 NMatD0=    1 NMtDS0=    0 NMtDT0=    0
 Symmetry not used in FoFCou.
 E= -1713.19751271347    
 DIIS: error= 3.01D-02 at cycle   1 NSaved=   1.
 NSaved= 1 IEnMin= 1 EnMin= -1713.19751271347     IErMin= 1 ErrMin= 3.01D-02
 ErrMax= 3.01D-02  0.00D+00 EMaxC= 1.00D-01 BMatC= 9.93D-01 BMatP= 9.93D-01
 IDIUse=3 WtCom= 6.99D-01 WtEn= 3.01D-01
 Coeff-Com:  0.100D+01
 Coeff-En:   0.100D+01
 Coeff:      0.100D+01
 Gap=     0.360 Goal=   None    Shift=    0.000
 GapD=    0.360 DampG=1.000 DampE=0.500 DampFc=0.5000 IDamp=-1.
 Damping current iteration by 5.00D-01
 RMSDP=7.00D-03 MaxDP=6.02D-01              OVMax= 2.31D-01

 Cycle   2  Pass 0  IDiag  1:
 RMSU=  3.50D-03    CP:  9.99D-01
 E= -1713.37687305985     Delta-E=       -0.179360346383 Rises=F Damp=T
 DIIS: error= 1.46D-02 at cycle   2 NSaved=   2.
 NSaved= 2 IEnMin= 2 EnMin= -1713.37687305985     IErMin= 2 ErrMin= 1.46D-02
 ErrMax= 1.46D-02  0.00D+00 EMaxC= 1.00D-01 BMatC= 1.70D-01 BMatP= 9.93D-01
 IDIUse=3 WtCom= 8.54D-01 WtEn= 1.46D-01
 Coeff-Com:  0.250D+00 0.750D+00
 Coeff-En:   0.393D+00 0.607D+00
 Coeff:      0.270D+00 0.730D+00
 Gap=     0.293 Goal=   None    Shift=    0.000
 RMSDP=2.06D-03 MaxDP=1.30D-01 DE=-1.79D-01 OVMax= 2.05D-01

 Cycle   3  Pass 0  IDiag  1:
 RMSU=  1.64D-03    CP:  9.90D-01  6.46D-01
 E= -1713.94795210261     Delta-E=       -0.571079042756 Rises=F Damp=F
 DIIS: error= 9.35D-03 at cycle   3 NSaved=   3.
 NSaved= 3 IEnMin= 3 EnMin= -1713.94795210261     IErMin= 3 ErrMin= 9.35D-03
 ErrMax= 9.35D-03  0.00D+00 EMaxC= 1.00D-01 BMatC= 1.02D-01 BMatP= 1.70D-01
 IDIUse=3 WtCom= 9.07D-01 WtEn= 9.35D-02
 Coeff-Com:  0.102D+00 0.444D+00 0.454D+00
 Coeff-En:   0.000D+00 0.000D+00 0.100D+01
 Coeff:      0.927D-01 0.402D+00 0.505D+00
 Gap=     0.244 Goal=   None    Shift=    0.000
 RMSDP=1.27D-03 MaxDP=3.79D-02 DE=-5.71D-01 OVMax= 8.12D-02

 Cycle   4  Pass 0  IDiag  1:
 RMSU=  7.27D-04    CP:  9.95D-01  7.25D-01  3.91D-01
 E= -1714.03058374553     Delta-E=       -0.082631642918 Rises=F Damp=F
 DIIS: error= 3.80D-03 at cycle   4 NSaved=   4.
 NSaved= 4 IEnMin= 4 EnMin= -1714.03058374553     IErMin= 4 ErrMin= 3.80D-03
 ErrMax= 3.80D-03  0.00D+00 EMaxC= 1.00D-01 BMatC= 1.29D-02 BMatP= 1.02D-01
 IDIUse=3 WtCom= 9.62D-01 WtEn= 3.80D-02
 Coeff-Com:  0.986D-02 0.795D-01 0.276D+00 0.635D+00
 Coeff-En:   0.000D+00 0.000D+00 0.109D+00 0.891D+00
 Coeff:      0.949D-02 0.765D-01 0.269D+00 0.645D+00
 Gap=     0.240 Goal=   None    Shift=    0.000
 RMSDP=3.91D-04 MaxDP=1.52D-02 DE=-8.26D-02 OVMax= 2.18D-02

 Cycle   5  Pass 0  IDiag  1:
 RMSU=  1.75D-04    CP:  9.95D-01  7.11D-01  5.40D-01  6.60D-01
 E= -1714.04118009981     Delta-E=       -0.010596354288 Rises=F Damp=F
 DIIS: error= 1.00D-03 at cycle   5 NSaved=   5.
 NSaved= 5 IEnMin= 5 EnMin= -1714.04118009981     IErMin= 5 ErrMin= 1.00D-03
 ErrMax= 1.00D-03  0.00D+00 EMaxC= 1.00D-01 BMatC= 1.04D-03 BMatP= 1.29D-02
 IDIUse=3 WtCom= 9.90D-01 WtEn= 1.00D-02
 Coeff-Com: -0.109D-02 0.173D-01 0.115D+00 0.350D+00 0.518D+00
 Coeff-En:   0.000D+00 0.000D+00 0.000D+00 0.000D+00 0.100D+01
 Coeff:     -0.107D-02 0.171D-01 0.114D+00 0.347D+00 0.523D+00
 Gap=     0.240 Goal=   None    Shift=    0.000
 RMSDP=1.10D-04 MaxDP=6.84D-03 DE=-1.06D-02 OVMax= 5.84D-03

 Cycle   6  Pass 0  IDiag  1:
 RMSU=  5.76D-05    CP:  9.94D-01  7.14D-01  5.32D-01  7.16D-01  5.26D-01
 E= -1714.04198750457     Delta-E=       -0.000807404752 Rises=F Damp=F
 DIIS: error= 4.70D-04 at cycle   6 NSaved=   6.
 NSaved= 6 IEnMin= 6 EnMin= -1714.04198750457     IErMin= 6 ErrMin= 4.70D-04
 ErrMax= 4.70D-04  0.00D+00 EMaxC= 1.00D-01 BMatC= 1.36D-04 BMatP= 1.04D-03
 IDIUse=3 WtCom= 9.95D-01 WtEn= 4.70D-03
 Coeff-Com: -0.142D-02 0.405D-02 0.455D-01 0.153D+00 0.321D+00 0.478D+00
 Coeff-En:   0.000D+00 0.000D+00 0.000D+00 0.000D+00 0.472D-01 0.953D+00
 Coeff:     -0.142D-02 0.403D-02 0.453D-01 0.152D+00 0.320D+00 0.480D+00
 Gap=     0.240 Goal=   None    Shift=    0.000
 RMSDP=3.76D-05 MaxDP=2.18D-03 DE=-8.07D-04 OVMax= 3.16D-03

 Cycle   7  Pass 0  IDiag  1:
 RMSU=  2.46D-05    CP:  9.94D-01  7.14D-01  5.33D-01  7.17D-01  5.82D-01
                    CP:  5.38D-01
 E= -1714.04207849891     Delta-E=       -0.000090994346 Rises=F Damp=F
 DIIS: error= 1.88D-04 at cycle   7 NSaved=   7.
 NSaved= 7 IEnMin= 7 EnMin= -1714.04207849891     IErMin= 7 ErrMin= 1.88D-04
 ErrMax= 1.88D-04  0.00D+00 EMaxC= 1.00D-01 BMatC= 2.05D-05 BMatP= 1.36D-04
 IDIUse=3 WtCom= 9.98D-01 WtEn= 1.88D-03
 Coeff-Com: -0.798D-03 0.605D-04 0.127D-01 0.478D-01 0.137D+00 0.320D+00
 Coeff-Com:  0.483D+00
 Coeff-En:   0.000D+00 0.000D+00 0.000D+00 0.000D+00 0.000D+00 0.126D+00
 Coeff-En:   0.874D+00
 Coeff:     -0.797D-03 0.604D-04 0.127D-01 0.477D-01 0.137D+00 0.319D+00
 Coeff:      0.484D+00
 Gap=     0.240 Goal=   None    Shift=    0.000
 RMSDP=1.28D-05 MaxDP=6.88D-04 DE=-9.10D-05 OVMax= 1.01D-03

 Cycle   8  Pass 0  IDiag  1:
 RMSU=  5.81D-06    CP:  9.94D-01  7.14D-01  5.33D-01  7.17D-01  5.88D-01
                    CP:  6.09D-01  5.73D-01
 E= -1714.04209494609     Delta-E=       -0.000016447178 Rises=F Damp=F
 DIIS: error= 3.31D-05 at cycle   8 NSaved=   8.
 NSaved= 8 IEnMin= 8 EnMin= -1714.04209494609     IErMin= 8 ErrMin= 3.31D-05
 ErrMax= 3.31D-05  0.00D+00 EMaxC= 1.00D-01 BMatC= 5.83D-07 BMatP= 2.05D-05
 IDIUse=1 WtCom= 1.00D+00 WtEn= 0.00D+00
 Coeff-Com: -0.250D-03-0.299D-03 0.175D-02 0.831D-02 0.363D-01 0.106D+00
 Coeff-Com:  0.218D+00 0.630D+00
 Coeff:     -0.250D-03-0.299D-03 0.175D-02 0.831D-02 0.363D-01 0.106D+00
 Coeff:      0.218D+00 0.630D+00
 Gap=     0.240 Goal=   None    Shift=    0.000
 RMSDP=2.94D-06 MaxDP=1.73D-04 DE=-1.64D-05 OVMax= 1.66D-04

 Initial convergence to 1.0D-05 achieved.  Increase integral accuracy.
 Cycle   9  Pass 1  IDiag  1:
 E= -1714.04198486759     Delta-E=        0.000110078495 Rises=F Damp=F
 DIIS: error= 1.20D-04 at cycle   1 NSaved=   1.
 NSaved= 1 IEnMin= 1 EnMin= -1714.04198486759     IErMin= 1 ErrMin= 1.20D-04
 ErrMax= 1.20D-04  0.00D+00 EMaxC= 1.00D-01 BMatC= 1.13D-06 BMatP= 1.13D-06
 IDIUse=3 WtCom= 9.99D-01 WtEn= 1.20D-03
 Coeff-Com:  0.100D+01
 Coeff-En:   0.100D+01
 Coeff:      0.100D+01
 Gap=     0.240 Goal=   None    Shift=    0.000
 RMSDP=2.94D-06 MaxDP=1.73D-04 DE= 1.10D-04 OVMax= 2.10D-04

 Cycle  10  Pass 1  IDiag  1:
 RMSU=  3.97D-05    CP:  1.00D+00
 E= -1714.04198566951     Delta-E=       -0.000000801914 Rises=F Damp=F
 DIIS: error= 3.00D-05 at cycle   2 NSaved=   2.
 NSaved= 2 IEnMin= 2 EnMin= -1714.04198566951     IErMin= 2 ErrMin= 3.00D-05
 ErrMax= 3.00D-05  0.00D+00 EMaxC= 1.00D-01 BMatC= 5.26D-07 BMatP= 1.13D-06
 IDIUse=1 WtCom= 1.00D+00 WtEn= 0.00D+00
 Coeff-Com:  0.357D+00 0.643D+00
 Coeff:      0.357D+00 0.643D+00
 Gap=     0.240 Goal=   None    Shift=    0.000
 RMSDP=3.70D-06 MaxDP=1.69D-04 DE=-8.02D-07 OVMax= 2.34D-04

 Cycle  11  Pass 1  IDiag  1:
 RMSU=  3.70D-06    CP:  1.00D+00  1.00D+00
 E= -1714.04198564382     Delta-E=        0.000000025687 Rises=F Damp=F
 DIIS: error= 3.26D-05 at cycle   3 NSaved=   3.
 NSaved= 3 IEnMin= 2 EnMin= -1714.04198566951     IErMin= 2 ErrMin= 3.00D-05
 ErrMax= 3.26D-05  0.00D+00 EMaxC= 1.00D-01 BMatC= 5.69D-07 BMatP= 5.26D-07
 IDIUse=1 WtCom= 1.00D+00 WtEn= 0.00D+00
 Coeff-Com:  0.351D-04 0.510D+00 0.490D+00
 Coeff:      0.351D-04 0.510D+00 0.490D+00
 Gap=     0.240 Goal=   None    Shift=    0.000
 RMSDP=1.98D-06 MaxDP=9.42D-05 DE= 2.57D-08 OVMax= 1.36D-04

 Cycle  12  Pass 1  IDiag  1:
 RMSU=  6.08D-07    CP:  1.00D+00  1.01D+00  4.98D-01
 E= -1714.04198607859     Delta-E=       -0.000000434770 Rises=F Damp=F
 DIIS: error= 3.01D-06 at cycle   4 NSaved=   4.
 NSaved= 4 IEnMin= 4 EnMin= -1714.04198607859     IErMin= 4 ErrMin= 3.01D-06
 ErrMax= 3.01D-06  0.00D+00 EMaxC= 1.00D-01 BMatC= 1.11D-08 BMatP= 5.26D-07
 IDIUse=1 WtCom= 1.00D+00 WtEn= 0.00D+00
 Coeff-Com: -0.770D-02 0.289D+00 0.293D+00 0.426D+00
 Coeff:     -0.770D-02 0.289D+00 0.293D+00 0.426D+00
 Gap=     0.240 Goal=   None    Shift=    0.000
 RMSDP=3.28D-07 MaxDP=1.37D-05 DE=-4.35D-07 OVMax= 1.94D-05

 Cycle  13  Pass 1  IDiag  1:
 RMSU=  1.82D-07    CP:  1.00D+00  1.01D+00  5.04D-01  5.53D-01
 E= -1714.04198608801     Delta-E=       -0.000000009419 Rises=F Damp=F
 DIIS: error= 7.15D-07 at cycle   5 NSaved=   5.
 NSaved= 5 IEnMin= 5 EnMin= -1714.04198608801     IErMin= 5 ErrMin= 7.15D-07
 ErrMax= 7.15D-07  0.00D+00 EMaxC= 1.00D-01 BMatC= 4.72D-10 BMatP= 1.11D-08
 IDIUse=1 WtCom= 1.00D+00 WtEn= 0.00D+00
 Coeff-Com: -0.428D-02 0.134D+00 0.137D+00 0.237D+00 0.496D+00
 Coeff:     -0.428D-02 0.134D+00 0.137D+00 0.237D+00 0.496D+00
 Gap=     0.240 Goal=   None    Shift=    0.000
 RMSDP=7.67D-08 MaxDP=4.35D-06 DE=-9.42D-09 OVMax= 5.06D-06

 Cycle  14  Pass 1  IDiag  1:
 RMSU=  6.64D-08    CP:  1.00D+00  1.01D+00  5.05D-01  5.76D-01  8.06D-01
 E= -1714.04198608832     Delta-E=       -0.000000000309 Rises=F Damp=F
 DIIS: error= 3.32D-07 at cycle   6 NSaved=   6.
 NSaved= 6 IEnMin= 6 EnMin= -1714.04198608832     IErMin= 6 ErrMin= 3.32D-07
 ErrMax= 3.32D-07  0.00D+00 EMaxC= 1.00D-01 BMatC= 8.03D-11 BMatP= 4.72D-10
 IDIUse=1 WtCom= 1.00D+00 WtEn= 0.00D+00
 Coeff-Com: -0.111D-02 0.260D-01 0.276D-01 0.631D-01 0.308D+00 0.577D+00
 Coeff:     -0.111D-02 0.260D-01 0.276D-01 0.631D-01 0.308D+00 0.577D+00
 Gap=     0.240 Goal=   None    Shift=    0.000
 RMSDP=2.75D-08 MaxDP=1.61D-06 DE=-3.09D-10 OVMax= 1.79D-06

 Cycle  15  Pass 1  IDiag  1:
 RMSU=  1.86D-08    CP:  1.00D+00  1.01D+00  5.05D-01  5.78D-01  8.65D-01
                    CP:  7.42D-01
 E= -1714.04198608840     Delta-E=       -0.000000000078 Rises=F Damp=F
 DIIS: error= 1.11D-07 at cycle   7 NSaved=   7.
 NSaved= 7 IEnMin= 7 EnMin= -1714.04198608840     IErMin= 7 ErrMin= 1.11D-07
 ErrMax= 1.11D-07  0.00D+00 EMaxC= 1.00D-01 BMatC= 7.47D-12 BMatP= 8.03D-11
 IDIUse=1 WtCom= 1.00D+00 WtEn= 0.00D+00
 Coeff-Com: -0.149D-03-0.599D-03-0.142D-03 0.829D-02 0.112D+00 0.314D+00
 Coeff-Com:  0.566D+00
 Coeff:     -0.149D-03-0.599D-03-0.142D-03 0.829D-02 0.112D+00 0.314D+00
 Coeff:      0.566D+00
 Gap=     0.240 Goal=   None    Shift=    0.000
 RMSDP=1.00D-08 MaxDP=8.51D-07 DE=-7.78D-11 OVMax= 4.84D-07

 SCF Done:  E(RB3LYP) =  -1714.04198609     A.U. after   15 cycles
            NFock= 15  Conv=0.10D-07     -V/T= 2.0068
 KE= 1.702539319792D+03 PE=-8.341479588827D+03 EE= 2.767046147224D+03
 Leave Link  502 at Mon Sep 21 21:01:02 2020, MaxMem=    33554432 cpu:       353.6
 (Enter /prod/apps/gaussian/g09d1/l601.exe)
 Copying SCF densities to generalized density rwf, IOpCl= 0 IROHF=0.

 **********************************************************************

            Population analysis using the SCF density.

 **********************************************************************

 Orbital symmetries:
       Occupied  (A) (A) (A) (A) (A) (A) (A) (A) (A) (A) (A) (A)
                 (A) (A) (A) (A) (A) (A) (A) (A) (A) (A) (A) (A)
                 (A) (A) (A) (A) (A) (A) (A) (A) (A) (A) (A) (A)
                 (A) (A) (A) (A) (A) (A) (A) (A) (A) (A) (A) (A)
                 (A) (A) (A) (A) (A) (A) (A) (A) (A) (A) (A) (A)
                 (A) (A) (A) (A) (A) (A) (A) (A) (A) (A) (A) (A)
                 (A) (A) (A) (A) (A) (A) (A) (A) (A) (A) (A) (A)
                 (A) (A) (A) (A)
       Virtual   (A) (A) (A) (A) (A) (A) (A) (A) (A) (A) (A) (A)
                 (A) (A) (A) (A) (A) (A) (A) (A) (A) (A) (A) (A)
                 (A) (A) (A) (A) (A) (A) (A) (A) (A) (A) (A) (A)
                 (A) (A) (A) (A) (A) (A) (A) (A) (A) (A) (A) (A)
                 (A) (A) (A) (A) (A) (A) (A) (A) (A) (A) (A) (A)
                 (A) (A) (A) (A) (A) (A) (A) (A) (A) (A) (A) (A)
                 (A) (A) (A) (A) (A) (A) (A) (A) (A) (A) (A) (A)
                 (A) (A) (A) (A) (A) (A) (A) (A) (A) (A) (A) (A)
                 (A) (A) (A) (A) (A) (A) (A) (A) (A) (A) (A) (A)
                 (A) (A) (A) (A) (A) (A) (A) (A) (A) (A) (A) (A)
                 (A) (A) (A) (A) (A) (A) (A) (A) (A) (A) (A) (A)
                 (A) (A) (A) (A) (A) (A) (A) (A) (A) (A) (A) (A)
                 (A) (A) (A) (A) (A) (A) (A) (A) (A) (A) (A) (A)
                 (A) (A) (A) (A) (A) (A) (A) (A) (A) (A) (A) (A)
                 (A) (A) (A) (A) (A) (A) (A) (A) (A) (A) (A) (A)
                 (A) (A) (A) (A) (A) (A) (A) (A) (A) (A) (A) (A)
                 (A) (A) (A) (A) (A) (A) (A) (A) (A) (A) (A) (A)
                 (A) (A) (A) (A) (A) (A) (A) (A) (A) (A) (A) (A)
                 (A) (A) (A) (A) (A) (A) (A) (A) (A) (A) (A) (A)
                 (A) (A) (A) (A) (A) (A) (A) (A) (A) (A) (A) (A)
                 (A) (A) (A) (A) (A) (A) (A) (A) (A) (A) (A) (A)
                 (A) (A) (A) (A) (A) (A) (A) (A) (A) (A) (A) (A)
                 (A) (A) (A) (A) (A) (A) (A) (A) (A) (A) (A)
 The electronic state is 1-A.
 Alpha  occ. eigenvalues --  -89.14010 -89.09397 -19.15679 -19.15472 -19.14699
 Alpha  occ. eigenvalues --  -19.14649 -14.38922 -14.38449 -10.28602 -10.23941
 Alpha  occ. eigenvalues --  -10.23234 -10.23036 -10.22340 -10.20798 -10.20755
 Alpha  occ. eigenvalues --  -10.20385 -10.19511 -10.19446 -10.19436 -10.19347
 Alpha  occ. eigenvalues --  -10.19318  -8.16262  -8.12428  -6.12757  -6.12682
 Alpha  occ. eigenvalues --   -6.12637  -6.08845  -6.08786  -6.08720  -1.13257
 Alpha  occ. eigenvalues --   -1.10071  -1.01389  -0.99719  -0.96038  -0.94628
 Alpha  occ. eigenvalues --   -0.86490  -0.85743  -0.80202  -0.74891  -0.74789
 Alpha  occ. eigenvalues --   -0.73609  -0.73216  -0.71638  -0.67914  -0.63128
 Alpha  occ. eigenvalues --   -0.61100  -0.60608  -0.58988  -0.57979  -0.54849
 Alpha  occ. eigenvalues --   -0.53884  -0.51870  -0.51405  -0.50320  -0.49925
 Alpha  occ. eigenvalues --   -0.48710  -0.47507  -0.47075  -0.46259  -0.45909
 Alpha  occ. eigenvalues --   -0.45173  -0.44762  -0.43982  -0.43358  -0.42506
 Alpha  occ. eigenvalues --   -0.42394  -0.41835  -0.41707  -0.41357  -0.39485
 Alpha  occ. eigenvalues --   -0.39377  -0.38387  -0.37046  -0.35957  -0.35291
 Alpha  occ. eigenvalues --   -0.34880  -0.34482  -0.33884  -0.33127  -0.32485
 Alpha  occ. eigenvalues --   -0.31676  -0.31373  -0.30056  -0.29183  -0.28899
 Alpha  occ. eigenvalues --   -0.26451  -0.25472  -0.24744
 Alpha virt. eigenvalues --   -0.00703  -0.00559   0.02516   0.03550   0.04908
 Alpha virt. eigenvalues --    0.05618   0.06196   0.06466   0.07202   0.08359
 Alpha virt. eigenvalues --    0.08415   0.09061   0.09622   0.09731   0.11728
 Alpha virt. eigenvalues --    0.12737   0.13324   0.13620   0.14055   0.14569
 Alpha virt. eigenvalues --    0.15109   0.15986   0.16101   0.16477   0.16893
 Alpha virt. eigenvalues --    0.17659   0.18182   0.18474   0.18780   0.19087
 Alpha virt. eigenvalues --    0.19739   0.20953   0.21305   0.22438   0.22752
 Alpha virt. eigenvalues --    0.23499   0.25729   0.27668   0.28440   0.30139
 Alpha virt. eigenvalues --    0.32686   0.33445   0.33822   0.34301   0.35860
 Alpha virt. eigenvalues --    0.36035   0.39257   0.41694   0.42829   0.43945
 Alpha virt. eigenvalues --    0.44955   0.46165   0.47692   0.49282   0.49447
 Alpha virt. eigenvalues --    0.50629   0.51122   0.52492   0.52947   0.54515
 Alpha virt. eigenvalues --    0.54566   0.55233   0.56025   0.56842   0.58075
 Alpha virt. eigenvalues --    0.58180   0.59079   0.59459   0.59946   0.60614
 Alpha virt. eigenvalues --    0.60866   0.61537   0.61803   0.62896   0.63984
 Alpha virt. eigenvalues --    0.66029   0.66316   0.67342   0.68067   0.69191
 Alpha virt. eigenvalues --    0.70047   0.72652   0.73017   0.74535   0.75908
 Alpha virt. eigenvalues --    0.76689   0.78199   0.79294   0.79721   0.80688
 Alpha virt. eigenvalues --    0.81053   0.82136   0.82353   0.82627   0.82938
 Alpha virt. eigenvalues --    0.83377   0.83849   0.84300   0.85043   0.85693
 Alpha virt. eigenvalues --    0.86102   0.86449   0.87161   0.88625   0.89067
 Alpha virt. eigenvalues --    0.89833   0.90740   0.91240   0.92506   0.92616
 Alpha virt. eigenvalues --    0.92983   0.93898   0.94760   0.95697   0.96066
 Alpha virt. eigenvalues --    0.97320   0.98241   0.98904   0.99777   1.00205
 Alpha virt. eigenvalues --    1.01216   1.01424   1.03313   1.04473   1.06869
 Alpha virt. eigenvalues --    1.07582   1.08281   1.09135   1.10477   1.10795
 Alpha virt. eigenvalues --    1.11564   1.11889   1.14008   1.15580   1.16541
 Alpha virt. eigenvalues --    1.16979   1.18549   1.19202   1.19869   1.21331
 Alpha virt. eigenvalues --    1.22095   1.25320   1.25522   1.28246   1.29541
 Alpha virt. eigenvalues --    1.32522   1.34969   1.37498   1.38252   1.39386
 Alpha virt. eigenvalues --    1.41642   1.42114   1.43766   1.44442   1.46987
 Alpha virt. eigenvalues --    1.47887   1.48733   1.50675   1.50899   1.52729
 Alpha virt. eigenvalues --    1.55374   1.57171   1.59259   1.64160   1.67006
 Alpha virt. eigenvalues --    1.68826   1.70669   1.71799   1.72999   1.74314
 Alpha virt. eigenvalues --    1.77487   1.77781   1.79665   1.79750   1.80054
 Alpha virt. eigenvalues --    1.80353   1.80988   1.81489   1.82198   1.82449
 Alpha virt. eigenvalues --    1.83364   1.84443   1.85461   1.86055   1.88974
 Alpha virt. eigenvalues --    1.89678   1.91617   1.92406   1.92837   1.94004
 Alpha virt. eigenvalues --    1.95144   1.97077   1.97289   1.97576   1.97952
 Alpha virt. eigenvalues --    1.98661   2.00895   2.02525   2.03133   2.04907
 Alpha virt. eigenvalues --    2.05626   2.06313   2.07179   2.07553   2.09052
 Alpha virt. eigenvalues --    2.10336   2.12801   2.13806   2.13920   2.14342
 Alpha virt. eigenvalues --    2.15443   2.16545   2.17924   2.19772   2.20754
 Alpha virt. eigenvalues --    2.22385   2.23666   2.26037   2.26575   2.27101
 Alpha virt. eigenvalues --    2.28379   2.30510   2.31090   2.32344   2.35542
 Alpha virt. eigenvalues --    2.36577   2.37773   2.39346   2.40253   2.41804
 Alpha virt. eigenvalues --    2.47023   2.48220   2.53617   2.54989   2.57084
 Alpha virt. eigenvalues --    2.57433   2.60708   2.65779   2.67018   2.69145
 Alpha virt. eigenvalues --    2.71868   2.72076   2.72287   2.73825   2.74064
 Alpha virt. eigenvalues --    2.75804   2.76306   2.78277   2.82964   2.83342
 Alpha virt. eigenvalues --    2.88816   2.93259   3.04561   3.40773   3.79786
 Alpha virt. eigenvalues --    3.81372   3.89982   3.95477   3.98288   4.00930
 Alpha virt. eigenvalues --    4.08671   4.08752   4.11104   4.14547   4.15362
 Alpha virt. eigenvalues --    4.20057   4.23767   4.25104   4.31957   4.32605
 Alpha virt. eigenvalues --    4.35283   4.40799   4.49979   4.69834   4.73417
          Condensed to atoms (all electrons):
               1          2          3          4          5          6
     1  S   13.617464   0.121712   0.004426  -0.006633   0.000112   0.000382
     2  N    0.121712   7.416890   0.190725  -0.043639   0.005166  -0.049414
     3  C    0.004426   0.190725   4.906222   0.353034  -0.104456   0.343716
     4  C   -0.006633  -0.043639   0.353034   5.719138   0.149175  -0.200358
     5  S    0.000112   0.005166  -0.104456   0.149175  13.877588   0.128712
     6  C    0.000382  -0.049414   0.343716  -0.200358   0.128712   5.743955
     7  O   -0.000490   0.000093  -0.000230  -0.044051   0.411368  -0.043973
     8  O    0.000001  -0.000038   0.001772  -0.046147   0.436005  -0.046031
     9  C   -0.002998  -0.057966   0.364005  -0.041794   0.002464  -0.047108
    10  C   -0.000027   0.004187  -0.028425  -0.006424  -0.000348  -0.005293
    11  C   -0.000018  -0.000102   0.003897   0.000119   0.000036   0.000032
    12  C    0.000000  -0.000002   0.000056  -0.000004   0.000000   0.000002
    13  C    0.000000   0.000000   0.000002   0.000000   0.000000   0.000000
    14  C    0.000000   0.000000   0.000000   0.000000   0.000000   0.000000
    15  C    0.000000   0.000000   0.000002   0.000000   0.000000   0.000000
    16  C   -0.000008  -0.000003   0.000135  -0.000002   0.000000  -0.000005
    17  O    0.410188  -0.054322   0.007155  -0.000063   0.000128   0.000050
    18  O    0.448104  -0.056864   0.002289  -0.000100   0.000007  -0.000088
    19  H   -0.016865   0.299906  -0.025061   0.005009   0.000135  -0.006070
    20  H   -0.000510   0.003247  -0.030206   0.331526  -0.007503   0.006319
    21  H    0.003705  -0.006972  -0.020981   0.332306  -0.009425   0.008399
    22  H    0.000007   0.003304  -0.028829   0.005538  -0.004848   0.329046
    23  H    0.000114  -0.003639  -0.022383   0.009116  -0.007273   0.338498
    24  H    0.000298  -0.002063  -0.037320   0.005477  -0.000058  -0.006001
    25  H    0.001948  -0.002798  -0.030213  -0.004960  -0.000122   0.004843
    26  H    0.000001  -0.000006  -0.005242   0.001384   0.000094  -0.000242
    27  H    0.000004  -0.000009  -0.004447  -0.000329  -0.000020   0.001046
    28  H    0.000000   0.000000  -0.000041   0.000000   0.000001  -0.000009
    29  H    0.000000   0.000000   0.000000   0.000000   0.000000   0.000000
    30  H    0.000000   0.000000   0.000000   0.000000   0.000000   0.000000
    31  H    0.000000   0.000000   0.000000   0.000000   0.000000   0.000000
    32  H    0.000001   0.000001  -0.000063  -0.000001   0.000001   0.000000
    33  N    0.130277  -0.043048  -0.005312  -0.010972  -0.000151  -0.000349
    34  C   -0.027278   0.002370   0.000031   0.000103   0.000004   0.000004
    35  H   -0.004512   0.000117   0.000015   0.000122   0.000007   0.000000
    36  H    0.002253  -0.000080   0.000002   0.000125  -0.000004   0.000000
    37  H   -0.003565  -0.000074  -0.000008  -0.000024   0.000000   0.000000
    38  C   -0.011023  -0.008676   0.000539   0.000026  -0.000083   0.000053
    39  H   -0.008382  -0.000271  -0.000031  -0.000035   0.000016  -0.000001
    40  H    0.003067   0.000045   0.000001   0.000139   0.000000   0.000002
    41  H   -0.003220   0.011232  -0.000152   0.000037   0.001614  -0.000053
               7          8          9         10         11         12
     1  S   -0.000490   0.000001  -0.002998  -0.000027  -0.000018   0.000000
     2  N    0.000093  -0.000038  -0.057966   0.004187  -0.000102  -0.000002
     3  C   -0.000230   0.001772   0.364005  -0.028425   0.003897   0.000056
     4  C   -0.044051  -0.046147  -0.041794  -0.006424   0.000119  -0.000004
     5  S    0.411368   0.436005   0.002464  -0.000348   0.000036   0.000000
     6  C   -0.043973  -0.046031  -0.047108  -0.005293   0.000032   0.000002
     7  O    8.234683  -0.044424  -0.000062  -0.000002   0.000000   0.000000
     8  O   -0.044424   8.207451  -0.000222   0.000049   0.000001   0.000000
     9  C   -0.000062  -0.000222   5.151641   0.332453  -0.038889  -0.004074
    10  C   -0.000002   0.000049   0.332453   5.207710   0.346936  -0.056170
    11  C    0.000000   0.000001  -0.038889   0.346936   4.636191   0.551525
    12  C    0.000000   0.000000  -0.004074  -0.056170   0.551525   4.955068
    13  C    0.000000   0.000000  -0.000077   0.006921  -0.019794   0.524422
    14  C    0.000000   0.000000   0.000016   0.000419  -0.034602  -0.036286
    15  C    0.000000   0.000000   0.000023   0.006583  -0.018628  -0.047055
    16  C    0.000000   0.000000  -0.003653  -0.060226   0.547425  -0.037129
    17  O    0.000000   0.000000  -0.009173   0.000115   0.000003   0.000000
    18  O    0.000000   0.000000  -0.000192  -0.000001   0.000000   0.000000
    19  H    0.000027   0.000002  -0.000821  -0.000087   0.000000   0.000000
    20  H    0.001224   0.000891  -0.006905   0.001623   0.000009   0.000000
    21  H    0.000501   0.000605   0.000600   0.000160  -0.000001   0.000000
    22  H    0.001139   0.000790  -0.005135   0.001014   0.000003  -0.000006
    23  H   -0.000232   0.000740   0.001230   0.000110   0.000000   0.000000
    24  H    0.000001   0.000002   0.360510  -0.038083  -0.001046   0.003564
    25  H    0.000001   0.000002   0.365538  -0.030737  -0.002066  -0.000022
    26  H    0.000001  -0.000021  -0.040391   0.358473  -0.026182   0.003411
    27  H    0.000002   0.000034  -0.039520   0.357116  -0.029743  -0.003948
    28  H    0.000000   0.000000   0.000193  -0.010343  -0.048010   0.354122
    29  H    0.000000   0.000000  -0.000001  -0.000189   0.003779  -0.039491
    30  H    0.000000   0.000000   0.000000   0.000007   0.000742   0.004686
    31  H    0.000000   0.000000  -0.000001  -0.000187   0.003692   0.000898
    32  H    0.000000   0.000000   0.000230  -0.009277  -0.047646   0.005991
    33  N   -0.000054   0.000000  -0.000225   0.000000   0.000000   0.000000
    34  C   -0.000001   0.000000   0.000010   0.000000   0.000000   0.000000
    35  H    0.000000   0.000000   0.000001   0.000000   0.000000   0.000000
    36  H    0.000000   0.000000   0.000000   0.000000   0.000000   0.000000
    37  H    0.000000   0.000000   0.000000   0.000000   0.000000   0.000000
    38  C   -0.000323   0.000000  -0.000005   0.000000   0.000000   0.000000
    39  H    0.000047   0.000000   0.000000   0.000000   0.000000   0.000000
    40  H    0.000108   0.000000   0.000000   0.000000   0.000000   0.000000
    41  H    0.004992   0.000004   0.000022   0.000000   0.000000   0.000000
              13         14         15         16         17         18
     1  S    0.000000   0.000000   0.000000  -0.000008   0.410188   0.448104
     2  N    0.000000   0.000000   0.000000  -0.000003  -0.054322  -0.056864
     3  C    0.000002   0.000000   0.000002   0.000135   0.007155   0.002289
     4  C    0.000000   0.000000   0.000000  -0.000002  -0.000063  -0.000100
     5  S    0.000000   0.000000   0.000000   0.000000   0.000128   0.000007
     6  C    0.000000   0.000000   0.000000  -0.000005   0.000050  -0.000088
     7  O    0.000000   0.000000   0.000000   0.000000   0.000000   0.000000
     8  O    0.000000   0.000000   0.000000   0.000000   0.000000   0.000000
     9  C   -0.000077   0.000016   0.000023  -0.003653  -0.009173  -0.000192
    10  C    0.006921   0.000419   0.006583  -0.060226   0.000115  -0.000001
    11  C   -0.019794  -0.034602  -0.018628   0.547425   0.000003   0.000000
    12  C    0.524422  -0.036286  -0.047055  -0.037129   0.000000   0.000000
    13  C    4.864903   0.551561  -0.025772  -0.047332   0.000000   0.000000
    14  C    0.551561   4.850563   0.549851  -0.035965   0.000000   0.000000
    15  C   -0.025772   0.549851   4.861214   0.526699   0.000000   0.000000
    16  C   -0.047332  -0.035965   0.526699   4.952361  -0.000011   0.000000
    17  O    0.000000   0.000000   0.000000  -0.000011   8.271020  -0.043847
    18  O    0.000000   0.000000   0.000000   0.000000  -0.043847   8.221532
    19  H    0.000000   0.000000   0.000000   0.000000   0.000000   0.005645
    20  H    0.000000   0.000000   0.000000   0.000000  -0.000187   0.000000
    21  H    0.000000   0.000000   0.000000   0.000000  -0.000773   0.000033
    22  H    0.000000   0.000000   0.000000   0.000001   0.000001   0.000000
    23  H    0.000000   0.000000   0.000000   0.000000   0.000002  -0.000010
    24  H   -0.000135  -0.000007  -0.000022  -0.000156   0.000118  -0.000008
    25  H   -0.000006  -0.000003  -0.000118   0.004015   0.015294  -0.000172
    26  H   -0.000213   0.000015   0.000065  -0.004318   0.000019   0.000000
    27  H    0.000136   0.000008  -0.000197   0.004057  -0.000003   0.000000
    28  H   -0.045331   0.004906   0.000354   0.006216   0.000000   0.000000
    29  H    0.356644  -0.042815   0.004545   0.000875   0.000000   0.000000
    30  H   -0.042952   0.359373  -0.042713   0.004685   0.000000   0.000000
    31  H    0.004543  -0.042950   0.357126  -0.039143   0.000000   0.000000
    32  H    0.000377   0.004837  -0.044259   0.356288   0.000003   0.000000
    33  N    0.000000   0.000000   0.000000   0.000000  -0.054788  -0.056263
    34  C    0.000000   0.000000   0.000000   0.000000  -0.004559  -0.002487
    35  H    0.000000   0.000000   0.000000   0.000000   0.012048  -0.000221
    36  H    0.000000   0.000000   0.000000   0.000000   0.000203  -0.000110
    37  H    0.000000   0.000000   0.000000   0.000000  -0.000489   0.002760
    38  C    0.000000   0.000000   0.000000   0.000000   0.001690   0.001100
    39  H    0.000000   0.000000   0.000000   0.000000  -0.000039   0.005937
    40  H    0.000000   0.000000   0.000000   0.000000  -0.000051   0.000021
    41  H    0.000000   0.000000   0.000000   0.000000   0.000021  -0.001436
              19         20         21         22         23         24
     1  S   -0.016865  -0.000510   0.003705   0.000007   0.000114   0.000298
     2  N    0.299906   0.003247  -0.006972   0.003304  -0.003639  -0.002063
     3  C   -0.025061  -0.030206  -0.020981  -0.028829  -0.022383  -0.037320
     4  C    0.005009   0.331526   0.332306   0.005538   0.009116   0.005477
     5  S    0.000135  -0.007503  -0.009425  -0.004848  -0.007273  -0.000058
     6  C   -0.006070   0.006319   0.008399   0.329046   0.338498  -0.006001
     7  O    0.000027   0.001224   0.000501   0.001139  -0.000232   0.000001
     8  O    0.000002   0.000891   0.000605   0.000790   0.000740   0.000002
     9  C   -0.000821  -0.006905   0.000600  -0.005135   0.001230   0.360510
    10  C   -0.000087   0.001623   0.000160   0.001014   0.000110  -0.038083
    11  C    0.000000   0.000009  -0.000001   0.000003   0.000000  -0.001046
    12  C    0.000000   0.000000   0.000000  -0.000006   0.000000   0.003564
    13  C    0.000000   0.000000   0.000000   0.000000   0.000000  -0.000135
    14  C    0.000000   0.000000   0.000000   0.000000   0.000000  -0.000007
    15  C    0.000000   0.000000   0.000000   0.000000   0.000000  -0.000022
    16  C    0.000000   0.000000   0.000000   0.000001   0.000000  -0.000156
    17  O    0.000000  -0.000187  -0.000773   0.000001   0.000002   0.000118
    18  O    0.005645   0.000000   0.000033   0.000000  -0.000010  -0.000008
    19  H    0.369666  -0.000098   0.000162   0.000023   0.002960   0.004602
    20  H   -0.000098   0.499277  -0.014086  -0.000092  -0.000241   0.000152
    21  H    0.000162  -0.014086   0.439515  -0.000244  -0.000303  -0.000070
    22  H    0.000023  -0.000092  -0.000244   0.499579  -0.018948   0.000636
    23  H    0.002960  -0.000241  -0.000303  -0.018948   0.491355   0.000345
    24  H    0.004602   0.000152  -0.000070   0.000636   0.000345   0.597184
    25  H   -0.000576   0.000571   0.000156   0.000196  -0.000081  -0.030849
    26  H    0.000009   0.006652   0.000004   0.000027  -0.000004   0.005813
    27  H   -0.000006   0.000108   0.000000   0.007225  -0.000001  -0.004702
    28  H    0.000000   0.000000   0.000000   0.000071   0.000000   0.000541
    29  H    0.000000   0.000000   0.000000   0.000000   0.000000   0.000003
    30  H    0.000000   0.000000   0.000000   0.000000   0.000000   0.000000
    31  H    0.000000   0.000000   0.000000   0.000000   0.000000   0.000000
    32  H    0.000000   0.000040   0.000000   0.000000   0.000000   0.000053
    33  N    0.002528   0.000333   0.021136   0.000000   0.000004   0.000007
    34  C   -0.000058  -0.000002  -0.000593   0.000000   0.000000   0.000000
    35  H   -0.000004  -0.000005  -0.000097   0.000000   0.000000   0.000000
    36  H    0.000001  -0.000003  -0.000438   0.000000   0.000000   0.000000
    37  H    0.000008   0.000000   0.000135   0.000000   0.000000   0.000000
    38  C   -0.000214   0.000001  -0.000990  -0.000001  -0.000017   0.000000
    39  H    0.000084   0.000000   0.000146   0.000000   0.000001   0.000000
    40  H    0.000002  -0.000001  -0.000345   0.000000  -0.000001   0.000000
    41  H   -0.000502   0.000002  -0.000516   0.000004   0.000066  -0.000001
              25         26         27         28         29         30
     1  S    0.001948   0.000001   0.000004   0.000000   0.000000   0.000000
     2  N   -0.002798  -0.000006  -0.000009   0.000000   0.000000   0.000000
     3  C   -0.030213  -0.005242  -0.004447  -0.000041   0.000000   0.000000
     4  C   -0.004960   0.001384  -0.000329   0.000000   0.000000   0.000000
     5  S   -0.000122   0.000094  -0.000020   0.000001   0.000000   0.000000
     6  C    0.004843  -0.000242   0.001046  -0.000009   0.000000   0.000000
     7  O    0.000001   0.000001   0.000002   0.000000   0.000000   0.000000
     8  O    0.000002  -0.000021   0.000034   0.000000   0.000000   0.000000
     9  C    0.365538  -0.040391  -0.039520   0.000193  -0.000001   0.000000
    10  C   -0.030737   0.358473   0.357116  -0.010343  -0.000189   0.000007
    11  C   -0.002066  -0.026182  -0.029743  -0.048010   0.003779   0.000742
    12  C   -0.000022   0.003411  -0.003948   0.354122  -0.039491   0.004686
    13  C   -0.000006  -0.000213   0.000136  -0.045331   0.356644  -0.042952
    14  C   -0.000003   0.000015   0.000008   0.004906  -0.042815   0.359373
    15  C   -0.000118   0.000065  -0.000197   0.000354   0.004545  -0.042713
    16  C    0.004015  -0.004318   0.004057   0.006216   0.000875   0.004685
    17  O    0.015294   0.000019  -0.000003   0.000000   0.000000   0.000000
    18  O   -0.000172   0.000000   0.000000   0.000000   0.000000   0.000000
    19  H   -0.000576   0.000009  -0.000006   0.000000   0.000000   0.000000
    20  H    0.000571   0.006652   0.000108   0.000000   0.000000   0.000000
    21  H    0.000156   0.000004   0.000000   0.000000   0.000000   0.000000
    22  H    0.000196   0.000027   0.007225   0.000071   0.000000   0.000000
    23  H   -0.000081  -0.000004  -0.000001   0.000000   0.000000   0.000000
    24  H   -0.030849   0.005813  -0.004702   0.000541   0.000003   0.000000
    25  H    0.501509  -0.004273   0.004767   0.000025   0.000000   0.000000
    26  H   -0.004273   0.580260  -0.035606   0.000085   0.000003   0.000000
    27  H    0.004767  -0.035606   0.588645   0.006258  -0.000008   0.000000
    28  H    0.000025   0.000085   0.006258   0.617311  -0.005688  -0.000184
    29  H    0.000000   0.000003  -0.000008  -0.005688   0.596324  -0.005524
    30  H    0.000000   0.000000   0.000000  -0.000184  -0.005524   0.595485
    31  H    0.000003  -0.000006   0.000003   0.000018  -0.000190  -0.005503
    32  H    0.001032   0.004651   0.000068  -0.000183   0.000018  -0.000182
    33  N   -0.000036   0.000000   0.000000   0.000000   0.000000   0.000000
    34  C    0.000007   0.000000   0.000000   0.000000   0.000000   0.000000
    35  H    0.000004   0.000000   0.000000   0.000000   0.000000   0.000000
    36  H    0.000000   0.000000   0.000000   0.000000   0.000000   0.000000
    37  H    0.000000   0.000000   0.000000   0.000000   0.000000   0.000000
    38  C   -0.000003   0.000000   0.000000   0.000000   0.000000   0.000000
    39  H    0.000000   0.000000   0.000000   0.000000   0.000000   0.000000
    40  H    0.000000   0.000000   0.000000   0.000000   0.000000   0.000000
    41  H    0.000001   0.000000   0.000000   0.000000   0.000000   0.000000
              31         32         33         34         35         36
     1  S    0.000000   0.000001   0.130277  -0.027278  -0.004512   0.002253
     2  N    0.000000   0.000001  -0.043048   0.002370   0.000117  -0.000080
     3  C    0.000000  -0.000063  -0.005312   0.000031   0.000015   0.000002
     4  C    0.000000  -0.000001  -0.010972   0.000103   0.000122   0.000125
     5  S    0.000000   0.000001  -0.000151   0.000004   0.000007  -0.000004
     6  C    0.000000   0.000000  -0.000349   0.000004   0.000000   0.000000
     7  O    0.000000   0.000000  -0.000054  -0.000001   0.000000   0.000000
     8  O    0.000000   0.000000   0.000000   0.000000   0.000000   0.000000
     9  C   -0.000001   0.000230  -0.000225   0.000010   0.000001   0.000000
    10  C   -0.000187  -0.009277   0.000000   0.000000   0.000000   0.000000
    11  C    0.003692  -0.047646   0.000000   0.000000   0.000000   0.000000
    12  C    0.000898   0.005991   0.000000   0.000000   0.000000   0.000000
    13  C    0.004543   0.000377   0.000000   0.000000   0.000000   0.000000
    14  C   -0.042950   0.004837   0.000000   0.000000   0.000000   0.000000
    15  C    0.357126  -0.044259   0.000000   0.000000   0.000000   0.000000
    16  C   -0.039143   0.356288   0.000000   0.000000   0.000000   0.000000
    17  O    0.000000   0.000003  -0.054788  -0.004559   0.012048   0.000203
    18  O    0.000000   0.000000  -0.056263  -0.002487  -0.000221  -0.000110
    19  H    0.000000   0.000000   0.002528  -0.000058  -0.000004   0.000001
    20  H    0.000000   0.000040   0.000333  -0.000002  -0.000005  -0.000003
    21  H    0.000000   0.000000   0.021136  -0.000593  -0.000097  -0.000438
    22  H    0.000000   0.000000   0.000000   0.000000   0.000000   0.000000
    23  H    0.000000   0.000000   0.000004   0.000000   0.000000   0.000000
    24  H    0.000000   0.000053   0.000007   0.000000   0.000000   0.000000
    25  H    0.000003   0.001032  -0.000036   0.000007   0.000004   0.000000
    26  H   -0.000006   0.004651   0.000000   0.000000   0.000000   0.000000
    27  H    0.000003   0.000068   0.000000   0.000000   0.000000   0.000000
    28  H    0.000018  -0.000183   0.000000   0.000000   0.000000   0.000000
    29  H   -0.000190   0.000018   0.000000   0.000000   0.000000   0.000000
    30  H   -0.005503  -0.000182   0.000000   0.000000   0.000000   0.000000
    31  H    0.593649  -0.005610   0.000000   0.000000   0.000000   0.000000
    32  H   -0.005610   0.605095   0.000000   0.000000   0.000000   0.000000
    33  N    0.000000   0.000000   7.216310   0.288960  -0.031499  -0.038870
    34  C    0.000000   0.000000   0.288960   4.996981   0.377398   0.378922
    35  H    0.000000   0.000000  -0.031499   0.377398   0.489506  -0.020850
    36  H    0.000000   0.000000  -0.038870   0.378922  -0.020850   0.546380
    37  H    0.000000   0.000000  -0.046581   0.371556  -0.030270  -0.040479
    38  C    0.000000   0.000000   0.267422  -0.049812   0.004607  -0.003018
    39  H    0.000000   0.000000  -0.045142  -0.002450  -0.000189  -0.001670
    40  H    0.000000   0.000000  -0.034110  -0.003855   0.000024   0.005457
    41  H    0.000000   0.000000  -0.031832   0.004440  -0.000183   0.000076
              37         38         39         40         41
     1  S   -0.003565  -0.011023  -0.008382   0.003067  -0.003220
     2  N   -0.000074  -0.008676  -0.000271   0.000045   0.011232
     3  C   -0.000008   0.000539  -0.000031   0.000001  -0.000152
     4  C   -0.000024   0.000026  -0.000035   0.000139   0.000037
     5  S    0.000000  -0.000083   0.000016   0.000000   0.001614
     6  C    0.000000   0.000053  -0.000001   0.000002  -0.000053
     7  O    0.000000  -0.000323   0.000047   0.000108   0.004992
     8  O    0.000000   0.000000   0.000000   0.000000   0.000004
     9  C    0.000000  -0.000005   0.000000   0.000000   0.000022
    10  C    0.000000   0.000000   0.000000   0.000000   0.000000
    11  C    0.000000   0.000000   0.000000   0.000000   0.000000
    12  C    0.000000   0.000000   0.000000   0.000000   0.000000
    13  C    0.000000   0.000000   0.000000   0.000000   0.000000
    14  C    0.000000   0.000000   0.000000   0.000000   0.000000
    15  C    0.000000   0.000000   0.000000   0.000000   0.000000
    16  C    0.000000   0.000000   0.000000   0.000000   0.000000
    17  O   -0.000489   0.001690  -0.000039  -0.000051   0.000021
    18  O    0.002760   0.001100   0.005937   0.000021  -0.001436
    19  H    0.000008  -0.000214   0.000084   0.000002  -0.000502
    20  H    0.000000   0.000001   0.000000  -0.000001   0.000002
    21  H    0.000135  -0.000990   0.000146  -0.000345  -0.000516
    22  H    0.000000  -0.000001   0.000000   0.000000   0.000004
    23  H    0.000000  -0.000017   0.000001  -0.000001   0.000066
    24  H    0.000000   0.000000   0.000000   0.000000  -0.000001
    25  H    0.000000  -0.000003   0.000000   0.000000   0.000001
    26  H    0.000000   0.000000   0.000000   0.000000   0.000000
    27  H    0.000000   0.000000   0.000000   0.000000   0.000000
    28  H    0.000000   0.000000   0.000000   0.000000   0.000000
    29  H    0.000000   0.000000   0.000000   0.000000   0.000000
    30  H    0.000000   0.000000   0.000000   0.000000   0.000000
    31  H    0.000000   0.000000   0.000000   0.000000   0.000000
    32  H    0.000000   0.000000   0.000000   0.000000   0.000000
    33  N   -0.046581   0.267422  -0.045142  -0.034110  -0.031832
    34  C    0.371556  -0.049812  -0.002450  -0.003855   0.004440
    35  H   -0.030270   0.004607  -0.000189   0.000024  -0.000183
    36  H   -0.040479  -0.003018  -0.001670   0.005457   0.000076
    37  H    0.575757  -0.002213   0.008399  -0.001458  -0.000210
    38  C   -0.002213   5.007011   0.368049   0.376262   0.374754
    39  H    0.008399   0.368049   0.575986  -0.036568  -0.029604
    40  H   -0.001458   0.376262  -0.036568   0.538785  -0.021180
    41  H   -0.000210   0.374754  -0.029604  -0.021180   0.484772
 Mulliken charges:
               1
     1  S    1.341464
     2  N   -0.729009
     3  C    0.165379
     4  C   -0.506839
     5  S    1.121659
     6  C   -0.500064
     7  O   -0.520346
     8  O   -0.511464
     9  C   -0.279726
    10  C   -0.378056
    11  C    0.172337
    12  C   -0.179556
    13  C   -0.127896
    14  C   -0.128918
    15  C   -0.127697
    16  C   -0.174806
    17  O   -0.549754
    18  O   -0.525631
    19  H    0.359596
    20  H    0.207864
    21  H    0.248269
    22  H    0.209496
    23  H    0.208591
    24  H    0.141214
    25  H    0.207124
    26  H    0.155539
    27  H    0.149061
    28  H    0.119688
    29  H    0.131714
    30  H    0.132080
    31  H    0.133659
    32  H    0.128535
    33  N   -0.527744
    34  C   -0.329693
    35  H    0.203979
    36  H    0.172105
    37  H    0.166756
    38  C   -0.325137
    39  H    0.165718
    40  H    0.173657
    41  H    0.206853
 Sum of Mulliken charges =   0.00000
 Mulliken charges with hydrogens summed into heavy atoms:
               1
     1  S    1.341464
     2  N   -0.369412
     3  C    0.165379
     4  C   -0.050707
     5  S    1.121659
     6  C   -0.081977
     7  O   -0.520346
     8  O   -0.511464
     9  C    0.068611
    10  C   -0.073456
    11  C    0.172337
    12  C   -0.059868
    13  C    0.003818
    14  C    0.003162
    15  C    0.005961
    16  C   -0.046271
    17  O   -0.549754
    18  O   -0.525631
    33  N   -0.527744
    34  C    0.213146
    38  C    0.221091
 Electronic spatial extent (au):  <R**2>=           8707.6387
 Charge=              0.0000 electrons
 Dipole moment (field-independent basis, Debye):
    X=              1.4327    Y=             -1.3606    Z=             -0.6078  Tot=              2.0672
 Quadrupole moment (field-independent basis, Debye-Ang):
   XX=           -128.8384   YY=           -165.3732   ZZ=           -130.6404
   XY=              9.0538   XZ=             -6.7533   YZ=            -13.3769
 Traceless Quadrupole moment (field-independent basis, Debye-Ang):
   XX=             12.7790   YY=            -23.7559   ZZ=             10.9769
   XY=              9.0538   XZ=             -6.7533   YZ=            -13.3769
 Octapole moment (field-independent basis, Debye-Ang**2):
  XXX=            -35.7308  YYY=            -47.1305  ZZZ=             -2.6299  XYY=             25.5362
  XXY=            -68.2635  XXZ=              8.8301  XZZ=            -14.0075  YZZ=              7.3216
  YYZ=             -4.4926  XYZ=              7.2930
 Hexadecapole moment (field-independent basis, Debye-Ang**3):
 XXXX=          -7399.8460 YYYY=          -3081.7625 ZZZZ=           -733.9250 XXXY=             -2.4305
 XXXZ=           -169.1903 YYYX=             94.7509 YYYZ=           -128.8271 ZZZX=            -10.9268
 ZZZY=            -18.5420 XXYY=          -1834.2261 XXZZ=          -1410.3172 YYZZ=           -592.2003
 XXYZ=           -109.1417 YYXZ=            -19.7619 ZZXY=            -15.5654
 N-N= 2.157852135722D+03 E-N=-8.341479643674D+03  KE= 1.702539319792D+03
 No NMR shielding tensors so no spin-rotation constants.
 Leave Link  601 at Mon Sep 21 21:01:02 2020, MaxMem=    33554432 cpu:         0.3
 (Enter /prod/apps/gaussian/g09d1/l9999.exe)
 1\1\GINC-PIRINEUS24\SP\RB3LYP\6-31G(d)\C13H20N2O4S2\UBAFAR01\21-Sep-20
 20\0\\#p b3lyp/6-31G(d)\\SM40_38o.n.2.pdb.xyz\\0,1\S,0,-1.775,-2.699,-
 0.467\N,0,-1.531,-1.252,-1.288\C,0,-0.832,-0.099,-0.671\C,0,-1.602,0.3
 59,0.609\S,0,-2.41,1.697,-0.336\C,0,-1.169,1.144,-1.56\O,0,-3.781,1.34
 3,-0.74\O,0,-2.141,3.04,0.2\C,0,0.676,-0.367,-0.494\C,0,1.507,0.779,0.
 111\C,0,2.972,0.414,0.21\C,0,3.867,0.776,-0.803\C,0,5.213,0.416,-0.731
 \C,0,5.684,-0.315,0.361\C,0,4.801,-0.68,1.378\C,0,3.457,-0.318,1.302\O
 ,0,-0.82,-2.888,0.63\O,0,-1.871,-3.709,-1.527\H,0,-1.181,-1.479,-2.22\
 H,0,-0.96,0.782,1.38\H,0,-2.304,-0.365,1.022\H,0,-0.36,1.871,-1.624\H,
 0,-1.584,0.93,-2.543\H,0,1.084,-0.617,-1.48\H,0,0.778,-1.262,0.125\H,0
 ,1.126,1.027,1.108\H,0,1.406,1.682,-0.5\H,0,3.505,1.35,-1.651\H,0,5.89
 3,0.709,-1.524\H,0,6.731,-0.594,0.42\H,0,5.16,-1.243,2.233\H,0,2.777,-
 0.601,2.1\N,0,-3.256,-2.382,0.273\C,0,-3.567,-3.309,1.375\H,0,-2.709,-
 3.381,2.039\H,0,-4.411,-2.885,1.922\H,0,-3.843,-4.308,1.017\C,0,-4.372
 ,-2.184,-0.664\H,0,-4.653,-3.111,-1.177\H,0,-5.221,-1.824,-0.08\H,0,-4
 .1,-1.419,-1.389\\Version=AM64L-G09RevD.01\State=1-A\HF=-1714.0419861\
 RMSD=9.998e-09\Dipole=0.6749049,-0.4305845,-0.1432886\Quadrupole=6.370
 8035,-15.7273678,9.3565643,11.9057358,-4.3068113,-7.4700513\PG=C01 [X(
 C13H20N2O4S2)]\\@


 SUPPORT THE RIGHT TO ARM BEARS!
 (ADD A CLAWS TO THE BILL OF RIGHTS)
 Job cpu time:       0 days  0 hours  6 minutes  0.1 seconds.
 File lengths (MBytes):  RWF=     73 Int=      0 D2E=      0 Chk=      6 Scr=      1
 Normal termination of Gaussian 09 at Mon Sep 21 21:01:02 2020.
 Initial command:
 /prod/apps/gaussian/g09d1/l1.exe "/tmp/ubafar01/1460308/Gau-53418.inp" -scrdir="/tmp/ubafar01/1460308/"
 Entering Link 1 = /prod/apps/gaussian/g09d1/l1.exe PID=     53901.
  
 Copyright (c) 1988,1990,1992,1993,1995,1998,2003,2009,2013,
            Gaussian, Inc.  All Rights Reserved.
  
 This is part of the Gaussian(R) 09 program.  It is based on
 the Gaussian(R) 03 system (copyright 2003, Gaussian, Inc.),
 the Gaussian(R) 98 system (copyright 1998, Gaussian, Inc.),
 the Gaussian(R) 94 system (copyright 1995, Gaussian, Inc.),
 the Gaussian 92(TM) system (copyright 1992, Gaussian, Inc.),
 the Gaussian 90(TM) system (copyright 1990, Gaussian, Inc.),
[...]
     9  C   -0.000081   0.000016   0.000020  -0.003743  -0.009080  -0.000190
    10  C    0.006914   0.000392   0.006593  -0.060587   0.000115  -0.000001
    11  C   -0.021176  -0.034444  -0.019760   0.545662   0.000002   0.000000
    12  C    0.522220  -0.037507  -0.047057  -0.037603   0.000000   0.000000
    13  C    4.880081   0.549124  -0.027158  -0.047277   0.000000   0.000000
    14  C    0.549124   4.865998   0.547745  -0.037298   0.000000   0.000000
    15  C   -0.027158   0.547745   4.876742   0.524660   0.000000   0.000000
    16  C   -0.047277  -0.037298   0.524660   4.965361  -0.000011   0.000000
    17  O    0.000000   0.000000   0.000000  -0.000011   8.280642  -0.043473
    18  O    0.000000   0.000000   0.000000   0.000000  -0.043473   8.240920
    19  H    0.000000   0.000000   0.000000   0.000000  -0.000052   0.004984
    20  H    0.000000   0.000000   0.000000   0.000000  -0.000188   0.000000
    21  H    0.000000   0.000000   0.000000   0.000000  -0.000794   0.000033
    22  H    0.000000   0.000000   0.000000   0.000001   0.000001   0.000000
    23  H    0.000000   0.000000   0.000000   0.000000   0.000002  -0.000010
    24  H   -0.000130  -0.000007  -0.000020  -0.000129   0.000112  -0.000007
    25  H   -0.000006  -0.000003  -0.000122   0.004106   0.014855  -0.000172
    26  H   -0.000212   0.000015   0.000072  -0.004170   0.000019   0.000000
    27  H    0.000140   0.000008  -0.000196   0.004038  -0.000003   0.000000
    28  H   -0.044376   0.004799   0.000320   0.006085   0.000000   0.000000
    29  H    0.358686  -0.042484   0.004496   0.000834   0.000000   0.000000
    30  H   -0.042504   0.361283  -0.042364   0.004650   0.000000   0.000000
    31  H    0.004509  -0.042550   0.358979  -0.038848   0.000000   0.000000
    32  H    0.000331   0.004809  -0.043995   0.358208   0.000003   0.000000
    33  N    0.000000   0.000000   0.000000   0.000000  -0.055250  -0.056494
    34  C    0.000000   0.000000   0.000000   0.000000  -0.004674  -0.002377
    35  H    0.000000   0.000000   0.000000   0.000000   0.011706  -0.000215
    36  H    0.000000   0.000000   0.000000   0.000000   0.000199  -0.000107
    37  H    0.000000   0.000000   0.000000   0.000000  -0.000482   0.002723
    38  C    0.000000   0.000000   0.000000   0.000000   0.001651   0.001047
    39  H    0.000000   0.000000   0.000000   0.000000  -0.000038   0.005986
    40  H    0.000000   0.000000   0.000000   0.000000  -0.000051   0.000017
    41  H    0.000000   0.000000   0.000000   0.000000   0.000024  -0.001447
              19         20         21         22         23         24
     1  S   -0.015484  -0.000478   0.003748   0.000000   0.000129   0.000323
     2  N    0.300833   0.003191  -0.007024   0.003202  -0.003285  -0.001845
     3  C   -0.023238  -0.029974  -0.021243  -0.028697  -0.022001  -0.035779
     4  C    0.004631   0.333375   0.332544   0.005482   0.008721   0.005307
     5  S    0.000092  -0.007297  -0.009506  -0.005597  -0.008094  -0.000069
     6  C   -0.005777   0.005991   0.008237   0.331588   0.341871  -0.005952
     7  O    0.000022   0.001199   0.000416   0.001124  -0.000331   0.000001
     8  O    0.000001   0.000780   0.000597   0.000720   0.000714   0.000002
     9  C   -0.000621  -0.006803   0.000629  -0.005188   0.001133   0.364303
    10  C   -0.000077   0.001828   0.000157   0.001196   0.000104  -0.037450
    11  C    0.000000   0.000007  -0.000001   0.000013   0.000000  -0.001004
    12  C    0.000000   0.000000   0.000000  -0.000006   0.000000   0.003449
    13  C    0.000000   0.000000   0.000000   0.000000   0.000000  -0.000130
    14  C    0.000000   0.000000   0.000000   0.000000   0.000000  -0.000007
    15  C    0.000000   0.000000   0.000000   0.000000   0.000000  -0.000020
    16  C    0.000000   0.000000   0.000000   0.000001   0.000000  -0.000129
    17  O   -0.000052  -0.000188  -0.000794   0.000001   0.000002   0.000112
    18  O    0.004984   0.000000   0.000033   0.000000  -0.000010  -0.000007
    19  H    0.341041  -0.000086   0.000154   0.000029   0.002586   0.004046
    20  H   -0.000086   0.485753  -0.012869  -0.000098  -0.000221   0.000147
    21  H    0.000154  -0.012869   0.433915  -0.000234  -0.000295  -0.000067
    22  H    0.000029  -0.000098  -0.000234   0.484571  -0.016338   0.000618
    23  H    0.002586  -0.000221  -0.000295  -0.016338   0.467842   0.000312
    24  H    0.004046   0.000147  -0.000067   0.000618   0.000312   0.576851
    25  H   -0.000543   0.000580   0.000155   0.000191  -0.000076  -0.030945
    26  H    0.000008   0.006517   0.000009   0.000022  -0.000004   0.005590
    27  H   -0.000006   0.000101   0.000000   0.007006   0.000006  -0.004619
    28  H    0.000000   0.000000   0.000000   0.000066   0.000000   0.000510
    29  H    0.000000   0.000000   0.000000   0.000000   0.000000   0.000003
    30  H    0.000000   0.000000   0.000000   0.000000   0.000000   0.000000
    31  H    0.000000   0.000000   0.000000   0.000000   0.000000   0.000000
    32  H    0.000000   0.000039   0.000000   0.000000   0.000000   0.000050
    33  N    0.002286   0.000325   0.021148   0.000000   0.000005   0.000007
    34  C   -0.000050  -0.000002  -0.000648   0.000000   0.000000   0.000000
    35  H   -0.000004  -0.000005  -0.000110   0.000000   0.000000   0.000000
    36  H    0.000001  -0.000003  -0.000422   0.000000   0.000000   0.000000
    37  H    0.000007   0.000000   0.000133   0.000000   0.000000   0.000000
    38  C   -0.000224   0.000000  -0.000973  -0.000001  -0.000016   0.000000
    39  H    0.000081   0.000000   0.000144   0.000000   0.000001   0.000000
    40  H    0.000001  -0.000001  -0.000333   0.000000  -0.000001   0.000000
    41  H   -0.000461   0.000002  -0.000512   0.000004   0.000066  -0.000001
              25         26         27         28         29         30
     1  S    0.002065   0.000000   0.000004   0.000000   0.000000   0.000000
     2  N   -0.002942  -0.000006  -0.000007   0.000000   0.000000   0.000000
     3  C   -0.030830  -0.005177  -0.004466  -0.000039   0.000000   0.000000
     4  C   -0.005041   0.001431  -0.000337   0.000000   0.000000   0.000000
     5  S   -0.000134   0.000092  -0.000008   0.000001   0.000000   0.000000
     6  C    0.004863  -0.000248   0.001196  -0.000009   0.000000   0.000000
     7  O    0.000001   0.000001   0.000002   0.000000   0.000000   0.000000
     8  O    0.000002  -0.000020   0.000033   0.000000   0.000000   0.000000
     9  C    0.364921  -0.039816  -0.038845   0.000203  -0.000001   0.000000
    10  C   -0.031690   0.359073   0.358321  -0.009979  -0.000185   0.000006
    11  C   -0.002044  -0.026084  -0.029021  -0.046445   0.003713   0.000694
    12  C   -0.000016   0.003368  -0.003821   0.357101  -0.038768   0.004644
    13  C   -0.000006  -0.000212   0.000140  -0.044376   0.358686  -0.042504
    14  C   -0.000003   0.000015   0.000008   0.004799  -0.042484   0.361283
    15  C   -0.000122   0.000072  -0.000196   0.000320   0.004496  -0.042364
    16  C    0.004106  -0.004170   0.004038   0.006085   0.000834   0.004650
    17  O    0.014855   0.000019  -0.000003   0.000000   0.000000   0.000000
    18  O   -0.000172   0.000000   0.000000   0.000000   0.000000   0.000000
    19  H   -0.000543   0.000008  -0.000006   0.000000   0.000000   0.000000
    20  H    0.000580   0.006517   0.000101   0.000000   0.000000   0.000000
    21  H    0.000155   0.000009   0.000000   0.000000   0.000000   0.000000
    22  H    0.000191   0.000022   0.007006   0.000066   0.000000   0.000000
    23  H   -0.000076  -0.000004   0.000006   0.000000   0.000000   0.000000
    24  H   -0.030945   0.005590  -0.004619   0.000510   0.000003   0.000000
    25  H    0.513449  -0.004329   0.004792   0.000023   0.000000   0.000000
    26  H   -0.004329   0.573889  -0.035212   0.000087   0.000003   0.000000
    27  H    0.004792  -0.035212   0.578965   0.005951  -0.000007   0.000000
    28  H    0.000023   0.000087   0.005951   0.597478  -0.005427  -0.000175
    29  H    0.000000   0.000003  -0.000007  -0.005427   0.583359  -0.005356
    30  H    0.000000   0.000000   0.000000  -0.000175  -0.005356   0.583991
    31  H    0.000003  -0.000005   0.000003   0.000017  -0.000183  -0.005351
    32  H    0.001056   0.004490   0.000070  -0.000174   0.000017  -0.000176
    33  N   -0.000039   0.000000   0.000000   0.000000   0.000000   0.000000
    34  C    0.000007   0.000000   0.000000   0.000000   0.000000   0.000000
    35  H    0.000005   0.000000   0.000000   0.000000   0.000000   0.000000
    36  H    0.000000   0.000000   0.000000   0.000000   0.000000   0.000000
    37  H    0.000000   0.000000   0.000000   0.000000   0.000000   0.000000
    38  C   -0.000003   0.000000   0.000000   0.000000   0.000000   0.000000
    39  H    0.000000   0.000000   0.000000   0.000000   0.000000   0.000000
    40  H    0.000000   0.000000   0.000000   0.000000   0.000000   0.000000
    41  H    0.000001   0.000000   0.000000   0.000000   0.000000   0.000000
              31         32         33         34         35         36
     1  S    0.000000   0.000001   0.137796  -0.026578  -0.004385   0.002309
     2  N    0.000000   0.000001  -0.044291   0.002326   0.000115  -0.000083
     3  C    0.000000  -0.000062  -0.005178   0.000029   0.000015   0.000002
     4  C    0.000000  -0.000001  -0.010904   0.000108   0.000121   0.000119
     5  S    0.000000   0.000001  -0.000159   0.000006   0.000006  -0.000005
     6  C    0.000000   0.000000  -0.000347   0.000004   0.000000   0.000000
     7  O    0.000000   0.000000  -0.000048  -0.000001   0.000000   0.000000
     8  O    0.000000   0.000000   0.000000   0.000000   0.000000   0.000000
     9  C   -0.000001   0.000212  -0.000235   0.000010   0.000001   0.000000
    10  C   -0.000183  -0.009050   0.000000   0.000000   0.000000   0.000000
    11  C    0.003659  -0.047318   0.000000   0.000000   0.000000   0.000000
    12  C    0.000841   0.005942   0.000000   0.000000   0.000000   0.000000
    13  C    0.004509   0.000331   0.000000   0.000000   0.000000   0.000000
    14  C   -0.042550   0.004809   0.000000   0.000000   0.000000   0.000000
    15  C    0.358979  -0.043995   0.000000   0.000000   0.000000   0.000000
    16  C   -0.038848   0.358208   0.000000   0.000000   0.000000   0.000000
    17  O    0.000000   0.000003  -0.055250  -0.004674   0.011706   0.000199
    18  O    0.000000   0.000000  -0.056494  -0.002377  -0.000215  -0.000107
    19  H    0.000000   0.000000   0.002286  -0.000050  -0.000004   0.000001
    20  H    0.000000   0.000039   0.000325  -0.000002  -0.000005  -0.000003
    21  H    0.000000   0.000000   0.021148  -0.000648  -0.000110  -0.000422
    22  H    0.000000   0.000000   0.000000   0.000000   0.000000   0.000000
    23  H    0.000000   0.000000   0.000005   0.000000   0.000000   0.000000
    24  H    0.000000   0.000050   0.000007   0.000000   0.000000   0.000000
    25  H    0.000003   0.001056  -0.000039   0.000007   0.000005   0.000000
    26  H   -0.000005   0.004490   0.000000   0.000000   0.000000   0.000000
    27  H    0.000003   0.000070   0.000000   0.000000   0.000000   0.000000
    28  H    0.000017  -0.000174   0.000000   0.000000   0.000000   0.000000
    29  H   -0.000183   0.000017   0.000000   0.000000   0.000000   0.000000
    30  H   -0.005351  -0.000176   0.000000   0.000000   0.000000   0.000000
    31  H    0.582715  -0.005463   0.000000   0.000000   0.000000   0.000000
    32  H   -0.005463   0.595211   0.000000   0.000000   0.000000   0.000000
    33  N    0.000000   0.000000   7.215487   0.283971  -0.031977  -0.037630
    34  C    0.000000   0.000000   0.283971   5.000145   0.377042   0.380827
    35  H    0.000000   0.000000  -0.031977   0.377042   0.493384  -0.020246
    36  H    0.000000   0.000000  -0.037630   0.380827  -0.020246   0.529424
    37  H    0.000000   0.000000  -0.046586   0.372197  -0.030709  -0.038630
    38  C    0.000000   0.000000   0.267188  -0.049595   0.004594  -0.003014
    39  H    0.000000   0.000000  -0.045276  -0.002316  -0.000188  -0.001598
    40  H    0.000000   0.000000  -0.033595  -0.003718   0.000029   0.005196
    41  H    0.000000   0.000000  -0.032250   0.004457  -0.000187   0.000071
              37         38         39         40         41
     1  S   -0.003747  -0.011765  -0.008619   0.003084  -0.003079
     2  N   -0.000073  -0.008774  -0.000275   0.000052   0.011287
     3  C   -0.000008   0.000537  -0.000030   0.000001  -0.000147
     4  C   -0.000023   0.000009  -0.000035   0.000133   0.000036
     5  S    0.000000  -0.000063   0.000013   0.000006   0.001559
     6  C    0.000000   0.000053  -0.000001   0.000002  -0.000059
     7  O    0.000000  -0.000296   0.000046   0.000109   0.004790
     8  O    0.000000   0.000000   0.000000   0.000000   0.000003
     9  C    0.000000  -0.000004   0.000000   0.000000   0.000022
    10  C    0.000000   0.000000   0.000000   0.000000   0.000000
    11  C    0.000000   0.000000   0.000000   0.000000   0.000000
    12  C    0.000000   0.000000   0.000000   0.000000   0.000000
    13  C    0.000000   0.000000   0.000000   0.000000   0.000000
    14  C    0.000000   0.000000   0.000000   0.000000   0.000000
    15  C    0.000000   0.000000   0.000000   0.000000   0.000000
    16  C    0.000000   0.000000   0.000000   0.000000   0.000000
    17  O   -0.000482   0.001651  -0.000038  -0.000051   0.000024
    18  O    0.002723   0.001047   0.005986   0.000017  -0.001447
    19  H    0.000007  -0.000224   0.000081   0.000001  -0.000461
    20  H    0.000000   0.000000   0.000000  -0.000001   0.000002
    21  H    0.000133  -0.000973   0.000144  -0.000333  -0.000512
    22  H    0.000000  -0.000001   0.000000   0.000000   0.000004
    23  H    0.000000  -0.000016   0.000001  -0.000001   0.000066
    24  H    0.000000   0.000000   0.000000   0.000000  -0.000001
    25  H    0.000000  -0.000003   0.000000   0.000000   0.000001
    26  H    0.000000   0.000000   0.000000   0.000000   0.000000
    27  H    0.000000   0.000000   0.000000   0.000000   0.000000
    28  H    0.000000   0.000000   0.000000   0.000000   0.000000
    29  H    0.000000   0.000000   0.000000   0.000000   0.000000
    30  H    0.000000   0.000000   0.000000   0.000000   0.000000
    31  H    0.000000   0.000000   0.000000   0.000000   0.000000
    32  H    0.000000   0.000000   0.000000   0.000000   0.000000
    33  N   -0.046586   0.267188  -0.045276  -0.033595  -0.032250
    34  C    0.372197  -0.049595  -0.002316  -0.003718   0.004457
    35  H   -0.030709   0.004594  -0.000188   0.000029  -0.000187
    36  H   -0.038630  -0.003014  -0.001598   0.005196   0.000071
    37  H    0.572060  -0.002184   0.008218  -0.001423  -0.000204
    38  C   -0.002184   5.007653   0.369503   0.377348   0.373983
    39  H    0.008218   0.369503   0.572365  -0.035223  -0.029885
    40  H   -0.001423   0.377348  -0.035223   0.529857  -0.021526
    41  H   -0.000204   0.373983  -0.029885  -0.021526   0.490008
 Mulliken charges:
               1
     1  S    1.338277
     2  N   -0.735340
     3  C    0.164687
     4  C   -0.509203
     5  S    1.114098
     6  C   -0.498746
     7  O   -0.537138
     8  O   -0.534755
     9  C   -0.282018
    10  C   -0.381895
    11  C    0.167162
    12  C   -0.187512
    13  C   -0.139086
    14  C   -0.139895
    15  C   -0.138956
    16  C   -0.184054
    17  O   -0.559560
    18  O   -0.543100
    19  H    0.385817
    20  H    0.218187
    21  H    0.253010
    22  H    0.220326
    23  H    0.227181
    24  H    0.156390
    25  H    0.197860
    26  H    0.160599
    27  H    0.155911
    28  H    0.133981
    29  H    0.141301
    30  H    0.140660
    31  H    0.141857
    32  H    0.135797
    33  N   -0.527953
    34  C   -0.331170
    35  H    0.201008
    36  H    0.183589
    37  H    0.168732
    38  C   -0.326655
    39  H    0.167129
    40  H    0.180034
    41  H    0.203444
 Sum of Mulliken charges =   0.00000
 Mulliken charges with hydrogens summed into heavy atoms:
               1
     1  S    1.338277
     2  N   -0.349523
     3  C    0.164687
     4  C   -0.038006
     5  S    1.114098
     6  C   -0.051239
     7  O   -0.537138
     8  O   -0.534755
     9  C    0.072232
    10  C   -0.065385
    11  C    0.167162
    12  C   -0.053531
    13  C    0.002215
    14  C    0.000765
    15  C    0.002901
    16  C   -0.048257
    17  O   -0.559560
    18  O   -0.543100
    33  N   -0.527953
    34  C    0.222159
    38  C    0.223952
 Electronic spatial extent (au):  <R**2>=           8708.7890
 Charge=              0.0000 electrons
 Dipole moment (field-independent basis, Debye):
    X=              1.5621    Y=             -1.3774    Z=             -0.9621  Tot=              2.2942
 Quadrupole moment (field-independent basis, Debye-Ang):
   XX=           -128.7750   YY=           -168.2155   ZZ=           -129.4086
   XY=             10.3448   XZ=             -7.5752   YZ=            -14.6788
 Traceless Quadrupole moment (field-independent basis, Debye-Ang):
   XX=             13.3580   YY=            -26.0825   ZZ=             12.7245
   XY=             10.3448   XZ=             -7.5752   YZ=            -14.6788
 Octapole moment (field-independent basis, Debye-Ang**2):
  XXX=            -38.7289  YYY=            -52.0656  ZZZ=             -4.1053  XYY=             31.3162
  XXY=            -71.6476  XXZ=              9.0100  XZZ=            -13.7994  YZZ=              8.0241
  YYZ=             -5.9681  XYZ=              8.6148
 Hexadecapole moment (field-independent basis, Debye-Ang**3):
 XXXX=          -7361.7700 YYYY=          -3130.0916 ZZZZ=           -725.0967 XXXY=             13.4734
 XXXZ=           -191.1341 YYYX=            106.6328 YYYZ=           -143.2143 ZZZX=            -14.0978
 ZZZY=            -23.9971 XXYY=          -1840.7845 XXZZ=          -1400.3993 YYZZ=           -593.4380
 XXYZ=           -118.4324 YYXZ=            -21.5158 ZZXY=            -14.5825
 N-N= 2.157836776098D+03 E-N=-8.341583345394D+03  KE= 1.702551788691D+03
 No NMR shielding tensors so no spin-rotation constants.
 Leave Link  601 at Mon Sep 21 21:05:48 2020, MaxMem=    33554432 cpu:         0.3
 (Enter /prod/apps/gaussian/g09d1/l9999.exe)
 1\1\GINC-PIRINEUS24\SP\RB3LYP\6-31G(d)\C13H20N2O4S2\UBAFAR01\21-Sep-20
 20\0\\#p b3lyp/6-31G(d) scrf=(iefpcm,read,solvent=n-Octanol) geom=allc
 heck guess=read\\SM40_38o.n.2.pdb.xyz\\0,1\S,0,-1.775,-2.699,-0.467\N,
 0,-1.531,-1.252,-1.288\C,0,-0.832,-0.099,-0.671\C,0,-1.602,0.359,0.609
 \S,0,-2.41,1.697,-0.336\C,0,-1.169,1.144,-1.56\O,0,-3.781,1.343,-0.74\
 O,0,-2.141,3.04,0.2\C,0,0.676,-0.367,-0.494\C,0,1.507,0.779,0.111\C,0,
 2.972,0.414,0.21\C,0,3.867,0.776,-0.803\C,0,5.213,0.416,-0.731\C,0,5.6
 84,-0.315,0.361\C,0,4.801,-0.68,1.378\C,0,3.457,-0.318,1.302\O,0,-0.82
 ,-2.888,0.63\O,0,-1.871,-3.709,-1.527\H,0,-1.181,-1.479,-2.22\H,0,-0.9
 6,0.782,1.38\H,0,-2.304,-0.365,1.022\H,0,-0.36,1.871,-1.624\H,0,-1.584
 ,0.93,-2.543\H,0,1.084,-0.617,-1.48\H,0,0.778,-1.262,0.125\H,0,1.126,1
 .027,1.108\H,0,1.406,1.682,-0.5\H,0,3.505,1.35,-1.651\H,0,5.893,0.709,
 -1.524\H,0,6.731,-0.594,0.42\H,0,5.16,-1.243,2.233\H,0,2.777,-0.601,2.
 1\N,0,-3.256,-2.382,0.273\C,0,-3.567,-3.309,1.375\H,0,-2.709,-3.381,2.
 039\H,0,-4.411,-2.885,1.922\H,0,-3.843,-4.308,1.017\C,0,-4.372,-2.184,
 -0.664\H,0,-4.653,-3.111,-1.177\H,0,-5.221,-1.824,-0.08\H,0,-4.1,-1.41
 9,-1.389\\Version=AM64L-G09RevD.01\State=1-A\HF=-1714.0708032\RMSD=4.4
 42e-09\Dipole=0.7373416,-0.4402987,-0.2777367\Quadrupole=6.4249565,-17
 .1682654,10.7433089,13.2329814,-4.9511513,-8.1674085\PG=C01 [X(C13H20N
 2O4S2)]\\@


 GETTING A SIMPLE ANSWER FROM A PROFESSOR IS LIKE
 GETTING A THIMBLE OF WATER FROM A FIRE HYDRANT.
     -- PROF. LEN SHAPIRO, NDSU
 Job cpu time:       0 days  0 hours  4 minutes 45.3 seconds.
 File lengths (MBytes):  RWF=    265 Int=      0 D2E=      0 Chk=      7 Scr=      1
 Normal termination of Gaussian 09 at Mon Sep 21 21:05:48 2020.
