 Entering Gaussian System, Link 0=g09
 Initial command:
 /prod/apps/gaussian/g09d1/l1.exe "/tmp/ubafar01/1462884/Gau-72536.inp" -scrdir="/tmp/ubafar01/1462884/"
 Entering Link 1 = /prod/apps/gaussian/g09d1/l1.exe PID=     72537.
  
 Copyright (c) 1988,1990,1992,1993,1995,1998,2003,2009,2013,
            Gaussian, Inc.  All Rights Reserved.
  
 This is part of the Gaussian(R) 09 program.  It is based on
 the Gaussian(R) 03 system (copyright 2003, Gaussian, Inc.),
 the Gaussian(R) 98 system (copyright 1998, Gaussian, Inc.),
 the Gaussian(R) 94 system (copyright 1995, Gaussian, Inc.),
 the Gaussian 92(TM) system (copyright 1992, Gaussian, Inc.),
 the Gaussian 90(TM) system (copyright 1990, Gaussian, Inc.),
 the Gaussian 88(TM) system (copyright 1988, Gaussian, Inc.),
 the Gaussian 86(TM) system (copyright 1986, Carnegie Mellon
 University), and the Gaussian 82(TM) system (copyright 1983,
 Carnegie Mellon University). Gaussian is a federally registered
 trademark of Gaussian, Inc.
  
 This software contains proprietary and confidential information,
 including trade secrets, belonging to Gaussian, Inc.
  
 This software is provided under written license and may be
 used, copied, transmitted, or stored only in accord with that
 written license.
  
 The following legend is applicable only to US Government
 contracts under FAR:
  
                    RESTRICTED RIGHTS LEGEND
  
 Use, reproduction and disclosure by the US Government is
 subject to restrictions as set forth in subparagraphs (a)
 and (c) of the Commercial Computer Software - Restricted
 Rights clause in FAR 52.227-19.
  
 Gaussian, Inc.
 340 Quinnipiac St., Bldg. 40, Wallingford CT 06492
  
  
 ---------------------------------------------------------------
 Warning -- This program may not be used in any manner that
 competes with the business of Gaussian, Inc. or will provide
 assistance to any competitor of Gaussian, Inc.  The licensee
 of this program is prohibited from giving any competitor of
 Gaussian, Inc. access to this program.  By using this program,
 the user acknowledges that Gaussian, Inc. is engaged in the
 business of creating and licensing software in the field of
 computational chemistry and represents and warrants to the
 licensee that it is not a competitor of Gaussian, Inc. and that
 it will not use this program in any manner prohibited above.
 ---------------------------------------------------------------
  

 Cite this work as:
 Gaussian 09, Revision D.01,
 M. J. Frisch, G. W. Trucks, H. B. Schlegel, G. E. Scuseria, 
 M. A. Robb, J. R. Cheeseman, G. Scalmani, V. Barone, B. Mennucci, 
 G. A. Petersson, H. Nakatsuji, M. Caricato, X. Li, H. P. Hratchian, 
 A. F. Izmaylov, J. Bloino, G. Zheng, J. L. Sonnenberg, M. Hada, 
 M. Ehara, K. Toyota, R. Fukuda, J. Hasegawa, M. Ishida, T. Nakajima, 
 Y. Honda, O. Kitao, H. Nakai, T. Vreven, J. A. Montgomery, Jr., 
 J. E. Peralta, F. Ogliaro, M. Bearpark, J. J. Heyd, E. Brothers, 
 K. N. Kudin, V. N. Staroverov, T. Keith, R. Kobayashi, J. Normand, 
 K. Raghavachari, A. Rendell, J. C. Burant, S. S. Iyengar, J. Tomasi, 
 M. Cossi, N. Rega, J. M. Millam, M. Klene, J. E. Knox, J. B. Cross, 
 V. Bakken, C. Adamo, J. Jaramillo, R. Gomperts, R. E. Stratmann, 
 O. Yazyev, A. J. Austin, R. Cammi, C. Pomelli, J. W. Ochterski, 
 R. L. Martin, K. Morokuma, V. G. Zakrzewski, G. A. Voth, 
 P. Salvador, J. J. Dannenberg, S. Dapprich, A. D. Daniels, 
 O. Farkas, J. B. Foresman, J. V. Ortiz, J. Cioslowski, 
 and D. J. Fox, Gaussian, Inc., Wallingford CT, 2013.
 
 ******************************************
 Gaussian 09:  AM64L-G09RevD.01 24-Apr-2013
                 2-Oct-2020 
 ******************************************
 %nproc=1
 Will use up to    1 processors via shared memory.
 %Chk=SM40.n.12w.pdb.xyz.mst.n.w.chk
 %mem=16GB
 -----------------
 #p b3lyp/6-31G(d)
 -----------------
 1/38=1/1;
 2/12=2,17=6,18=5,40=1/2;
 3/5=1,6=6,7=1,11=2,16=1,25=1,30=1,74=-5/1,2,3;
 4//1;
 5/5=2,38=5/2;
 6/7=2,8=2,9=2,10=2,28=1/1;
 99/5=1,9=1/99;
 Leave Link    1 at Fri Oct  2 02:44:39 2020, MaxMem=  2147483648 cpu:         0.0
 (Enter /prod/apps/gaussian/g09d1/l101.exe)
 ------------------
 SM40.n.12w.pdb.xyz
 ------------------
 Symbolic Z-matrix:
 Charge =  0 Multiplicity = 1
 N                     1.005    -0.791     0.986 
 N                     3.309    -1.429     0.03 
 C                     0.308     0.167     0.116 
 C                     1.        0.365    -1.27 
 C                     0.345     1.67      0.577 
 C                    -1.146    -0.312    -0.023 
 C                    -1.301    -1.72     -0.618 
 C                    -2.754    -2.112    -0.772 
 C                    -3.469    -1.777    -1.93 
 C                    -4.817    -2.112    -2.062 
 C                    -5.475    -2.791    -1.034 
 C                    -4.773    -3.132     0.125 
 C                    -3.425    -2.794     0.252 
 C                     4.734    -1.121    -0.181 
 C                     2.983    -2.855    -0.114 
 O                     3.129     0.691     1.366 
 O                     2.038     2.939    -1.228 
 O                    -0.393     2.64     -1.88 
 O                     2.766    -1.481     2.605 
 S                     2.626    -0.691     1.372 
 S                     0.785     2.167    -1.121 
 H                     0.485    -1.005     1.839 
 H                     0.488    -0.066    -2.129 
 H                     2.056     0.095    -1.274 
 H                    -0.595     2.092     0.931 
 H                     1.173     1.891     1.248 
 H                    -1.674     0.415    -0.647 
 H                    -1.617    -0.272     0.966 
 H                    -0.787    -2.438     0.027 
 H                    -0.807    -1.756    -1.595 
 H                    -2.962    -1.254    -2.736 
 H                    -5.352    -1.848    -2.969 
 H                    -6.522    -3.055    -1.136 
 H                    -5.274    -3.664     0.927 
 H                    -2.883    -3.067     1.153 
 H                     4.888    -0.047    -0.109 
 H                     4.986    -1.453    -1.19 
 H                     5.383    -1.639     0.535 
 H                     1.91     -2.993     0.014 
 H                     3.525    -3.478     0.606 
 H                     3.262    -3.152    -1.126 
 
 NAtoms=     41 NQM=       41 NQMF=       0 NMMI=      0 NMMIF=      0
                NMic=       0 NMicF=      0.
                    Isotopes and Nuclear Properties:
 (Nuclear quadrupole moments (NQMom) in fm**2, nuclear magnetic moments (NMagM)
  in nuclear magnetons)

  Atom         1           2           3           4           5           6           7           8           9          10
 IAtWgt=          14          14          12          12          12          12          12          12          12          12
 AtmWgt=  14.0030740  14.0030740  12.0000000  12.0000000  12.0000000  12.0000000  12.0000000  12.0000000  12.0000000  12.0000000
 NucSpn=           2           2           0           0           0           0           0           0           0           0
 AtZEff=   0.0000000   0.0000000   0.0000000   0.0000000   0.0000000   0.0000000   0.0000000   0.0000000   0.0000000   0.0000000
 NQMom=    2.0440000   2.0440000   0.0000000   0.0000000   0.0000000   0.0000000   0.0000000   0.0000000   0.0000000   0.0000000
 NMagM=    0.4037610   0.4037610   0.0000000   0.0000000   0.0000000   0.0000000   0.0000000   0.0000000   0.0000000   0.0000000
 AtZNuc=   7.0000000   7.0000000   6.0000000   6.0000000   6.0000000   6.0000000   6.0000000   6.0000000   6.0000000   6.0000000

  Atom        11          12          13          14          15          16          17          18          19          20
 IAtWgt=          12          12          12          12          12          16          16          16          16          32
 AtmWgt=  12.0000000  12.0000000  12.0000000  12.0000000  12.0000000  15.9949146  15.9949146  15.9949146  15.9949146  31.9720718
 NucSpn=           0           0           0           0           0           0           0           0           0           0
 AtZEff=   0.0000000   0.0000000   0.0000000   0.0000000   0.0000000   0.0000000   0.0000000   0.0000000   0.0000000   0.0000000
 NQMom=    0.0000000   0.0000000   0.0000000   0.0000000   0.0000000   0.0000000   0.0000000   0.0000000   0.0000000   0.0000000
 NMagM=    0.0000000   0.0000000   0.0000000   0.0000000   0.0000000   0.0000000   0.0000000   0.0000000   0.0000000   0.0000000
 AtZNuc=   6.0000000   6.0000000   6.0000000   6.0000000   6.0000000   8.0000000   8.0000000   8.0000000   8.0000000  16.0000000

  Atom        21          22          23          24          25          26          27          28          29          30
 IAtWgt=          32           1           1           1           1           1           1           1           1           1
 AtmWgt=  31.9720718   1.0078250   1.0078250   1.0078250   1.0078250   1.0078250   1.0078250   1.0078250   1.0078250   1.0078250
 NucSpn=           0           1           1           1           1           1           1           1           1           1
 AtZEff=   0.0000000   0.0000000   0.0000000   0.0000000   0.0000000   0.0000000   0.0000000   0.0000000   0.0000000   0.0000000
 NQMom=    0.0000000   0.0000000   0.0000000   0.0000000   0.0000000   0.0000000   0.0000000   0.0000000   0.0000000   0.0000000
 NMagM=    0.0000000   2.7928460   2.7928460   2.7928460   2.7928460   2.7928460   2.7928460   2.7928460   2.7928460   2.7928460
 AtZNuc=  16.0000000   1.0000000   1.0000000   1.0000000   1.0000000   1.0000000   1.0000000   1.0000000   1.0000000   1.0000000

  Atom        31          32          33          34          35          36          37          38          39          40
 IAtWgt=           1           1           1           1           1           1           1           1           1           1
 AtmWgt=   1.0078250   1.0078250   1.0078250   1.0078250   1.0078250   1.0078250   1.0078250   1.0078250   1.0078250   1.0078250
 NucSpn=           1           1           1           1           1           1           1           1           1           1
 AtZEff=   0.0000000   0.0000000   0.0000000   0.0000000   0.0000000   0.0000000   0.0000000   0.0000000   0.0000000   0.0000000
 NQMom=    0.0000000   0.0000000   0.0000000   0.0000000   0.0000000   0.0000000   0.0000000   0.0000000   0.0000000   0.0000000
 NMagM=    2.7928460   2.7928460   2.7928460   2.7928460   2.7928460   2.7928460   2.7928460   2.7928460   2.7928460   2.7928460
 AtZNuc=   1.0000000   1.0000000   1.0000000   1.0000000   1.0000000   1.0000000   1.0000000   1.0000000   1.0000000   1.0000000

  Atom        41
 IAtWgt=           1
 AtmWgt=   1.0078250
 NucSpn=           1
 AtZEff=   0.0000000
 NQMom=    0.0000000
 NMagM=    2.7928460
 AtZNuc=   1.0000000
 Leave Link  101 at Fri Oct  2 02:44:39 2020, MaxMem=  2147483648 cpu:         0.1
 (Enter /prod/apps/gaussian/g09d1/l202.exe)
                          Input orientation:                          
 ---------------------------------------------------------------------
 Center     Atomic      Atomic             Coordinates (Angstroms)
 Number     Number       Type             X           Y           Z
 ---------------------------------------------------------------------
      1          7           0        1.005000   -0.791000    0.986000
      2          7           0        3.309000   -1.429000    0.030000
      3          6           0        0.308000    0.167000    0.116000
      4          6           0        1.000000    0.365000   -1.270000
      5          6           0        0.345000    1.670000    0.577000
      6          6           0       -1.146000   -0.312000   -0.023000
      7          6           0       -1.301000   -1.720000   -0.618000
      8          6           0       -2.754000   -2.112000   -0.772000
      9          6           0       -3.469000   -1.777000   -1.930000
     10          6           0       -4.817000   -2.112000   -2.062000
     11          6           0       -5.475000   -2.791000   -1.034000
     12          6           0       -4.773000   -3.132000    0.125000
     13          6           0       -3.425000   -2.794000    0.252000
     14          6           0        4.734000   -1.121000   -0.181000
     15          6           0        2.983000   -2.855000   -0.114000
     16          8           0        3.129000    0.691000    1.366000
     17          8           0        2.038000    2.939000   -1.228000
     18          8           0       -0.393000    2.640000   -1.880000
     19          8           0        2.766000   -1.481000    2.605000
     20         16           0        2.626000   -0.691000    1.372000
     21         16           0        0.785000    2.167000   -1.121000
     22          1           0        0.485000   -1.005000    1.839000
     23          1           0        0.488000   -0.066000   -2.129000
     24          1           0        2.056000    0.095000   -1.274000
     25          1           0       -0.595000    2.092000    0.931000
     26          1           0        1.173000    1.891000    1.248000
     27          1           0       -1.674000    0.415000   -0.647000
     28          1           0       -1.617000   -0.272000    0.966000
     29          1           0       -0.787000   -2.438000    0.027000
     30          1           0       -0.807000   -1.756000   -1.595000
     31          1           0       -2.962000   -1.254000   -2.736000
     32          1           0       -5.352000   -1.848000   -2.969000
     33          1           0       -6.522000   -3.055000   -1.136000
     34          1           0       -5.274000   -3.664000    0.927000
     35          1           0       -2.883000   -3.067000    1.153000
     36          1           0        4.888000   -0.047000   -0.109000
     37          1           0        4.986000   -1.453000   -1.190000
     38          1           0        5.383000   -1.639000    0.535000
     39          1           0        1.910000   -2.993000    0.014000
     40          1           0        3.525000   -3.478000    0.606000
     41          1           0        3.262000   -3.152000   -1.126000
 ---------------------------------------------------------------------
                    Distance matrix (angstroms):
                    1          2          3          4          5
     1  N    0.000000
     2  N    2.574761   0.000000
     3  C    1.469855   3.400090   0.000000
     4  C    2.534935   3.199987   1.561750   0.000000
     5  C    2.580582   4.322997   1.572545   2.354455   0.000000
     6  C    2.423700   4.593204   1.537166   2.572674   2.551745
     7  C    2.958630   4.664406   2.586195   3.172843   3.953409
     8  C    4.354961   6.153833   3.918958   4.525047   5.072191
     9  C    5.430647   7.064275   4.714974   4.999572   5.719568
    10  C    6.703061   8.418719   6.016905   6.371835   6.922000
    11  C    7.076072   8.952418   6.596617   7.207056   7.507879
    12  C    6.293400   8.260022   6.058056   6.892210   7.032598
    13  C    4.916876   6.874537   4.766687   5.645918   5.851993
    14  C    3.921254   1.473095   4.619159   4.163757   5.256193
    15  C    3.063100   1.469860   4.042401   3.954368   5.283195
    16  O    2.617652   2.512309   3.129715   3.404029   3.054770
    17  O    4.458900   4.719897   3.533160   2.775731   2.781121
    18  O    4.684028   5.823201   3.254404   2.736453   2.742698
    19  O    2.489655   2.632143   3.866884   4.641346   4.461258
    20  S    1.669322   1.676931   2.772512   3.277068   3.377767
    21  S    3.638353   4.541651   2.399520   1.820887   1.823133
    22  H    1.021668   3.380419   2.091325   3.436278   2.961059
    23  H    3.239775   3.804877   2.264225   1.088938   3.218164
    24  H    2.645222   2.364953   2.234455   1.089978   2.972263
    25  H    3.297683   5.333897   2.277116   3.220397   1.089495
    26  H    2.699999   4.131394   2.236476   2.949395   1.088424
    27  H    3.361274   5.356207   2.138223   2.746071   2.673866
    28  H    2.672947   5.145894   2.149615   3.500593   2.787854
    29  H    2.616019   4.218448   2.827184   3.568247   4.296462
    30  H    3.297898   4.437230   2.805116   2.805266   4.216890
    31  H    5.459372   6.856152   4.565747   4.524131   5.519239
    32  H    7.561132   9.175101   6.753743   6.937714   7.576691
    33  H    8.141518  10.032547   7.654913   8.264069   8.509740
    34  H    6.905320   8.914467   6.818578   7.773206   7.755464
    35  H    4.508282   6.502695   4.660108   5.720773   5.761157
    36  H    4.102469   2.102971   4.590514   4.078506   4.904848
    37  H    4.584930   2.073959   5.119934   4.381749   5.866370
    38  H    4.482119   2.144901   5.403038   5.146332   6.027660
    39  H    2.571500   2.098464   3.544349   3.708493   4.950734
    40  H    3.703346   2.139353   4.886227   4.966251   6.051045
    41  H    3.889590   2.075397   4.613506   4.184097   5.887341
                    6          7          8          9         10
     6  C    0.000000
     7  C    1.536396   0.000000
     8  C    2.527185   1.512808   0.000000
     9  C    3.343532   2.534722   1.401576   0.000000
    10  C    4.568781   3.821133   2.433119   1.395261   0.000000
    11  C    5.089971   4.329246   2.816652   2.419721   1.396706
    12  C    4.596676   3.821070   2.433387   2.785582   2.413567
    13  C    3.380797   2.534118   1.401407   2.407768   2.785208
    14  C    5.937495   6.080378   7.576378   8.412999   9.784776
    15  C    4.850131   4.460370   5.822215   6.788832   8.073831
    16  O    4.605535   5.419786   6.858392   7.777419   9.096533
    17  O    4.707322   5.764313   6.977378   7.284264   8.555652
    18  O    3.567879   4.628899   5.420654   5.382766   6.495106
    19  O    4.855583   5.194741   6.501745   7.715508   8.926418
    20  S    4.039511   4.521092   5.963252   7.016525   8.319246
    21  S    3.328634   4.439952   5.563826   5.857144   7.111802
    22  H    2.570497   3.120556   4.305101   5.516834   6.674912
    23  H    2.676884   2.866942   4.066710   4.315666   5.686267
    24  H    3.461713   3.872210   5.315915   5.870293   7.261537
    25  H    2.644415   4.174827   5.023456   5.604851   6.667604
    26  H    3.441862   4.758356   5.960347   6.715808   7.928443
    27  H    1.093933   2.167532   2.750955   3.110141   4.273921
    28  H    1.096158   2.169243   2.774710   3.752565   4.774346
    29  H    2.156677   1.093501   2.147968   3.385247   4.550945
    30  H    2.161305   1.095382   2.143566   2.683078   4.052768
    31  H    3.397880   2.731666   2.153305   1.086377   2.152084
    32  H    5.359911   4.685529   3.412640   2.151802   1.085620
    33  H    6.137116   5.413815   3.901227   3.403605   2.157255
    34  H    5.401739   4.685178   3.412580   3.870561   3.398775
    35  H    3.462682   2.730123   2.152740   3.392991   3.871512
    36  H    6.040429   6.431309   7.943800   8.726304  10.112639
    37  H    6.345486   6.318611   7.779242   8.493503   9.863745
    38  H    6.685816   6.783202   8.254862   9.189841  10.536040
    39  H    4.065497   3.511477   4.811118   5.847344   7.094961
    40  H    5.677802   5.280058   6.571962   7.631562   8.864149
    41  H    5.358421   4.809330   6.115486   6.916893   8.199264
                   11         12         13         14         15
    11  C    0.000000
    12  C    1.397271   0.000000
    13  C    2.419980   1.395520   0.000000
    14  C   10.379797   9.722181   8.340006   0.000000
    15  C    8.508129   7.764624   6.418734   2.465207   0.000000
    16  O    9.587134   8.865496   7.506073   2.872730   3.845235
    17  O    9.450699   9.223740   8.056181   4.984799   5.975321
    18  O    7.485867   7.518006   6.577751   6.581630   6.686640
    19  O    9.103434   8.106338   6.751967   3.429930   3.054165
    20  S    8.707757   7.890418   6.503200   2.653370   2.649253
    21  S    7.986046   7.779671   6.649868   5.223901   5.573665
    22  H    6.853140   5.925242   4.583360   4.706151   3.671064
    23  H    6.646956   6.492996   5.331296   4.789180   4.250150
    24  H    8.068616   7.681534   6.380937   3.137673   3.302640
    25  H    7.177696   6.737618   5.687085   6.321246   6.194103
    26  H    8.445386   7.864259   6.639491   4.878002   5.258865
    27  H    4.987565   4.772944   3.764556   6.605976   5.715299
    28  H    5.022900   4.341338   3.184202   6.509348   5.385006
    29  H    4.819510   4.047152   2.671405   5.679718   3.795612
    30  H    4.814163   4.536621   3.367904   5.753721   4.214886
    31  H    3.402108   3.871941   3.393245   8.110125   6.691869
    32  H    2.156062   3.399520   3.870799  10.489465   8.867767
    33  H    1.084578   2.157557   3.403832  11.460799   9.561878
    34  H    2.155934   1.085002   2.152052  10.385306   8.361591
    35  H    3.402589   2.152466   1.086321   7.974030   6.005014
    36  H   10.759969  10.144304   8.762551   1.087371   3.393216
    37  H   10.547374   9.989312   8.638435   1.091700   2.671215
    38  H   11.031094  10.273339   8.887912   1.096440   2.767645
    39  H    7.461725   6.685367   5.344013   3.393727   1.089384
    40  H    9.173961   8.319127   6.992544   2.763422   1.095579
    41  H    8.744939   8.131828   6.836886   2.680442   1.090960
                   16         17         18         19         20
    16  O    0.000000
    17  O    3.601752   0.000000
    18  O    5.171035   2.534614   0.000000
    19  O    2.526752   5.895615   6.861279   0.000000
    20  S    1.470704   4.503626   5.548462   1.471050   0.000000
    21  S    3.722644   1.475616   1.479018   5.578113   4.215744
    22  H    3.176615   5.231963   5.280897   2.452813   2.213722
    23  H    4.445555   3.499189   2.856676   5.440796   4.149539
    24  H    2.911382   2.844429   3.583554   4.246707   2.818512
    25  H    4.002524   3.508757   2.871033   5.183139   4.279534
    26  H    2.297795   2.824377   3.577393   3.968562   2.965351
    27  H    5.215089   4.526266   2.848135   5.820990   4.877458
    28  H    4.859206   5.336964   4.251780   4.833083   4.282925
    29  H    5.188316   6.202240   5.438563   4.492855   4.063201
    30  H    5.499766   5.501976   4.424640   5.521046   4.660773
    31  H    7.596691   6.697411   4.742967   7.835036   6.958331
    32  H    9.857287   8.975441   6.776411   9.854242   9.155950
    33  H   10.650555  10.450364   8.399476  10.136050   9.775708
    34  H    9.474659  10.085087   8.452445   8.498398   8.452618
    35  H    7.093101   8.121418   6.925968   6.044411   6.003534
    36  H    2.411296   4.276781   6.184284   3.731626   2.779342
    37  H    3.818157   5.289784   6.794291   4.396727   3.565682
    38  H    3.346637   5.937616   7.583155   3.340442   3.033203
    39  H    4.109224   6.061978   6.373518   3.119641   2.766952
    40  H    4.256169   6.837588   7.678596   2.925763   3.026933
    41  H    4.582183   6.213603   6.890196   4.118084   3.563849
                   21         22         23         24         25
    21  S    0.000000
    22  H    4.348929   0.000000
    23  H    2.467906   4.077592   0.000000
    24  H    2.435577   3.656338   1.793201   0.000000
    25  H    2.474011   3.403274   3.897878   3.984700   0.000000
    26  H    2.416378   3.034706   3.962727   3.219595   1.807405
    27  H    3.056282   3.585788   2.664944   3.795844   2.542962
    28  H    4.009226   2.391197   3.748665   4.317779   2.575695
    29  H    4.999511   2.637199   3.449688   4.023846   4.623308
    30  H    4.260172   3.745080   2.195058   3.424326   4.607898
    31  H    5.324610   5.733623   3.698958   5.397923   5.499572
    32  H    7.562942   7.609079   6.163337   7.843898   7.304974
    33  H    8.981189   7.883602   7.685068   9.139126   8.117477
    34  H    8.654845   6.408440   7.448851   8.526628   7.417856
    35  H    6.783808   4.008225   5.580427   6.346833   5.647965
    36  H    4.770802   4.909061   4.841566   3.065553   5.976639
    37  H    5.545950   5.443762   4.799739   3.314854   6.943575
    38  H    6.194318   5.108109   5.790704   4.165113   7.057879
    39  H    5.401801   3.051785   3.896391   3.349030   5.742224
    40  H    6.508161   4.108238   5.324034   4.296358   6.935771
    41  H    5.867479   4.594841   4.269014   3.466893   6.826949
                   26         27         28         29         30
    26  H    0.000000
    27  H    3.724917   0.000000
    28  H    3.541496   1.754134   0.000000
    29  H    4.906392   3.062785   2.502434   0.000000
    30  H    5.030274   2.522624   3.068726   1.759661   0.000000
    31  H    6.546870   2.967899   4.059329   3.710344   2.489560
    32  H    8.621997   4.903115   5.649622   5.492116   4.749038
    33  H    9.453010   5.981900   6.018515   5.884172   5.878716
    34  H    8.516154   5.663543   4.988069   4.737747   5.473119
    35  H    6.406397   4.101951   3.074045   2.461043   3.685105
    36  H    4.404375   6.600207   6.597066   6.159627   6.128777
    37  H    5.627179   6.938290   7.045758   5.981542   5.815039
    38  H    5.540160   7.444279   7.145240   6.242224   6.547266
    39  H    5.091108   4.989633   4.555203   2.753544   3.391333
    40  H    5.896629   6.614761   6.070272   4.473275   5.155183
    41  H    5.952449   6.108766   6.039495   4.270083   4.327301
                   31         32         33         34         35
    31  H    0.000000
    32  H    2.473707   0.000000
    33  H    4.298511   2.487094   0.000000
    34  H    4.956916   4.299158   2.486836   0.000000
    35  H    4.291565   4.957097   4.299068   2.474746   0.000000
    36  H    8.365434  10.783358  11.844446  10.836154   8.432170
    37  H    8.099409  10.497386  11.619096  10.706905   8.367545
    38  H    8.971438  11.294331  12.104806  10.854766   8.411175
    39  H    5.858584   7.933849   8.510286   7.272803   4.927032
    40  H    7.628651   9.707660  10.205670   8.806818   6.444423
    41  H    6.703184   8.904946   9.784486   8.794331   6.554547
                   36         37         38         39         40
    36  H    0.000000
    37  H    1.776232   0.000000
    38  H    1.787239   1.779840   0.000000
    39  H    4.190767   3.644584   3.763839   0.000000
    40  H    3.760420   3.075835   2.615172   1.787152   0.000000
    41  H    3.649547   2.421337   3.089778   1.775608   1.781928
                   41
    41  H    0.000000
 Stoichiometry    C13H20N2O4S2
 Framework group  C1[X(C13H20N2O4S2)]
 Deg. of freedom   117
 Full point group                 C1      NOp   1
 Largest Abelian subgroup         C1      NOp   1
 Largest concise Abelian subgroup C1      NOp   1
                         Standard orientation:                         
 ---------------------------------------------------------------------
 Center     Atomic      Atomic             Coordinates (Angstroms)
 Number     Number       Type             X           Y           Z
 ---------------------------------------------------------------------
      1          7           0       -0.867258   -0.881774   -0.711920
      2          7           0       -2.666930   -1.511213    1.018509
      3          6           0       -0.341726    0.470177   -0.474185
      4          6           0       -0.800541    1.084749    0.886275
      5          6           0       -0.905487    1.602841   -1.408071
      6          6           0        1.189108    0.395435   -0.591831
      7          6           0        1.859401   -0.573448    0.394317
      8          6           0        3.366160   -0.565014    0.259430
      9          6           0        4.145280    0.358391    0.969858
     10          6           0        5.532689    0.387098    0.824853
     11          6           0        6.166736   -0.511392   -0.036243
     12          6           0        5.401410   -1.437924   -0.749112
     13          6           0        4.014009   -1.461887   -0.600717
     14          6           0       -4.056923   -1.436278    1.500498
     15          6           0       -1.911933   -2.649796    1.560817
     16          8           0       -3.367545   -0.152930   -0.975458
     17          8           0       -2.545818    3.140573    0.228795
     18          8           0       -0.059988    3.635461    0.227772
     19          8           0       -2.604787   -2.522107   -1.410979
     20         16           0       -2.486556   -1.279526   -0.632516
     21         16           0       -1.160691    2.663163    0.052889
     22          1           0       -0.469260   -1.322793   -1.543128
     23          1           0       -0.038086    1.163692    1.659720
     24          1           0       -1.710036    0.635074    1.284600
     25          1           0       -0.212784    2.018014   -2.139367
     26          1           0       -1.868184    1.352703   -1.850012
     27          1           0        1.580537    1.406102   -0.443426
     28          1           0        1.441306    0.113024   -1.620521
     29          1           0        1.474657   -1.582084    0.220043
     30          1           0        1.582288   -0.297113    1.417404
     31          1           0        3.659288    1.056333    1.645804
     32          1           0        6.118987    1.106759    1.387804
     33          1           0        7.245380   -0.492686   -0.147987
     34          1           0        5.885166   -2.143380   -1.416600
     35          1           0        3.424896   -2.188428   -1.153145
     36          1           0       -4.533163   -0.545171    1.098628
     37          1           0       -4.013441   -1.360404    2.588690
     38          1           0       -4.640413   -2.324334    1.230170
     39          1           0       -0.887630   -2.610089    1.192056
     40          1           0       -2.364615   -3.611116    1.293918
     41          1           0       -1.903626   -2.547066    2.646898
 ---------------------------------------------------------------------
 Rotational constants (GHZ):      0.3782409      0.1546464      0.1237198
 Leave Link  202 at Fri Oct  2 02:44:39 2020, MaxMem=  2147483648 cpu:         0.0
 (Enter /prod/apps/gaussian/g09d1/l301.exe)
 Standard basis: 6-31G(d) (6D, 7F)
 Ernie: Thresh=  0.10000D-02 Tol=  0.10000D-05 Strict=F.
 There are   363 symmetry adapted cartesian basis functions of A   symmetry.
 There are   363 symmetry adapted basis functions of A   symmetry.
   363 basis functions,   716 primitive gaussians,   363 cartesian basis functions
    88 alpha electrons       88 beta electrons
       nuclear repulsion energy      2160.2832728205 Hartrees.
 IExCor=  402 DFT=T Ex+Corr=B3LYP ExCW=0 ScaHFX=  0.200000
 ScaDFX=  0.800000  0.720000  1.000000  0.810000 ScalE2=  1.000000  1.000000
 IRadAn=      0 IRanWt=     -1 IRanGd=            0 ICorTp=0 IEmpDi=  4
 NAtoms=   41 NActive=   41 NUniq=   41 SFac= 1.00D+00 NAtFMM=   60 NAOKFM=F Big=F
 Integral buffers will be    131072 words long.
 Raffenetti 2 integral format.
 Two-electron integral symmetry is turned on.
 Leave Link  301 at Fri Oct  2 02:44:39 2020, MaxMem=  2147483648 cpu:         0.0
 (Enter /prod/apps/gaussian/g09d1/l302.exe)
 NPDir=0 NMtPBC=     1 NCelOv=     1 NCel=       1 NClECP=     1 NCelD=      1
         NCelK=      1 NCelE2=     1 NClLst=     1 CellRange=     0.0.
 One-electron integrals computed using PRISM.
 NBasis=   363 RedAO= T EigKep=  4.67D-04  NBF=   363
 NBsUse=   363 1.00D-06 EigRej= -1.00D+00 NBFU=   363
 Precomputing XC quadrature grid using
 IXCGrd= 4 IRadAn=           0 IRanWt=          -1 IRanGd=           0 AccXCQ= 0.00D+00.
 Generated NRdTot=       0 NPtTot=           0 NUsed=           0 NTot=          32
 NSgBfM=   358   358   358   358   358 MxSgAt=    41 MxSgA2=    41.
 Leave Link  302 at Fri Oct  2 02:44:40 2020, MaxMem=  2147483648 cpu:         1.3
 (Enter /prod/apps/gaussian/g09d1/l303.exe)
 DipDrv:  MaxL=1.
 Leave Link  303 at Fri Oct  2 02:44:41 2020, MaxMem=  2147483648 cpu:         0.1
 (Enter /prod/apps/gaussian/g09d1/l401.exe)
 ExpMin= 1.17D-01 ExpMax= 2.19D+04 ExpMxC= 3.30D+03 IAcc=1 IRadAn=         1 AccDes= 0.00D+00
 Harris functional with IExCor=  402 and IRadAn=       1 diagonalized for initial guess.
 HarFok:  IExCor=  402 AccDes= 0.00D+00 IRadAn=         1 IDoV= 1 UseB2=F ITyADJ=14
 ICtDFT=  3500011 ScaDFX=  1.000000  1.000000  1.000000  1.000000
 FoFCou: FMM=F IPFlag=           0 FMFlag=      100000 FMFlg1=           0
         NFxFlg=           0 DoJE=T BraDBF=F KetDBF=T FulRan=T
         wScrn=  0.000000 ICntrl=     500 IOpCl=  0 I1Cent=   200000004 NGrid=           0
         NMat0=    1 NMatS0=      1 NMatT0=    0 NMatD0=    1 NMtDS0=    0 NMtDT0=    0
 Petite list used in FoFCou.
 Harris En= -1714.15220514062    
 JPrj=0 DoOrth=F DoCkMO=F.
 Leave Link  401 at Fri Oct  2 02:44:45 2020, MaxMem=  2147483648 cpu:         4.9
 (Enter /prod/apps/gaussian/g09d1/l502.exe)
 Closed shell SCF:
 Using DIIS extrapolation, IDIIS=  1040.
 Integral symmetry usage will be decided dynamically.
 IVT=      418784 IEndB=      418784 NGot=  2147483648 MDV=  2147213637
 LenX=  2147213637 LenY=  2147081427
 Requested convergence on RMS density matrix=1.00D-08 within 128 cycles.
 Requested convergence on MAX density matrix=1.00D-06.
 Requested convergence on             energy=1.00D-06.
 No special actions if energy rises.
 Fock matrices will be formed incrementally for  20 cycles.
 Integral accuracy reduced to 1.0D-05 until final iterations.

 Cycle   1  Pass 0  IDiag  1:
 FoFJK:  IHMeth= 1 ICntrl=       0 DoSepK=F KAlg= 0 I1Cent=   0 FoldK=F
 IRaf= 740000000 NMat=   1 IRICut=       1 DoRegI=T DoRafI=F ISym2E= 0.
 FoFCou: FMM=F IPFlag=           0 FMFlag=      100000 FMFlg1=           0
         NFxFlg=           0 DoJE=F BraDBF=F KetDBF=F FulRan=T
         wScrn=  0.000000 ICntrl=       0 IOpCl=  0 I1Cent=           0 NGrid=           0
         NMat0=    1 NMatS0=      1 NMatT0=    0 NMatD0=    1 NMtDS0=    0 NMtDT0=    0
 Symmetry not used in FoFCou.
 E= -1713.19103108418    
 DIIS: error= 3.72D-02 at cycle   1 NSaved=   1.
 NSaved= 1 IEnMin= 1 EnMin= -1713.19103108418     IErMin= 1 ErrMin= 3.72D-02
 ErrMax= 3.72D-02  0.00D+00 EMaxC= 1.00D-01 BMatC= 9.99D-01 BMatP= 9.99D-01
 IDIUse=3 WtCom= 6.28D-01 WtEn= 3.72D-01
 Coeff-Com:  0.100D+01
 Coeff-En:   0.100D+01
 Coeff:      0.100D+01
 Gap=     0.366 Goal=   None    Shift=    0.000
 GapD=    0.366 DampG=1.000 DampE=0.500 DampFc=0.5000 IDamp=-1.
 Damping current iteration by 5.00D-01
 RMSDP=7.12D-03 MaxDP=6.06D-01              OVMax= 2.44D-01

 Cycle   2  Pass 0  IDiag  1:
 RMSU=  3.56D-03    CP:  9.99D-01
 E= -1713.35879303012     Delta-E=       -0.167761945935 Rises=F Damp=T
 DIIS: error= 1.81D-02 at cycle   2 NSaved=   2.
 NSaved= 2 IEnMin= 2 EnMin= -1713.35879303012     IErMin= 2 ErrMin= 1.81D-02
 ErrMax= 1.81D-02  0.00D+00 EMaxC= 1.00D-01 BMatC= 1.80D-01 BMatP= 9.99D-01
 IDIUse=3 WtCom= 8.19D-01 WtEn= 1.81D-01
 Coeff-Com:  0.256D+00 0.744D+00
 Coeff-En:   0.403D+00 0.597D+00
 Coeff:      0.283D+00 0.717D+00
 Gap=     0.293 Goal=   None    Shift=    0.000
 RMSDP=2.12D-03 MaxDP=1.30D-01 DE=-1.68D-01 OVMax= 1.96D-01

 Cycle   3  Pass 0  IDiag  1:
 RMSU=  1.67D-03    CP:  9.90D-01  6.36D-01
 E= -1713.94273435707     Delta-E=       -0.583941326955 Rises=F Damp=F
 DIIS: error= 1.11D-02 at cycle   3 NSaved=   3.
 NSaved= 3 IEnMin= 3 EnMin= -1713.94273435707     IErMin= 3 ErrMin= 1.11D-02
 ErrMax= 1.11D-02  0.00D+00 EMaxC= 1.00D-01 BMatC= 1.04D-01 BMatP= 1.80D-01
 IDIUse=3 WtCom= 8.89D-01 WtEn= 1.11D-01
 Coeff-Com:  0.109D+00 0.437D+00 0.454D+00
 Coeff-En:   0.000D+00 0.000D+00 0.100D+01
 Coeff:      0.967D-01 0.389D+00 0.515D+00
 Gap=     0.243 Goal=   None    Shift=    0.000
 RMSDP=1.34D-03 MaxDP=3.86D-02 DE=-5.84D-01 OVMax= 8.17D-02

 Cycle   4  Pass 0  IDiag  1:
 RMSU=  7.65D-04    CP:  9.95D-01  7.22D-01  3.74D-01
 E= -1714.02718510997     Delta-E=       -0.084450752894 Rises=F Damp=F
 DIIS: error= 4.10D-03 at cycle   4 NSaved=   4.
 NSaved= 4 IEnMin= 4 EnMin= -1714.02718510997     IErMin= 4 ErrMin= 4.10D-03
 ErrMax= 4.10D-03  0.00D+00 EMaxC= 1.00D-01 BMatC= 1.51D-02 BMatP= 1.04D-01
 IDIUse=3 WtCom= 9.59D-01 WtEn= 4.10D-02
 Coeff-Com:  0.134D-01 0.750D-01 0.286D+00 0.625D+00
 Coeff-En:   0.000D+00 0.000D+00 0.130D+00 0.870D+00
 Coeff:      0.129D-01 0.719D-01 0.280D+00 0.635D+00
 Gap=     0.241 Goal=   None    Shift=    0.000
 RMSDP=4.32D-04 MaxDP=1.63D-02 DE=-8.45D-02 OVMax= 2.61D-02

 Cycle   5  Pass 0  IDiag  1:
 RMSU=  1.82D-04    CP:  9.95D-01  7.01D-01  5.36D-01  6.44D-01
 E= -1714.03985031732     Delta-E=       -0.012665207352 Rises=F Damp=F
 DIIS: error= 8.65D-04 at cycle   5 NSaved=   5.
 NSaved= 5 IEnMin= 5 EnMin= -1714.03985031732     IErMin= 5 ErrMin= 8.65D-04
 ErrMax= 8.65D-04  0.00D+00 EMaxC= 1.00D-01 BMatC= 1.07D-03 BMatP= 1.51D-02
 IDIUse=3 WtCom= 9.91D-01 WtEn= 8.65D-03
 Coeff-Com:  0.882D-04 0.140D-01 0.119D+00 0.344D+00 0.523D+00
 Coeff-En:   0.000D+00 0.000D+00 0.000D+00 0.000D+00 0.100D+01
 Coeff:      0.874D-04 0.139D-01 0.118D+00 0.341D+00 0.527D+00
 Gap=     0.241 Goal=   None    Shift=    0.000
 RMSDP=1.14D-04 MaxDP=6.75D-03 DE=-1.27D-02 OVMax= 5.60D-03

 Cycle   6  Pass 0  IDiag  1:
 RMSU=  5.61D-05    CP:  9.95D-01  7.05D-01  5.28D-01  7.05D-01  5.29D-01
 E= -1714.04072432039     Delta-E=       -0.000874003073 Rises=F Damp=F
 DIIS: error= 5.25D-04 at cycle   6 NSaved=   6.
 NSaved= 6 IEnMin= 6 EnMin= -1714.04072432039     IErMin= 6 ErrMin= 5.25D-04
 ErrMax= 5.25D-04  0.00D+00 EMaxC= 1.00D-01 BMatC= 1.13D-04 BMatP= 1.07D-03
 IDIUse=3 WtCom= 9.95D-01 WtEn= 5.25D-03
 Coeff-Com: -0.906D-03 0.258D-02 0.450D-01 0.142D+00 0.307D+00 0.504D+00
 Coeff-En:   0.000D+00 0.000D+00 0.000D+00 0.000D+00 0.883D-02 0.991D+00
 Coeff:     -0.901D-03 0.256D-02 0.448D-01 0.142D+00 0.305D+00 0.506D+00
 Gap=     0.241 Goal=   None    Shift=    0.000
 RMSDP=3.56D-05 MaxDP=2.12D-03 DE=-8.74D-04 OVMax= 2.87D-03

 Cycle   7  Pass 0  IDiag  1:
 RMSU=  2.43D-05    CP:  9.94D-01  7.05D-01  5.28D-01  7.05D-01  5.82D-01
                    CP:  5.70D-01
 E= -1714.04079824003     Delta-E=       -0.000073919633 Rises=F Damp=F
 DIIS: error= 2.36D-04 at cycle   7 NSaved=   7.
 NSaved= 7 IEnMin= 7 EnMin= -1714.04079824003     IErMin= 7 ErrMin= 2.36D-04
 ErrMax= 2.36D-04  0.00D+00 EMaxC= 1.00D-01 BMatC= 2.15D-05 BMatP= 1.13D-04
 IDIUse=3 WtCom= 9.98D-01 WtEn= 2.36D-03
 Coeff-Com: -0.626D-03-0.338D-03 0.131D-01 0.457D-01 0.134D+00 0.342D+00
 Coeff-Com:  0.467D+00
 Coeff-En:   0.000D+00 0.000D+00 0.000D+00 0.000D+00 0.000D+00 0.156D+00
 Coeff-En:   0.844D+00
 Coeff:     -0.624D-03-0.337D-03 0.130D-01 0.456D-01 0.133D+00 0.342D+00
 Coeff:      0.467D+00
 Gap=     0.241 Goal=   None    Shift=    0.000
 RMSDP=1.34D-05 MaxDP=7.63D-04 DE=-7.39D-05 OVMax= 1.10D-03

 Cycle   8  Pass 0  IDiag  1:
 RMSU=  6.13D-06    CP:  9.94D-01  7.04D-01  5.29D-01  7.04D-01  5.87D-01
                    CP:  6.43D-01  5.44D-01
 E= -1714.04081524460     Delta-E=       -0.000017004571 Rises=F Damp=F
 DIIS: error= 3.81D-05 at cycle   8 NSaved=   8.
 NSaved= 8 IEnMin= 8 EnMin= -1714.04081524460     IErMin= 8 ErrMin= 3.81D-05
 ErrMax= 3.81D-05  0.00D+00 EMaxC= 1.00D-01 BMatC= 7.76D-07 BMatP= 2.15D-05
 IDIUse=1 WtCom= 1.00D+00 WtEn= 0.00D+00
 Coeff-Com: -0.226D-03-0.392D-03 0.202D-02 0.860D-02 0.379D-01 0.122D+00
 Coeff-Com:  0.230D+00 0.600D+00
 Coeff:     -0.226D-03-0.392D-03 0.202D-02 0.860D-02 0.379D-01 0.122D+00
 Coeff:      0.230D+00 0.600D+00
 Gap=     0.241 Goal=   None    Shift=    0.000
 RMSDP=3.35D-06 MaxDP=1.64D-04 DE=-1.70D-05 OVMax= 2.18D-04

 Initial convergence to 1.0D-05 achieved.  Increase integral accuracy.
 Cycle   9  Pass 1  IDiag  1:
 E= -1714.04058928401     Delta-E=        0.000225960588 Rises=F Damp=F
 DIIS: error= 7.43D-05 at cycle   1 NSaved=   1.
 NSaved= 1 IEnMin= 1 EnMin= -1714.04058928401     IErMin= 1 ErrMin= 7.43D-05
 ErrMax= 7.43D-05  0.00D+00 EMaxC= 1.00D-01 BMatC= 9.11D-07 BMatP= 9.11D-07
 IDIUse=1 WtCom= 1.00D+00 WtEn= 0.00D+00
 Coeff-Com:  0.100D+01
 Coeff:      0.100D+01
 Gap=     0.241 Goal=   None    Shift=    0.000
 RMSDP=3.35D-06 MaxDP=1.64D-04 DE= 2.26D-04 OVMax= 2.06D-04

 Cycle  10  Pass 1  IDiag  1:
 RMSU=  3.08D-05    CP:  1.00D+00
 E= -1714.04058971763     Delta-E=       -0.000000433620 Rises=F Damp=F
 DIIS: error= 4.87D-05 at cycle   2 NSaved=   2.
 NSaved= 2 IEnMin= 2 EnMin= -1714.04058971763     IErMin= 2 ErrMin= 4.87D-05
 ErrMax= 4.87D-05  0.00D+00 EMaxC= 1.00D-01 BMatC= 6.35D-07 BMatP= 9.11D-07
 IDIUse=1 WtCom= 1.00D+00 WtEn= 0.00D+00
 Coeff-Com:  0.435D+00 0.565D+00
 Coeff:      0.435D+00 0.565D+00
 Gap=     0.241 Goal=   None    Shift=    0.000
 RMSDP=3.71D-06 MaxDP=2.04D-04 DE=-4.34D-07 OVMax= 2.50D-04

 Cycle  11  Pass 1  IDiag  1:
 RMSU=  3.71D-06    CP:  1.00D+00  9.96D-01
 E= -1714.04058990524     Delta-E=       -0.000000187609 Rises=F Damp=F
 DIIS: error= 4.38D-05 at cycle   3 NSaved=   3.
 NSaved= 3 IEnMin= 3 EnMin= -1714.04058990524     IErMin= 3 ErrMin= 4.38D-05
 ErrMax= 4.38D-05  0.00D+00 EMaxC= 1.00D-01 BMatC= 4.24D-07 BMatP= 6.35D-07
 IDIUse=1 WtCom= 1.00D+00 WtEn= 0.00D+00
 Coeff-Com:  0.588D-02 0.448D+00 0.546D+00
 Coeff:      0.588D-02 0.448D+00 0.546D+00
 Gap=     0.241 Goal=   None    Shift=    0.000
 RMSDP=1.73D-06 MaxDP=9.87D-05 DE=-1.88D-07 OVMax= 1.35D-04

 Cycle  12  Pass 1  IDiag  1:
 RMSU=  5.83D-07    CP:  1.00D+00  1.01D+00  5.71D-01
 E= -1714.04059023508     Delta-E=       -0.000000329841 Rises=F Damp=F
 DIIS: error= 4.70D-06 at cycle   4 NSaved=   4.
 NSaved= 4 IEnMin= 4 EnMin= -1714.04059023508     IErMin= 4 ErrMin= 4.70D-06
 ErrMax= 4.70D-06  0.00D+00 EMaxC= 1.00D-01 BMatC= 1.16D-08 BMatP= 4.24D-07
 IDIUse=1 WtCom= 1.00D+00 WtEn= 0.00D+00
 Coeff-Com: -0.612D-02 0.261D+00 0.333D+00 0.413D+00
 Coeff:     -0.612D-02 0.261D+00 0.333D+00 0.413D+00
 Gap=     0.241 Goal=   None    Shift=    0.000
 RMSDP=3.41D-07 MaxDP=1.68D-05 DE=-3.30D-07 OVMax= 2.12D-05

 Cycle  13  Pass 1  IDiag  1:
 RMSU=  1.81D-07    CP:  1.00D+00  1.01D+00  5.70D-01  5.05D-01
 E= -1714.04059024492     Delta-E=       -0.000000009843 Rises=F Damp=F
 DIIS: error= 1.34D-06 at cycle   5 NSaved=   5.
 NSaved= 5 IEnMin= 5 EnMin= -1714.04059024492     IErMin= 5 ErrMin= 1.34D-06
 ErrMax= 1.34D-06  0.00D+00 EMaxC= 1.00D-01 BMatC= 7.19D-10 BMatP= 1.16D-08
 IDIUse=1 WtCom= 1.00D+00 WtEn= 0.00D+00
 Coeff-Com: -0.406D-02 0.125D+00 0.161D+00 0.249D+00 0.470D+00
 Coeff:     -0.406D-02 0.125D+00 0.161D+00 0.249D+00 0.470D+00
 Gap=     0.241 Goal=   None    Shift=    0.000
 RMSDP=8.64D-08 MaxDP=4.53D-06 DE=-9.84D-09 OVMax= 5.72D-06

 Cycle  14  Pass 1  IDiag  1:
 RMSU=  6.44D-08    CP:  1.00D+00  1.01D+00  5.71D-01  5.40D-01  7.04D-01
 E= -1714.04059024549     Delta-E=       -0.000000000566 Rises=F Damp=F
 DIIS: error= 3.10D-07 at cycle   6 NSaved=   6.
 NSaved= 6 IEnMin= 6 EnMin= -1714.04059024549     IErMin= 6 ErrMin= 3.10D-07
 ErrMax= 3.10D-07  0.00D+00 EMaxC= 1.00D-01 BMatC= 4.51D-11 BMatP= 7.19D-10
 IDIUse=1 WtCom= 1.00D+00 WtEn= 0.00D+00
 Coeff-Com: -0.122D-02 0.287D-01 0.374D-01 0.715D-01 0.240D+00 0.623D+00
 Coeff:     -0.122D-02 0.287D-01 0.374D-01 0.715D-01 0.240D+00 0.623D+00
 Gap=     0.241 Goal=   None    Shift=    0.000
 RMSDP=2.24D-08 MaxDP=1.67D-06 DE=-5.66D-10 OVMax= 1.09D-06

 Cycle  15  Pass 1  IDiag  1:
 RMSU=  1.78D-08    CP:  1.00D+00  1.01D+00  5.71D-01  5.41D-01  7.51D-01
                    CP:  8.36D-01
 E= -1714.04059024558     Delta-E=       -0.000000000093 Rises=F Damp=F
 DIIS: error= 8.58D-08 at cycle   7 NSaved=   7.
 NSaved= 7 IEnMin= 7 EnMin= -1714.04059024558     IErMin= 7 ErrMin= 8.58D-08
 ErrMax= 8.58D-08  0.00D+00 EMaxC= 1.00D-01 BMatC= 4.99D-12 BMatP= 4.51D-11
 IDIUse=1 WtCom= 1.00D+00 WtEn= 0.00D+00
 Coeff-Com: -0.257D-03 0.295D-02 0.400D-02 0.130D-01 0.775D-01 0.321D+00
 Coeff-Com:  0.582D+00
 Coeff:     -0.257D-03 0.295D-02 0.400D-02 0.130D-01 0.775D-01 0.321D+00
 Coeff:      0.582D+00
 Gap=     0.241 Goal=   None    Shift=    0.000
 RMSDP=8.71D-09 MaxDP=5.73D-07 DE=-9.32D-11 OVMax= 3.79D-07

 SCF Done:  E(RB3LYP) =  -1714.04059025     A.U. after   15 cycles
            NFock= 15  Conv=0.87D-08     -V/T= 2.0068
 KE= 1.702520521295D+03 PE=-8.346071159201D+03 EE= 2.769226774840D+03
 Leave Link  502 at Fri Oct  2 02:50:45 2020, MaxMem=  2147483648 cpu:       359.3
 (Enter /prod/apps/gaussian/g09d1/l601.exe)
 Copying SCF densities to generalized density rwf, IOpCl= 0 IROHF=0.

 **********************************************************************

            Population analysis using the SCF density.

 **********************************************************************

 Orbital symmetries:
       Occupied  (A) (A) (A) (A) (A) (A) (A) (A) (A) (A) (A) (A)
                 (A) (A) (A) (A) (A) (A) (A) (A) (A) (A) (A) (A)
                 (A) (A) (A) (A) (A) (A) (A) (A) (A) (A) (A) (A)
                 (A) (A) (A) (A) (A) (A) (A) (A) (A) (A) (A) (A)
                 (A) (A) (A) (A) (A) (A) (A) (A) (A) (A) (A) (A)
                 (A) (A) (A) (A) (A) (A) (A) (A) (A) (A) (A) (A)
                 (A) (A) (A) (A) (A) (A) (A) (A) (A) (A) (A) (A)
                 (A) (A) (A) (A)
       Virtual   (A) (A) (A) (A) (A) (A) (A) (A) (A) (A) (A) (A)
                 (A) (A) (A) (A) (A) (A) (A) (A) (A) (A) (A) (A)
                 (A) (A) (A) (A) (A) (A) (A) (A) (A) (A) (A) (A)
                 (A) (A) (A) (A) (A) (A) (A) (A) (A) (A) (A) (A)
                 (A) (A) (A) (A) (A) (A) (A) (A) (A) (A) (A) (A)
                 (A) (A) (A) (A) (A) (A) (A) (A) (A) (A) (A) (A)
                 (A) (A) (A) (A) (A) (A) (A) (A) (A) (A) (A) (A)
                 (A) (A) (A) (A) (A) (A) (A) (A) (A) (A) (A) (A)
                 (A) (A) (A) (A) (A) (A) (A) (A) (A) (A) (A) (A)
                 (A) (A) (A) (A) (A) (A) (A) (A) (A) (A) (A) (A)
                 (A) (A) (A) (A) (A) (A) (A) (A) (A) (A) (A) (A)
                 (A) (A) (A) (A) (A) (A) (A) (A) (A) (A) (A) (A)
                 (A) (A) (A) (A) (A) (A) (A) (A) (A) (A) (A) (A)
                 (A) (A) (A) (A) (A) (A) (A) (A) (A) (A) (A) (A)
                 (A) (A) (A) (A) (A) (A) (A) (A) (A) (A) (A) (A)
                 (A) (A) (A) (A) (A) (A) (A) (A) (A) (A) (A) (A)
                 (A) (A) (A) (A) (A) (A) (A) (A) (A) (A) (A) (A)
                 (A) (A) (A) (A) (A) (A) (A) (A) (A) (A) (A) (A)
                 (A) (A) (A) (A) (A) (A) (A) (A) (A) (A) (A) (A)
                 (A) (A) (A) (A) (A) (A) (A) (A) (A) (A) (A) (A)
                 (A) (A) (A) (A) (A) (A) (A) (A) (A) (A) (A) (A)
                 (A) (A) (A) (A) (A) (A) (A) (A) (A) (A) (A) (A)
                 (A) (A) (A) (A) (A) (A) (A) (A) (A) (A) (A)
 The electronic state is 1-A.
 Alpha  occ. eigenvalues --  -89.14472 -89.08757 -19.15819 -19.15699 -19.13848
 Alpha  occ. eigenvalues --  -19.13839 -14.39468 -14.39168 -10.28595 -10.23835
 Alpha  occ. eigenvalues --  -10.23498 -10.23161 -10.22737 -10.21774 -10.20902
 Alpha  occ. eigenvalues --  -10.20685 -10.19836 -10.19776 -10.19768 -10.19674
 Alpha  occ. eigenvalues --  -10.19640  -8.16712  -8.11788  -6.13205  -6.13143
 Alpha  occ. eigenvalues --   -6.13083  -6.08199  -6.08147  -6.08087  -1.13521
 Alpha  occ. eigenvalues --   -1.09070  -1.01372  -0.98595  -0.96606  -0.95358
 Alpha  occ. eigenvalues --   -0.86750  -0.86032  -0.80615  -0.75388  -0.75151
 Alpha  occ. eigenvalues --   -0.74206  -0.73112  -0.72180  -0.68206  -0.63642
 Alpha  occ. eigenvalues --   -0.61447  -0.61161  -0.59031  -0.57929  -0.55355
 Alpha  occ. eigenvalues --   -0.53607  -0.52296  -0.51900  -0.50433  -0.49458
 Alpha  occ. eigenvalues --   -0.48805  -0.48394  -0.47254  -0.46745  -0.45628
 Alpha  occ. eigenvalues --   -0.45092  -0.44715  -0.43867  -0.43594  -0.43011
 Alpha  occ. eigenvalues --   -0.42719  -0.42506  -0.42135  -0.41403  -0.40440
 Alpha  occ. eigenvalues --   -0.39235  -0.38966  -0.37145  -0.36067  -0.35566
 Alpha  occ. eigenvalues --   -0.35190  -0.34664  -0.34380  -0.33178  -0.31856
 Alpha  occ. eigenvalues --   -0.31480  -0.30654  -0.30328  -0.28974  -0.27890
 Alpha  occ. eigenvalues --   -0.27009  -0.25771  -0.25063
 Alpha virt. eigenvalues --   -0.01008  -0.00911   0.02566   0.04376   0.04924
 Alpha virt. eigenvalues --    0.05611   0.06018   0.06723   0.06892   0.07569
 Alpha virt. eigenvalues --    0.08296   0.09119   0.09392   0.09683   0.11006
 Alpha virt. eigenvalues --    0.12113   0.12825   0.13270   0.14007   0.14280
 Alpha virt. eigenvalues --    0.14584   0.15009   0.15466   0.16049   0.17201
 Alpha virt. eigenvalues --    0.17671   0.17885   0.18086   0.18560   0.18732
 Alpha virt. eigenvalues --    0.19064   0.19903   0.20576   0.21111   0.23967
 Alpha virt. eigenvalues --    0.24386   0.25839   0.27064   0.28705   0.29812
 Alpha virt. eigenvalues --    0.31530   0.32836   0.33507   0.34475   0.36270
 Alpha virt. eigenvalues --    0.36842   0.38142   0.41394   0.43656   0.43761
 Alpha virt. eigenvalues --    0.44590   0.45760   0.47244   0.47875   0.48259
 Alpha virt. eigenvalues --    0.50115   0.51589   0.52344   0.52974   0.53650
 Alpha virt. eigenvalues --    0.54447   0.55056   0.56359   0.56872   0.57160
 Alpha virt. eigenvalues --    0.58545   0.58780   0.59381   0.59664   0.59866
 Alpha virt. eigenvalues --    0.60625   0.61463   0.61527   0.62279   0.63502
 Alpha virt. eigenvalues --    0.65794   0.66163   0.67196   0.67829   0.68228
 Alpha virt. eigenvalues --    0.70783   0.72066   0.72825   0.73883   0.75570
 Alpha virt. eigenvalues --    0.76461   0.76969   0.79525   0.79778   0.80202
 Alpha virt. eigenvalues --    0.81532   0.81838   0.82179   0.82664   0.83322
 Alpha virt. eigenvalues --    0.83830   0.84776   0.84845   0.85038   0.85978
 Alpha virt. eigenvalues --    0.86796   0.87070   0.87215   0.88468   0.89042
 Alpha virt. eigenvalues --    0.89495   0.90568   0.91077   0.91530   0.92114
 Alpha virt. eigenvalues --    0.92453   0.92939   0.94350   0.95063   0.95240
 Alpha virt. eigenvalues --    0.96619   0.97589   0.99279   0.99557   0.99896
 Alpha virt. eigenvalues --    1.01857   1.02765   1.04545   1.05090   1.05954
 Alpha virt. eigenvalues --    1.06446   1.07089   1.07531   1.10004   1.10740
 Alpha virt. eigenvalues --    1.11328   1.11575   1.14207   1.15995   1.16339
 Alpha virt. eigenvalues --    1.16877   1.17645   1.18749   1.19583   1.22415
 Alpha virt. eigenvalues --    1.23953   1.24380   1.25270   1.28602   1.29081
 Alpha virt. eigenvalues --    1.30444   1.34390   1.35404   1.38385   1.41032
 Alpha virt. eigenvalues --    1.41810   1.42290   1.43440   1.45439   1.47564
 Alpha virt. eigenvalues --    1.47848   1.48465   1.49770   1.50578   1.50750
 Alpha virt. eigenvalues --    1.53241   1.55520   1.60031   1.65426   1.66627
 Alpha virt. eigenvalues --    1.68563   1.69218   1.72453   1.72819   1.75542
 Alpha virt. eigenvalues --    1.76462   1.78427   1.79337   1.79999   1.80199
 Alpha virt. eigenvalues --    1.80652   1.81264   1.81577   1.81835   1.82471
 Alpha virt. eigenvalues --    1.82923   1.85169   1.86061   1.87455   1.87935
 Alpha virt. eigenvalues --    1.88244   1.90907   1.91318   1.92501   1.92989
 Alpha virt. eigenvalues --    1.94070   1.96431   1.96790   1.97058   1.98175
 Alpha virt. eigenvalues --    2.01036   2.02153   2.03660   2.03948   2.04168
 Alpha virt. eigenvalues --    2.05033   2.06143   2.07017   2.07914   2.09307
 Alpha virt. eigenvalues --    2.12089   2.12548   2.13118   2.13292   2.14370
 Alpha virt. eigenvalues --    2.15680   2.16259   2.17718   2.19143   2.20064
 Alpha virt. eigenvalues --    2.21309   2.23952   2.24976   2.25486   2.26905
 Alpha virt. eigenvalues --    2.28417   2.29958   2.30420   2.35018   2.35589
 Alpha virt. eigenvalues --    2.37606   2.38298   2.40428   2.41060   2.41381
 Alpha virt. eigenvalues --    2.45259   2.48213   2.49146   2.54719   2.56547
 Alpha virt. eigenvalues --    2.57295   2.59854   2.65354   2.68061   2.69633
 Alpha virt. eigenvalues --    2.70813   2.71380   2.72873   2.73459   2.73800
 Alpha virt. eigenvalues --    2.75922   2.76515   2.78953   2.82713   2.83323
 Alpha virt. eigenvalues --    2.85559   2.93640   3.04085   3.40147   3.77886
 Alpha virt. eigenvalues --    3.81240   3.91647   3.95634   3.99650   4.04472
 Alpha virt. eigenvalues --    4.08174   4.08389   4.10594   4.11037   4.14339
 Alpha virt. eigenvalues --    4.20469   4.23325   4.25995   4.32142   4.33226
 Alpha virt. eigenvalues --    4.34681   4.40506   4.51724   4.69518   4.73830
          Condensed to atoms (all electrons):
               1          2          3          4          5          6
     1  N    7.385988  -0.042728   0.218680  -0.037452  -0.051157  -0.052327
     2  N   -0.042728   7.237044  -0.005349  -0.007370  -0.000426  -0.000226
     3  C    0.218680  -0.005349   4.875686   0.344029   0.360077   0.331707
     4  C   -0.037452  -0.007370   0.344029   5.744181  -0.196762  -0.047647
     5  C   -0.051157  -0.000426   0.360077  -0.196762   5.743150  -0.051103
     6  C   -0.052327  -0.000226   0.331707  -0.047647  -0.051103   5.192257
     7  C   -0.005377  -0.000004  -0.034679  -0.007905   0.004151   0.342512
     8  C    0.000294  -0.000001   0.003634   0.000038  -0.000068  -0.039697
     9  C   -0.000005   0.000000   0.000100   0.000009  -0.000006  -0.003931
    10  C    0.000000   0.000000   0.000003   0.000000   0.000000  -0.000039
    11  C    0.000000   0.000000   0.000000   0.000000   0.000000   0.000018
    12  C    0.000000   0.000000   0.000002   0.000000   0.000000  -0.000073
    13  C   -0.000009   0.000000   0.000078  -0.000003  -0.000003  -0.003927
    14  C    0.002333   0.286767   0.000027   0.000092   0.000021   0.000001
    15  C   -0.009240   0.268334   0.000590   0.000327  -0.000013   0.000056
    16  O   -0.054020  -0.054874   0.004475  -0.002996  -0.009131   0.000077
    17  O   -0.000102  -0.000001   0.001605  -0.045386  -0.044057  -0.000055
    18  O   -0.000037   0.000000   0.000370  -0.046065  -0.045508  -0.002509
    19  O   -0.057329  -0.056105   0.002166  -0.000086  -0.000041  -0.000093
    20  S    0.122188   0.119773   0.006081  -0.009439  -0.005806   0.000890
    21  S    0.000826  -0.000053  -0.095209   0.131887   0.134365   0.004349
    22  H    0.302771   0.002676  -0.028366   0.005090  -0.000598  -0.005179
    23  H    0.001582   0.000148  -0.027273   0.341843   0.009705  -0.007154
    24  H   -0.006692   0.013492  -0.021567   0.325713   0.003241   0.003519
    25  H    0.001861  -0.000001  -0.030040   0.009912   0.341537  -0.004277
    26  H   -0.004763   0.000033  -0.021093   0.003693   0.326473   0.003056
    27  H    0.004229   0.000000  -0.029376  -0.005881  -0.003522   0.365086
    28  H   -0.005917   0.000002  -0.032332   0.005565  -0.005908   0.357994
    29  H    0.008213  -0.000054  -0.008128  -0.000335   0.000132  -0.036793
    30  H   -0.000066   0.000000  -0.004653   0.003117   0.000093  -0.041925
    31  H    0.000000   0.000000  -0.000062  -0.000016   0.000002   0.000276
    32  H    0.000000   0.000000   0.000000   0.000000   0.000000  -0.000001
    33  H    0.000000   0.000000   0.000000   0.000000   0.000000   0.000000
    34  H    0.000000   0.000000   0.000000   0.000000   0.000000  -0.000001
    35  H   -0.000005   0.000000  -0.000057   0.000000   0.000001   0.000260
    36  H    0.000108  -0.030007   0.000025   0.000026  -0.000005   0.000000
    37  H   -0.000080  -0.039294   0.000003   0.000117   0.000000   0.000000
    38  H   -0.000077  -0.046761  -0.000008  -0.000016   0.000000   0.000000
    39  H    0.011405  -0.032594  -0.000202   0.000071   0.000029  -0.000225
    40  H   -0.000121  -0.044783  -0.000031  -0.000021   0.000000   0.000000
    41  H   -0.000035  -0.035900   0.000005   0.000174   0.000001  -0.000001
               7          8          9         10         11         12
     1  N   -0.005377   0.000294  -0.000005   0.000000   0.000000   0.000000
     2  N   -0.000004  -0.000001   0.000000   0.000000   0.000000   0.000000
     3  C   -0.034679   0.003634   0.000100   0.000003   0.000000   0.000002
     4  C   -0.007905   0.000038   0.000009   0.000000   0.000000   0.000000
     5  C    0.004151  -0.000068  -0.000006   0.000000   0.000000   0.000000
     6  C    0.342512  -0.039697  -0.003931  -0.000039   0.000018  -0.000073
     7  C    5.187821   0.345226  -0.058031   0.006510   0.000399   0.006786
     8  C    0.345226   4.645527   0.546146  -0.019346  -0.034395  -0.019552
     9  C   -0.058031   0.546146   4.957760   0.526107  -0.036004  -0.047099
    10  C    0.006510  -0.019346   0.526107   4.861303   0.549798  -0.025936
    11  C    0.000399  -0.034395  -0.036004   0.549798   4.851887   0.550292
    12  C    0.006786  -0.019552  -0.047099  -0.025936   0.550292   4.864545
    13  C   -0.056516   0.549130  -0.037676  -0.046701  -0.036081   0.524768
    14  C    0.000000   0.000000   0.000000   0.000000   0.000000   0.000000
    15  C   -0.000212   0.000004   0.000000   0.000000   0.000000   0.000000
    16  O    0.000000   0.000000   0.000000   0.000000   0.000000   0.000000
    17  O    0.000000   0.000000   0.000000   0.000000   0.000000   0.000000
    18  O    0.000026   0.000000  -0.000002   0.000000   0.000000   0.000000
    19  O   -0.000001   0.000000   0.000000   0.000000   0.000000   0.000000
    20  S   -0.000131  -0.000002   0.000000   0.000000   0.000000   0.000000
    21  S   -0.000425  -0.000003  -0.000017   0.000000   0.000000   0.000000
    22  H   -0.000223  -0.000111   0.000001   0.000000   0.000000   0.000000
    23  H    0.000977  -0.000090   0.000004   0.000000   0.000000   0.000000
    24  H    0.000027   0.000000   0.000000   0.000000   0.000000   0.000000
    25  H    0.000173  -0.000013   0.000000   0.000000   0.000000   0.000000
    26  H   -0.000097   0.000001   0.000000   0.000000   0.000000   0.000000
    27  H   -0.033439  -0.001557   0.003705  -0.000122  -0.000005  -0.000012
    28  H   -0.040022  -0.001026   0.000001  -0.000013  -0.000005  -0.000113
    29  H    0.361354  -0.029964   0.003795  -0.000192   0.000010   0.000116
    30  H    0.358642  -0.027834  -0.004432   0.000087   0.000012  -0.000207
    31  H   -0.009197  -0.047973   0.355949  -0.043634   0.004798   0.000376
    32  H   -0.000182   0.003675  -0.038867   0.357339  -0.042739   0.004507
    33  H    0.000007   0.000739   0.004663  -0.042536   0.359559  -0.042760
    34  H   -0.000184   0.003749   0.000857   0.004533  -0.042702   0.356983
    35  H   -0.009856  -0.048582   0.006195   0.000346   0.004906  -0.045134
    36  H    0.000000   0.000000   0.000000   0.000000   0.000000   0.000000
    37  H    0.000000   0.000000   0.000000   0.000000   0.000000   0.000000
    38  H    0.000000   0.000000   0.000000   0.000000   0.000000   0.000000
    39  H    0.000562   0.000017   0.000000   0.000000   0.000000   0.000000
    40  H    0.000002   0.000000   0.000000   0.000000   0.000000   0.000000
    41  H   -0.000001   0.000000   0.000000   0.000000   0.000000   0.000000
              13         14         15         16         17         18
     1  N   -0.000009   0.002333  -0.009240  -0.054020  -0.000102  -0.000037
     2  N    0.000000   0.286767   0.268334  -0.054874  -0.000001   0.000000
     3  C    0.000078   0.000027   0.000590   0.004475   0.001605   0.000370
     4  C   -0.000003   0.000092   0.000327  -0.002996  -0.045386  -0.046065
     5  C   -0.000003   0.000021  -0.000013  -0.009131  -0.044057  -0.045508
     6  C   -0.003927   0.000001   0.000056   0.000077  -0.000055  -0.002509
     7  C   -0.056516   0.000000  -0.000212   0.000000   0.000000   0.000026
     8  C    0.549130   0.000000   0.000004   0.000000   0.000000   0.000000
     9  C   -0.037676   0.000000   0.000000   0.000000   0.000000  -0.000002
    10  C   -0.046701   0.000000   0.000000   0.000000   0.000000   0.000000
    11  C   -0.036081   0.000000   0.000000   0.000000   0.000000   0.000000
    12  C    0.524768   0.000000   0.000000   0.000000   0.000000   0.000000
    13  C    4.959653   0.000000   0.000000   0.000000   0.000000   0.000000
    14  C    0.000000   4.994915  -0.049390  -0.003670  -0.000005   0.000000
    15  C    0.000000  -0.049390   4.996822   0.001724   0.000000   0.000000
    16  O    0.000000  -0.003670   0.001724   8.269549  -0.000184   0.000000
    17  O    0.000000  -0.000005   0.000000  -0.000184   8.200200  -0.046785
    18  O    0.000000   0.000000   0.000000   0.000000  -0.046785   8.252409
    19  O    0.000000  -0.002280   0.002136  -0.046237   0.000000   0.000000
    20  S   -0.000001  -0.028556  -0.010143   0.408969   0.000022   0.000000
    21  S    0.000000  -0.000019   0.000021   0.003137   0.437761   0.412575
    22  H    0.000006  -0.000058  -0.000168  -0.000296   0.000002   0.000001
    23  H    0.000001  -0.000004  -0.000010   0.000044   0.000712   0.000250
    24  H    0.000000  -0.000601  -0.000689   0.000569   0.000506   0.001017
    25  H    0.000000   0.000000   0.000000   0.000204   0.000735  -0.000308
    26  H    0.000000   0.000012  -0.000005   0.016174  -0.000253   0.001015
    27  H    0.000027   0.000000  -0.000002   0.000002   0.000021   0.006066
    28  H    0.003399   0.000000   0.000001   0.000000   0.000001   0.000061
    29  H   -0.004172   0.000000  -0.000270   0.000002   0.000000  -0.000001
    30  H    0.003634   0.000000   0.000003   0.000000   0.000001   0.000000
    31  H    0.005981   0.000000   0.000000   0.000000   0.000000   0.000003
    32  H    0.000876   0.000000   0.000000   0.000000   0.000000   0.000000
    33  H    0.004660   0.000000   0.000000   0.000000   0.000000   0.000000
    34  H   -0.039503   0.000000   0.000000   0.000000   0.000000   0.000000
    35  H    0.354299   0.000000   0.000000   0.000000   0.000000   0.000000
    36  H    0.000000   0.378660   0.004403   0.011331   0.000024   0.000000
    37  H    0.000000   0.377909  -0.003117   0.000232   0.000000   0.000000
    38  H    0.000000   0.374082  -0.002301  -0.000516   0.000000   0.000000
    39  H   -0.000003   0.004580   0.375947   0.000018   0.000000   0.000000
    40  H    0.000000  -0.001711   0.374972  -0.000041   0.000000   0.000000
    41  H    0.000000  -0.003739   0.374565  -0.000051   0.000000   0.000000
              19         20         21         22         23         24
     1  N   -0.057329   0.122188   0.000826   0.302771   0.001582  -0.006692
     2  N   -0.056105   0.119773  -0.000053   0.002676   0.000148   0.013492
     3  C    0.002166   0.006081  -0.095209  -0.028366  -0.027273  -0.021567
     4  C   -0.000086  -0.009439   0.131887   0.005090   0.341843   0.325713
     5  C   -0.000041  -0.005806   0.134365  -0.000598   0.009705   0.003241
     6  C   -0.000093   0.000890   0.004349  -0.005179  -0.007154   0.003519
     7  C   -0.000001  -0.000131  -0.000425  -0.000223   0.000977   0.000027
     8  C    0.000000  -0.000002  -0.000003  -0.000111  -0.000090   0.000000
     9  C    0.000000   0.000000  -0.000017   0.000001   0.000004   0.000000
    10  C    0.000000   0.000000   0.000000   0.000000   0.000000   0.000000
    11  C    0.000000   0.000000   0.000000   0.000000   0.000000   0.000000
    12  C    0.000000   0.000000   0.000000   0.000000   0.000000   0.000000
    13  C    0.000000  -0.000001   0.000000   0.000006   0.000001   0.000000
    14  C   -0.002280  -0.028556  -0.000019  -0.000058  -0.000004  -0.000601
    15  C    0.002136  -0.010143   0.000021  -0.000168  -0.000010  -0.000689
    16  O   -0.046237   0.408969   0.003137  -0.000296   0.000044   0.000569
    17  O    0.000000   0.000022   0.437761   0.000002   0.000712   0.000506
    18  O    0.000000   0.000000   0.412575   0.000001   0.000250   0.001017
    19  O    8.224955   0.448817   0.000012   0.005598   0.000001   0.000025
    20  S    0.448817  13.639647   0.001335  -0.018862   0.000010   0.005508
    21  S    0.000012   0.001335  13.873950  -0.000183  -0.010816  -0.001465
    22  H    0.005598  -0.018862  -0.000183   0.370128  -0.000050   0.000082
    23  H    0.000001   0.000010  -0.010816  -0.000050   0.496096  -0.017966
    24  H    0.000025   0.005508  -0.001465   0.000082  -0.017966   0.454418
    25  H    0.000000   0.000308  -0.011048   0.000322  -0.000272  -0.000237
    26  H   -0.000200   0.000681  -0.002212  -0.000031  -0.000254  -0.000061
    27  H    0.000000   0.000072   0.007915  -0.000008   0.000001   0.000089
    28  H   -0.000004  -0.000272  -0.000087   0.006232   0.000207  -0.000125
    29  H   -0.000005   0.000330  -0.000018   0.000212   0.000022  -0.000037
    30  H    0.000000  -0.000095   0.000107   0.000113   0.006594  -0.000239
    31  H    0.000000   0.000000   0.000003   0.000000   0.000183   0.000000
    32  H    0.000000   0.000000   0.000000   0.000000   0.000000   0.000000
    33  H    0.000000   0.000000   0.000000   0.000000   0.000000   0.000000
    34  H    0.000000   0.000000   0.000000   0.000000   0.000000   0.000000
    35  H    0.000000   0.000000   0.000000   0.000044   0.000000   0.000000
    36  H   -0.000159  -0.004413   0.000110  -0.000004   0.000000   0.000042
    37  H   -0.000104   0.002061  -0.000003   0.000001   0.000000  -0.000385
    38  H    0.002269  -0.002893   0.000000   0.000007   0.000000   0.000112
    39  H   -0.001626  -0.003574   0.000007  -0.000522   0.000007  -0.000207
    40  H    0.004909  -0.007128   0.000000   0.000072   0.000001   0.000096
    41  H    0.000030   0.003105  -0.000001  -0.000001   0.000002  -0.000309
              25         26         27         28         29         30
     1  N    0.001861  -0.004763   0.004229  -0.005917   0.008213  -0.000066
     2  N   -0.000001   0.000033   0.000000   0.000002  -0.000054   0.000000
     3  C   -0.030040  -0.021093  -0.029376  -0.032332  -0.008128  -0.004653
     4  C    0.009912   0.003693  -0.005881   0.005565  -0.000335   0.003117
     5  C    0.341537   0.326473  -0.003522  -0.005908   0.000132   0.000093
     6  C   -0.004277   0.003056   0.365086   0.357994  -0.036793  -0.041925
     7  C    0.000173  -0.000097  -0.033439  -0.040022   0.361354   0.358642
     8  C   -0.000013   0.000001  -0.001557  -0.001026  -0.029964  -0.027834
     9  C    0.000000   0.000000   0.003705   0.000001   0.003795  -0.004432
    10  C    0.000000   0.000000  -0.000122  -0.000013  -0.000192   0.000087
    11  C    0.000000   0.000000  -0.000005  -0.000005   0.000010   0.000012
    12  C    0.000000   0.000000  -0.000012  -0.000113   0.000116  -0.000207
    13  C    0.000000   0.000000   0.000027   0.003399  -0.004172   0.003634
    14  C    0.000000   0.000012   0.000000   0.000000   0.000000   0.000000
    15  C    0.000000  -0.000005  -0.000002   0.000001  -0.000270   0.000003
    16  O    0.000204   0.016174   0.000002   0.000000   0.000002   0.000000
    17  O    0.000735  -0.000253   0.000021   0.000001   0.000000   0.000001
    18  O   -0.000308   0.001015   0.006066   0.000061  -0.000001   0.000000
    19  O    0.000000  -0.000200   0.000000  -0.000004  -0.000005   0.000000
    20  S    0.000308   0.000681   0.000072  -0.000272   0.000330  -0.000095
    21  S   -0.011048  -0.002212   0.007915  -0.000087  -0.000018   0.000107
    22  H    0.000322  -0.000031  -0.000008   0.006232   0.000212   0.000113
    23  H   -0.000272  -0.000254   0.000001   0.000207   0.000022   0.006594
    24  H   -0.000237  -0.000061   0.000089  -0.000125  -0.000037  -0.000239
    25  H    0.500316  -0.017710  -0.000167   0.003513  -0.000003   0.000009
    26  H   -0.017710   0.445662   0.000178   0.000034   0.000003   0.000000
    27  H   -0.000167   0.000178   0.522827  -0.028435   0.004961  -0.003784
    28  H    0.003513   0.000034  -0.028435   0.587004  -0.004630   0.005634
    29  H   -0.000003   0.000003   0.004961  -0.004630   0.574115  -0.033520
    30  H    0.000009   0.000000  -0.003784   0.005634  -0.033520   0.585790
    31  H    0.000000   0.000000   0.000787   0.000036   0.000058   0.004957
    32  H    0.000000   0.000000   0.000004   0.000000   0.000003  -0.000006
    33  H    0.000000   0.000000   0.000000   0.000000   0.000000   0.000000
    34  H    0.000000   0.000000   0.000000   0.000003  -0.000007   0.000003
    35  H    0.000000   0.000000   0.000036   0.000620   0.005732   0.000076
    36  H    0.000000   0.000001   0.000000   0.000000   0.000000   0.000000
    37  H    0.000000   0.000000   0.000000   0.000000   0.000000   0.000000
    38  H    0.000000   0.000000   0.000000   0.000000   0.000000   0.000000
    39  H    0.000000   0.000001   0.000003   0.000001   0.002243   0.000231
    40  H    0.000000   0.000000   0.000000   0.000000  -0.000004   0.000000
    41  H    0.000000   0.000000   0.000000   0.000000  -0.000002   0.000007
              31         32         33         34         35         36
     1  N    0.000000   0.000000   0.000000   0.000000  -0.000005   0.000108
     2  N    0.000000   0.000000   0.000000   0.000000   0.000000  -0.030007
     3  C   -0.000062   0.000000   0.000000   0.000000  -0.000057   0.000025
     4  C   -0.000016   0.000000   0.000000   0.000000   0.000000   0.000026
     5  C    0.000002   0.000000   0.000000   0.000000   0.000001  -0.000005
     6  C    0.000276  -0.000001   0.000000  -0.000001   0.000260   0.000000
     7  C   -0.009197  -0.000182   0.000007  -0.000184  -0.009856   0.000000
     8  C   -0.047973   0.003675   0.000739   0.003749  -0.048582   0.000000
     9  C    0.355949  -0.038867   0.004663   0.000857   0.006195   0.000000
    10  C   -0.043634   0.357339  -0.042536   0.004533   0.000346   0.000000
    11  C    0.004798  -0.042739   0.359559  -0.042702   0.004906   0.000000
    12  C    0.000376   0.004507  -0.042760   0.356983  -0.045134   0.000000
    13  C    0.005981   0.000876   0.004660  -0.039503   0.354299   0.000000
    14  C    0.000000   0.000000   0.000000   0.000000   0.000000   0.378660
    15  C    0.000000   0.000000   0.000000   0.000000   0.000000   0.004403
    16  O    0.000000   0.000000   0.000000   0.000000   0.000000   0.011331
    17  O    0.000000   0.000000   0.000000   0.000000   0.000000   0.000024
    18  O    0.000003   0.000000   0.000000   0.000000   0.000000   0.000000
    19  O    0.000000   0.000000   0.000000   0.000000   0.000000  -0.000159
    20  S    0.000000   0.000000   0.000000   0.000000   0.000000  -0.004413
    21  S    0.000003   0.000000   0.000000   0.000000   0.000000   0.000110
    22  H    0.000000   0.000000   0.000000   0.000000   0.000044  -0.000004
    23  H    0.000183   0.000000   0.000000   0.000000   0.000000   0.000000
    24  H    0.000000   0.000000   0.000000   0.000000   0.000000   0.000042
    25  H    0.000000   0.000000   0.000000   0.000000   0.000000   0.000000
    26  H    0.000000   0.000000   0.000000   0.000000   0.000000   0.000001
    27  H    0.000787   0.000004   0.000000   0.000000   0.000036   0.000000
    28  H    0.000036   0.000000   0.000000   0.000003   0.000620   0.000000
    29  H    0.000058   0.000003   0.000000  -0.000007   0.005732   0.000000
    30  H    0.004957  -0.000006   0.000000   0.000003   0.000076   0.000000
    31  H    0.604510  -0.005554  -0.000181   0.000018  -0.000183   0.000000
    32  H   -0.005554   0.591298  -0.005431  -0.000188   0.000018   0.000000
    33  H   -0.000181  -0.005431   0.593509  -0.005458  -0.000183   0.000000
    34  H    0.000018  -0.000188  -0.005458   0.594856  -0.005691   0.000000
    35  H   -0.000183   0.000018  -0.000183  -0.005691   0.617712   0.000000
    36  H    0.000000   0.000000   0.000000   0.000000   0.000000   0.470964
    37  H    0.000000   0.000000   0.000000   0.000000   0.000000  -0.020223
    38  H    0.000000   0.000000   0.000000   0.000000   0.000000  -0.028695
    39  H    0.000000   0.000000   0.000000   0.000000   0.000000  -0.000182
    40  H    0.000000   0.000000   0.000000   0.000000   0.000000  -0.000182
    41  H    0.000000   0.000000   0.000000   0.000000   0.000000   0.000014
              37         38         39         40         41
     1  N   -0.000080  -0.000077   0.011405  -0.000121  -0.000035
     2  N   -0.039294  -0.046761  -0.032594  -0.044783  -0.035900
     3  C    0.000003  -0.000008  -0.000202  -0.000031   0.000005
     4  C    0.000117  -0.000016   0.000071  -0.000021   0.000174
     5  C    0.000000   0.000000   0.000029   0.000000   0.000001
     6  C    0.000000   0.000000  -0.000225   0.000000  -0.000001
     7  C    0.000000   0.000000   0.000562   0.000002  -0.000001
     8  C    0.000000   0.000000   0.000017   0.000000   0.000000
     9  C    0.000000   0.000000   0.000000   0.000000   0.000000
    10  C    0.000000   0.000000   0.000000   0.000000   0.000000
    11  C    0.000000   0.000000   0.000000   0.000000   0.000000
    12  C    0.000000   0.000000   0.000000   0.000000   0.000000
    13  C    0.000000   0.000000  -0.000003   0.000000   0.000000
    14  C    0.377909   0.374082   0.004580  -0.001711  -0.003739
    15  C   -0.003117  -0.002301   0.375947   0.374972   0.374565
    16  O    0.000232  -0.000516   0.000018  -0.000041  -0.000051
    17  O    0.000000   0.000000   0.000000   0.000000   0.000000
    18  O    0.000000   0.000000   0.000000   0.000000   0.000000
    19  O   -0.000104   0.002269  -0.001626   0.004909   0.000030
    20  S    0.002061  -0.002893  -0.003574  -0.007128   0.003105
    21  S   -0.000003   0.000000   0.000007   0.000000  -0.000001
    22  H    0.000001   0.000007  -0.000522   0.000072  -0.000001
    23  H    0.000000   0.000000   0.000007   0.000001   0.000002
    24  H   -0.000385   0.000112  -0.000207   0.000096  -0.000309
    25  H    0.000000   0.000000   0.000000   0.000000   0.000000
    26  H    0.000000   0.000000   0.000001   0.000000   0.000000
    27  H    0.000000   0.000000   0.000003   0.000000   0.000000
    28  H    0.000000   0.000000   0.000001   0.000000   0.000000
    29  H    0.000000   0.000000   0.002243  -0.000004  -0.000002
    30  H    0.000000   0.000000   0.000231   0.000000   0.000007
    31  H    0.000000   0.000000   0.000000   0.000000   0.000000
    32  H    0.000000   0.000000   0.000000   0.000000   0.000000
    33  H    0.000000   0.000000   0.000000   0.000000   0.000000
    34  H    0.000000   0.000000   0.000000   0.000000   0.000000
    35  H    0.000000   0.000000   0.000000   0.000000   0.000000
    36  H   -0.020223  -0.028695  -0.000182  -0.000182   0.000014
    37  H    0.549952  -0.040744   0.000075  -0.001806   0.005484
    38  H   -0.040744   0.570505  -0.000189   0.008229  -0.001423
    39  H    0.000075  -0.000189   0.506894  -0.029703  -0.023311
    40  H   -0.001806   0.008229  -0.029703   0.559036  -0.036858
    41  H    0.005484  -0.001423  -0.023311  -0.036858   0.549051
 Mulliken charges:
               1
     1  N   -0.732942
     2  N   -0.531738
     3  C    0.189083
     4  C   -0.508507
     5  C   -0.508862
     6  C   -0.304875
     7  C   -0.358691
     8  C    0.172034
     9  C   -0.179223
    10  C   -0.127505
    11  C   -0.129748
    12  C   -0.127489
    13  C   -0.181918
    14  C   -0.329366
    15  C   -0.324346
    16  O   -0.544492
    17  O   -0.504762
    18  O   -0.532579
    19  O   -0.526650
    20  S    1.331518
    21  S    1.113201
    22  H    0.361300
    23  H    0.205498
    24  H    0.242127
    25  H    0.205183
    26  H    0.249663
    27  H    0.190297
    28  H    0.148582
    29  H    0.156834
    30  H    0.147651
    31  H    0.128863
    32  H    0.135248
    33  H    0.133413
    34  H    0.132732
    35  H    0.119446
    36  H    0.218162
    37  H    0.169925
    38  H    0.168419
    39  H    0.190247
    40  H    0.175072
    41  H    0.169194
 Sum of Mulliken charges =   0.00000
 Mulliken charges with hydrogens summed into heavy atoms:
               1
     1  N   -0.371641
     2  N   -0.531738
     3  C    0.189083
     4  C   -0.060883
     5  C   -0.054015
     6  C    0.034005
     7  C   -0.054206
     8  C    0.172034
     9  C   -0.050361
    10  C    0.007743
    11  C    0.003665
    12  C    0.005242
    13  C   -0.062471
    14  C    0.227140
    15  C    0.210167
    16  O   -0.544492
    17  O   -0.504762
    18  O   -0.532579
    19  O   -0.526650
    20  S    1.331518
    21  S    1.113201
 Electronic spatial extent (au):  <R**2>=           8685.4003
 Charge=              0.0000 electrons
 Dipole moment (field-independent basis, Debye):
    X=              3.4245    Y=             -5.0723    Z=              1.7889  Tot=              6.3761
 Quadrupole moment (field-independent basis, Debye-Ang):
   XX=           -140.8699   YY=           -161.0049   ZZ=           -130.5749
   XY=              7.6996   XZ=            -12.4974   YZ=             -7.5992
 Traceless Quadrupole moment (field-independent basis, Debye-Ang):
   XX=              3.2800   YY=            -16.8550   ZZ=             13.5750
   XY=              7.6996   XZ=            -12.4974   YZ=             -7.5992
 Octapole moment (field-independent basis, Debye-Ang**2):
  XXX=             34.3722  YYY=            -78.5496  ZZZ=             -0.5905  XYY=             15.5784
  XXY=            -24.9334  XXZ=             38.7235  XZZ=            -22.0100  YZZ=             10.8581
  YYZ=              1.7338  XYZ=             44.8939
 Hexadecapole moment (field-independent basis, Debye-Ang**3):
 XXXX=          -7305.9261 YYYY=          -3049.4503 ZZZZ=           -805.9953 XXXY=            136.6424
 XXXZ=           -168.6707 YYYX=             78.4612 YYYZ=            -73.3751 ZZZX=            -20.2320
 ZZZY=             -6.0921 XXYY=          -1842.5122 XXZZ=          -1460.6897 YYZZ=           -563.8355
 XXYZ=             16.2874 YYXZ=            -56.6944 ZZXY=              0.2129
 N-N= 2.160283272820D+03 E-N=-8.346071193842D+03  KE= 1.702520521295D+03
 No NMR shielding tensors so no spin-rotation constants.
 Leave Link  601 at Fri Oct  2 02:50:45 2020, MaxMem=  2147483648 cpu:         0.3
 (Enter /prod/apps/gaussian/g09d1/l9999.exe)
 1\1\GINC-PIRINEUS7\SP\RB3LYP\6-31G(d)\C13H20N2O4S2\UBAFAR01\02-Oct-202
 0\0\\#p b3lyp/6-31G(d)\\SM40.n.12w.pdb.xyz\\0,1\N,0,1.005,-0.791,0.986
 \N,0,3.309,-1.429,0.03\C,0,0.308,0.167,0.116\C,0,1.,0.365,-1.27\C,0,0.
 345,1.67,0.577\C,0,-1.146,-0.312,-0.023\C,0,-1.301,-1.72,-0.618\C,0,-2
 .754,-2.112,-0.772\C,0,-3.469,-1.777,-1.93\C,0,-4.817,-2.112,-2.062\C,
 0,-5.475,-2.791,-1.034\C,0,-4.773,-3.132,0.125\C,0,-3.425,-2.794,0.252
 \C,0,4.734,-1.121,-0.181\C,0,2.983,-2.855,-0.114\O,0,3.129,0.691,1.366
 \O,0,2.038,2.939,-1.228\O,0,-0.393,2.64,-1.88\O,0,2.766,-1.481,2.605\S
 ,0,2.626,-0.691,1.372\S,0,0.785,2.167,-1.121\H,0,0.485,-1.005,1.839\H,
 0,0.488,-0.066,-2.129\H,0,2.056,0.095,-1.274\H,0,-0.595,2.092,0.931\H,
 0,1.173,1.891,1.248\H,0,-1.674,0.415,-0.647\H,0,-1.617,-0.272,0.966\H,
 0,-0.787,-2.438,0.027\H,0,-0.807,-1.756,-1.595\H,0,-2.962,-1.254,-2.73
 6\H,0,-5.352,-1.848,-2.969\H,0,-6.522,-3.055,-1.136\H,0,-5.274,-3.664,
 0.927\H,0,-2.883,-3.067,1.153\H,0,4.888,-0.047,-0.109\H,0,4.986,-1.453
 ,-1.19\H,0,5.383,-1.639,0.535\H,0,1.91,-2.993,0.014\H,0,3.525,-3.478,0
 .606\H,0,3.262,-3.152,-1.126\\Version=AM64L-G09RevD.01\State=1-A\HF=-1
 714.0405902\RMSD=8.707e-09\Dipole=-0.6637188,-2.4188871,-0.036896\Quad
 rupole=10.1792809,-9.7757605,-0.4035204,-6.6562962,-8.3736162,8.327474
 2\PG=C01 [X(C13H20N2O4S2)]\\@


            ARSENIC

 FOR SMELTER FUMES HAVE I BEEN NAMED,
    I AM AN EVIL POISONOUS SMOKE...
 BUT WHEN FROM POISON I AM FREED,
    THROUGH ART AND SLEIGHT OF HAND,
 THEN CAN I CURE BOTH MAN AND BEAST,
    FROM DIRE DISEASE OFTTIMES DIRECT THEM;
 BUT PREPARE ME CORRECTLY, AND TAKE GREAT CARE
    THAT YOU FAITHFULLY KEEP WATCHFUL GUARD OVER ME;
 FOR ELSE I AM POISON, AND POISON REMAIN,
    THAT PIERCES THE HEART OF MANY A ONE.

 ATTRIBUTED TO THE PROBABLY MYTHICAL 15TH
 CENTURY MONK, BASILIUS VALENTINUS
 Job cpu time:       0 days  0 hours  6 minutes  6.2 seconds.
 File lengths (MBytes):  RWF=     73 Int=      0 D2E=      0 Chk=      6 Scr=      1
 Normal termination of Gaussian 09 at Fri Oct  2 02:50:45 2020.
 Initial command:
 /prod/apps/gaussian/g09d1/l1.exe "/tmp/ubafar01/1462884/Gau-72536.inp" -scrdir="/tmp/ubafar01/1462884/"
 Entering Link 1 = /prod/apps/gaussian/g09d1/l1.exe PID=     73076.
  
[...]
     9  C   -0.039664   0.000000   0.000000   0.000000   0.000000  -0.000002
    10  C   -0.046639   0.000000   0.000000   0.000000   0.000000   0.000000
    11  C   -0.038433   0.000000   0.000000   0.000000   0.000000   0.000000
    12  C    0.519309   0.000000   0.000000   0.000000   0.000000   0.000000
    13  C    4.980481   0.000000   0.000000   0.000000   0.000000   0.000000
    14  C    0.000000   4.994956  -0.048360  -0.004014  -0.000005   0.000000
    15  C    0.000000  -0.048360   5.001039   0.001601   0.000000   0.000000
    16  O    0.000000  -0.004014   0.001601   8.305198  -0.000201   0.000000
    17  O    0.000000  -0.000005   0.000000  -0.000201   8.258084  -0.045780
    18  O    0.000000   0.000000   0.000000   0.000000  -0.045780   8.294558
    19  O    0.000000  -0.002094   0.002058  -0.045396   0.000000   0.000000
    20  S    0.000000  -0.027231  -0.011907   0.409825   0.000034   0.000000
    21  S    0.000000  -0.000016   0.000019   0.003495   0.431965   0.411928
    22  H    0.000005  -0.000044  -0.000202  -0.000346   0.000002   0.000001
    23  H    0.000001  -0.000003  -0.000016   0.000042   0.000689   0.000065
    24  H    0.000000  -0.000703  -0.000743   0.000527   0.000445   0.000998
    25  H    0.000000   0.000000   0.000000   0.000188   0.000720  -0.000414
    26  H    0.000000   0.000011  -0.000005   0.016370  -0.000190   0.001058
    27  H    0.000042   0.000000  -0.000002   0.000002   0.000018   0.005319
    28  H    0.003239   0.000000   0.000001   0.000000   0.000001   0.000054
    29  H   -0.004062   0.000000  -0.000225   0.000002   0.000000  -0.000001
    30  H    0.003526   0.000000   0.000008   0.000000   0.000000   0.000000
    31  H    0.005933   0.000000   0.000000   0.000000   0.000000   0.000003
    32  H    0.000762   0.000000   0.000000   0.000000   0.000000   0.000000
    33  H    0.004599   0.000000   0.000000   0.000000   0.000000   0.000000
    34  H   -0.038501   0.000000   0.000000   0.000000   0.000000   0.000000
    35  H    0.359407   0.000000   0.000000   0.000000   0.000000   0.000000
    36  H    0.000000   0.377224   0.004425   0.011051   0.000022   0.000000
    37  H    0.000000   0.380953  -0.002862   0.000217   0.000000   0.000000
    38  H    0.000000   0.375172  -0.001956  -0.000483   0.000000   0.000000
    39  H   -0.000003   0.004485   0.375595   0.000021   0.000000   0.000000
    40  H    0.000000  -0.001799   0.376138  -0.000040   0.000000   0.000000
    41  H    0.000000  -0.003642   0.378201  -0.000050   0.000000   0.000000
              19         20         21         22         23         24
     1  N   -0.058025   0.148625   0.001230   0.302391   0.001523  -0.006997
     2  N   -0.056298   0.142581  -0.000091   0.002180   0.000135   0.014052
     3  C    0.002059   0.004683  -0.096355  -0.024584  -0.027079  -0.022314
     4  C   -0.000088  -0.008524   0.147835   0.004288   0.345883   0.326902
     5  C   -0.000039  -0.007092   0.150475  -0.000587   0.009149   0.003234
     6  C   -0.000092   0.000990   0.005963  -0.004374  -0.006735   0.003482
     7  C   -0.000001  -0.000100  -0.000489  -0.000261   0.001446  -0.000007
     8  C    0.000000  -0.000002  -0.000007  -0.000089  -0.000113   0.000000
     9  C    0.000000   0.000000  -0.000016   0.000001   0.000009   0.000000
    10  C    0.000000   0.000000   0.000000   0.000000   0.000000   0.000000
    11  C    0.000000   0.000000   0.000000   0.000000   0.000000   0.000000
    12  C    0.000000   0.000000   0.000000   0.000000   0.000000   0.000000
    13  C    0.000000   0.000000   0.000000   0.000005   0.000001   0.000000
    14  C   -0.002094  -0.027231  -0.000016  -0.000044  -0.000003  -0.000703
    15  C    0.002058  -0.011907   0.000019  -0.000202  -0.000016  -0.000743
    16  O   -0.045396   0.409825   0.003495  -0.000346   0.000042   0.000527
    17  O    0.000000   0.000034   0.431965   0.000002   0.000689   0.000445
    18  O    0.000000   0.000000   0.411928   0.000001   0.000065   0.000998
    19  O    8.265110   0.447230   0.000013   0.004424   0.000001   0.000027
    20  S    0.447230  13.587129   0.001712  -0.015979   0.000014   0.006052
    21  S    0.000013   0.001712  13.856403  -0.000197  -0.010975  -0.002065
    22  H    0.004424  -0.015979  -0.000197   0.312536  -0.000036   0.000074
    23  H    0.000001   0.000014  -0.010975  -0.000036   0.462077  -0.014465
    24  H    0.000027   0.006052  -0.002065   0.000074  -0.014465   0.442951
    25  H    0.000000   0.000279  -0.011683   0.000250  -0.000254  -0.000219
    26  H   -0.000193   0.000771  -0.003597  -0.000017  -0.000239  -0.000103
    27  H    0.000000   0.000052   0.007705   0.000027   0.000055   0.000077
    28  H   -0.000004  -0.000205  -0.000194   0.004765   0.000195  -0.000114
    29  H   -0.000004   0.000280  -0.000009   0.000267   0.000012  -0.000033
    30  H    0.000000  -0.000092   0.000055   0.000081   0.006003  -0.000219
    31  H    0.000000   0.000000   0.000002   0.000000   0.000168   0.000000
    32  H    0.000000   0.000000   0.000000   0.000000   0.000000   0.000000
    33  H    0.000000   0.000000   0.000000   0.000000   0.000000   0.000000
    34  H    0.000000   0.000000   0.000000   0.000000   0.000000   0.000000
    35  H    0.000000   0.000000   0.000000   0.000032   0.000000   0.000000
    36  H   -0.000153  -0.004307   0.000114  -0.000004   0.000000   0.000038
    37  H   -0.000100   0.002241  -0.000003   0.000001   0.000000  -0.000383
    38  H    0.002247  -0.003371  -0.000001   0.000006   0.000000   0.000114
    39  H   -0.001642  -0.002643   0.000007  -0.000435   0.000004  -0.000221
    40  H    0.004951  -0.007855   0.000000   0.000066   0.000001   0.000098
    41  H    0.000025   0.003094  -0.000001  -0.000001   0.000002  -0.000308
              25         26         27         28         29         30
     1  N    0.001679  -0.005118   0.004294  -0.005097   0.007527  -0.000095
     2  N   -0.000001   0.000024   0.000001   0.000002  -0.000051   0.000000
     3  C   -0.028102  -0.021565  -0.030513  -0.029492  -0.008102  -0.004641
     4  C    0.009211   0.003975  -0.006084   0.005258  -0.000300   0.003192
     5  C    0.345526   0.327102  -0.003797  -0.005715   0.000122   0.000074
     6  C   -0.003879   0.003058   0.363914   0.364488  -0.035022  -0.040613
     7  C    0.000148  -0.000094  -0.035524  -0.037953   0.364129   0.361794
     8  C   -0.000012   0.000001  -0.001573  -0.001255  -0.029129  -0.028346
     9  C    0.000000   0.000000   0.003761   0.000029   0.003770  -0.004144
    10  C    0.000000   0.000000  -0.000130  -0.000009  -0.000192   0.000111
    11  C    0.000000   0.000000  -0.000005  -0.000005   0.000010   0.000012
    12  C    0.000000   0.000000  -0.000011  -0.000107   0.000127  -0.000204
    13  C    0.000000   0.000000   0.000042   0.003239  -0.004062   0.003526
    14  C    0.000000   0.000011   0.000000   0.000000   0.000000   0.000000
    15  C    0.000000  -0.000005  -0.000002   0.000001  -0.000225   0.000008
    16  O    0.000188   0.016370   0.000002   0.000000   0.000002   0.000000
    17  O    0.000720  -0.000190   0.000018   0.000001   0.000000   0.000000
    18  O   -0.000414   0.001058   0.005319   0.000054  -0.000001   0.000000
    19  O    0.000000  -0.000193   0.000000  -0.000004  -0.000004   0.000000
    20  S    0.000279   0.000771   0.000052  -0.000205   0.000280  -0.000092
    21  S   -0.011683  -0.003597   0.007705  -0.000194  -0.000009   0.000055
    22  H    0.000250  -0.000017   0.000027   0.004765   0.000267   0.000081
    23  H   -0.000254  -0.000239   0.000055   0.000195   0.000012   0.006003
    24  H   -0.000219  -0.000103   0.000077  -0.000114  -0.000033  -0.000219
    25  H    0.467587  -0.014506  -0.000080   0.003178  -0.000003   0.000010
    26  H   -0.014506   0.449331   0.000174   0.000024   0.000003   0.000000
    27  H   -0.000080   0.000174   0.541892  -0.028328   0.004951  -0.003780
    28  H    0.003178   0.000024  -0.028328   0.549414  -0.004383   0.005182
    29  H   -0.000003   0.000003   0.004951  -0.004383   0.552538  -0.032142
    30  H    0.000010   0.000000  -0.003780   0.005182  -0.032142   0.567313
    31  H    0.000000   0.000000   0.000793   0.000034   0.000062   0.004574
    32  H    0.000000   0.000000   0.000004   0.000000   0.000003  -0.000006
    33  H    0.000000   0.000000   0.000000   0.000000   0.000000   0.000000
    34  H    0.000000   0.000000   0.000000   0.000003  -0.000006   0.000003
    35  H    0.000000   0.000000   0.000034   0.000537   0.005218   0.000074
    36  H    0.000000   0.000001   0.000000   0.000000   0.000000   0.000000
    37  H    0.000000   0.000000   0.000000   0.000000   0.000000   0.000000
    38  H    0.000000   0.000000   0.000000   0.000000   0.000000   0.000000
    39  H    0.000000   0.000001   0.000003   0.000001   0.002092   0.000205
    40  H    0.000000   0.000000   0.000000   0.000000  -0.000003   0.000000
    41  H    0.000000   0.000000   0.000000   0.000000  -0.000003   0.000006
              31         32         33         34         35         36
     1  N    0.000000   0.000000   0.000000   0.000000  -0.000003   0.000107
     2  N    0.000000   0.000000   0.000000   0.000000   0.000000  -0.031890
     3  C   -0.000063   0.000000   0.000000   0.000000  -0.000053   0.000024
     4  C   -0.000012   0.000000   0.000000   0.000000   0.000000   0.000023
     5  C    0.000002   0.000000   0.000000   0.000000   0.000001  -0.000005
     6  C    0.000277  -0.000001   0.000000  -0.000001   0.000282   0.000000
     7  C   -0.008691  -0.000173   0.000006  -0.000174  -0.009214   0.000000
     8  C   -0.046313   0.003639   0.000634   0.003673  -0.045107   0.000000
     9  C    0.359746  -0.038504   0.004615   0.000765   0.006055   0.000000
    10  C   -0.043734   0.360725  -0.042007   0.004485   0.000271   0.000000
    11  C    0.004751  -0.042177   0.363131  -0.042219   0.004752   0.000000
    12  C    0.000286   0.004485  -0.042061   0.360704  -0.044389   0.000000
    13  C    0.005933   0.000762   0.004599  -0.038501   0.359407   0.000000
    14  C    0.000000   0.000000   0.000000   0.000000   0.000000   0.377224
    15  C    0.000000   0.000000   0.000000   0.000000   0.000000   0.004425
    16  O    0.000000   0.000000   0.000000   0.000000   0.000000   0.011051
    17  O    0.000000   0.000000   0.000000   0.000000   0.000000   0.000022
    18  O    0.000003   0.000000   0.000000   0.000000   0.000000   0.000000
    19  O    0.000000   0.000000   0.000000   0.000000   0.000000  -0.000153
    20  S    0.000000   0.000000   0.000000   0.000000   0.000000  -0.004307
    21  S    0.000002   0.000000   0.000000   0.000000   0.000000   0.000114
    22  H    0.000000   0.000000   0.000000   0.000000   0.000032  -0.000004
    23  H    0.000168   0.000000   0.000000   0.000000   0.000000   0.000000
    24  H    0.000000   0.000000   0.000000   0.000000   0.000000   0.000038
    25  H    0.000000   0.000000   0.000000   0.000000   0.000000   0.000000
    26  H    0.000000   0.000000   0.000000   0.000000   0.000000   0.000001
    27  H    0.000793   0.000004   0.000000   0.000000   0.000034   0.000000
    28  H    0.000034   0.000000   0.000000   0.000003   0.000537   0.000000
    29  H    0.000062   0.000003   0.000000  -0.000006   0.005218   0.000000
    30  H    0.004574  -0.000006   0.000000   0.000003   0.000074   0.000000
    31  H    0.583537  -0.005296  -0.000168   0.000017  -0.000167   0.000000
    32  H   -0.005296   0.572182  -0.005203  -0.000175   0.000017   0.000000
    33  H   -0.000168  -0.005203   0.573007  -0.005206  -0.000167   0.000000
    34  H    0.000017  -0.000175  -0.005206   0.572319  -0.005278   0.000000
    35  H   -0.000167   0.000017  -0.000167  -0.005278   0.583377   0.000000
    36  H    0.000000   0.000000   0.000000   0.000000   0.000000   0.493825
    37  H    0.000000   0.000000   0.000000   0.000000   0.000000  -0.020165
    38  H    0.000000   0.000000   0.000000   0.000000   0.000000  -0.030055
    39  H    0.000000   0.000000   0.000000   0.000000   0.000000  -0.000190
    40  H    0.000000   0.000000   0.000000   0.000000   0.000000  -0.000174
    41  H    0.000000   0.000000   0.000000   0.000000   0.000000   0.000020
              37         38         39         40         41
     1  N   -0.000087  -0.000076   0.010760  -0.000133  -0.000021
     2  N   -0.037061  -0.046321  -0.032891  -0.045211  -0.033910
     3  C    0.000003  -0.000008  -0.000211  -0.000029   0.000006
     4  C    0.000106  -0.000015   0.000084  -0.000022   0.000161
     5  C    0.000000   0.000000   0.000027   0.000000   0.000001
     6  C    0.000000   0.000000  -0.000210   0.000000  -0.000001
     7  C    0.000000   0.000000   0.000594   0.000002  -0.000001
     8  C    0.000000   0.000000   0.000016   0.000000   0.000000
     9  C    0.000000   0.000000   0.000000   0.000000   0.000000
    10  C    0.000000   0.000000   0.000000   0.000000   0.000000
    11  C    0.000000   0.000000   0.000000   0.000000   0.000000
    12  C    0.000000   0.000000   0.000000   0.000000   0.000000
    13  C    0.000000   0.000000  -0.000003   0.000000   0.000000
    14  C    0.380953   0.375172   0.004485  -0.001799  -0.003642
    15  C   -0.002862  -0.001956   0.375595   0.376138   0.378201
    16  O    0.000217  -0.000483   0.000021  -0.000040  -0.000050
    17  O    0.000000   0.000000   0.000000   0.000000   0.000000
    18  O    0.000000   0.000000   0.000000   0.000000   0.000000
    19  O   -0.000100   0.002247  -0.001642   0.004951   0.000025
    20  S    0.002241  -0.003371  -0.002643  -0.007855   0.003094
    21  S   -0.000003  -0.000001   0.000007   0.000000  -0.000001
    22  H    0.000001   0.000006  -0.000435   0.000066  -0.000001
    23  H    0.000000   0.000000   0.000004   0.000001   0.000002
    24  H   -0.000383   0.000114  -0.000221   0.000098  -0.000308
    25  H    0.000000   0.000000   0.000000   0.000000   0.000000
    26  H    0.000000   0.000000   0.000001   0.000000   0.000000
    27  H    0.000000   0.000000   0.000003   0.000000   0.000000
    28  H    0.000000   0.000000   0.000001   0.000000   0.000000
    29  H    0.000000   0.000000   0.002092  -0.000003  -0.000003
    30  H    0.000000   0.000000   0.000205   0.000000   0.000006
    31  H    0.000000   0.000000   0.000000   0.000000   0.000000
    32  H    0.000000   0.000000   0.000000   0.000000   0.000000
    33  H    0.000000   0.000000   0.000000   0.000000   0.000000
    34  H    0.000000   0.000000   0.000000   0.000000   0.000000
    35  H    0.000000   0.000000   0.000000   0.000000   0.000000
    36  H   -0.020165  -0.030055  -0.000190  -0.000174   0.000020
    37  H    0.521295  -0.037484   0.000066  -0.001690   0.004990
    38  H   -0.037484   0.562659  -0.000178   0.007883  -0.001316
    39  H    0.000066  -0.000178   0.498644  -0.029854  -0.021665
    40  H   -0.001690   0.007883  -0.029854   0.557339  -0.034190
    41  H    0.004990  -0.001316  -0.021665  -0.034190   0.519261
 Mulliken charges:
               1
     1  N   -0.737376
     2  N   -0.531287
     3  C    0.187525
     4  C   -0.506581
     5  C   -0.490508
     6  C   -0.304845
     7  C   -0.363889
     8  C    0.160858
     9  C   -0.196280
    10  C   -0.149476
    11  C   -0.151342
    12  C   -0.149210
    13  C   -0.197855
    14  C   -0.326434
    15  C   -0.329041
    16  O   -0.579473
    17  O   -0.557811
    18  O   -0.574700
    19  O   -0.564016
    20  S    1.333718
    21  S    1.106779
    22  H    0.415760
    23  H    0.232445
    24  H    0.249823
    25  H    0.230376
    26  H    0.243724
    27  H    0.176708
    28  H    0.176456
    29  H    0.172557
    30  H    0.162058
    31  H    0.144259
    32  H    0.149719
    33  H    0.148822
    34  H    0.149595
    35  H    0.144323
    36  H    0.200069
    37  H    0.189965
    38  H    0.173184
    39  H    0.197536
    40  H    0.174521
    41  H    0.189344
 Sum of Mulliken charges =   0.00000
 Mulliken charges with hydrogens summed into heavy atoms:
               1
     1  N   -0.321616
     2  N   -0.531287
     3  C    0.187525
     4  C   -0.024313
     5  C   -0.016408
     6  C    0.048319
     7  C   -0.029274
     8  C    0.160858
     9  C   -0.052020
    10  C    0.000243
    11  C   -0.002520
    12  C    0.000385
    13  C   -0.053533
    14  C    0.236784
    15  C    0.232361
    16  O   -0.579473
    17  O   -0.557811
    18  O   -0.574700
    19  O   -0.564016
    20  S    1.333718
    21  S    1.106779
 Electronic spatial extent (au):  <R**2>=           8690.8808
 Charge=              0.0000 electrons
 Dipole moment (field-independent basis, Debye):
    X=              4.3213    Y=             -6.5922    Z=              1.9748  Tot=              8.1259
 Quadrupole moment (field-independent basis, Debye-Ang):
   XX=           -146.5660   YY=           -165.3717   ZZ=           -127.8837
   XY=              9.2219   XZ=            -15.1291   YZ=             -9.1763
 Traceless Quadrupole moment (field-independent basis, Debye-Ang):
   XX=              0.0412   YY=            -18.7646   ZZ=             18.7234
   XY=              9.2219   XZ=            -15.1291   YZ=             -9.1763
 Octapole moment (field-independent basis, Debye-Ang**2):
  XXX=             43.1612  YYY=           -100.7160  ZZZ=              1.6276  XYY=             25.5416
  XXY=            -31.0313  XXZ=             45.0307  XZZ=            -22.3056  YZZ=              9.4952
  YYZ=              2.9050  XYZ=             51.6253
 Hexadecapole moment (field-independent basis, Debye-Ang**3):
 XXXX=          -7368.3235 YYYY=          -3132.5031 ZZZZ=           -785.5322 XXXY=            153.5130
 XXXZ=           -206.6432 YYYX=             97.6043 YYYZ=            -90.7927 ZZZX=            -34.8063
 ZZZY=            -16.2375 XXYY=          -1862.4805 XXZZ=          -1452.3147 YYZZ=           -557.8886
 XXYZ=              9.4696 YYXZ=            -68.4776 ZZXY=              3.1989
 N-N= 2.160286891034D+03 E-N=-8.346085886668D+03  KE= 1.702540066055D+03
 No NMR shielding tensors so no spin-rotation constants.
 Leave Link  601 at Fri Oct  2 02:55:49 2020, MaxMem=  2147483648 cpu:         0.3
 (Enter /prod/apps/gaussian/g09d1/l9999.exe)
 1\1\GINC-PIRINEUS7\SP\RB3LYP\6-31G(d)\C13H20N2O4S2\UBAFAR01\02-Oct-202
 0\0\\#p b3lyp/6-31G(d) scrf=(iefpcm,read,solvent=Water) geom=allcheck 
 guess=read\\SM40.n.12w.pdb.xyz\\0,1\N,0,1.005,-0.791,0.986\N,0,3.309,-
 1.429,0.03\C,0,0.308,0.167,0.116\C,0,1.,0.365,-1.27\C,0,0.345,1.67,0.5
 77\C,0,-1.146,-0.312,-0.023\C,0,-1.301,-1.72,-0.618\C,0,-2.754,-2.112,
 -0.772\C,0,-3.469,-1.777,-1.93\C,0,-4.817,-2.112,-2.062\C,0,-5.475,-2.
 791,-1.034\C,0,-4.773,-3.132,0.125\C,0,-3.425,-2.794,0.252\C,0,4.734,-
 1.121,-0.181\C,0,2.983,-2.855,-0.114\O,0,3.129,0.691,1.366\O,0,2.038,2
 .939,-1.228\O,0,-0.393,2.64,-1.88\O,0,2.766,-1.481,2.605\S,0,2.626,-0.
 691,1.372\S,0,0.785,2.167,-1.121\H,0,0.485,-1.005,1.839\H,0,0.488,-0.0
 66,-2.129\H,0,2.056,0.095,-1.274\H,0,-0.595,2.092,0.931\H,0,1.173,1.89
 1,1.248\H,0,-1.674,0.415,-0.647\H,0,-1.617,-0.272,0.966\H,0,-0.787,-2.
 438,0.027\H,0,-0.807,-1.756,-1.595\H,0,-2.962,-1.254,-2.736\H,0,-5.352
 ,-1.848,-2.969\H,0,-6.522,-3.055,-1.136\H,0,-5.274,-3.664,0.927\H,0,-2
 .883,-3.067,1.153\H,0,4.888,-0.047,-0.109\H,0,4.986,-1.453,-1.19\H,0,5
 .383,-1.639,0.535\H,0,1.91,-2.993,0.014\H,0,3.525,-3.478,0.606\H,0,3.2
 62,-3.152,-1.126\\Version=AM64L-G09RevD.01\State=1-A\HF=-1714.068302\R
 MSD=7.586e-09\Dipole=-0.8538718,-3.0797077,0.0839046\Quadrupole=9.9089
 223,-10.891391,0.9824687,-9.1971137,-10.9867453,10.0046935\PG=C01 [X(C
 13H20N2O4S2)]\\@


 DIATOMIC MOLECULES ARE PECULIAR BECAUSE THEY ONLY HAVE TWO ENDS,
 AND THESE ENDS ARE VERY CLOSE TOGETHER.
 KLAUS RUEDENBERG, REV.MOD.PHYS. PG 176, 32, (1960)
 Job cpu time:       0 days  0 hours  4 minutes 58.1 seconds.
 File lengths (MBytes):  RWF=    235 Int=      0 D2E=      0 Chk=      7 Scr=      1
 Normal termination of Gaussian 09 at Fri Oct  2 02:55:49 2020.
