 Entering Gaussian System, Link 0=g09
 Initial command:
 /prod/apps/gaussian/g09d1/l1.exe "/tmp/ubafar01/1462940/Gau-2828.inp" -scrdir="/tmp/ubafar01/1462940/"
 Entering Link 1 = /prod/apps/gaussian/g09d1/l1.exe PID=      2830.
  
 Copyright (c) 1988,1990,1992,1993,1995,1998,2003,2009,2013,
            Gaussian, Inc.  All Rights Reserved.
  
 This is part of the Gaussian(R) 09 program.  It is based on
 the Gaussian(R) 03 system (copyright 2003, Gaussian, Inc.),
 the Gaussian(R) 98 system (copyright 1998, Gaussian, Inc.),
 the Gaussian(R) 94 system (copyright 1995, Gaussian, Inc.),
 the Gaussian 92(TM) system (copyright 1992, Gaussian, Inc.),
 the Gaussian 90(TM) system (copyright 1990, Gaussian, Inc.),
 the Gaussian 88(TM) system (copyright 1988, Gaussian, Inc.),
 the Gaussian 86(TM) system (copyright 1986, Carnegie Mellon
 University), and the Gaussian 82(TM) system (copyright 1983,
 Carnegie Mellon University). Gaussian is a federally registered
 trademark of Gaussian, Inc.
  
 This software contains proprietary and confidential information,
 including trade secrets, belonging to Gaussian, Inc.
  
 This software is provided under written license and may be
 used, copied, transmitted, or stored only in accord with that
 written license.
  
 The following legend is applicable only to US Government
 contracts under FAR:
  
                    RESTRICTED RIGHTS LEGEND
  
 Use, reproduction and disclosure by the US Government is
 subject to restrictions as set forth in subparagraphs (a)
 and (c) of the Commercial Computer Software - Restricted
 Rights clause in FAR 52.227-19.
  
 Gaussian, Inc.
 340 Quinnipiac St., Bldg. 40, Wallingford CT 06492
  
  
 ---------------------------------------------------------------
 Warning -- This program may not be used in any manner that
 competes with the business of Gaussian, Inc. or will provide
 assistance to any competitor of Gaussian, Inc.  The licensee
 of this program is prohibited from giving any competitor of
 Gaussian, Inc. access to this program.  By using this program,
 the user acknowledges that Gaussian, Inc. is engaged in the
 business of creating and licensing software in the field of
 computational chemistry and represents and warrants to the
 licensee that it is not a competitor of Gaussian, Inc. and that
 it will not use this program in any manner prohibited above.
 ---------------------------------------------------------------
  

 Cite this work as:
 Gaussian 09, Revision D.01,
 M. J. Frisch, G. W. Trucks, H. B. Schlegel, G. E. Scuseria, 
 M. A. Robb, J. R. Cheeseman, G. Scalmani, V. Barone, B. Mennucci, 
 G. A. Petersson, H. Nakatsuji, M. Caricato, X. Li, H. P. Hratchian, 
 A. F. Izmaylov, J. Bloino, G. Zheng, J. L. Sonnenberg, M. Hada, 
 M. Ehara, K. Toyota, R. Fukuda, J. Hasegawa, M. Ishida, T. Nakajima, 
 Y. Honda, O. Kitao, H. Nakai, T. Vreven, J. A. Montgomery, Jr., 
 J. E. Peralta, F. Ogliaro, M. Bearpark, J. J. Heyd, E. Brothers, 
 K. N. Kudin, V. N. Staroverov, T. Keith, R. Kobayashi, J. Normand, 
 K. Raghavachari, A. Rendell, J. C. Burant, S. S. Iyengar, J. Tomasi, 
 M. Cossi, N. Rega, J. M. Millam, M. Klene, J. E. Knox, J. B. Cross, 
 V. Bakken, C. Adamo, J. Jaramillo, R. Gomperts, R. E. Stratmann, 
 O. Yazyev, A. J. Austin, R. Cammi, C. Pomelli, J. W. Ochterski, 
 R. L. Martin, K. Morokuma, V. G. Zakrzewski, G. A. Voth, 
 P. Salvador, J. J. Dannenberg, S. Dapprich, A. D. Daniels, 
 O. Farkas, J. B. Foresman, J. V. Ortiz, J. Cioslowski, 
 and D. J. Fox, Gaussian, Inc., Wallingford CT, 2013.
 
 ******************************************
 Gaussian 09:  AM64L-G09RevD.01 24-Apr-2013
                 2-Oct-2020 
 ******************************************
 %nproc=1
 Will use up to    1 processors via shared memory.
 %Chk=SM40.n.24.pdb.xyz.mst.n.o.chk
 %mem=16GB
 -----------------
 #p b3lyp/6-31G(d)
 -----------------
 1/38=1/1;
 2/12=2,17=6,18=5,40=1/2;
 3/5=1,6=6,7=1,11=2,16=1,25=1,30=1,74=-5/1,2,3;
 4//1;
 5/5=2,38=5/2;
 6/7=2,8=2,9=2,10=2,28=1/1;
 99/5=1,9=1/99;
 Leave Link    1 at Fri Oct  2 06:12:39 2020, MaxMem=  2147483648 cpu:         0.0
 (Enter /prod/apps/gaussian/g09d1/l101.exe)
 -----------------
 SM40.n.24.pdb.xyz
 -----------------
 Symbolic Z-matrix:
 Charge =  0 Multiplicity = 1
 C                     3.625     0.572    -1.836 
 N                     3.673    -0.224    -0.597 
 C                     3.113     0.471     0.571 
 S                     3.09     -1.792    -0.788 
 O                     1.639    -1.872    -0.573 
 O                     3.673    -2.3      -2.033 
 N                     3.766    -2.558     0.554 
 C                     5.01     -3.332     0.407 
 C                     4.921    -4.56     -0.573 
 S                     5.631    -5.642     0.713 
 O                     4.794    -6.804     1.051 
 O                     7.083    -5.817     0.536 
 C                     5.261    -4.153     1.717 
 C                     6.207    -2.441     0.043 
 C                     6.529    -1.335     1.059 
 C                     7.759    -0.546     0.665 
 C                     7.681     0.48     -0.286 
 C                     8.82      1.19     -0.668 
 C                     10.059    0.884    -0.102 
 C                     10.15    -0.135     0.847 
 C                     9.008    -0.842     1.225 
 H                     4.217     1.473    -1.665 
 H                     2.603     0.867    -2.107 
 H                     4.068     0.       -2.648 
 H                     3.699     1.379     0.725 
 H                     3.214    -0.167     1.45 
 H                     2.06      0.739     0.431 
 H                     3.014    -3.076     1.006 
 H                     5.514    -4.499    -1.485 
 H                     3.902    -4.873    -0.797 
 H                     6.089    -3.824     2.345 
 H                     4.368    -4.325     2.321 
 H                     6.014    -2.001    -0.939 
 H                     7.074    -3.098    -0.073 
 H                     6.691    -1.777     2.048 
 H                     5.665    -0.672     1.138 
 H                     6.718     0.724    -0.727 
 H                     8.74      1.984    -1.404 
 H                     10.946    1.437    -0.395 
 H                     11.108   -0.378     1.296 
 H                     9.082    -1.632     1.968 
 
 NAtoms=     41 NQM=       41 NQMF=       0 NMMI=      0 NMMIF=      0
                NMic=       0 NMicF=      0.
                    Isotopes and Nuclear Properties:
 (Nuclear quadrupole moments (NQMom) in fm**2, nuclear magnetic moments (NMagM)
  in nuclear magnetons)

  Atom         1           2           3           4           5           6           7           8           9          10
 IAtWgt=          12          14          12          32          16          16          14          12          12          32
 AtmWgt=  12.0000000  14.0030740  12.0000000  31.9720718  15.9949146  15.9949146  14.0030740  12.0000000  12.0000000  31.9720718
 NucSpn=           0           2           0           0           0           0           2           0           0           0
 AtZEff=   0.0000000   0.0000000   0.0000000   0.0000000   0.0000000   0.0000000   0.0000000   0.0000000   0.0000000   0.0000000
 NQMom=    0.0000000   2.0440000   0.0000000   0.0000000   0.0000000   0.0000000   2.0440000   0.0000000   0.0000000   0.0000000
 NMagM=    0.0000000   0.4037610   0.0000000   0.0000000   0.0000000   0.0000000   0.4037610   0.0000000   0.0000000   0.0000000
 AtZNuc=   6.0000000   7.0000000   6.0000000  16.0000000   8.0000000   8.0000000   7.0000000   6.0000000   6.0000000  16.0000000

  Atom        11          12          13          14          15          16          17          18          19          20
 IAtWgt=          16          16          12          12          12          12          12          12          12          12
 AtmWgt=  15.9949146  15.9949146  12.0000000  12.0000000  12.0000000  12.0000000  12.0000000  12.0000000  12.0000000  12.0000000
 NucSpn=           0           0           0           0           0           0           0           0           0           0
 AtZEff=   0.0000000   0.0000000   0.0000000   0.0000000   0.0000000   0.0000000   0.0000000   0.0000000   0.0000000   0.0000000
 NQMom=    0.0000000   0.0000000   0.0000000   0.0000000   0.0000000   0.0000000   0.0000000   0.0000000   0.0000000   0.0000000
 NMagM=    0.0000000   0.0000000   0.0000000   0.0000000   0.0000000   0.0000000   0.0000000   0.0000000   0.0000000   0.0000000
 AtZNuc=   8.0000000   8.0000000   6.0000000   6.0000000   6.0000000   6.0000000   6.0000000   6.0000000   6.0000000   6.0000000

  Atom        21          22          23          24          25          26          27          28          29          30
 IAtWgt=          12           1           1           1           1           1           1           1           1           1
 AtmWgt=  12.0000000   1.0078250   1.0078250   1.0078250   1.0078250   1.0078250   1.0078250   1.0078250   1.0078250   1.0078250
 NucSpn=           0           1           1           1           1           1           1           1           1           1
 AtZEff=   0.0000000   0.0000000   0.0000000   0.0000000   0.0000000   0.0000000   0.0000000   0.0000000   0.0000000   0.0000000
 NQMom=    0.0000000   0.0000000   0.0000000   0.0000000   0.0000000   0.0000000   0.0000000   0.0000000   0.0000000   0.0000000
 NMagM=    0.0000000   2.7928460   2.7928460   2.7928460   2.7928460   2.7928460   2.7928460   2.7928460   2.7928460   2.7928460
 AtZNuc=   6.0000000   1.0000000   1.0000000   1.0000000   1.0000000   1.0000000   1.0000000   1.0000000   1.0000000   1.0000000

  Atom        31          32          33          34          35          36          37          38          39          40
 IAtWgt=           1           1           1           1           1           1           1           1           1           1
 AtmWgt=   1.0078250   1.0078250   1.0078250   1.0078250   1.0078250   1.0078250   1.0078250   1.0078250   1.0078250   1.0078250
 NucSpn=           1           1           1           1           1           1           1           1           1           1
 AtZEff=   0.0000000   0.0000000   0.0000000   0.0000000   0.0000000   0.0000000   0.0000000   0.0000000   0.0000000   0.0000000
 NQMom=    0.0000000   0.0000000   0.0000000   0.0000000   0.0000000   0.0000000   0.0000000   0.0000000   0.0000000   0.0000000
 NMagM=    2.7928460   2.7928460   2.7928460   2.7928460   2.7928460   2.7928460   2.7928460   2.7928460   2.7928460   2.7928460
 AtZNuc=   1.0000000   1.0000000   1.0000000   1.0000000   1.0000000   1.0000000   1.0000000   1.0000000   1.0000000   1.0000000

  Atom        41
 IAtWgt=           1
 AtmWgt=   1.0078250
 NucSpn=           1
 AtZEff=   0.0000000
 NQMom=    0.0000000
 NMagM=    2.7928460
 AtZNuc=   1.0000000
 Leave Link  101 at Fri Oct  2 06:12:39 2020, MaxMem=  2147483648 cpu:         0.1
 (Enter /prod/apps/gaussian/g09d1/l202.exe)
                          Input orientation:                          
 ---------------------------------------------------------------------
 Center     Atomic      Atomic             Coordinates (Angstroms)
 Number     Number       Type             X           Y           Z
 ---------------------------------------------------------------------
      1          6           0        3.625000    0.572000   -1.836000
      2          7           0        3.673000   -0.224000   -0.597000
      3          6           0        3.113000    0.471000    0.571000
      4         16           0        3.090000   -1.792000   -0.788000
      5          8           0        1.639000   -1.872000   -0.573000
      6          8           0        3.673000   -2.300000   -2.033000
      7          7           0        3.766000   -2.558000    0.554000
      8          6           0        5.010000   -3.332000    0.407000
      9          6           0        4.921000   -4.560000   -0.573000
     10         16           0        5.631000   -5.642000    0.713000
     11          8           0        4.794000   -6.804000    1.051000
     12          8           0        7.083000   -5.817000    0.536000
     13          6           0        5.261000   -4.153000    1.717000
     14          6           0        6.207000   -2.441000    0.043000
     15          6           0        6.529000   -1.335000    1.059000
     16          6           0        7.759000   -0.546000    0.665000
     17          6           0        7.681000    0.480000   -0.286000
     18          6           0        8.820000    1.190000   -0.668000
     19          6           0       10.059000    0.884000   -0.102000
     20          6           0       10.150000   -0.135000    0.847000
     21          6           0        9.008000   -0.842000    1.225000
     22          1           0        4.217000    1.473000   -1.665000
     23          1           0        2.603000    0.867000   -2.107000
     24          1           0        4.068000    0.000000   -2.648000
     25          1           0        3.699000    1.379000    0.725000
     26          1           0        3.214000   -0.167000    1.450000
     27          1           0        2.060000    0.739000    0.431000
     28          1           0        3.014000   -3.076000    1.006000
     29          1           0        5.514000   -4.499000   -1.485000
     30          1           0        3.902000   -4.873000   -0.797000
     31          1           0        6.089000   -3.824000    2.345000
     32          1           0        4.368000   -4.325000    2.321000
     33          1           0        6.014000   -2.001000   -0.939000
     34          1           0        7.074000   -3.098000   -0.073000
     35          1           0        6.691000   -1.777000    2.048000
     36          1           0        5.665000   -0.672000    1.138000
     37          1           0        6.718000    0.724000   -0.727000
     38          1           0        8.740000    1.984000   -1.404000
     39          1           0       10.946000    1.437000   -0.395000
     40          1           0       11.108000   -0.378000    1.296000
     41          1           0        9.082000   -1.632000    1.968000
 ---------------------------------------------------------------------
                    Distance matrix (angstroms):
                    1          2          3          4          5
     1  C    0.000000
     2  N    1.473445   0.000000
     3  C    2.462924   1.469983   0.000000
     4  S    2.640649   1.683744   2.639807   0.000000
     5  O    3.393008   2.617945   2.995173   1.469022   0.000000
     6  O    2.879149   2.524257   3.843547   1.465598   2.540067
     7  N    3.940670   2.604036   3.098635   1.686623   2.502969
     8  C    4.710678   3.529199   4.253036   2.736060   3.802057
     9  C    5.441710   4.512092   5.467043   3.325750   4.242272
    10  S    7.009653   5.908010   6.612810   4.850998   5.639394
    11  O    8.006666   6.875241   7.482098   5.604077   6.075856
    12  O    7.642216   6.647815   7.436469   5.822169   6.813959
    13  C    6.133998   4.828393   5.225763   4.069716   4.854477
    14  C    4.390391   3.427221   4.281514   3.290509   4.644334
    15  C    4.522266   3.483302   3.894719   3.930264   5.183039
    16  C    4.959323   4.288557   4.756936   5.046116   6.383206
    17  C    4.343052   4.081225   4.647704   5.146967   6.489995
    18  C    5.360427   5.338169   5.884040   6.460621   7.807152
    19  C    6.670866   6.500283   6.990738   7.496568   8.872079
    20  C    7.090413   6.636610   7.068436   7.433873   8.801744
    21  C    6.351835   5.671317   6.074760   6.322768   7.654794
    22  H    1.091561   2.077587   2.687474   3.563633   4.362061
    23  H    1.097702   2.148321   2.754741   3.007858   3.283987
    24  H    1.087556   2.100667   3.390550   2.761765   3.702708
    25  H    2.686158   2.077972   1.091593   3.565851   4.061700
    26  H    3.393057   2.098604   1.090819   2.768510   3.078990
    27  H    2.759783   2.141477   1.095551   2.992127   2.828883
    28  H    4.664567   3.337333   3.574945   2.207457   2.415260
    29  H    5.422782   4.738507   5.890063   3.699924   4.769539
    30  H    5.550160   4.658931   5.572457   3.186218   3.765282
    31  H    6.548043   5.239506   5.518213   4.789438   5.668115
    32  H    6.466321   5.080940   5.257294   4.208949   4.673316
    33  H    3.623846   2.958881   4.099596   2.935346   4.392177
    34  H    5.335979   4.483442   5.370477   4.253130   5.593952
    35  H    5.477555   4.303041   4.476284   4.583702   5.692220
    36  H    3.814946   2.679364   2.853181   3.405070   4.536099
    37  H    3.289321   3.191807   3.839901   4.415468   5.706065
    38  H    5.323870   5.585786   6.152473   6.823499   8.123023
    39  H    7.511441   7.462992   7.951239   8.502801   9.879343
    40  H    8.167448   7.673747   8.072574   8.404212   9.766635
    41  H    7.007630   6.149713   6.480986   6.597363   7.868452
                    6          7          8          9         10
     6  O    0.000000
     7  N    2.601496   0.000000
     8  C    2.967523   1.472488   0.000000
     9  C    2.965924   2.571412   1.573628   0.000000
    10  S    4.747973   3.607570   2.411509   1.824451   0.000000
    11  O    5.572586   4.396852   3.537821   2.772912   1.471413
    12  O    5.531469   4.650150   3.238703   2.735722   1.473180
    13  C    4.474132   2.476211   1.566251   2.350606   1.833586
    14  C    3.278843   2.496656   1.535964   2.554097   3.320704
    15  C    4.318382   3.063482   2.592388   3.955972   4.413204
    16  C    5.201069   4.472641   3.922418   5.069426   5.522672
    17  C    5.181165   5.026158   4.705936   5.753396   6.532946
    18  C    6.366705   6.409657   6.010009   6.947930   7.665057
    19  C    7.392402   7.202746   6.597434   7.500535   7.928435
    20  C    7.411690   6.834635   6.069103   6.995675   7.125052
    21  C    6.418921   5.556389   4.780505   5.810327   5.891203
    22  H    3.829737   4.623454   5.292453   6.171318   7.633970
    23  H    3.343690   4.490447   5.453939   6.097426   7.712864
    24  H    2.413348   4.109425   4.617641   5.082011   6.750663
    25  H    4.598074   3.941281   4.900343   6.200791   7.281978
    26  H    4.109946   2.612355   3.785590   5.128823   6.029982
    27  H    4.231854   3.714266   5.027536   6.105140   7.317700
    28  H    3.204993   1.018888   2.099608   2.886546   3.676805
    29  H    2.919792   3.313685   2.279379   1.089548   2.480190
    30  H    2.863646   2.683826   2.247657   1.089269   2.420930
    31  H    5.227477   3.194803   2.272036   3.228102   2.485621
    32  H    4.851903   2.570405   2.249802   2.955718   2.432143
    33  H    2.601253   2.755504   2.142730   2.806615   4.016550
    34  H    4.005647   3.409926   2.131960   2.650067   3.028528
    35  H    5.102589   3.376036   2.817209   4.212794   4.224222
    36  H    4.083343   2.739389   2.835311   4.312494   4.988254
    37  H    4.485782   4.596389   4.544706   5.583331   6.616731
    38  H    6.665042   7.014571   6.741845   7.622287   8.503143
    39  H    8.339349   8.271217   7.656544   8.502724   8.921274
    40  H    8.369919   7.694669   6.833889   7.698133   7.618866
    41  H    6.761028   5.578237   4.680588   5.687160   5.437327
                   11         12         13         14         15
    11  O    0.000000
    12  O    2.545371   0.000000
    13  C    2.772985   2.735570   0.000000
    14  C    4.695573   3.522471   2.574517   0.000000
    15  C    5.737617   4.546292   3.159416   1.535961   0.000000
    16  C    6.935617   5.315737   4.511891   2.527175   1.513492
    17  C    7.948521   6.378518   5.597598   3.288337   2.535814
    18  C    9.114147   7.318800   6.848529   4.529619   3.821889
    19  C    9.389088   7.359825   7.190336   5.090634   4.328138
    20  C    8.555929   6.464390   6.387765   4.638028   3.820548
    21  C    7.302980   5.378752   5.024420   3.435044   2.532992
    22  H    8.730310   8.136489   6.646784   4.711344   4.544269
    23  H    8.580075   8.469457   6.847506   5.343611   5.503257
    24  H    7.778438   7.284612   6.141977   4.216074   4.645492
    25  H    8.262372   7.954219   5.833261   4.620345   3.935258
    26  H    6.834133   6.908477   4.488841   4.013574   3.536429
    27  H    8.047112   8.259703   5.985972   5.240282   4.966671
    28  H    4.131393   4.928564   2.591227   3.394973   3.922896
    29  H    3.501817   2.878077   3.230562   2.655258   4.184860
    30  H    2.817717   3.575862   2.947113   3.454454   4.781559
    31  H    3.497408   2.869245   1.090050   2.688088   2.835933
    32  H    2.817768   3.575404   1.091718   3.481474   3.899060
    33  H    5.340160   4.228504   3.500350   1.093240   2.168129
    34  H    4.494020   2.786382   2.757552   1.093981   2.164860
    35  H    5.464737   4.331444   2.792819   2.166836   1.095321
    36  H    6.194161   5.370675   3.551875   2.149919   1.091928
    37  H    7.970812   6.671812   5.646336   3.297157   2.732215
    38  H    9.941171   8.207609   7.714068   5.300049   4.687286
    39  H   10.385187   8.271037   8.247901   6.139124   5.413685
    40  H    9.012219   6.808887   6.972465   5.463129   4.683936
    41  H    6.780665   4.853952   4.584592   3.553270   2.726224
                   16         17         18         19         20
    16  C    0.000000
    17  C    1.401128   0.000000
    18  C    2.432346   1.395473   0.000000
    19  C    2.814816   2.419082   1.396106   0.000000
    20  C    2.432884   2.785296   2.412416   1.395436   0.000000
    21  C    1.400435   2.406602   2.783490   2.417562   1.395313
    22  H    4.695852   3.858366   4.718231   6.076089   6.640504
    23  H    6.022034   5.408502   6.389534   7.720897   8.166231
    24  H    4.989746   4.343180   5.283749   6.569296   7.015980
    25  H    4.493643   4.205549   5.310444   6.432616   6.627404
    26  H    4.627839   4.835948   6.144478   7.096994   6.962236
    27  H    5.846758   5.672461   6.863585   8.018049   8.147701
    28  H    5.388154   6.007936   7.396666   8.157284   7.719926
    29  H    5.028791   5.560929   6.630373   7.179582   6.780503
    30  H    5.978028   6.572410   7.807902   8.457820   8.011797
    31  H    4.044327   5.289711   6.455751   6.626762   5.687218
    32  H    5.340605   6.392217   7.692181   8.086538   7.291111
    33  H    2.781163   3.059519   4.257882   5.038434   4.876294
    34  H    2.743460   3.635368   4.667921   4.976685   4.368930
    35  H    2.137446   3.394364   4.551086   4.800713   4.012885
    36  H    2.150451   2.723809   4.084447   4.823481   4.526398
    37  H    2.152730   1.086916   2.153843   3.402720   3.872206
    38  H    3.412334   2.152538   1.085602   2.155218   3.397832
    39  H    3.900366   3.404109   2.157641   1.085554   2.155775
    40  H    3.412065   3.870816   3.398656   2.155794   1.085548
    41  H    2.151170   3.391734   3.870507   3.401424   2.153665
                   21         22         23         24         25
    21  C    0.000000
    22  H    6.055164   0.000000
    23  H    7.419362   1.779774   0.000000
    24  H    6.333458   1.777138   1.786224   0.000000
    25  H    5.776532   2.447296   3.079543   3.662640   0.000000
    26  H    5.837524   3.660442   3.754294   4.189369   1.775096
    27  H    7.169707   3.095904   2.598591   3.749457   1.783916
    28  H    6.400528   5.410624   5.040530   4.891258   4.516106
    29  H    5.738099   6.113869   6.136348   4.866671   6.536758
    30  H    6.812392   6.412828   6.029187   5.215351   6.437794
    31  H    4.320565   6.902369   7.346971   6.605866   5.950438
    32  H    5.904414   7.037599   7.048353   6.594436   5.960738
    33  H    3.871720   3.978060   4.607013   3.272858   4.421823
    34  H    3.242637   5.620583   6.312545   5.026357   5.663123
    35  H    2.630597   5.519923   6.400508   5.664828   4.545627
    36  H    3.348450   3.815041   4.719575   4.163627   2.870945
    37  H    3.392162   2.774139   4.342588   3.352151   3.413457
    38  H    3.869075   4.559251   6.277314   5.226029   5.505483
    39  H    3.402071   6.847893   8.535894   7.378879   7.333265
    40  H    2.151822   7.725257   9.244753   8.078343   7.635861
    41  H    1.087026   6.819673   8.051588   7.007930   6.291888
                   26         27         28         29         30
    26  H    0.000000
    27  H    1.786313   0.000000
    28  H    2.949477   3.974288   0.000000
    29  H    5.715807   6.560321   3.805261   0.000000
    30  H    5.260113   6.032868   2.696027   1.792140   0.000000
    31  H    4.737119   6.381004   3.436284   3.931304   3.969324
    32  H    4.402195   5.877334   2.263303   3.978596   3.199904
    33  H    4.112284   5.001861   3.733450   2.605402   3.567785
    34  H    5.080343   6.333781   4.200991   2.527874   3.706263
    35  H    3.878045   5.512813   4.036520   4.612668   5.045569
    36  H    2.521858   3.935327   3.581123   4.642075   4.949828
    37  H    4.220335   4.799808   5.582374   5.413309   6.265873
    38  H    6.580942   7.038441   8.012414   7.241749   8.413866
    39  H    8.109295   8.951563   9.232908   8.119780   9.465497
    40  H    7.898321   9.157632   8.536752   7.483945   8.747120
    41  H    6.070253   7.569181   6.311197   5.733544   6.706840
                   31         32         33         34         35
    31  H    0.000000
    32  H    1.792601   0.000000
    33  H    3.756808   4.328729   0.000000
    34  H    2.709986   3.815652   1.754128   0.000000
    35  H    2.154257   3.458780   3.070940   2.527918   0.000000
    36  H    3.401724   4.052913   2.490376   3.055696   1.761193
    37  H    5.524231   6.348638   2.822443   3.893859   3.735821
    38  H    7.403760   8.531910   4.850518   5.511247   5.500893
    39  H    7.666562   9.156822   6.036589   5.971791   5.865413
    40  H    6.177838   7.877629   5.794669   5.054277   4.693889
    41  H    3.728947   5.440465   4.242574   3.216660   2.396728
                   36         37         38         39         40
    36  H    0.000000
    37  H    2.556531   0.000000
    38  H    4.792883   2.476775   0.000000
    39  H    5.889561   4.300532   2.486710   0.000000
    40  H    5.453224   4.957725   4.298426   2.485951   0.000000
    41  H    3.645050   4.289785   4.956088   4.298491   2.475636
                   41
    41  H    0.000000
 Stoichiometry    C13H20N2O4S2
 Framework group  C1[X(C13H20N2O4S2)]
 Deg. of freedom   117
 Full point group                 C1      NOp   1
 Largest Abelian subgroup         C1      NOp   1
 Largest concise Abelian subgroup C1      NOp   1
                         Standard orientation:                         
 ---------------------------------------------------------------------
 Center     Atomic      Atomic             Coordinates (Angstroms)
 Number     Number       Type             X           Y           Z
 ---------------------------------------------------------------------
      1          6           0        0.758684    3.651411   -0.827078
      2          7           0        0.185370    2.736306    0.175386
      3          6           0        0.309991    3.223783    1.556575
      4         16           0       -1.365720    2.208422   -0.212496
      5          8           0       -2.401587    3.121655    0.288515
      6          8           0       -1.335336    1.847011   -1.632509
      7          7           0       -1.496594    0.835951    0.759046
      8          6           0       -1.233492   -0.495095    0.186931
      9          6           0       -2.191120   -0.918605   -0.987758
     10         16           0       -2.532688   -2.499619   -0.143752
     11          8           0       -3.959967   -2.748334    0.113292
     12          8           0       -1.685631   -3.587495   -0.662672
     13          6           0       -1.689979   -1.591528    1.208007
     14          6           0        0.234872   -0.666514   -0.229850
     15          6           0        1.258007   -0.496846    0.903104
     16          6           0        2.673295   -0.747602    0.429039
     17          6           0        3.393336    0.248403   -0.243772
     18          6           0        4.688842    0.008232   -0.703475
     19          6           0        5.286523   -1.236270   -0.495856
     20          6           0        4.580420   -2.236431    0.173725
     21          6           0        3.285174   -1.991015    0.630896
     22          1           0        1.821690    3.753989   -0.601239
     23          1           0        0.294795    4.645975   -0.802606
     24          1           0        0.642237    3.217843   -1.817651
     25          1           0        1.374371    3.340206    1.768982
     26          1           0       -0.106127    2.480397    2.237831
     27          1           0       -0.196360    4.183597    1.706906
     28          1           0       -2.390924    0.902853    1.242604
     29          1           0       -1.736461   -1.025081   -1.972167
     30          1           0       -3.104230   -0.327721   -1.047689
     31          1           0       -0.898271   -2.158678    1.697648
     32          1           0       -2.424399   -1.250053    1.940039
     33          1           0        0.443778    0.047056   -1.031318
     34          1           0        0.331272   -1.664993   -0.666358
     35          1           0        1.026724   -1.191816    1.717509
     36          1           0        1.168532    0.514495    1.304962
     37          1           0        2.933378    1.219934   -0.404870
     38          1           0        5.232888    0.792960   -1.219953
     39          1           0        6.295410   -1.424602   -0.849558
     40          1           0        5.037664   -3.206193    0.343739
     41          1           0        2.739979   -2.771051    1.156187
 ---------------------------------------------------------------------
 Rotational constants (GHZ):      0.2826132      0.2111973      0.1332915
 Leave Link  202 at Fri Oct  2 06:12:39 2020, MaxMem=  2147483648 cpu:         0.0
 (Enter /prod/apps/gaussian/g09d1/l301.exe)
 Standard basis: 6-31G(d) (6D, 7F)
 Ernie: Thresh=  0.10000D-02 Tol=  0.10000D-05 Strict=F.
 There are   363 symmetry adapted cartesian basis functions of A   symmetry.
 There are   363 symmetry adapted basis functions of A   symmetry.
   363 basis functions,   716 primitive gaussians,   363 cartesian basis functions
    88 alpha electrons       88 beta electrons
       nuclear repulsion energy      2178.5117059623 Hartrees.
 IExCor=  402 DFT=T Ex+Corr=B3LYP ExCW=0 ScaHFX=  0.200000
 ScaDFX=  0.800000  0.720000  1.000000  0.810000 ScalE2=  1.000000  1.000000
 IRadAn=      0 IRanWt=     -1 IRanGd=            0 ICorTp=0 IEmpDi=  4
 NAtoms=   41 NActive=   41 NUniq=   41 SFac= 1.00D+00 NAtFMM=   60 NAOKFM=F Big=F
 Integral buffers will be    131072 words long.
 Raffenetti 2 integral format.
 Two-electron integral symmetry is turned on.
 Leave Link  301 at Fri Oct  2 06:12:39 2020, MaxMem=  2147483648 cpu:         0.0
 (Enter /prod/apps/gaussian/g09d1/l302.exe)
 NPDir=0 NMtPBC=     1 NCelOv=     1 NCel=       1 NClECP=     1 NCelD=      1
         NCelK=      1 NCelE2=     1 NClLst=     1 CellRange=     0.0.
 One-electron integrals computed using PRISM.
 NBasis=   363 RedAO= T EigKep=  4.53D-04  NBF=   363
 NBsUse=   363 1.00D-06 EigRej= -1.00D+00 NBFU=   363
 Precomputing XC quadrature grid using
 IXCGrd= 4 IRadAn=           0 IRanWt=          -1 IRanGd=           0 AccXCQ= 0.00D+00.
 Generated NRdTot=       0 NPtTot=           0 NUsed=           0 NTot=          32
 NSgBfM=   358   358   358   358   359 MxSgAt=    41 MxSgA2=    41.
 Leave Link  302 at Fri Oct  2 06:12:40 2020, MaxMem=  2147483648 cpu:         1.5
 (Enter /prod/apps/gaussian/g09d1/l303.exe)
 DipDrv:  MaxL=1.
 Leave Link  303 at Fri Oct  2 06:12:40 2020, MaxMem=  2147483648 cpu:         0.1
 (Enter /prod/apps/gaussian/g09d1/l401.exe)
 ExpMin= 1.17D-01 ExpMax= 2.19D+04 ExpMxC= 3.30D+03 IAcc=1 IRadAn=         1 AccDes= 0.00D+00
 Harris functional with IExCor=  402 and IRadAn=       1 diagonalized for initial guess.
 HarFok:  IExCor=  402 AccDes= 0.00D+00 IRadAn=         1 IDoV= 1 UseB2=F ITyADJ=14
 ICtDFT=  3500011 ScaDFX=  1.000000  1.000000  1.000000  1.000000
 FoFCou: FMM=F IPFlag=           0 FMFlag=      100000 FMFlg1=           0
         NFxFlg=           0 DoJE=T BraDBF=F KetDBF=T FulRan=T
         wScrn=  0.000000 ICntrl=     500 IOpCl=  0 I1Cent=   200000004 NGrid=           0
         NMat0=    1 NMatS0=      1 NMatT0=    0 NMatD0=    1 NMtDS0=    0 NMtDT0=    0
 Petite list used in FoFCou.
 Harris En= -1714.14955544708    
 JPrj=0 DoOrth=F DoCkMO=F.
 Leave Link  401 at Fri Oct  2 06:12:46 2020, MaxMem=  2147483648 cpu:         5.2
 (Enter /prod/apps/gaussian/g09d1/l502.exe)
 Closed shell SCF:
 Using DIIS extrapolation, IDIIS=  1040.
 Integral symmetry usage will be decided dynamically.
 IVT=      418784 IEndB=      418784 NGot=  2147483648 MDV=  2147213637
 LenX=  2147213637 LenY=  2147081427
 Requested convergence on RMS density matrix=1.00D-08 within 128 cycles.
 Requested convergence on MAX density matrix=1.00D-06.
 Requested convergence on             energy=1.00D-06.
 No special actions if energy rises.
 Fock matrices will be formed incrementally for  20 cycles.
 Integral accuracy reduced to 1.0D-05 until final iterations.

 Cycle   1  Pass 0  IDiag  1:
 FoFJK:  IHMeth= 1 ICntrl=       0 DoSepK=F KAlg= 0 I1Cent=   0 FoldK=F
 IRaf= 770000000 NMat=   1 IRICut=       1 DoRegI=T DoRafI=F ISym2E= 0.
 FoFCou: FMM=F IPFlag=           0 FMFlag=      100000 FMFlg1=           0
         NFxFlg=           0 DoJE=F BraDBF=F KetDBF=F FulRan=T
         wScrn=  0.000000 ICntrl=       0 IOpCl=  0 I1Cent=           0 NGrid=           0
         NMat0=    1 NMatS0=      1 NMatT0=    0 NMatD0=    1 NMtDS0=    0 NMtDT0=    0
 Symmetry not used in FoFCou.
 E= -1713.19579095393    
 DIIS: error= 3.90D-02 at cycle   1 NSaved=   1.
 NSaved= 1 IEnMin= 1 EnMin= -1713.19579095393     IErMin= 1 ErrMin= 3.90D-02
 ErrMax= 3.90D-02  0.00D+00 EMaxC= 1.00D-01 BMatC= 9.95D-01 BMatP= 9.95D-01
 IDIUse=3 WtCom= 6.10D-01 WtEn= 3.90D-01
 Coeff-Com:  0.100D+01
 Coeff-En:   0.100D+01
 Coeff:      0.100D+01
 Gap=     0.365 Goal=   None    Shift=    0.000
 GapD=    0.365 DampG=1.000 DampE=0.500 DampFc=0.5000 IDamp=-1.
 Damping current iteration by 5.00D-01
 RMSDP=6.96D-03 MaxDP=6.00D-01              OVMax= 2.36D-01

 Cycle   2  Pass 0  IDiag  1:
 RMSU=  3.48D-03    CP:  9.99D-01
 E= -1713.37844253761     Delta-E=       -0.182651583677 Rises=F Damp=T
 DIIS: error= 1.47D-02 at cycle   2 NSaved=   2.
 NSaved= 2 IEnMin= 2 EnMin= -1713.37844253761     IErMin= 2 ErrMin= 1.47D-02
 ErrMax= 1.47D-02  0.00D+00 EMaxC= 1.00D-01 BMatC= 1.67D-01 BMatP= 9.95D-01
 IDIUse=3 WtCom= 8.53D-01 WtEn= 1.47D-01
 Coeff-Com:  0.248D+00 0.752D+00
 Coeff-En:   0.391D+00 0.609D+00
 Coeff:      0.269D+00 0.731D+00
 Gap=     0.288 Goal=   None    Shift=    0.000
 RMSDP=2.02D-03 MaxDP=1.29D-01 DE=-1.83D-01 OVMax= 1.97D-01

 Cycle   3  Pass 0  IDiag  1:
 RMSU=  1.60D-03    CP:  9.90D-01  6.52D-01
 E= -1713.95145201400     Delta-E=       -0.573009476392 Rises=F Damp=F
 DIIS: error= 8.61D-03 at cycle   3 NSaved=   3.
 NSaved= 3 IEnMin= 3 EnMin= -1713.95145201400     IErMin= 3 ErrMin= 8.61D-03
 ErrMax= 8.61D-03  0.00D+00 EMaxC= 1.00D-01 BMatC= 9.74D-02 BMatP= 1.67D-01
 IDIUse=3 WtCom= 9.14D-01 WtEn= 8.61D-02
 Coeff-Com:  0.101D+00 0.441D+00 0.457D+00
 Coeff-En:   0.000D+00 0.000D+00 0.100D+01
 Coeff:      0.925D-01 0.403D+00 0.504D+00
 Gap=     0.242 Goal=   None    Shift=    0.000
 RMSDP=1.24D-03 MaxDP=3.65D-02 DE=-5.73D-01 OVMax= 8.26D-02

 Cycle   4  Pass 0  IDiag  1:
 RMSU=  7.30D-04    CP:  9.95D-01  7.24D-01  4.01D-01
 E= -1714.03127333136     Delta-E=       -0.079821317358 Rises=F Damp=F
 DIIS: error= 2.95D-03 at cycle   4 NSaved=   4.
 NSaved= 4 IEnMin= 4 EnMin= -1714.03127333136     IErMin= 4 ErrMin= 2.95D-03
 ErrMax= 2.95D-03  0.00D+00 EMaxC= 1.00D-01 BMatC= 1.19D-02 BMatP= 9.74D-02
 IDIUse=3 WtCom= 9.70D-01 WtEn= 2.95D-02
 Coeff-Com:  0.914D-02 0.808D-01 0.273D+00 0.637D+00
 Coeff-En:   0.000D+00 0.000D+00 0.102D+00 0.898D+00
 Coeff:      0.887D-02 0.784D-01 0.268D+00 0.645D+00
 Gap=     0.240 Goal=   None    Shift=    0.000
 RMSDP=3.86D-04 MaxDP=1.49D-02 DE=-7.98D-02 OVMax= 2.29D-02

 Cycle   5  Pass 0  IDiag  1:
 RMSU=  1.75D-04    CP:  9.94D-01  7.13D-01  5.45D-01  6.54D-01
 E= -1714.04119268351     Delta-E=       -0.009919352145 Rises=F Damp=F
 DIIS: error= 1.07D-03 at cycle   5 NSaved=   5.
 NSaved= 5 IEnMin= 5 EnMin= -1714.04119268351     IErMin= 5 ErrMin= 1.07D-03
 ErrMax= 1.07D-03  0.00D+00 EMaxC= 1.00D-01 BMatC= 9.49D-04 BMatP= 1.19D-02
 IDIUse=3 WtCom= 9.89D-01 WtEn= 1.07D-02
 Coeff-Com: -0.155D-02 0.170D-01 0.111D+00 0.345D+00 0.529D+00
 Coeff-En:   0.000D+00 0.000D+00 0.000D+00 0.000D+00 0.100D+01
 Coeff:     -0.153D-02 0.168D-01 0.110D+00 0.341D+00 0.534D+00
 Gap=     0.240 Goal=   None    Shift=    0.000
 RMSDP=1.08D-04 MaxDP=6.66D-03 DE=-9.92D-03 OVMax= 5.98D-03

 Cycle   6  Pass 0  IDiag  1:
 RMSU=  5.14D-05    CP:  9.94D-01  7.17D-01  5.37D-01  7.17D-01  5.38D-01
 E= -1714.04199992098     Delta-E=       -0.000807237474 Rises=F Damp=F
 DIIS: error= 3.31D-04 at cycle   6 NSaved=   6.
 NSaved= 6 IEnMin= 6 EnMin= -1714.04199992098     IErMin= 6 ErrMin= 3.31D-04
 ErrMax= 3.31D-04  0.00D+00 EMaxC= 1.00D-01 BMatC= 8.26D-05 BMatP= 9.49D-04
 IDIUse=3 WtCom= 9.97D-01 WtEn= 3.31D-03
 Coeff-Com: -0.149D-02 0.327D-02 0.384D-01 0.132D+00 0.293D+00 0.534D+00
 Coeff-En:   0.000D+00 0.000D+00 0.000D+00 0.000D+00 0.000D+00 0.100D+01
 Coeff:     -0.149D-02 0.326D-02 0.383D-01 0.132D+00 0.292D+00 0.536D+00
 Gap=     0.240 Goal=   None    Shift=    0.000
 RMSDP=3.12D-05 MaxDP=1.41D-03 DE=-8.07D-04 OVMax= 2.25D-03

 Cycle   7  Pass 0  IDiag  1:
 RMSU=  2.18D-05    CP:  9.94D-01  7.16D-01  5.38D-01  7.15D-01  5.89D-01
                    CP:  6.07D-01
 E= -1714.04205797957     Delta-E=       -0.000058058592 Rises=F Damp=F
 DIIS: error= 1.64D-04 at cycle   7 NSaved=   7.
 NSaved= 7 IEnMin= 7 EnMin= -1714.04205797957     IErMin= 7 ErrMin= 1.64D-04
 ErrMax= 1.64D-04  0.00D+00 EMaxC= 1.00D-01 BMatC= 1.58D-05 BMatP= 8.26D-05
 IDIUse=3 WtCom= 9.98D-01 WtEn= 1.64D-03
 Coeff-Com: -0.807D-03 0.146D-03 0.121D-01 0.457D-01 0.133D+00 0.354D+00
 Coeff-Com:  0.456D+00
 Coeff-En:   0.000D+00 0.000D+00 0.000D+00 0.000D+00 0.000D+00 0.139D+00
 Coeff-En:   0.861D+00
 Coeff:     -0.805D-03 0.146D-03 0.121D-01 0.457D-01 0.132D+00 0.354D+00
 Coeff:      0.457D+00
 Gap=     0.240 Goal=   None    Shift=    0.000
 RMSDP=1.22D-05 MaxDP=6.42D-04 DE=-5.81D-05 OVMax= 8.04D-04

 Cycle   8  Pass 0  IDiag  1:
 RMSU=  5.67D-06    CP:  9.94D-01  7.16D-01  5.39D-01  7.15D-01  5.93D-01
                    CP:  6.63D-01  5.25D-01
 E= -1714.04207102224     Delta-E=       -0.000013042668 Rises=F Damp=F
 DIIS: error= 2.57D-05 at cycle   8 NSaved=   8.
 NSaved= 8 IEnMin= 8 EnMin= -1714.04207102224     IErMin= 8 ErrMin= 2.57D-05
 ErrMax= 2.57D-05  0.00D+00 EMaxC= 1.00D-01 BMatC= 6.18D-07 BMatP= 1.58D-05
 IDIUse=1 WtCom= 1.00D+00 WtEn= 0.00D+00
 Coeff-Com: -0.244D-03-0.277D-03 0.162D-02 0.774D-02 0.345D-01 0.117D+00
 Coeff-Com:  0.224D+00 0.615D+00
 Coeff:     -0.244D-03-0.277D-03 0.162D-02 0.774D-02 0.345D-01 0.117D+00
 Coeff:      0.224D+00 0.615D+00
 Gap=     0.240 Goal=   None    Shift=    0.000
 RMSDP=2.93D-06 MaxDP=1.84D-04 DE=-1.30D-05 OVMax= 1.55D-04

 Initial convergence to 1.0D-05 achieved.  Increase integral accuracy.
 Cycle   9  Pass 1  IDiag  1:
 E= -1714.04205417951     Delta-E=        0.000016842728 Rises=F Damp=F
 DIIS: error= 6.11D-05 at cycle   1 NSaved=   1.
 NSaved= 1 IEnMin= 1 EnMin= -1714.04205417951     IErMin= 1 ErrMin= 6.11D-05
 ErrMax= 6.11D-05  0.00D+00 EMaxC= 1.00D-01 BMatC= 9.21D-07 BMatP= 9.21D-07
 IDIUse=1 WtCom= 1.00D+00 WtEn= 0.00D+00
 Coeff-Com:  0.100D+01
 Coeff:      0.100D+01
 Gap=     0.240 Goal=   None    Shift=    0.000
 RMSDP=2.93D-06 MaxDP=1.84D-04 DE= 1.68D-05 OVMax= 2.07D-04

 Cycle  10  Pass 1  IDiag  1:
 RMSU=  2.85D-05    CP:  1.00D+00
 E= -1714.04205487963     Delta-E=       -0.000000700115 Rises=F Damp=F
 DIIS: error= 2.19D-05 at cycle   2 NSaved=   2.
 NSaved= 2 IEnMin= 2 EnMin= -1714.04205487963     IErMin= 2 ErrMin= 2.19D-05
 ErrMax= 2.19D-05  0.00D+00 EMaxC= 1.00D-01 BMatC= 3.39D-07 BMatP= 9.21D-07
 IDIUse=1 WtCom= 1.00D+00 WtEn= 0.00D+00
 Coeff-Com:  0.315D+00 0.685D+00
 Coeff:      0.315D+00 0.685D+00
 Gap=     0.240 Goal=   None    Shift=    0.000
 RMSDP=3.28D-06 MaxDP=1.15D-04 DE=-7.00D-07 OVMax= 2.59D-04

 Cycle  11  Pass 1  IDiag  1:
 RMSU=  3.28D-06    CP:  1.00D+00  1.00D+00
 E= -1714.04205483073     Delta-E=        0.000000048894 Rises=F Damp=F
 DIIS: error= 2.28D-05 at cycle   3 NSaved=   3.
 NSaved= 3 IEnMin= 2 EnMin= -1714.04205487963     IErMin= 2 ErrMin= 2.19D-05
 ErrMax= 2.28D-05  0.00D+00 EMaxC= 1.00D-01 BMatC= 4.10D-07 BMatP= 3.39D-07
 IDIUse=1 WtCom= 1.00D+00 WtEn= 0.00D+00
 Coeff-Com:  0.179D-02 0.523D+00 0.475D+00
 Coeff:      0.179D-02 0.523D+00 0.475D+00
 Gap=     0.240 Goal=   None    Shift=    0.000
 RMSDP=1.77D-06 MaxDP=8.19D-05 DE= 4.89D-08 OVMax= 1.26D-04

 Cycle  12  Pass 1  IDiag  1:
 RMSU=  5.44D-07    CP:  1.00D+00  1.01D+00  4.92D-01
 E= -1714.04205517678     Delta-E=       -0.000000346050 Rises=F Damp=F
 DIIS: error= 3.48D-06 at cycle   4 NSaved=   4.
 NSaved= 4 IEnMin= 4 EnMin= -1714.04205517678     IErMin= 4 ErrMin= 3.48D-06
 ErrMax= 3.48D-06  0.00D+00 EMaxC= 1.00D-01 BMatC= 1.13D-08 BMatP= 3.39D-07
 IDIUse=1 WtCom= 1.00D+00 WtEn= 0.00D+00
 Coeff-Com: -0.824D-02 0.298D+00 0.289D+00 0.422D+00
 Coeff:     -0.824D-02 0.298D+00 0.289D+00 0.422D+00
 Gap=     0.240 Goal=   None    Shift=    0.000
 RMSDP=3.13D-07 MaxDP=1.67D-05 DE=-3.46D-07 OVMax= 1.75D-05

 Cycle  13  Pass 1  IDiag  1:
 RMSU=  1.69D-07    CP:  1.00D+00  1.01D+00  4.94D-01  5.18D-01
 E= -1714.04205518606     Delta-E=       -0.000000009273 Rises=F Damp=F
 DIIS: error= 8.30D-07 at cycle   5 NSaved=   5.
 NSaved= 5 IEnMin= 5 EnMin= -1714.04205518606     IErMin= 5 ErrMin= 8.30D-07
 ErrMax= 8.30D-07  0.00D+00 EMaxC= 1.00D-01 BMatC= 4.33D-10 BMatP= 1.13D-08
 IDIUse=1 WtCom= 1.00D+00 WtEn= 0.00D+00
 Coeff-Com: -0.469D-02 0.143D+00 0.140D+00 0.240D+00 0.481D+00
 Coeff:     -0.469D-02 0.143D+00 0.140D+00 0.240D+00 0.481D+00
 Gap=     0.240 Goal=   None    Shift=    0.000
 RMSDP=7.51D-08 MaxDP=2.95D-06 DE=-9.27D-09 OVMax= 6.89D-06

 Cycle  14  Pass 1  IDiag  1:
 RMSU=  6.32D-08    CP:  1.00D+00  1.01D+00  4.97D-01  5.43D-01  7.82D-01
 E= -1714.04205518641     Delta-E=       -0.000000000351 Rises=F Damp=F
 DIIS: error= 3.18D-07 at cycle   6 NSaved=   6.
 NSaved= 6 IEnMin= 6 EnMin= -1714.04205518641     IErMin= 6 ErrMin= 3.18D-07
 ErrMax= 3.18D-07  0.00D+00 EMaxC= 1.00D-01 BMatC= 5.63D-11 BMatP= 4.33D-10
 IDIUse=1 WtCom= 1.00D+00 WtEn= 0.00D+00
 Coeff-Com: -0.105D-02 0.239D-01 0.242D-01 0.560D-01 0.282D+00 0.615D+00
 Coeff:     -0.105D-02 0.239D-01 0.242D-01 0.560D-01 0.282D+00 0.615D+00
 Gap=     0.240 Goal=   None    Shift=    0.000
 RMSDP=2.61D-08 MaxDP=1.15D-06 DE=-3.51D-10 OVMax= 2.10D-06

 Cycle  15  Pass 1  IDiag  1:
 RMSU=  1.84D-08    CP:  1.00D+00  1.01D+00  4.96D-01  5.46D-01  8.52D-01
                    CP:  7.78D-01
 E= -1714.04205518646     Delta-E=       -0.000000000047 Rises=F Damp=F
 DIIS: error= 1.31D-07 at cycle   7 NSaved=   7.
 NSaved= 7 IEnMin= 7 EnMin= -1714.04205518646     IErMin= 7 ErrMin= 1.31D-07
 ErrMax= 1.31D-07  0.00D+00 EMaxC= 1.00D-01 BMatC= 9.50D-12 BMatP= 5.63D-11
 IDIUse=1 WtCom= 1.00D+00 WtEn= 0.00D+00
 Coeff-Com: -0.967D-04-0.252D-02-0.205D-02 0.558D-02 0.116D+00 0.379D+00
 Coeff-Com:  0.505D+00
 Coeff:     -0.967D-04-0.252D-02-0.205D-02 0.558D-02 0.116D+00 0.379D+00
 Coeff:      0.505D+00
 Gap=     0.240 Goal=   None    Shift=    0.000
 RMSDP=1.01D-08 MaxDP=7.24D-07 DE=-4.73D-11 OVMax= 4.89D-07

 Cycle  16  Pass 1  IDiag  1:
 RMSU=  5.46D-09    CP:  1.00D+00  1.01D+00  4.97D-01  5.49D-01  8.60D-01
                    CP:  7.99D-01  5.64D-01
 E= -1714.04205518644     Delta-E=        0.000000000014 Rises=F Damp=F
 DIIS: error= 3.10D-08 at cycle   8 NSaved=   8.
 NSaved= 8 IEnMin= 7 EnMin= -1714.04205518646     IErMin= 8 ErrMin= 3.10D-08
 ErrMax= 3.10D-08  0.00D+00 EMaxC= 1.00D-01 BMatC= 6.45D-13 BMatP= 9.50D-12
 IDIUse=1 WtCom= 1.00D+00 WtEn= 0.00D+00
 Coeff-Com:  0.209D-04-0.310D-02-0.286D-02-0.892D-03 0.435D-01 0.165D+00
 Coeff-Com:  0.282D+00 0.516D+00
 Coeff:      0.209D-04-0.310D-02-0.286D-02-0.892D-03 0.435D-01 0.165D+00
 Coeff:      0.282D+00 0.516D+00
 Gap=     0.240 Goal=   None    Shift=    0.000
 RMSDP=2.66D-09 MaxDP=1.20D-07 DE= 1.36D-11 OVMax= 1.84D-07

 SCF Done:  E(RB3LYP) =  -1714.04205519     A.U. after   16 cycles
            NFock= 16  Conv=0.27D-08     -V/T= 2.0068
 KE= 1.702539175744D+03 PE=-8.382429470732D+03 EE= 2.787336533839D+03
 Leave Link  502 at Fri Oct  2 06:19:38 2020, MaxMem=  2147483648 cpu:       412.5
 (Enter /prod/apps/gaussian/g09d1/l601.exe)
 Copying SCF densities to generalized density rwf, IOpCl= 0 IROHF=0.

 **********************************************************************

            Population analysis using the SCF density.

 **********************************************************************

 Orbital symmetries:
       Occupied  (A) (A) (A) (A) (A) (A) (A) (A) (A) (A) (A) (A)
                 (A) (A) (A) (A) (A) (A) (A) (A) (A) (A) (A) (A)
                 (A) (A) (A) (A) (A) (A) (A) (A) (A) (A) (A) (A)
                 (A) (A) (A) (A) (A) (A) (A) (A) (A) (A) (A) (A)
                 (A) (A) (A) (A) (A) (A) (A) (A) (A) (A) (A) (A)
                 (A) (A) (A) (A) (A) (A) (A) (A) (A) (A) (A) (A)
                 (A) (A) (A) (A) (A) (A) (A) (A) (A) (A) (A) (A)
                 (A) (A) (A) (A)
       Virtual   (A) (A) (A) (A) (A) (A) (A) (A) (A) (A) (A) (A)
                 (A) (A) (A) (A) (A) (A) (A) (A) (A) (A) (A) (A)
                 (A) (A) (A) (A) (A) (A) (A) (A) (A) (A) (A) (A)
                 (A) (A) (A) (A) (A) (A) (A) (A) (A) (A) (A) (A)
                 (A) (A) (A) (A) (A) (A) (A) (A) (A) (A) (A) (A)
                 (A) (A) (A) (A) (A) (A) (A) (A) (A) (A) (A) (A)
                 (A) (A) (A) (A) (A) (A) (A) (A) (A) (A) (A) (A)
                 (A) (A) (A) (A) (A) (A) (A) (A) (A) (A) (A) (A)
                 (A) (A) (A) (A) (A) (A) (A) (A) (A) (A) (A) (A)
                 (A) (A) (A) (A) (A) (A) (A) (A) (A) (A) (A) (A)
                 (A) (A) (A) (A) (A) (A) (A) (A) (A) (A) (A) (A)
                 (A) (A) (A) (A) (A) (A) (A) (A) (A) (A) (A) (A)
                 (A) (A) (A) (A) (A) (A) (A) (A) (A) (A) (A) (A)
                 (A) (A) (A) (A) (A) (A) (A) (A) (A) (A) (A) (A)
                 (A) (A) (A) (A) (A) (A) (A) (A) (A) (A) (A) (A)
                 (A) (A) (A) (A) (A) (A) (A) (A) (A) (A) (A) (A)
                 (A) (A) (A) (A) (A) (A) (A) (A) (A) (A) (A) (A)
                 (A) (A) (A) (A) (A) (A) (A) (A) (A) (A) (A) (A)
                 (A) (A) (A) (A) (A) (A) (A) (A) (A) (A) (A) (A)
                 (A) (A) (A) (A) (A) (A) (A) (A) (A) (A) (A) (A)
                 (A) (A) (A) (A) (A) (A) (A) (A) (A) (A) (A) (A)
                 (A) (A) (A) (A) (A) (A) (A) (A) (A) (A) (A) (A)
                 (A) (A) (A) (A) (A) (A) (A) (A) (A) (A) (A)
 The electronic state is 1-A.
 Alpha  occ. eigenvalues --  -89.14528 -89.09398 -19.16357 -19.16087 -19.14834
 Alpha  occ. eigenvalues --  -19.14634 -14.39417 -14.39189 -10.28612 -10.24285
 Alpha  occ. eigenvalues --  -10.23826 -10.23750 -10.23277 -10.20562 -10.20149
 Alpha  occ. eigenvalues --  -10.19951 -10.19442 -10.19352 -10.19284 -10.19234
 Alpha  occ. eigenvalues --  -10.19212  -8.16815  -8.12455  -6.13302  -6.13231
 Alpha  occ. eigenvalues --   -6.13193  -6.08871  -6.08813  -6.08743  -1.13895
 Alpha  occ. eigenvalues --   -1.10104  -1.02045  -0.99786  -0.96412  -0.95463
 Alpha  occ. eigenvalues --   -0.86497  -0.85822  -0.79942  -0.74738  -0.74576
 Alpha  occ. eigenvalues --   -0.74294  -0.73361  -0.72613  -0.67794  -0.63801
 Alpha  occ. eigenvalues --   -0.60951  -0.60035  -0.58801  -0.58241  -0.55572
 Alpha  occ. eigenvalues --   -0.53988  -0.52326  -0.51876  -0.50678  -0.49517
 Alpha  occ. eigenvalues --   -0.49231  -0.47889  -0.47215  -0.46392  -0.45924
 Alpha  occ. eigenvalues --   -0.45583  -0.45190  -0.44112  -0.43512  -0.42905
 Alpha  occ. eigenvalues --   -0.42707  -0.42354  -0.42200  -0.40919  -0.40433
 Alpha  occ. eigenvalues --   -0.39199  -0.37755  -0.37174  -0.35960  -0.35708
 Alpha  occ. eigenvalues --   -0.35523  -0.34233  -0.34037  -0.33561  -0.32050
 Alpha  occ. eigenvalues --   -0.31902  -0.31664  -0.30642  -0.30082  -0.28518
 Alpha  occ. eigenvalues --   -0.27150  -0.25354  -0.24609
 Alpha virt. eigenvalues --   -0.00587  -0.00427   0.02716   0.03209   0.04389
 Alpha virt. eigenvalues --    0.04619   0.05165   0.05610   0.07110   0.08255
 Alpha virt. eigenvalues --    0.08813   0.09173   0.09701   0.10798   0.11029
 Alpha virt. eigenvalues --    0.12220   0.12390   0.12869   0.13448   0.14455
 Alpha virt. eigenvalues --    0.14915   0.15288   0.15470   0.15846   0.16319
 Alpha virt. eigenvalues --    0.17394   0.17694   0.18183   0.18440   0.19337
 Alpha virt. eigenvalues --    0.19500   0.19810   0.21269   0.21934   0.23224
 Alpha virt. eigenvalues --    0.24287   0.25958   0.28072   0.28409   0.30323
 Alpha virt. eigenvalues --    0.31566   0.32927   0.33993   0.34396   0.35568
 Alpha virt. eigenvalues --    0.36141   0.39318   0.41886   0.43899   0.44367
 Alpha virt. eigenvalues --    0.45467   0.46117   0.47514   0.48302   0.48585
 Alpha virt. eigenvalues --    0.49454   0.52185   0.52744   0.53498   0.54582
 Alpha virt. eigenvalues --    0.54595   0.55531   0.56444   0.57053   0.58666
 Alpha virt. eigenvalues --    0.59004   0.59193   0.59306   0.59500   0.60377
 Alpha virt. eigenvalues --    0.61105   0.61433   0.61987   0.62661   0.64118
 Alpha virt. eigenvalues --    0.65141   0.66357   0.67503   0.68063   0.69496
 Alpha virt. eigenvalues --    0.71168   0.72150   0.73395   0.74521   0.74992
 Alpha virt. eigenvalues --    0.75353   0.76458   0.78251   0.79173   0.79944
 Alpha virt. eigenvalues --    0.80845   0.81706   0.81915   0.83262   0.83512
 Alpha virt. eigenvalues --    0.84000   0.84391   0.85052   0.85480   0.85667
 Alpha virt. eigenvalues --    0.86373   0.86862   0.87500   0.88027   0.88757
 Alpha virt. eigenvalues --    0.90347   0.90786   0.91658   0.91699   0.91890
 Alpha virt. eigenvalues --    0.92366   0.94245   0.94268   0.94504   0.95541
 Alpha virt. eigenvalues --    0.96759   0.98533   0.98767   1.00147   1.01195
 Alpha virt. eigenvalues --    1.03481   1.04104   1.05799   1.06327   1.06785
 Alpha virt. eigenvalues --    1.06990   1.08241   1.09384   1.09746   1.10469
 Alpha virt. eigenvalues --    1.11821   1.12660   1.13699   1.14888   1.15387
 Alpha virt. eigenvalues --    1.16746   1.18163   1.18449   1.19692   1.21791
 Alpha virt. eigenvalues --    1.23191   1.24181   1.25727   1.27800   1.31022
 Alpha virt. eigenvalues --    1.33206   1.34216   1.35039   1.37949   1.41192
 Alpha virt. eigenvalues --    1.41703   1.42654   1.43353   1.44137   1.46938
 Alpha virt. eigenvalues --    1.47979   1.48846   1.49145   1.50901   1.51265
 Alpha virt. eigenvalues --    1.53353   1.56314   1.61243   1.63898   1.68695
 Alpha virt. eigenvalues --    1.69530   1.70949   1.72215   1.73253   1.75851
 Alpha virt. eigenvalues --    1.76815   1.77079   1.79123   1.79729   1.79939
 Alpha virt. eigenvalues --    1.80132   1.81037   1.81248   1.81408   1.82287
 Alpha virt. eigenvalues --    1.82922   1.84232   1.86208   1.86567   1.87830
 Alpha virt. eigenvalues --    1.89215   1.91692   1.92276   1.92831   1.93270
 Alpha virt. eigenvalues --    1.94165   1.96097   1.96742   1.97450   1.98020
 Alpha virt. eigenvalues --    1.99105   2.01771   2.02221   2.03949   2.04387
 Alpha virt. eigenvalues --    2.05119   2.05666   2.07309   2.08580   2.09258
 Alpha virt. eigenvalues --    2.12162   2.12660   2.13690   2.13864   2.15029
 Alpha virt. eigenvalues --    2.15516   2.16678   2.18873   2.19516   2.19955
 Alpha virt. eigenvalues --    2.22870   2.23764   2.25335   2.26123   2.27246
 Alpha virt. eigenvalues --    2.29975   2.30583   2.31778   2.33653   2.35804
 Alpha virt. eigenvalues --    2.37143   2.38678   2.40853   2.41140   2.43482
 Alpha virt. eigenvalues --    2.44430   2.48442   2.51043   2.54413   2.56577
 Alpha virt. eigenvalues --    2.57846   2.59755   2.65822   2.68479   2.69736
 Alpha virt. eigenvalues --    2.71293   2.72259   2.72999   2.73518   2.74358
 Alpha virt. eigenvalues --    2.75974   2.76726   2.79736   2.82456   2.83038
 Alpha virt. eigenvalues --    2.83463   2.93266   3.04832   3.40748   3.78813
 Alpha virt. eigenvalues --    3.80711   3.89335   3.94385   4.01544   4.06167
 Alpha virt. eigenvalues --    4.07757   4.08888   4.11008   4.11496   4.14736
 Alpha virt. eigenvalues --    4.20290   4.22373   4.24986   4.32958   4.33054
 Alpha virt. eigenvalues --    4.35316   4.41212   4.53862   4.69860   4.72348
          Condensed to atoms (all electrons):
               1          2          3          4          5          6
     1  C    4.996955   0.289449  -0.050216  -0.025396  -0.002495  -0.003594
     2  N    0.289449   7.209966   0.268961   0.135338  -0.058045  -0.052512
     3  C   -0.050216   0.268961   5.002970  -0.009688   0.002032   0.001710
     4  S   -0.025396   0.135338  -0.009688  13.598695   0.447949   0.402262
     5  O   -0.002495  -0.058045   0.002032   0.447949   8.226742  -0.042580
     6  O   -0.003594  -0.052512   0.001710   0.402262  -0.042580   8.279540
     7  N    0.002237  -0.044125  -0.009729   0.129586  -0.058420  -0.053669
     8  C    0.000032  -0.006182   0.000604   0.001097   0.001875   0.008305
     9  C    0.000018  -0.000211  -0.000015  -0.006204  -0.000072   0.005602
    10  S    0.000000  -0.000002   0.000000  -0.000053  -0.000006   0.000360
    11  O    0.000000   0.000000   0.000000  -0.000020   0.000000   0.000000
    12  O    0.000000   0.000000   0.000000  -0.000001   0.000000   0.000000
    13  C    0.000001  -0.000146   0.000000   0.001266  -0.000093   0.000133
    14  C   -0.000118   0.005575  -0.000113  -0.005256  -0.000084  -0.008434
    15  C    0.000049  -0.002834  -0.000095  -0.000272   0.000000   0.000072
    16  C    0.000028  -0.000922   0.000029  -0.000134   0.000000   0.000005
    17  C   -0.000219   0.000014  -0.000006  -0.000032   0.000000  -0.000002
    18  C   -0.000004   0.000034  -0.000001   0.000002   0.000000   0.000000
    19  C    0.000000   0.000000   0.000000   0.000000   0.000000   0.000000
    20  C    0.000000   0.000000   0.000000   0.000000   0.000000   0.000000
    21  C    0.000000  -0.000007   0.000001  -0.000001   0.000000   0.000000
    22  H    0.377161  -0.040199  -0.002523   0.001929  -0.000120   0.000254
    23  H    0.371159  -0.046450  -0.002672  -0.002880   0.002650  -0.000562
    24  H    0.378287  -0.031042   0.004632  -0.005249  -0.000190   0.011922
    25  H   -0.003830  -0.035341   0.373695   0.003090   0.000077  -0.000049
    26  H    0.004787  -0.034640   0.374952  -0.002116  -0.001778   0.000028
    27  H   -0.002366  -0.044095   0.374785  -0.007829   0.006081  -0.000045
    28  H   -0.000058   0.002525  -0.000200  -0.017090   0.006835   0.000122
    29  H   -0.000002  -0.000002   0.000000   0.000178   0.000001   0.000152
    30  H    0.000001   0.000013   0.000000   0.001381  -0.000163  -0.000169
    31  H    0.000000   0.000002  -0.000001   0.000008   0.000000   0.000001
    32  H    0.000000   0.000001  -0.000001  -0.000092  -0.000018   0.000003
    33  H   -0.000065  -0.000781   0.000054   0.008168   0.000019   0.007055
    34  H   -0.000001   0.000102  -0.000003  -0.000076   0.000000   0.000058
    35  H    0.000000   0.000161  -0.000031  -0.000018   0.000000  -0.000004
    36  H   -0.000069   0.003314  -0.000086  -0.001430  -0.000002  -0.000010
    37  H    0.000336   0.003071  -0.000227   0.000035   0.000000  -0.000025
    38  H    0.000001  -0.000001   0.000000   0.000000   0.000000   0.000000
    39  H    0.000000   0.000000   0.000000   0.000000   0.000000   0.000000
    40  H    0.000000   0.000000   0.000000   0.000000   0.000000   0.000000
    41  H    0.000000   0.000000   0.000000   0.000000   0.000000   0.000000
               7          8          9         10         11         12
     1  C    0.002237   0.000032   0.000018   0.000000   0.000000   0.000000
     2  N   -0.044125  -0.006182  -0.000211  -0.000002   0.000000   0.000000
     3  C   -0.009729   0.000604  -0.000015   0.000000   0.000000   0.000000
     4  S    0.129586   0.001097  -0.006204  -0.000053  -0.000020  -0.000001
     5  O   -0.058420   0.001875  -0.000072  -0.000006   0.000000   0.000000
     6  O   -0.053669   0.008305   0.005602   0.000360   0.000000   0.000000
     7  N    7.368720   0.236977  -0.061214   0.002726  -0.000126  -0.000029
     8  C    0.236977   4.876698   0.363654  -0.096140   0.002287   0.000290
     9  C   -0.061214   0.363654   5.688594   0.140342  -0.045379  -0.045031
    10  S    0.002726  -0.096140   0.140342  13.896081   0.435028   0.409644
    11  O   -0.000126   0.002287  -0.045379   0.435028   8.203669  -0.043851
    12  O   -0.000029   0.000290  -0.045031   0.409644  -0.043851   8.241384
    13  C   -0.036449   0.330268  -0.195780   0.119074  -0.046217  -0.045216
    14  C   -0.056069   0.329592  -0.054325   0.004731  -0.000058  -0.002860
    15  C    0.001078  -0.031690   0.004227  -0.000470   0.000000   0.000022
    16  C    0.000100   0.003684  -0.000077  -0.000004   0.000000  -0.000002
    17  C    0.000008   0.000106  -0.000004  -0.000001   0.000000   0.000000
    18  C    0.000000   0.000002   0.000000   0.000000   0.000000   0.000000
    19  C    0.000000   0.000000   0.000000   0.000000   0.000000   0.000000
    20  C    0.000000   0.000002   0.000000   0.000000   0.000000   0.000000
    21  C   -0.000002   0.000048  -0.000003  -0.000009   0.000000  -0.000001
    22  H   -0.000074   0.000002   0.000000   0.000000   0.000000   0.000000
    23  H   -0.000079  -0.000008   0.000000   0.000000   0.000000   0.000000
    24  H    0.000126   0.000014  -0.000002   0.000000   0.000000   0.000000
    25  H   -0.000051   0.000009   0.000000   0.000000   0.000000   0.000000
    26  H    0.013297   0.000124   0.000022   0.000002   0.000000   0.000000
    27  H   -0.000277  -0.000035   0.000000   0.000000   0.000000   0.000000
    28  H    0.298246  -0.025336  -0.000820   0.000562  -0.000058  -0.000001
    29  H    0.001999  -0.025024   0.347594  -0.012708   0.000734  -0.000332
    30  H   -0.002871  -0.023462   0.330156  -0.003295   0.000177   0.001213
    31  H    0.001488  -0.023303   0.009075  -0.009077   0.000678   0.000227
    32  H   -0.005167  -0.026389   0.004190  -0.002302   0.000489   0.001228
    33  H   -0.005206  -0.028379  -0.005683  -0.000269   0.000001   0.000072
    34  H    0.004217  -0.031966  -0.004650   0.008168   0.000022   0.006501
    35  H   -0.000098  -0.005333   0.000042   0.000049   0.000001   0.000000
    36  H    0.003412  -0.007334   0.000046  -0.000002   0.000000  -0.000001
    37  H   -0.000013  -0.000103   0.000001   0.000000   0.000000   0.000000
    38  H    0.000000   0.000000   0.000000   0.000000   0.000000   0.000000
    39  H    0.000000   0.000000   0.000000   0.000000   0.000000   0.000000
    40  H    0.000000   0.000000   0.000000   0.000000   0.000000   0.000000
    41  H    0.000000  -0.000041   0.000001   0.000003   0.000000   0.000002
              13         14         15         16         17         18
     1  C    0.000001  -0.000118   0.000049   0.000028  -0.000219  -0.000004
     2  N   -0.000146   0.005575  -0.002834  -0.000922   0.000014   0.000034
     3  C    0.000000  -0.000113  -0.000095   0.000029  -0.000006  -0.000001
     4  S    0.001266  -0.005256  -0.000272  -0.000134  -0.000032   0.000002
     5  O   -0.000093  -0.000084   0.000000   0.000000   0.000000   0.000000
     6  O    0.000133  -0.008434   0.000072   0.000005  -0.000002   0.000000
     7  N   -0.036449  -0.056069   0.001078   0.000100   0.000008   0.000000
     8  C    0.330268   0.329592  -0.031690   0.003684   0.000106   0.000002
     9  C   -0.195780  -0.054325   0.004227  -0.000077  -0.000004   0.000000
    10  S    0.119074   0.004731  -0.000470  -0.000004  -0.000001   0.000000
    11  O   -0.046217  -0.000058   0.000000   0.000000   0.000000   0.000000
    12  O   -0.045216  -0.002860   0.000022  -0.000002   0.000000   0.000000
    13  C    5.754677  -0.048957  -0.007433   0.000125  -0.000005   0.000000
    14  C   -0.048957   5.187234   0.340224  -0.038874  -0.003887   0.000010
    15  C   -0.007433   0.340224   5.176412   0.355863  -0.059959   0.006548
    16  C    0.000125  -0.038874   0.355863   4.631011   0.547493  -0.019925
    17  C   -0.000005  -0.003887  -0.059959   0.547493   4.977162   0.520744
    18  C    0.000000   0.000010   0.006548  -0.019925   0.520744   4.872793
    19  C    0.000000   0.000017   0.000400  -0.034167  -0.035667   0.550192
    20  C    0.000000  -0.000119   0.006866  -0.019931  -0.047044  -0.026256
    21  C    0.000007  -0.003391  -0.055290   0.551099  -0.041131  -0.047283
    22  H    0.000000   0.000007   0.000014   0.000058   0.000153  -0.000032
    23  H    0.000000   0.000006  -0.000003  -0.000001   0.000000   0.000000
    24  H    0.000000  -0.000074   0.000007   0.000006   0.000020  -0.000003
    25  H    0.000000   0.000007  -0.000002   0.000049   0.000115  -0.000003
    26  H    0.000014  -0.000309   0.000209   0.000022  -0.000006   0.000000
    27  H    0.000000   0.000009   0.000010  -0.000002  -0.000001   0.000000
    28  H   -0.006940   0.005160  -0.000124   0.000003   0.000000   0.000000
    29  H    0.009624  -0.003009   0.000141  -0.000012   0.000000   0.000000
    30  H    0.004588   0.003555  -0.000103   0.000001   0.000000   0.000000
    31  H    0.342469  -0.006862   0.001385  -0.000093   0.000002   0.000000
    32  H    0.328414   0.003796   0.000032   0.000002   0.000000   0.000000
    33  H    0.005138   0.359568  -0.035172  -0.001968   0.003808  -0.000114
    34  H   -0.005327   0.362745  -0.036450  -0.000247   0.000018  -0.000024
    35  H    0.002259  -0.040524   0.353249  -0.029967   0.004661  -0.000197
    36  H   -0.000197  -0.035487   0.361176  -0.025936  -0.005062   0.000090
    37  H    0.000000   0.000286  -0.009230  -0.045630   0.351580  -0.046073
    38  H    0.000000  -0.000001  -0.000186   0.003638  -0.040054   0.356150
    39  H    0.000000   0.000000   0.000007   0.000723   0.004652  -0.043202
    40  H    0.000000   0.000000  -0.000184   0.003734   0.000838   0.004600
    41  H   -0.000022   0.000265  -0.010406  -0.046250   0.006321   0.000366
              19         20         21         22         23         24
     1  C    0.000000   0.000000   0.000000   0.377161   0.371159   0.378287
     2  N    0.000000   0.000000  -0.000007  -0.040199  -0.046450  -0.031042
     3  C    0.000000   0.000000   0.000001  -0.002523  -0.002672   0.004632
     4  S    0.000000   0.000000  -0.000001   0.001929  -0.002880  -0.005249
     5  O    0.000000   0.000000   0.000000  -0.000120   0.002650  -0.000190
     6  O    0.000000   0.000000   0.000000   0.000254  -0.000562   0.011922
     7  N    0.000000   0.000000  -0.000002  -0.000074  -0.000079   0.000126
     8  C    0.000000   0.000002   0.000048   0.000002  -0.000008   0.000014
     9  C    0.000000   0.000000  -0.000003   0.000000   0.000000  -0.000002
    10  S    0.000000   0.000000  -0.000009   0.000000   0.000000   0.000000
    11  O    0.000000   0.000000   0.000000   0.000000   0.000000   0.000000
    12  O    0.000000   0.000000  -0.000001   0.000000   0.000000   0.000000
    13  C    0.000000   0.000000   0.000007   0.000000   0.000000   0.000000
    14  C    0.000017  -0.000119  -0.003391   0.000007   0.000006  -0.000074
    15  C    0.000400   0.006866  -0.055290   0.000014  -0.000003   0.000007
    16  C   -0.034167  -0.019931   0.551099   0.000058  -0.000001   0.000006
    17  C   -0.035667  -0.047044  -0.041131   0.000153   0.000000   0.000020
    18  C    0.550192  -0.026256  -0.047283  -0.000032   0.000000  -0.000003
    19  C    4.850447   0.551633  -0.036041   0.000000   0.000000   0.000000
    20  C    0.551633   4.865366   0.522591   0.000000   0.000000   0.000000
    21  C   -0.036041   0.522591   4.962100   0.000000   0.000000   0.000000
    22  H    0.000000   0.000000   0.000000   0.551126  -0.041372  -0.020696
    23  H    0.000000   0.000000   0.000000  -0.041372   0.575856  -0.029849
    24  H    0.000000   0.000000   0.000000  -0.020696  -0.029849   0.483670
    25  H    0.000000   0.000000   0.000001   0.005265  -0.001396  -0.000009
    26  H    0.000000   0.000000   0.000000   0.000076  -0.000242  -0.000189
    27  H    0.000000   0.000000   0.000000  -0.001781   0.008621  -0.000174
    28  H    0.000000   0.000000   0.000000   0.000001   0.000008  -0.000004
    29  H    0.000000   0.000000   0.000000   0.000000   0.000000   0.000002
    30  H    0.000000   0.000000   0.000000   0.000000   0.000000   0.000000
    31  H    0.000000  -0.000001  -0.000009   0.000000   0.000000   0.000000
    32  H    0.000000   0.000000   0.000000   0.000000   0.000000   0.000000
    33  H   -0.000004   0.000000   0.000020  -0.000064   0.000009   0.000384
    34  H   -0.000008  -0.000101   0.002964   0.000000   0.000000  -0.000001
    35  H    0.000006   0.000141  -0.005397  -0.000001   0.000000   0.000000
    36  H    0.000012  -0.000206   0.003389  -0.000077   0.000015  -0.000019
    37  H    0.004684   0.000408   0.005998   0.000632   0.000051   0.000006
    38  H   -0.042593   0.004560   0.000896   0.000003   0.000000   0.000000
    39  H    0.359321  -0.042752   0.004713   0.000000   0.000000   0.000000
    40  H   -0.043074   0.356917  -0.039072   0.000000   0.000000   0.000000
    41  H    0.004854  -0.045248   0.354328   0.000000   0.000000   0.000000
              25         26         27         28         29         30
     1  C   -0.003830   0.004787  -0.002366  -0.000058  -0.000002   0.000001
     2  N   -0.035341  -0.034640  -0.044095   0.002525  -0.000002   0.000013
     3  C    0.373695   0.374952   0.374785  -0.000200   0.000000   0.000000
     4  S    0.003090  -0.002116  -0.007829  -0.017090   0.000178   0.001381
     5  O    0.000077  -0.001778   0.006081   0.006835   0.000001  -0.000163
     6  O   -0.000049   0.000028  -0.000045   0.000122   0.000152  -0.000169
     7  N   -0.000051   0.013297  -0.000277   0.298246   0.001999  -0.002871
     8  C    0.000009   0.000124  -0.000035  -0.025336  -0.025024  -0.023462
     9  C    0.000000   0.000022   0.000000  -0.000820   0.347594   0.330156
    10  S    0.000000   0.000002   0.000000   0.000562  -0.012708  -0.003295
    11  O    0.000000   0.000000   0.000000  -0.000058   0.000734   0.000177
    12  O    0.000000   0.000000   0.000000  -0.000001  -0.000332   0.001213
    13  C    0.000000   0.000014   0.000000  -0.006940   0.009624   0.004588
    14  C    0.000007  -0.000309   0.000009   0.005160  -0.003009   0.003555
    15  C   -0.000002   0.000209   0.000010  -0.000124   0.000141  -0.000103
    16  C    0.000049   0.000022  -0.000002   0.000003  -0.000012   0.000001
    17  C    0.000115  -0.000006  -0.000001   0.000000   0.000000   0.000000
    18  C   -0.000003   0.000000   0.000000   0.000000   0.000000   0.000000
    19  C    0.000000   0.000000   0.000000   0.000000   0.000000   0.000000
    20  C    0.000000   0.000000   0.000000   0.000000   0.000000   0.000000
    21  C    0.000001   0.000000   0.000000   0.000000   0.000000   0.000000
    22  H    0.005265   0.000076  -0.001781   0.000001   0.000000   0.000000
    23  H   -0.001396  -0.000242   0.008621   0.000008   0.000000   0.000000
    24  H   -0.000009  -0.000189  -0.000174  -0.000004   0.000002   0.000000
    25  H    0.546178  -0.023439  -0.035835  -0.000001   0.000000   0.000000
    26  H   -0.023439   0.513823  -0.031327  -0.000807   0.000000   0.000000
    27  H   -0.035835  -0.031327   0.558218   0.000098   0.000000   0.000000
    28  H   -0.000001  -0.000807   0.000098   0.372967  -0.000172   0.001545
    29  H    0.000000   0.000000   0.000000  -0.000172   0.471222  -0.017428
    30  H    0.000000   0.000000   0.000000   0.001545  -0.017428   0.492292
    31  H    0.000000   0.000001   0.000000  -0.000152  -0.000251  -0.000265
    32  H    0.000000   0.000003   0.000000   0.005809  -0.000256  -0.000021
    33  H   -0.000025  -0.000002   0.000000  -0.000055   0.003018   0.000003
    34  H    0.000000   0.000000   0.000000  -0.000112  -0.000370   0.000206
    35  H   -0.000011   0.000031   0.000001  -0.000037   0.000009   0.000000
    36  H    0.000079   0.000861   0.000157  -0.000012  -0.000003   0.000004
    37  H   -0.000005  -0.000026   0.000018   0.000000   0.000000   0.000000
    38  H    0.000000   0.000000   0.000000   0.000000   0.000000   0.000000
    39  H    0.000000   0.000000   0.000000   0.000000   0.000000   0.000000
    40  H    0.000000   0.000000   0.000000   0.000000   0.000000   0.000000
    41  H    0.000000   0.000000   0.000000   0.000000   0.000000   0.000000
              31         32         33         34         35         36
     1  C    0.000000   0.000000  -0.000065  -0.000001   0.000000  -0.000069
     2  N    0.000002   0.000001  -0.000781   0.000102   0.000161   0.003314
     3  C   -0.000001  -0.000001   0.000054  -0.000003  -0.000031  -0.000086
     4  S    0.000008  -0.000092   0.008168  -0.000076  -0.000018  -0.001430
     5  O    0.000000  -0.000018   0.000019   0.000000   0.000000  -0.000002
     6  O    0.000001   0.000003   0.007055   0.000058  -0.000004  -0.000010
     7  N    0.001488  -0.005167  -0.005206   0.004217  -0.000098   0.003412
     8  C   -0.023303  -0.026389  -0.028379  -0.031966  -0.005333  -0.007334
     9  C    0.009075   0.004190  -0.005683  -0.004650   0.000042   0.000046
    10  S   -0.009077  -0.002302  -0.000269   0.008168   0.000049  -0.000002
    11  O    0.000678   0.000489   0.000001   0.000022   0.000001   0.000000
    12  O    0.000227   0.001228   0.000072   0.006501   0.000000  -0.000001
    13  C    0.342469   0.328414   0.005138  -0.005327   0.002259  -0.000197
    14  C   -0.006862   0.003796   0.359568   0.362745  -0.040524  -0.035487
    15  C    0.001385   0.000032  -0.035172  -0.036450   0.353249   0.361176
    16  C   -0.000093   0.000002  -0.001968  -0.000247  -0.029967  -0.025936
    17  C    0.000002   0.000000   0.003808   0.000018   0.004661  -0.005062
    18  C    0.000000   0.000000  -0.000114  -0.000024  -0.000197   0.000090
    19  C    0.000000   0.000000  -0.000004  -0.000008   0.000006   0.000012
    20  C   -0.000001   0.000000   0.000000  -0.000101   0.000141  -0.000206
    21  C   -0.000009   0.000000   0.000020   0.002964  -0.005397   0.003389
    22  H    0.000000   0.000000  -0.000064   0.000000  -0.000001  -0.000077
    23  H    0.000000   0.000000   0.000009   0.000000   0.000000   0.000015
    24  H    0.000000   0.000000   0.000384  -0.000001   0.000000  -0.000019
    25  H    0.000000   0.000000  -0.000025   0.000000  -0.000011   0.000079
    26  H    0.000001   0.000003  -0.000002   0.000000   0.000031   0.000861
    27  H    0.000000   0.000000   0.000000   0.000000   0.000001   0.000157
    28  H   -0.000152   0.005809  -0.000055  -0.000112  -0.000037  -0.000012
    29  H   -0.000251  -0.000256   0.003018  -0.000370   0.000009  -0.000003
    30  H   -0.000265  -0.000021   0.000003   0.000206   0.000000   0.000004
    31  H    0.480507  -0.019984   0.000199  -0.000170   0.006997  -0.000005
    32  H   -0.019984   0.512301  -0.000120   0.000075  -0.000225  -0.000032
    33  H    0.000199  -0.000120   0.529247  -0.026509   0.005086  -0.004766
    34  H   -0.000170   0.000075  -0.026509   0.539228  -0.003776   0.005162
    35  H    0.006997  -0.000225   0.005086  -0.003776   0.605555  -0.034879
    36  H   -0.000005  -0.000032  -0.004766   0.005162  -0.034879   0.561691
    37  H    0.000000   0.000000   0.000878   0.000075   0.000084   0.003727
    38  H    0.000000   0.000000   0.000004   0.000000   0.000003  -0.000004
    39  H    0.000000   0.000000   0.000000   0.000000   0.000000   0.000000
    40  H    0.000000   0.000000   0.000000   0.000003  -0.000009   0.000003
    41  H    0.000144   0.000000   0.000018   0.000363   0.006495   0.000091
              37         38         39         40         41
     1  C    0.000336   0.000001   0.000000   0.000000   0.000000
     2  N    0.003071  -0.000001   0.000000   0.000000   0.000000
     3  C   -0.000227   0.000000   0.000000   0.000000   0.000000
     4  S    0.000035   0.000000   0.000000   0.000000   0.000000
     5  O    0.000000   0.000000   0.000000   0.000000   0.000000
     6  O   -0.000025   0.000000   0.000000   0.000000   0.000000
     7  N   -0.000013   0.000000   0.000000   0.000000   0.000000
     8  C   -0.000103   0.000000   0.000000   0.000000  -0.000041
     9  C    0.000001   0.000000   0.000000   0.000000   0.000001
    10  S    0.000000   0.000000   0.000000   0.000000   0.000003
    11  O    0.000000   0.000000   0.000000   0.000000   0.000000
    12  O    0.000000   0.000000   0.000000   0.000000   0.000002
    13  C    0.000000   0.000000   0.000000   0.000000  -0.000022
    14  C    0.000286  -0.000001   0.000000   0.000000   0.000265
    15  C   -0.009230  -0.000186   0.000007  -0.000184  -0.010406
    16  C   -0.045630   0.003638   0.000723   0.003734  -0.046250
    17  C    0.351580  -0.040054   0.004652   0.000838   0.006321
    18  C   -0.046073   0.356150  -0.043202   0.004600   0.000366
    19  C    0.004684  -0.042593   0.359321  -0.043074   0.004854
    20  C    0.000408   0.004560  -0.042752   0.356917  -0.045248
    21  C    0.005998   0.000896   0.004713  -0.039072   0.354328
    22  H    0.000632   0.000003   0.000000   0.000000   0.000000
    23  H    0.000051   0.000000   0.000000   0.000000   0.000000
    24  H    0.000006   0.000000   0.000000   0.000000   0.000000
    25  H   -0.000005   0.000000   0.000000   0.000000   0.000000
    26  H   -0.000026   0.000000   0.000000   0.000000   0.000000
    27  H    0.000018   0.000000   0.000000   0.000000   0.000000
    28  H    0.000000   0.000000   0.000000   0.000000   0.000000
    29  H    0.000000   0.000000   0.000000   0.000000   0.000000
    30  H    0.000000   0.000000   0.000000   0.000000   0.000000
    31  H    0.000000   0.000000   0.000000   0.000000   0.000144
    32  H    0.000000   0.000000   0.000000   0.000000   0.000000
    33  H    0.000878   0.000004   0.000000   0.000000   0.000018
    34  H    0.000075   0.000000   0.000000   0.000003   0.000363
    35  H    0.000084   0.000003   0.000000  -0.000009   0.006495
    36  H    0.003727  -0.000004   0.000000   0.000003   0.000091
    37  H    0.607981  -0.005432  -0.000180   0.000018  -0.000184
    38  H   -0.005432   0.600378  -0.005553  -0.000190   0.000018
    39  H   -0.000180  -0.005553   0.597234  -0.005548  -0.000182
    40  H    0.000018  -0.000190  -0.005548   0.594867  -0.005617
    41  H   -0.000184   0.000018  -0.000182  -0.005617   0.609659
 Mulliken charges:
               1
     1  C   -0.332070
     2  N   -0.520991
     3  C   -0.328818
     4  S    1.352852
     5  O   -0.530195
     6  O   -0.555929
     7  N   -0.730552
     8  C    0.175056
     9  C   -0.474094
    10  S    1.107570
    11  O   -0.507376
    12  O   -0.523258
    13  C   -0.505274
    14  C   -0.293976
    15  C   -0.358088
    16  C    0.166470
    17  C   -0.184613
    18  C   -0.128415
    19  C   -0.130014
    20  C   -0.126828
    21  C   -0.180515
    22  H    0.170255
    23  H    0.167140
    24  H    0.208425
    25  H    0.171434
    26  H    0.186631
    27  H    0.175768
    28  H    0.358098
    29  H    0.224895
    30  H    0.212644
    31  H    0.216990
    32  H    0.198266
    33  H    0.186434
    34  H    0.179885
    35  H    0.135675
    36  H    0.172392
    37  H    0.127257
    38  H    0.128364
    39  H    0.130768
    40  H    0.132715
    41  H    0.125022
 Sum of Mulliken charges =   0.00000
 Mulliken charges with hydrogens summed into heavy atoms:
               1
     1  C    0.213749
     2  N   -0.520991
     3  C    0.205015
     4  S    1.352852
     5  O   -0.530195
     6  O   -0.555929
     7  N   -0.372454
     8  C    0.175056
     9  C   -0.036555
    10  S    1.107570
    11  O   -0.507376
    12  O   -0.523258
    13  C   -0.090018
    14  C    0.072342
    15  C   -0.050020
    16  C    0.166470
    17  C   -0.057355
    18  C   -0.000050
    19  C    0.000754
    20  C    0.005887
    21  C   -0.055493
 Electronic spatial extent (au):  <R**2>=           7970.5724
 Charge=              0.0000 electrons
 Dipole moment (field-independent basis, Debye):
    X=              4.5152    Y=              3.7912    Z=              2.7617  Tot=              6.5105
 Quadrupole moment (field-independent basis, Debye-Ang):
   XX=           -149.6265   YY=           -150.9548   ZZ=           -135.5158
   XY=             -2.9664   XZ=             -6.0869   YZ=             -2.6806
 Traceless Quadrupole moment (field-independent basis, Debye-Ang):
   XX=             -4.2608   YY=             -5.5891   ZZ=              9.8499
   XY=             -2.9664   XZ=             -6.0869   YZ=             -2.6806
 Octapole moment (field-independent basis, Debye-Ang**2):
  XXX=             58.0027  YYY=             93.5674  ZZZ=              4.4401  XYY=             93.2986
  XXY=             24.5810  XXZ=            -16.2576  XZZ=            -27.8698  YZZ=              0.0609
  YYZ=             21.1760  XYZ=             -5.4067
 Hexadecapole moment (field-independent basis, Debye-Ang**3):
 XXXX=          -5741.5015 YYYY=          -4164.0624 ZZZZ=           -660.2681 XXXY=           -216.2539
 XXXZ=           -110.7738 YYYX=            -53.1908 YYYZ=            -73.9625 ZZZX=             -9.1399
 ZZZY=             16.4486 XXYY=          -1802.3731 XXZZ=          -1063.9620 YYZZ=           -758.2190
 XXYZ=             -6.5468 YYXZ=             -5.7410 ZZXY=             47.4060
 N-N= 2.178511705962D+03 E-N=-8.382429473219D+03  KE= 1.702539175744D+03
 No NMR shielding tensors so no spin-rotation constants.
 Leave Link  601 at Fri Oct  2 06:19:39 2020, MaxMem=  2147483648 cpu:         0.8
 (Enter /prod/apps/gaussian/g09d1/l9999.exe)
 1\1\GINC-PIRINEUS42\SP\RB3LYP\6-31G(d)\C13H20N2O4S2\UBAFAR01\02-Oct-20
 20\0\\#p b3lyp/6-31G(d)\\SM40.n.24.pdb.xyz\\0,1\C,0,3.625,0.572,-1.836
 \N,0,3.673,-0.224,-0.597\C,0,3.113,0.471,0.571\S,0,3.09,-1.792,-0.788\
 O,0,1.639,-1.872,-0.573\O,0,3.673,-2.3,-2.033\N,0,3.766,-2.558,0.554\C
 ,0,5.01,-3.332,0.407\C,0,4.921,-4.56,-0.573\S,0,5.631,-5.642,0.713\O,0
 ,4.794,-6.804,1.051\O,0,7.083,-5.817,0.536\C,0,5.261,-4.153,1.717\C,0,
 6.207,-2.441,0.043\C,0,6.529,-1.335,1.059\C,0,7.759,-0.546,0.665\C,0,7
 .681,0.48,-0.286\C,0,8.82,1.19,-0.668\C,0,10.059,0.884,-0.102\C,0,10.1
 5,-0.135,0.847\C,0,9.008,-0.842,1.225\H,0,4.217,1.473,-1.665\H,0,2.603
 ,0.867,-2.107\H,0,4.068,0.,-2.648\H,0,3.699,1.379,0.725\H,0,3.214,-0.1
 67,1.45\H,0,2.06,0.739,0.431\H,0,3.014,-3.076,1.006\H,0,5.514,-4.499,-
 1.485\H,0,3.902,-4.873,-0.797\H,0,6.089,-3.824,2.345\H,0,4.368,-4.325,
 2.321\H,0,6.014,-2.001,-0.939\H,0,7.074,-3.098,-0.073\H,0,6.691,-1.777
 ,2.048\H,0,5.665,-0.672,1.138\H,0,6.718,0.724,-0.727\H,0,8.74,1.984,-1
 .404\H,0,10.946,1.437,-0.395\H,0,11.108,-0.378,1.296\H,0,9.082,-1.632,
 1.968\\Version=AM64L-G09RevD.01\State=1-A\HF=-1714.0420552\RMSD=2.659e
 -09\Dipole=-0.0999468,2.4967163,0.563371\Quadrupole=-0.3762568,-7.1380
 727,7.5143295,0.8380201,-3.6314668,-1.4533079\PG=C01 [X(C13H20N2O4S2)]
 \\@


 THIS CURIOUS WORLD WHICH WE INHABIT IS MORE WONDERFUL THAN IT IS CONVENIENT;
 MORE BEAUTIFUL THAN IT IS USEFUL;
 IT IS MORE TO BE ADMIRED THAN IT IS TO BE USED.

[...]
     8  C    0.328582   0.330745  -0.031770   0.003701   0.000101   0.000002
     9  C   -0.190089  -0.055199   0.004276  -0.000078  -0.000004   0.000000
    10  S    0.132584   0.005793  -0.000482  -0.000006  -0.000001   0.000000
    11  O   -0.046520  -0.000061   0.000000   0.000000   0.000000   0.000000
    12  O   -0.045992  -0.002746   0.000020  -0.000001   0.000000   0.000000
    13  C    5.733911  -0.049696  -0.007300   0.000113  -0.000005   0.000000
    14  C   -0.049696   5.184148   0.340597  -0.038364  -0.003952   0.000009
    15  C   -0.007300   0.340597   5.174114   0.355231  -0.059488   0.006508
    16  C    0.000113  -0.038364   0.355231   4.641378   0.546217  -0.021034
    17  C   -0.000005  -0.003952  -0.059488   0.546217   4.983202   0.519692
    18  C    0.000000   0.000009   0.006508  -0.021034   0.519692   4.886153
    19  C    0.000000   0.000018   0.000373  -0.034124  -0.037060   0.547684
    20  C    0.000000  -0.000121   0.006832  -0.021296  -0.046811  -0.027661
    21  C    0.000007  -0.003433  -0.055238   0.549311  -0.041511  -0.047293
    22  H    0.000000   0.000005   0.000014   0.000057   0.000114  -0.000030
    23  H    0.000000   0.000006  -0.000003  -0.000001   0.000000   0.000000
    24  H    0.000000  -0.000076   0.000008   0.000005   0.000022  -0.000003
    25  H    0.000000   0.000006  -0.000006   0.000047   0.000109  -0.000002
    26  H    0.000012  -0.000294   0.000177   0.000022  -0.000006   0.000000
    27  H    0.000000   0.000010   0.000011  -0.000002  -0.000001   0.000000
    28  H   -0.006458   0.004798  -0.000115   0.000003   0.000000   0.000000
    29  H    0.009421  -0.003021   0.000132  -0.000012   0.000000   0.000000
    30  H    0.004306   0.003502  -0.000099   0.000001   0.000000   0.000000
    31  H    0.344264  -0.006537   0.001548  -0.000106   0.000002   0.000000
    32  H    0.332810   0.003639   0.000017   0.000002   0.000000   0.000000
    33  H    0.005137   0.359947  -0.035041  -0.002030   0.003828  -0.000115
    34  H   -0.005510   0.361775  -0.037157  -0.000260   0.000048  -0.000024
    35  H    0.002338  -0.039972   0.356417  -0.030693   0.004537  -0.000194
    36  H   -0.000191  -0.034952   0.362554  -0.026086  -0.004849   0.000093
    37  H    0.000000   0.000266  -0.008894  -0.045563   0.353740  -0.045006
    38  H    0.000000  -0.000001  -0.000180   0.003593  -0.039042   0.358474
    39  H    0.000000   0.000000   0.000007   0.000682   0.004602  -0.042597
    40  H    0.000000   0.000000  -0.000179   0.003702   0.000789   0.004556
    41  H   -0.000020   0.000253  -0.009950  -0.045910   0.006216   0.000326
              19         20         21         22         23         24
     1  C    0.000000   0.000000   0.000000   0.379340   0.371893   0.377598
     2  N    0.000000   0.000000  -0.000008  -0.039107  -0.046341  -0.031750
     3  C    0.000000   0.000000   0.000001  -0.002412  -0.002510   0.004609
     4  S    0.000000   0.000000  -0.000001   0.002006  -0.003040  -0.005269
     5  O    0.000000   0.000000   0.000000  -0.000117   0.002619  -0.000184
     6  O    0.000000   0.000000   0.000000   0.000245  -0.000548   0.011586
     7  N    0.000000   0.000000  -0.000002  -0.000076  -0.000078   0.000124
     8  C    0.000000   0.000002   0.000046   0.000002  -0.000008   0.000014
     9  C    0.000000   0.000000  -0.000003   0.000000   0.000000  -0.000002
    10  S    0.000000   0.000000  -0.000009   0.000000   0.000000   0.000000
    11  O    0.000000   0.000000   0.000000   0.000000   0.000000   0.000000
    12  O    0.000000   0.000000  -0.000001   0.000000   0.000000   0.000000
    13  C    0.000000   0.000000   0.000007   0.000000   0.000000   0.000000
    14  C    0.000018  -0.000121  -0.003433   0.000005   0.000006  -0.000076
    15  C    0.000373   0.006832  -0.055238   0.000014  -0.000003   0.000008
    16  C   -0.034124  -0.021296   0.549311   0.000057  -0.000001   0.000005
    17  C   -0.037060  -0.046811  -0.041511   0.000114   0.000000   0.000022
    18  C    0.547684  -0.027661  -0.047293  -0.000030   0.000000  -0.000003
    19  C    4.866335   0.549429  -0.037323   0.000000   0.000000   0.000000
    20  C    0.549429   4.880901   0.520578   0.000000   0.000000   0.000000
    21  C   -0.037323   0.520578   4.974686   0.000000   0.000000   0.000000
    22  H    0.000000   0.000000   0.000000   0.533994  -0.039288  -0.020453
    23  H    0.000000   0.000000   0.000000  -0.039288   0.570748  -0.030306
    24  H    0.000000   0.000000   0.000000  -0.020453  -0.030306   0.490810
    25  H    0.000000   0.000000   0.000001   0.005004  -0.001338  -0.000004
    26  H    0.000000   0.000000   0.000000   0.000072  -0.000231  -0.000190
    27  H    0.000000   0.000000   0.000000  -0.001711   0.008409  -0.000168
    28  H    0.000000   0.000000   0.000000   0.000001   0.000008  -0.000004
    29  H    0.000000   0.000000   0.000000   0.000000   0.000000   0.000002
    30  H    0.000000   0.000000   0.000000   0.000000   0.000000   0.000000
    31  H    0.000000  -0.000001  -0.000005   0.000000   0.000000   0.000000
    32  H    0.000000   0.000000   0.000000   0.000000   0.000000   0.000000
    33  H   -0.000004   0.000001   0.000037  -0.000064   0.000009   0.000379
    34  H   -0.000009  -0.000105   0.003023   0.000000   0.000000  -0.000001
    35  H    0.000006   0.000161  -0.004997  -0.000001   0.000000   0.000000
    36  H    0.000013  -0.000206   0.003321  -0.000077   0.000015  -0.000020
    37  H    0.004658   0.000370   0.005925   0.000674   0.000048  -0.000002
    38  H   -0.042190   0.004497   0.000846   0.000003   0.000000   0.000000
    39  H    0.361219  -0.042443   0.004667   0.000000   0.000000   0.000000
    40  H   -0.042677   0.358716  -0.038769   0.000000   0.000000   0.000000
    41  H    0.004809  -0.044777   0.356406   0.000000   0.000000   0.000000
              25         26         27         28         29         30
     1  C   -0.003771   0.004702  -0.002355  -0.000050  -0.000002   0.000001
     2  N   -0.034471  -0.034660  -0.044250   0.002300  -0.000002   0.000013
     3  C    0.375877   0.375162   0.375402  -0.000236   0.000000   0.000000
     4  S    0.003069  -0.001823  -0.008193  -0.015540   0.000226   0.001458
     5  O    0.000072  -0.001779   0.006081   0.006150   0.000001  -0.000161
     6  O   -0.000049   0.000028  -0.000045   0.000060   0.000169  -0.000121
     7  N   -0.000049   0.012610  -0.000288   0.299396   0.001987  -0.002746
     8  C    0.000009   0.000134  -0.000035  -0.023747  -0.025047  -0.022856
     9  C    0.000000   0.000020   0.000000  -0.000748   0.346755   0.331593
    10  S    0.000000   0.000002   0.000000   0.000527  -0.012307  -0.003166
    11  O    0.000000   0.000000   0.000000  -0.000056   0.000727   0.000088
    12  O    0.000000   0.000000   0.000000  -0.000001  -0.000423   0.001183
    13  C    0.000000   0.000012   0.000000  -0.006458   0.009421   0.004306
    14  C    0.000006  -0.000294   0.000010   0.004798  -0.003021   0.003502
    15  C   -0.000006   0.000177   0.000011  -0.000115   0.000132  -0.000099
    16  C    0.000047   0.000022  -0.000002   0.000003  -0.000012   0.000001
    17  C    0.000109  -0.000006  -0.000001   0.000000   0.000000   0.000000
    18  C   -0.000002   0.000000   0.000000   0.000000   0.000000   0.000000
    19  C    0.000000   0.000000   0.000000   0.000000   0.000000   0.000000
    20  C    0.000000   0.000000   0.000000   0.000000   0.000000   0.000000
    21  C    0.000001   0.000000   0.000000   0.000000   0.000000   0.000000
    22  H    0.005004   0.000072  -0.001711   0.000001   0.000000   0.000000
    23  H   -0.001338  -0.000231   0.008409   0.000008   0.000000   0.000000
    24  H   -0.000004  -0.000190  -0.000168  -0.000004   0.000002   0.000000
    25  H    0.530360  -0.022719  -0.034254  -0.000001   0.000000   0.000000
    26  H   -0.022719   0.507657  -0.031155  -0.000735   0.000000   0.000000
    27  H   -0.034254  -0.031155   0.556628   0.000096   0.000000   0.000000
    28  H   -0.000001  -0.000735   0.000096   0.345928  -0.000154   0.001401
    29  H    0.000000   0.000000   0.000000  -0.000154   0.466440  -0.016746
    30  H    0.000000   0.000000   0.000000   0.001401  -0.016746   0.481642
    31  H    0.000000   0.000000   0.000000  -0.000126  -0.000251  -0.000248
    32  H    0.000000   0.000002   0.000000   0.004965  -0.000239  -0.000028
    33  H   -0.000025  -0.000002   0.000001  -0.000049   0.003034  -0.000008
    34  H    0.000000   0.000000   0.000000  -0.000105  -0.000346   0.000201
    35  H   -0.000010   0.000029   0.000001  -0.000033   0.000009   0.000000
    36  H    0.000070   0.000847   0.000148  -0.000002  -0.000003   0.000004
    37  H   -0.000003  -0.000025   0.000017   0.000000   0.000000   0.000000
    38  H    0.000000   0.000000   0.000000   0.000000   0.000000   0.000000
    39  H    0.000000   0.000000   0.000000   0.000000   0.000000   0.000000
    40  H    0.000000   0.000000   0.000000   0.000000   0.000000   0.000000
    41  H    0.000000   0.000000   0.000000   0.000000   0.000000   0.000000
              31         32         33         34         35         36
     1  C    0.000000   0.000000  -0.000065  -0.000001   0.000000  -0.000073
     2  N    0.000002   0.000001  -0.000694   0.000105   0.000160   0.003335
     3  C   -0.000001  -0.000001   0.000050  -0.000003  -0.000030   0.000016
     4  S    0.000004  -0.000070   0.008012  -0.000083  -0.000023  -0.001385
     5  O    0.000000  -0.000017   0.000018   0.000000   0.000000  -0.000002
     6  O    0.000001   0.000003   0.006955   0.000058  -0.000004  -0.000009
     7  N    0.001402  -0.004662  -0.005201   0.004282  -0.000104   0.003385
     8  C   -0.024216  -0.025013  -0.028355  -0.032241  -0.005353  -0.007294
     9  C    0.008929   0.003955  -0.005679  -0.004682   0.000044   0.000049
    10  S   -0.009890  -0.002905  -0.000328   0.007983   0.000012   0.000000
    11  O    0.000675   0.000373   0.000001   0.000020   0.000001   0.000000
    12  O    0.000154   0.001178   0.000070   0.006171   0.000000  -0.000001
    13  C    0.344264   0.332810   0.005137  -0.005510   0.002338  -0.000191
    14  C   -0.006537   0.003639   0.359947   0.361775  -0.039972  -0.034952
    15  C    0.001548   0.000017  -0.035041  -0.037157   0.356417   0.362554
    16  C   -0.000106   0.000002  -0.002030  -0.000260  -0.030693  -0.026086
    17  C    0.000002   0.000000   0.003828   0.000048   0.004537  -0.004849
    18  C    0.000000   0.000000  -0.000115  -0.000024  -0.000194   0.000093
    19  C    0.000000   0.000000  -0.000004  -0.000009   0.000006   0.000013
    20  C   -0.000001   0.000000   0.000001  -0.000105   0.000161  -0.000206
    21  C   -0.000005   0.000000   0.000037   0.003023  -0.004997   0.003321
    22  H    0.000000   0.000000  -0.000064   0.000000  -0.000001  -0.000077
    23  H    0.000000   0.000000   0.000009   0.000000   0.000000   0.000015
    24  H    0.000000   0.000000   0.000379  -0.000001   0.000000  -0.000020
    25  H    0.000000   0.000000  -0.000025   0.000000  -0.000010   0.000070
    26  H    0.000000   0.000002  -0.000002   0.000000   0.000029   0.000847
    27  H    0.000000   0.000000   0.000001   0.000000   0.000001   0.000148
    28  H   -0.000126   0.004965  -0.000049  -0.000105  -0.000033  -0.000002
    29  H   -0.000251  -0.000239   0.003034  -0.000346   0.000009  -0.000003
    30  H   -0.000248  -0.000028  -0.000008   0.000201   0.000000   0.000004
    31  H    0.467186  -0.017484   0.000200  -0.000161   0.006790  -0.000009
    32  H   -0.017484   0.483362  -0.000112   0.000066  -0.000199  -0.000029
    33  H    0.000200  -0.000112   0.529758  -0.027103   0.004990  -0.004669
    34  H   -0.000161   0.000066  -0.027103   0.549985  -0.003696   0.005171
    35  H    0.006790  -0.000199   0.004990  -0.003696   0.591657  -0.033423
    36  H   -0.000009  -0.000029  -0.004669   0.005171  -0.033423   0.551378
    37  H    0.000000   0.000000   0.000878   0.000076   0.000084   0.003608
    38  H    0.000000   0.000000   0.000004   0.000000   0.000003  -0.000004
    39  H    0.000000   0.000000   0.000000   0.000000   0.000000   0.000000
    40  H    0.000000   0.000000   0.000000   0.000003  -0.000008   0.000003
    41  H    0.000139   0.000000   0.000018   0.000374   0.006243   0.000091
              37         38         39         40         41
     1  C    0.000424   0.000000   0.000000   0.000000   0.000000
     2  N    0.003027  -0.000001   0.000000   0.000000   0.000000
     3  C   -0.000225   0.000000   0.000000   0.000000   0.000000
     4  S    0.000034   0.000000   0.000000   0.000000   0.000000
     5  O    0.000000   0.000000   0.000000   0.000000   0.000000
     6  O   -0.000025   0.000000   0.000000   0.000000   0.000000
     7  N   -0.000013   0.000000   0.000000   0.000000   0.000000
     8  C   -0.000101   0.000000   0.000000   0.000000  -0.000040
     9  C    0.000001   0.000000   0.000000   0.000000   0.000001
    10  S    0.000000   0.000000   0.000000   0.000000   0.000002
    11  O    0.000000   0.000000   0.000000   0.000000   0.000000
    12  O    0.000000   0.000000   0.000000   0.000000   0.000002
    13  C    0.000000   0.000000   0.000000   0.000000  -0.000020
    14  C    0.000266  -0.000001   0.000000   0.000000   0.000253
    15  C   -0.008894  -0.000180   0.000007  -0.000179  -0.009950
    16  C   -0.045563   0.003593   0.000682   0.003702  -0.045910
    17  C    0.353740  -0.039042   0.004602   0.000789   0.006216
    18  C   -0.045006   0.358474  -0.042597   0.004556   0.000326
    19  C    0.004658  -0.042190   0.361219  -0.042677   0.004809
    20  C    0.000370   0.004497  -0.042443   0.358716  -0.044777
    21  C    0.005925   0.000846   0.004667  -0.038769   0.356406
    22  H    0.000674   0.000003   0.000000   0.000000   0.000000
    23  H    0.000048   0.000000   0.000000   0.000000   0.000000
    24  H   -0.000002   0.000000   0.000000   0.000000   0.000000
    25  H   -0.000003   0.000000   0.000000   0.000000   0.000000
    26  H   -0.000025   0.000000   0.000000   0.000000   0.000000
    27  H    0.000017   0.000000   0.000000   0.000000   0.000000
    28  H    0.000000   0.000000   0.000000   0.000000   0.000000
    29  H    0.000000   0.000000   0.000000   0.000000   0.000000
    30  H    0.000000   0.000000   0.000000   0.000000   0.000000
    31  H    0.000000   0.000000   0.000000   0.000000   0.000139
    32  H    0.000000   0.000000   0.000000   0.000000   0.000000
    33  H    0.000878   0.000004   0.000000   0.000000   0.000018
    34  H    0.000076   0.000000   0.000000   0.000003   0.000374
    35  H    0.000084   0.000003   0.000000  -0.000008   0.006243
    36  H    0.003608  -0.000004   0.000000   0.000003   0.000091
    37  H    0.595384  -0.005263  -0.000173   0.000017  -0.000177
    38  H   -0.005263   0.585122  -0.005356  -0.000183   0.000017
    39  H   -0.000173  -0.005356   0.585373  -0.005390  -0.000176
    40  H    0.000017  -0.000183  -0.005390   0.584171  -0.005456
    41  H   -0.000177   0.000017  -0.000176  -0.005456   0.598529
 Mulliken charges:
               1
     1  C   -0.333741
     2  N   -0.522550
     3  C   -0.332817
     4  S    1.350506
     5  O   -0.546223
     6  O   -0.568205
     7  N   -0.732375
     8  C    0.174229
     9  C   -0.478213
    10  S    1.101998
    11  O   -0.530001
    12  O   -0.544012
    13  C   -0.506610
    14  C   -0.292244
    15  C   -0.360889
    16  C    0.162410
    17  C   -0.190263
    18  C   -0.139568
    19  C   -0.141155
    20  C   -0.138066
    21  C   -0.190263
    22  H    0.181805
    23  H    0.169937
    24  H    0.203273
    25  H    0.182079
    26  H    0.192143
    27  H    0.175654
    28  H    0.382529
    29  H    0.229651
    30  H    0.220787
    31  H    0.227737
    32  H    0.220387
    33  H    0.186218
    34  H    0.172143
    35  H    0.145258
    36  H    0.179182
    37  H    0.136241
    38  H    0.139660
    39  H    0.139585
    40  H    0.140705
    41  H    0.133079
 Sum of Mulliken charges =   0.00000
 Mulliken charges with hydrogens summed into heavy atoms:
               1
     1  C    0.221274
     2  N   -0.522550
     3  C    0.217059
     4  S    1.350506
     5  O   -0.546223
     6  O   -0.568205
     7  N   -0.349846
     8  C    0.174229
     9  C   -0.027775
    10  S    1.101998
    11  O   -0.530001
    12  O   -0.544012
    13  C   -0.058485
    14  C    0.066117
    15  C   -0.036449
    16  C    0.162410
    17  C   -0.054022
    18  C    0.000092
    19  C   -0.001570
    20  C    0.002638
    21  C   -0.057184
 Electronic spatial extent (au):  <R**2>=           7972.3171
 Charge=              0.0000 electrons
 Dipole moment (field-independent basis, Debye):
    X=              4.9484    Y=              4.4136    Z=              3.4626  Tot=              7.4804
 Quadrupole moment (field-independent basis, Debye-Ang):
   XX=           -150.8648   YY=           -152.8315   ZZ=           -134.7474
   XY=             -3.1427   XZ=             -7.0029   YZ=             -2.8244
 Traceless Quadrupole moment (field-independent basis, Debye-Ang):
   XX=             -4.7169   YY=             -6.6836   ZZ=             11.4005
   XY=             -3.1427   XZ=             -7.0029   YZ=             -2.8244
 Octapole moment (field-independent basis, Debye-Ang**2):
  XXX=             66.9561  YYY=            103.9854  ZZZ=              7.6425  XYY=            104.7675
  XXY=             30.9053  XXZ=            -14.9354  XZZ=            -28.1727  YZZ=              0.1498
  YYZ=             24.9146  XYZ=             -5.1373
 Hexadecapole moment (field-independent basis, Debye-Ang**3):
 XXXX=          -5753.5461 YYYY=          -4187.8459 ZZZZ=           -655.4021 XXXY=           -232.6337
 XXXZ=           -121.7424 YYYX=            -62.0769 YYYZ=            -77.2400 ZZZX=            -12.6365
 ZZZY=             17.3764 XXYY=          -1823.9431 XXZZ=          -1060.3697 YYZZ=           -756.6031
 XXYZ=             -8.6865 YYXZ=             -8.6019 ZZXY=             49.2580
 N-N= 2.178496123384D+03 E-N=-8.382489020927D+03  KE= 1.702550748358D+03
 No NMR shielding tensors so no spin-rotation constants.
 Leave Link  601 at Fri Oct  2 06:24:30 2020, MaxMem=  2147483648 cpu:         0.4
 (Enter /prod/apps/gaussian/g09d1/l9999.exe)
 1\1\GINC-PIRINEUS42\SP\RB3LYP\6-31G(d)\C13H20N2O4S2\UBAFAR01\02-Oct-20
 20\0\\#p b3lyp/6-31G(d) scrf=(iefpcm,read,solvent=n-Octanol) geom=allc
 heck guess=read\\SM40.n.24.pdb.xyz\\0,1\C,0,3.625,0.572,-1.836\N,0,3.6
 73,-0.224,-0.597\C,0,3.113,0.471,0.571\S,0,3.09,-1.792,-0.788\O,0,1.63
 9,-1.872,-0.573\O,0,3.673,-2.3,-2.033\N,0,3.766,-2.558,0.554\C,0,5.01,
 -3.332,0.407\C,0,4.921,-4.56,-0.573\S,0,5.631,-5.642,0.713\O,0,4.794,-
 6.804,1.051\O,0,7.083,-5.817,0.536\C,0,5.261,-4.153,1.717\C,0,6.207,-2
 .441,0.043\C,0,6.529,-1.335,1.059\C,0,7.759,-0.546,0.665\C,0,7.681,0.4
 8,-0.286\C,0,8.82,1.19,-0.668\C,0,10.059,0.884,-0.102\C,0,10.15,-0.135
 ,0.847\C,0,9.008,-0.842,1.225\H,0,4.217,1.473,-1.665\H,0,2.603,0.867,-
 2.107\H,0,4.068,0.,-2.648\H,0,3.699,1.379,0.725\H,0,3.214,-0.167,1.45\
 H,0,2.06,0.739,0.431\H,0,3.014,-3.076,1.006\H,0,5.514,-4.499,-1.485\H,
 0,3.902,-4.873,-0.797\H,0,6.089,-3.824,2.345\H,0,4.368,-4.325,2.321\H,
 0,6.014,-2.001,-0.939\H,0,7.074,-3.098,-0.073\H,0,6.691,-1.777,2.048\H
 ,0,5.665,-0.672,1.138\H,0,6.718,0.724,-0.727\H,0,8.74,1.984,-1.404\H,0
 ,10.946,1.437,-0.395\H,0,11.108,-0.378,1.296\H,0,9.082,-1.632,1.968\\V
 ersion=AM64L-G09RevD.01\State=1-A\HF=-1714.0713426\RMSD=4.662e-09\Dipo
 le=-0.2186877,2.837387,0.7501985\Quadrupole=-0.5954724,-7.9691904,8.56
 46628,1.040239,-4.386669,-1.5684401\PG=C01 [X(C13H20N2O4S2)]\\@


 IF IT'S NOT TRUE, IT'S WELL INVENTED -- DANTE
 Job cpu time:       0 days  0 hours  4 minutes 50.4 seconds.
 File lengths (MBytes):  RWF=    220 Int=      0 D2E=      0 Chk=      7 Scr=      1
 Normal termination of Gaussian 09 at Fri Oct  2 06:24:30 2020.
