 Entering Gaussian System, Link 0=g09
 Initial command:
 /prod/apps/gaussian/g09d1/l1.exe "/tmp/ubafar01/1462953/Gau-37073.inp" -scrdir="/tmp/ubafar01/1462953/"
 Entering Link 1 = /prod/apps/gaussian/g09d1/l1.exe PID=     37075.
  
 Copyright (c) 1988,1990,1992,1993,1995,1998,2003,2009,2013,
            Gaussian, Inc.  All Rights Reserved.
  
 This is part of the Gaussian(R) 09 program.  It is based on
 the Gaussian(R) 03 system (copyright 2003, Gaussian, Inc.),
 the Gaussian(R) 98 system (copyright 1998, Gaussian, Inc.),
 the Gaussian(R) 94 system (copyright 1995, Gaussian, Inc.),
 the Gaussian 92(TM) system (copyright 1992, Gaussian, Inc.),
 the Gaussian 90(TM) system (copyright 1990, Gaussian, Inc.),
 the Gaussian 88(TM) system (copyright 1988, Gaussian, Inc.),
 the Gaussian 86(TM) system (copyright 1986, Carnegie Mellon
 University), and the Gaussian 82(TM) system (copyright 1983,
 Carnegie Mellon University). Gaussian is a federally registered
 trademark of Gaussian, Inc.
  
 This software contains proprietary and confidential information,
 including trade secrets, belonging to Gaussian, Inc.
  
 This software is provided under written license and may be
 used, copied, transmitted, or stored only in accord with that
 written license.
  
 The following legend is applicable only to US Government
 contracts under FAR:
  
                    RESTRICTED RIGHTS LEGEND
  
 Use, reproduction and disclosure by the US Government is
 subject to restrictions as set forth in subparagraphs (a)
 and (c) of the Commercial Computer Software - Restricted
 Rights clause in FAR 52.227-19.
  
 Gaussian, Inc.
 340 Quinnipiac St., Bldg. 40, Wallingford CT 06492
  
  
 ---------------------------------------------------------------
 Warning -- This program may not be used in any manner that
 competes with the business of Gaussian, Inc. or will provide
 assistance to any competitor of Gaussian, Inc.  The licensee
 of this program is prohibited from giving any competitor of
 Gaussian, Inc. access to this program.  By using this program,
 the user acknowledges that Gaussian, Inc. is engaged in the
 business of creating and licensing software in the field of
 computational chemistry and represents and warrants to the
 licensee that it is not a competitor of Gaussian, Inc. and that
 it will not use this program in any manner prohibited above.
 ---------------------------------------------------------------
  

 Cite this work as:
 Gaussian 09, Revision D.01,
 M. J. Frisch, G. W. Trucks, H. B. Schlegel, G. E. Scuseria, 
 M. A. Robb, J. R. Cheeseman, G. Scalmani, V. Barone, B. Mennucci, 
 G. A. Petersson, H. Nakatsuji, M. Caricato, X. Li, H. P. Hratchian, 
 A. F. Izmaylov, J. Bloino, G. Zheng, J. L. Sonnenberg, M. Hada, 
 M. Ehara, K. Toyota, R. Fukuda, J. Hasegawa, M. Ishida, T. Nakajima, 
 Y. Honda, O. Kitao, H. Nakai, T. Vreven, J. A. Montgomery, Jr., 
 J. E. Peralta, F. Ogliaro, M. Bearpark, J. J. Heyd, E. Brothers, 
 K. N. Kudin, V. N. Staroverov, T. Keith, R. Kobayashi, J. Normand, 
 K. Raghavachari, A. Rendell, J. C. Burant, S. S. Iyengar, J. Tomasi, 
 M. Cossi, N. Rega, J. M. Millam, M. Klene, J. E. Knox, J. B. Cross, 
 V. Bakken, C. Adamo, J. Jaramillo, R. Gomperts, R. E. Stratmann, 
 O. Yazyev, A. J. Austin, R. Cammi, C. Pomelli, J. W. Ochterski, 
 R. L. Martin, K. Morokuma, V. G. Zakrzewski, G. A. Voth, 
 P. Salvador, J. J. Dannenberg, S. Dapprich, A. D. Daniels, 
 O. Farkas, J. B. Foresman, J. V. Ortiz, J. Cioslowski, 
 and D. J. Fox, Gaussian, Inc., Wallingford CT, 2013.
 
 ******************************************
 Gaussian 09:  AM64L-G09RevD.01 24-Apr-2013
                 2-Oct-2020 
 ******************************************
 %nproc=1
 Will use up to    1 processors via shared memory.
 %Chk=SM40.n.8.pdb.xyz.mst.n.o.chk
 %mem=16GB
 -----------------
 #p b3lyp/6-31G(d)
 -----------------
 1/38=1/1;
 2/12=2,17=6,18=5,40=1/2;
 3/5=1,6=6,7=1,11=2,16=1,25=1,30=1,74=-5/1,2,3;
 4//1;
 5/5=2,38=5/2;
 6/7=2,8=2,9=2,10=2,28=1/1;
 99/5=1,9=1/99;
 Leave Link    1 at Fri Oct  2 06:11:18 2020, MaxMem=  2147483648 cpu:         0.0
 (Enter /prod/apps/gaussian/g09d1/l101.exe)
 ----------------
 SM40.n.8.pdb.xyz
 ----------------
 Symbolic Z-matrix:
 Charge =  0 Multiplicity = 1
 C                     6.092     1.02     -0.247 
 N                     5.757     0.259     0.964 
 C                     6.027     0.996     2.21 
 S                     4.239    -0.49      0.904 
 O                     3.977    -0.953     2.266 
 O                     3.259     0.342     0.201 
 N                     4.412    -1.825    -0.082 
 C                     5.371    -2.934     0.102 
 C                     4.801    -4.164    -0.685 
 S                     4.711    -5.14      0.857 
 O                     3.334    -5.488     1.239 
 O                     5.761    -6.171     0.916 
 C                     5.268    -3.542     1.544 
 C                     6.797    -2.543    -0.332 
 C                     7.876    -3.633    -0.214 
 C                     9.222    -3.133    -0.692 
 C                     10.115   -2.526     0.198 
 C                     11.344   -2.035    -0.242 
 C                     11.7     -2.145    -1.588 
 C                     10.819   -2.751    -2.485 
 C                     9.591    -3.24     -2.039 
 H                     7.153     1.272    -0.195 
 H                     5.504     1.94     -0.339 
 H                     5.933     0.406    -1.134 
 H                     7.095     1.222     2.225 
 H                     5.779     0.367     3.061 
 H                     5.466     1.937     2.272 
 H                     4.232    -1.579    -1.053 
 H                     5.468    -4.605    -1.425 
 H                     3.807    -3.997    -1.1 
 H                     6.208    -3.628     2.089 
 H                     4.5      -3.078     2.16 
 H                     7.091    -1.672     0.259 
 H                     6.743    -2.213    -1.376 
 H                     7.588    -4.518    -0.792 
 H                     7.963    -3.959     0.826 
 H                     9.847    -2.444     1.248 
 H                     12.025   -1.572     0.465 
 H                     12.657   -1.767    -1.933 
 H                     11.089   -2.847    -3.532 
 H                     8.914    -3.717    -2.743 
 
 NAtoms=     41 NQM=       41 NQMF=       0 NMMI=      0 NMMIF=      0
                NMic=       0 NMicF=      0.
                    Isotopes and Nuclear Properties:
 (Nuclear quadrupole moments (NQMom) in fm**2, nuclear magnetic moments (NMagM)
  in nuclear magnetons)

  Atom         1           2           3           4           5           6           7           8           9          10
 IAtWgt=          12          14          12          32          16          16          14          12          12          32
 AtmWgt=  12.0000000  14.0030740  12.0000000  31.9720718  15.9949146  15.9949146  14.0030740  12.0000000  12.0000000  31.9720718
 NucSpn=           0           2           0           0           0           0           2           0           0           0
 AtZEff=   0.0000000   0.0000000   0.0000000   0.0000000   0.0000000   0.0000000   0.0000000   0.0000000   0.0000000   0.0000000
 NQMom=    0.0000000   2.0440000   0.0000000   0.0000000   0.0000000   0.0000000   2.0440000   0.0000000   0.0000000   0.0000000
 NMagM=    0.0000000   0.4037610   0.0000000   0.0000000   0.0000000   0.0000000   0.4037610   0.0000000   0.0000000   0.0000000
 AtZNuc=   6.0000000   7.0000000   6.0000000  16.0000000   8.0000000   8.0000000   7.0000000   6.0000000   6.0000000  16.0000000

  Atom        11          12          13          14          15          16          17          18          19          20
 IAtWgt=          16          16          12          12          12          12          12          12          12          12
 AtmWgt=  15.9949146  15.9949146  12.0000000  12.0000000  12.0000000  12.0000000  12.0000000  12.0000000  12.0000000  12.0000000
 NucSpn=           0           0           0           0           0           0           0           0           0           0
 AtZEff=   0.0000000   0.0000000   0.0000000   0.0000000   0.0000000   0.0000000   0.0000000   0.0000000   0.0000000   0.0000000
 NQMom=    0.0000000   0.0000000   0.0000000   0.0000000   0.0000000   0.0000000   0.0000000   0.0000000   0.0000000   0.0000000
 NMagM=    0.0000000   0.0000000   0.0000000   0.0000000   0.0000000   0.0000000   0.0000000   0.0000000   0.0000000   0.0000000
 AtZNuc=   8.0000000   8.0000000   6.0000000   6.0000000   6.0000000   6.0000000   6.0000000   6.0000000   6.0000000   6.0000000

  Atom        21          22          23          24          25          26          27          28          29          30
 IAtWgt=          12           1           1           1           1           1           1           1           1           1
 AtmWgt=  12.0000000   1.0078250   1.0078250   1.0078250   1.0078250   1.0078250   1.0078250   1.0078250   1.0078250   1.0078250
 NucSpn=           0           1           1           1           1           1           1           1           1           1
 AtZEff=   0.0000000   0.0000000   0.0000000   0.0000000   0.0000000   0.0000000   0.0000000   0.0000000   0.0000000   0.0000000
 NQMom=    0.0000000   0.0000000   0.0000000   0.0000000   0.0000000   0.0000000   0.0000000   0.0000000   0.0000000   0.0000000
 NMagM=    0.0000000   2.7928460   2.7928460   2.7928460   2.7928460   2.7928460   2.7928460   2.7928460   2.7928460   2.7928460
 AtZNuc=   6.0000000   1.0000000   1.0000000   1.0000000   1.0000000   1.0000000   1.0000000   1.0000000   1.0000000   1.0000000

  Atom        31          32          33          34          35          36          37          38          39          40
 IAtWgt=           1           1           1           1           1           1           1           1           1           1
 AtmWgt=   1.0078250   1.0078250   1.0078250   1.0078250   1.0078250   1.0078250   1.0078250   1.0078250   1.0078250   1.0078250
 NucSpn=           1           1           1           1           1           1           1           1           1           1
 AtZEff=   0.0000000   0.0000000   0.0000000   0.0000000   0.0000000   0.0000000   0.0000000   0.0000000   0.0000000   0.0000000
 NQMom=    0.0000000   0.0000000   0.0000000   0.0000000   0.0000000   0.0000000   0.0000000   0.0000000   0.0000000   0.0000000
 NMagM=    2.7928460   2.7928460   2.7928460   2.7928460   2.7928460   2.7928460   2.7928460   2.7928460   2.7928460   2.7928460
 AtZNuc=   1.0000000   1.0000000   1.0000000   1.0000000   1.0000000   1.0000000   1.0000000   1.0000000   1.0000000   1.0000000

  Atom        41
 IAtWgt=           1
 AtmWgt=   1.0078250
 NucSpn=           1
 AtZEff=   0.0000000
 NQMom=    0.0000000
 NMagM=    2.7928460
 AtZNuc=   1.0000000
 Leave Link  101 at Fri Oct  2 06:11:18 2020, MaxMem=  2147483648 cpu:         0.1
 (Enter /prod/apps/gaussian/g09d1/l202.exe)
                          Input orientation:                          
 ---------------------------------------------------------------------
 Center     Atomic      Atomic             Coordinates (Angstroms)
 Number     Number       Type             X           Y           Z
 ---------------------------------------------------------------------
      1          6           0        6.092000    1.020000   -0.247000
      2          7           0        5.757000    0.259000    0.964000
      3          6           0        6.027000    0.996000    2.210000
      4         16           0        4.239000   -0.490000    0.904000
      5          8           0        3.977000   -0.953000    2.266000
      6          8           0        3.259000    0.342000    0.201000
      7          7           0        4.412000   -1.825000   -0.082000
      8          6           0        5.371000   -2.934000    0.102000
      9          6           0        4.801000   -4.164000   -0.685000
     10         16           0        4.711000   -5.140000    0.857000
     11          8           0        3.334000   -5.488000    1.239000
     12          8           0        5.761000   -6.171000    0.916000
     13          6           0        5.268000   -3.542000    1.544000
     14          6           0        6.797000   -2.543000   -0.332000
     15          6           0        7.876000   -3.633000   -0.214000
     16          6           0        9.222000   -3.133000   -0.692000
     17          6           0       10.115000   -2.526000    0.198000
     18          6           0       11.344000   -2.035000   -0.242000
     19          6           0       11.700000   -2.145000   -1.588000
     20          6           0       10.819000   -2.751000   -2.485000
     21          6           0        9.591000   -3.240000   -2.039000
     22          1           0        7.153000    1.272000   -0.195000
     23          1           0        5.504000    1.940000   -0.339000
     24          1           0        5.933000    0.406000   -1.134000
     25          1           0        7.095000    1.222000    2.225000
     26          1           0        5.779000    0.367000    3.061000
     27          1           0        5.466000    1.937000    2.272000
     28          1           0        4.232000   -1.579000   -1.053000
     29          1           0        5.468000   -4.605000   -1.425000
     30          1           0        3.807000   -3.997000   -1.100000
     31          1           0        6.208000   -3.628000    2.089000
     32          1           0        4.500000   -3.078000    2.160000
     33          1           0        7.091000   -1.672000    0.259000
     34          1           0        6.743000   -2.213000   -1.376000
     35          1           0        7.588000   -4.518000   -0.792000
     36          1           0        7.963000   -3.959000    0.826000
     37          1           0        9.847000   -2.444000    1.248000
     38          1           0       12.025000   -1.572000    0.465000
     39          1           0       12.657000   -1.767000   -1.933000
     40          1           0       11.089000   -2.847000   -3.532000
     41          1           0        8.914000   -3.717000   -2.743000
 ---------------------------------------------------------------------
                    Distance matrix (angstroms):
                    1          2          3          4          5
     1  C    0.000000
     2  N    1.468968   0.000000
     3  C    2.457977   1.472612   0.000000
     4  S    2.653019   1.693790   2.666604   0.000000
     5  O    3.831595   2.516455   2.829176   1.462210   0.000000
     6  O    2.947249   2.613247   3.482186   1.465207   2.541018
     7  N    3.308119   2.691876   3.977377   1.668637   2.542187
     8  C    4.034322   3.329758   4.507649   2.810296   3.248152
     9  C    5.360259   4.816229   6.042326   4.042158   4.438231
    10  S    6.408711   5.500433   6.419732   4.674130   4.478282
    11  O    7.222799   6.242961   7.087831   5.090310   4.694082
    12  O    7.291955   6.430180   7.287735   5.881359   5.677383
    13  C    4.969759   3.875967   4.648987   3.283770   2.981759
    14  C    3.633073   3.257671   4.424837   3.505120   4.150916
    15  C    4.983388   4.585358   5.542763   4.935194   5.341816
    16  C    5.219419   5.123888   5.973129   5.861992   6.404076
    17  C    5.381140   5.228302   5.758852   6.258683   6.665283
    18  C    6.075899   6.158851   6.593160   7.360799   7.857065
    19  C    6.577626   6.900085   7.514893   8.038384   8.713146
    20  C    6.447760   6.824921   7.684159   7.739111   8.521606
    21  C    5.796712   5.996713   6.978524   6.698332   7.435078
    22  H    1.091755   2.078044   2.669846   3.578246   4.592834
    23  H    1.095723   2.141863   2.768044   3.008351   4.181770
    24  H    1.090434   2.110495   3.396950   2.797480   4.151243
    25  H    2.675369   2.075508   1.091753   3.582279   3.801872
    26  H    3.386332   2.099895   1.086897   2.785444   2.370997
    27  H    2.752840   2.147377   1.097290   3.044221   3.251039
    28  H    3.296064   3.126045   4.527673   2.239602   3.387132
    29  H    5.780803   5.426724   6.700515   4.885479   5.402191
    30  H    5.578452   5.116262   6.388627   4.062227   4.541453
    31  H    5.203293   4.071584   4.629123   3.889503   3.487738
    32  H    5.012157   3.761121   4.351058   2.888495   2.190979
    33  H    2.915630   2.450580   3.472279   3.153895   3.773858
    34  H    3.485790   3.543809   4.865155   3.799624   4.743682
    35  H    5.762333   5.408866   6.469383   5.506088   5.924518
    36  H    5.426086   4.762038   5.496870   5.090012   5.195944
    37  H    5.323002   4.910699   5.229861   5.948623   6.141360
    38  H    6.513516   6.548999   6.753936   7.873071   8.270252
    39  H    7.328655   7.752889   8.291895   8.974521   9.676600
    40  H    7.121441   7.634885   8.565224   8.494471   9.369343
    41  H    6.052509   6.286261   7.421546   6.750538   7.556702
                    6          7          8          9         10
     6  O    0.000000
     7  N    2.470908   0.000000
     8  C    3.899041   1.477639   0.000000
     9  C    4.844254   2.446600   1.567536   0.000000
    10  S    5.708850   3.458373   2.423234   1.827140   0.000000
    11  O    5.922159   4.040383   3.459054   2.758050   1.470767
    12  O    7.013587   4.658704   3.360486   2.740958   1.472733
    13  C    4.574406   2.514896   1.568323   2.360808   1.826423
    14  C    4.596168   2.503248   1.541010   2.595432   3.536881
    15  C    6.106516   3.909678   2.619825   3.155856   3.665422
    16  C    6.959198   5.021859   3.937034   4.539631   5.174608
    17  C    7.431700   5.752739   4.762480   5.630393   6.039080
    18  C    8.438815   6.937026   6.050063   6.894907   7.405776
    19  C    8.979765   7.448851   6.598095   7.244858   7.987125
    20  C    8.598537   6.905182   6.033802   6.438392   7.360975
    21  C    7.612000   5.714378   4.741932   5.062726   5.984247
    22  H    4.023053   4.137301   4.577572   5.943240   6.941456
    23  H    2.808065   3.928580   4.895717   6.154083   7.223965
    24  H    2.989414   2.897845   3.605432   4.729474   6.017930
    25  H    4.425593   4.669577   4.975102   6.537548   6.930362
    26  H    3.811906   4.068415   4.451825   5.959779   6.027046
    27  H    3.421099   4.561236   5.333345   6.812362   7.256458
    28  H    2.491884   1.017721   2.113616   2.672342   4.069184
    29  H    5.656533   3.263002   2.265696   1.089482   2.463087
    30  H    4.562875   2.473850   2.240730   1.090023   2.439982
    31  H    5.293585   3.345096   2.265033   3.156267   2.458653
    32  H    4.132089   2.569887   2.239362   3.060069   2.448300
    33  H    4.329409   2.704946   2.139087   3.513588   4.248415
    34  H    4.599262   2.694168   2.141660   2.838177   4.205073
    35  H    6.583760   4.224136   2.867644   2.811429   3.373902
    36  H    6.404439   4.241229   2.879803   3.510469   3.459946
    37  H    7.229090   5.629501   4.646288   5.670715   5.813759
    38  H    8.976405   7.636818   6.801656   7.760615   8.147324
    39  H    9.865305   8.450420   7.654339   8.307819   9.071943
    40  H    9.241965   7.584808   6.775622   7.027008   8.074655
    41  H    7.557886   5.561348   4.610853   4.620816   5.714030
                   11         12         13         14         15
    11  O    0.000000
    12  O    2.541879   0.000000
    13  C    2.760489   2.747558   0.000000
    14  C    4.809723   3.974064   2.618247   0.000000
    15  C    5.116835   3.491643   3.146507   1.538267   0.000000
    16  C    6.628977   4.877871   4.560822   2.521572   1.513341
    17  C    7.472556   5.723536   5.131996   3.360106   2.531465
    18  C    8.847410   7.043958   6.509886   4.576174   3.818562
    19  C    9.442327   7.599369   7.289147   5.076943   4.327239
    20  C    8.796850   6.989032   6.904500   4.566745   3.820552
    21  C    7.412748   5.656119   5.622937   3.347550   2.535015
    22  H    7.895487   7.653119   5.454534   3.834023   4.958035
    23  H    7.897732   8.211540   5.801182   4.665746   6.058080
    24  H    6.864777   6.891227   4.816701   3.175894   4.575497
    25  H    7.755090   7.625581   5.147561   4.560951   5.489053
    26  H    6.601419   6.880901   4.224061   4.584416   5.578802
    27  H    7.793788   8.225900   5.530699   5.350026   6.558445
    28  H    4.619518   5.225061   3.416295   2.833436   4.266330
    29  H    3.525697   2.831693   3.159894   2.685653   2.865269
    30  H    2.813846   3.550866   3.054878   3.412336   4.180222
    31  H    3.527319   2.835946   1.089964   2.717607   2.843599
    32  H    2.831236   3.564310   1.088382   3.431107   4.164286
    33  H    5.444016   4.737251   2.910576   1.092867   2.164596
    34  H    5.402326   4.677965   3.531043   1.096244   2.156463
    35  H    4.812731   2.997933   3.433930   2.176673   1.095561
    36  H    4.892448   3.122475   2.820007   2.169234   1.093364
    37  H    7.189241   5.540411   4.718099   3.436379   2.726904
    38  H    9.563870   7.784080   7.120547   5.376805   4.682196
    39  H   10.527381   8.664112   8.356882   6.124131   5.412474
    40  H    9.480366   7.695535   7.754537   5.362246   4.685114
    41  H    7.080195   5.417731   5.630480   3.416561   2.735021
                   16         17         18         19         20
    16  C    0.000000
    17  C    1.399285   0.000000
    18  C    2.431252   1.394676   0.000000
    19  C    2.814151   2.418095   1.396622   0.000000
    20  C    2.431292   2.782936   2.412329   1.395710   0.000000
    21  C    1.400721   2.405939   2.784644   2.418741   1.394999
    22  H    4.892013   4.832463   5.338814   5.855898   5.904929
    23  H    6.299481   6.441649   7.065100   7.525798   7.406755
    24  H    4.851536   5.278255   6.002755   6.322342   5.972005
    25  H    5.656770   5.222704   5.894755   6.861609   7.199792
    26  H    6.179746   5.947026   6.902799   7.936094   8.116751
    27  H    6.971207   6.770011   7.526478   8.391965   8.559264
    28  H    5.238830   6.088637   7.172601   7.508502   6.841986
    29  H    4.098364   5.343312   6.521638   6.701939   5.761434
    30  H    5.498653   6.606021   7.835303   8.122038   7.255266
    31  H    4.130760   4.478274   5.860862   6.773602   6.553772
    32  H    5.516721   5.973472   7.327878   8.170556   7.849377
    33  H    2.753195   3.142867   4.297764   4.987787   4.753079
    34  H    2.731245   3.734411   4.742029   4.961997   4.258298
    35  H    2.144337   3.366585   4.536003   4.813864   4.053134
    36  H    2.138149   2.660635   4.034050   4.804494   4.536378
    37  H    2.151499   1.086760   2.151369   3.400868   3.869667
    38  H    3.410598   2.151628   1.085347   2.156099   3.398084
    39  H    3.899393   3.402794   2.157608   1.085246   2.156665
    40  H    3.410731   3.868413   3.398304   2.155287   1.085507
    41  H    2.154651   3.392693   3.871566   3.401030   2.151452
                   21         22         23         24         25
    21  C    0.000000
    22  H    5.449984   0.000000
    23  H    6.813660   1.784982   0.000000
    24  H    5.243406   1.766374   1.780231   0.000000
    25  H    6.657414   2.421211   3.101758   3.646777   0.000000
    26  H    7.317909   3.648073   3.756322   4.198007   1.778139
    27  H    7.899473   3.061745   2.611278   3.763361   1.779628
    28  H    5.696490   4.170924   3.809349   2.615375   5.175679
    29  H    4.386268   6.236285   6.634585   5.040935   7.065660
    30  H    5.908420   6.306909   6.221487   4.889524   7.007462
    31  H    5.351226   5.488140   6.115016   5.170736   4.932318
    32  H    6.601222   5.613104   5.695028   5.004216   5.022773
    33  H    3.740244   2.979446   3.990328   2.756719   3.498629
    34  H    3.099258   3.702443   4.456220   2.752058   4.989021
    35  H    2.683338   5.836928   6.801031   5.205936   6.503302
    36  H    3.372769   5.390909   6.496315   5.197665   5.436303
    37  H    3.391684   4.811293   6.371787   5.395908   4.686959
    38  H    3.869961   5.679817   7.450101   6.601647   5.933712
    39  H    3.403134   6.523050   8.212679   7.111435   7.560352
    40  H    2.151163   6.602562   8.018905   6.551088   8.102583
    41  H    1.086956   5.872269   7.029151   5.336138   7.237645
                   26         27         28         29         30
    26  H    0.000000
    27  H    1.784766   0.000000
    28  H    4.806779   4.994060   0.000000
    29  H    6.703857   7.514358   3.289796   0.000000
    30  H    6.344068   7.023889   2.455516   1.798391   0.000000
    31  H    4.133866   5.617230   4.239710   3.721602   4.008826
    32  H    3.783605   5.108417   3.555586   4.015094   3.457226
    33  H    3.705411   4.440459   3.147042   3.751330   4.247018
    34  H    5.222324   5.671079   2.609867   2.711031   3.446582
    35  H    6.479299   7.453724   4.468621   2.214195   3.829134
    36  H    5.336605   6.564201   4.807848   3.421892   4.580748
    37  H    5.266623   6.279721   6.129523   5.566910   6.663821
    38  H    7.036438   7.654986   7.939472   7.467626   8.710073
    39  H    8.763611   9.116585   8.472920   7.745581   9.164567
    40  H    9.055029   9.391017   7.400791   6.255050   7.763031
    41  H    7.758460   8.307024   5.417404   3.794810   5.372085
                   31         32         33         34         35
    31  H    0.000000
    32  H    1.795774   0.000000
    33  H    2.820377   3.507694   0.000000
    34  H    3.780830   4.275812   1.756989   0.000000
    35  H    3.316121   4.508176   3.074301   2.523511   0.000000
    36  H    2.187408   3.814195   2.512418   3.063612   1.752435
    37  H    3.918094   5.461145   3.028142   4.071063   3.683226
    38  H    6.379812   7.859178   4.939311   5.630247   5.472288
    39  H    7.824922   9.219979   5.982829   5.956892   5.879170
    40  H    7.485303   8.710175   5.633499   4.892648   4.749404
    41  H    5.538825   6.628056   4.064155   2.973877   2.491240
                   36         37         38         39         40
    36  H    0.000000
    37  H    2.454132   0.000000
    38  H    4.725244   2.473289   0.000000
    39  H    5.869462   4.298045   2.487540   0.000000
    40  H    5.477279   4.955136   4.298573   2.486328   0.000000
    41  H    3.701449   4.291748   4.956875   4.297517   2.471851
                   41
    41  H    0.000000
 Stoichiometry    C13H20N2O4S2
 Framework group  C1[X(C13H20N2O4S2)]
 Deg. of freedom   117
 Full point group                 C1      NOp   1
 Largest Abelian subgroup         C1      NOp   1
 Largest concise Abelian subgroup C1      NOp   1
                         Standard orientation:                         
 ---------------------------------------------------------------------
 Center     Atomic      Atomic             Coordinates (Angstroms)
 Number     Number       Type             X           Y           Z
 ---------------------------------------------------------------------
      1          6           0        0.436280   -3.318198   -0.788703
      2          7           0        1.073537   -2.561949    0.297510
      3          6           0        1.306196   -3.365086    1.509709
      4         16           0        2.402503   -1.637152   -0.200008
      5          8           0        3.051276   -1.190110    1.031781
      6          8           0        3.174262   -2.324559   -1.238610
      7          7           0        1.779437   -0.301205   -0.981919
      8          6           0        0.827968    0.680159   -0.420627
      9          6           0        0.978521    1.993416   -1.263157
     10         16           0        1.473396    2.923511    0.229647
     11          8           0        2.856581    3.419550    0.167184
     12          8           0        0.403144    3.820689    0.697166
     13          6           0        1.339267    1.249753    0.948232
     14          6           0       -0.614021    0.137308   -0.394285
     15          6           0       -1.697977    1.087729    0.142374
     16          6           0       -3.068386    0.447564    0.093727
     17          6           0       -3.551105   -0.288870    1.181222
     18          6           0       -4.800077   -0.907479    1.131077
     19          6           0       -5.589776   -0.797463   -0.015581
     20          6           0       -5.120529   -0.063217   -1.105855
     21          6           0       -3.870312    0.553097   -1.049863
     22          1           0       -0.516753   -3.695436   -0.412739
     23          1           0        1.050831   -4.158796   -1.129775
     24          1           0        0.230449   -2.661717   -1.634701
     25          1           0        0.331744   -3.716167    1.854834
     26          1           0        1.756288   -2.738645    2.275435
     27          1           0        1.948387   -4.234632    1.321228
     28          1           0        1.652617   -0.493084   -1.973310
     29          1           0        0.063571    2.375825   -1.714378
     30          1           0        1.791215    1.958468   -1.988731
     31          1           0        0.628376    1.206549    1.773331
     32          1           0        2.310383    0.860418    1.248114
     33          1           0       -0.606615   -0.780759    0.198552
     34          1           0       -0.874691   -0.150511   -1.419450
     35          1           0       -1.708137    2.018566   -0.435287
     36          1           0       -1.469192    1.367803    1.174198
     37          1           0       -2.944569   -0.372060    2.079131
     38          1           0       -5.158845   -1.470087    1.987077
     39          1           0       -6.563552   -1.274786   -0.056574
     40          1           0       -5.729368    0.033535   -1.999319
     41          1           0       -3.515723    1.129031   -1.900769
 ---------------------------------------------------------------------
 Rotational constants (GHZ):      0.2958296      0.1894754      0.1301454
 Leave Link  202 at Fri Oct  2 06:11:18 2020, MaxMem=  2147483648 cpu:         0.0
 (Enter /prod/apps/gaussian/g09d1/l301.exe)
 Standard basis: 6-31G(d) (6D, 7F)
 Ernie: Thresh=  0.10000D-02 Tol=  0.10000D-05 Strict=F.
 There are   363 symmetry adapted cartesian basis functions of A   symmetry.
 There are   363 symmetry adapted basis functions of A   symmetry.
   363 basis functions,   716 primitive gaussians,   363 cartesian basis functions
    88 alpha electrons       88 beta electrons
       nuclear repulsion energy      2159.8837186037 Hartrees.
 IExCor=  402 DFT=T Ex+Corr=B3LYP ExCW=0 ScaHFX=  0.200000
 ScaDFX=  0.800000  0.720000  1.000000  0.810000 ScalE2=  1.000000  1.000000
 IRadAn=      0 IRanWt=     -1 IRanGd=            0 ICorTp=0 IEmpDi=  4
 NAtoms=   41 NActive=   41 NUniq=   41 SFac= 1.00D+00 NAtFMM=   60 NAOKFM=F Big=F
 Integral buffers will be    131072 words long.
 Raffenetti 2 integral format.
 Two-electron integral symmetry is turned on.
 Leave Link  301 at Fri Oct  2 06:11:19 2020, MaxMem=  2147483648 cpu:         0.0
 (Enter /prod/apps/gaussian/g09d1/l302.exe)
 NPDir=0 NMtPBC=     1 NCelOv=     1 NCel=       1 NClECP=     1 NCelD=      1
         NCelK=      1 NCelE2=     1 NClLst=     1 CellRange=     0.0.
 One-electron integrals computed using PRISM.
 NBasis=   363 RedAO= T EigKep=  4.64D-04  NBF=   363
 NBsUse=   363 1.00D-06 EigRej= -1.00D+00 NBFU=   363
 Precomputing XC quadrature grid using
 IXCGrd= 4 IRadAn=           0 IRanWt=          -1 IRanGd=           0 AccXCQ= 0.00D+00.
 Generated NRdTot=       0 NPtTot=           0 NUsed=           0 NTot=          32
 NSgBfM=   361   361   361   361   361 MxSgAt=    41 MxSgA2=    41.
 Leave Link  302 at Fri Oct  2 06:11:20 2020, MaxMem=  2147483648 cpu:         1.3
 (Enter /prod/apps/gaussian/g09d1/l303.exe)
 DipDrv:  MaxL=1.
 Leave Link  303 at Fri Oct  2 06:11:20 2020, MaxMem=  2147483648 cpu:         0.0
 (Enter /prod/apps/gaussian/g09d1/l401.exe)
 ExpMin= 1.17D-01 ExpMax= 2.19D+04 ExpMxC= 3.30D+03 IAcc=1 IRadAn=         1 AccDes= 0.00D+00
 Harris functional with IExCor=  402 and IRadAn=       1 diagonalized for initial guess.
 HarFok:  IExCor=  402 AccDes= 0.00D+00 IRadAn=         1 IDoV= 1 UseB2=F ITyADJ=14
 ICtDFT=  3500011 ScaDFX=  1.000000  1.000000  1.000000  1.000000
 FoFCou: FMM=F IPFlag=           0 FMFlag=      100000 FMFlg1=           0
         NFxFlg=           0 DoJE=T BraDBF=F KetDBF=T FulRan=T
         wScrn=  0.000000 ICntrl=     500 IOpCl=  0 I1Cent=   200000004 NGrid=           0
         NMat0=    1 NMatS0=      1 NMatT0=    0 NMatD0=    1 NMtDS0=    0 NMtDT0=    0
 Petite list used in FoFCou.
 Harris En= -1714.14806517537    
 JPrj=0 DoOrth=F DoCkMO=F.
 Leave Link  401 at Fri Oct  2 06:11:25 2020, MaxMem=  2147483648 cpu:         4.7
 (Enter /prod/apps/gaussian/g09d1/l502.exe)
 Closed shell SCF:
 Using DIIS extrapolation, IDIIS=  1040.
 Integral symmetry usage will be decided dynamically.
 IVT=      418784 IEndB=      418784 NGot=  2147483648 MDV=  2147213637
 LenX=  2147213637 LenY=  2147081427
 Requested convergence on RMS density matrix=1.00D-08 within 128 cycles.
 Requested convergence on MAX density matrix=1.00D-06.
 Requested convergence on             energy=1.00D-06.
 No special actions if energy rises.
 Fock matrices will be formed incrementally for  20 cycles.
 Integral accuracy reduced to 1.0D-05 until final iterations.

 Cycle   1  Pass 0  IDiag  1:
 FoFJK:  IHMeth= 1 ICntrl=       0 DoSepK=F KAlg= 0 I1Cent=   0 FoldK=F
 IRaf= 760000000 NMat=   1 IRICut=       1 DoRegI=T DoRafI=F ISym2E= 0.
 FoFCou: FMM=F IPFlag=           0 FMFlag=      100000 FMFlg1=           0
         NFxFlg=           0 DoJE=F BraDBF=F KetDBF=F FulRan=T
         wScrn=  0.000000 ICntrl=       0 IOpCl=  0 I1Cent=           0 NGrid=           0
         NMat0=    1 NMatS0=      1 NMatT0=    0 NMatD0=    1 NMtDS0=    0 NMtDT0=    0
 Symmetry not used in FoFCou.
 E= -1713.18945380797    
 DIIS: error= 4.05D-02 at cycle   1 NSaved=   1.
 NSaved= 1 IEnMin= 1 EnMin= -1713.18945380797     IErMin= 1 ErrMin= 4.05D-02
 ErrMax= 4.05D-02  0.00D+00 EMaxC= 1.00D-01 BMatC= 9.94D-01 BMatP= 9.94D-01
 IDIUse=3 WtCom= 5.95D-01 WtEn= 4.05D-01
 Coeff-Com:  0.100D+01
 Coeff-En:   0.100D+01
 Coeff:      0.100D+01
 Gap=     0.355 Goal=   None    Shift=    0.000
 GapD=    0.355 DampG=1.000 DampE=0.500 DampFc=0.5000 IDamp=-1.
 Damping current iteration by 5.00D-01
 RMSDP=7.00D-03 MaxDP=6.05D-01              OVMax= 2.39D-01

 Cycle   2  Pass 0  IDiag  1:
 RMSU=  3.50D-03    CP:  9.99D-01
 E= -1713.36621431498     Delta-E=       -0.176760507005 Rises=F Damp=T
 DIIS: error= 1.83D-02 at cycle   2 NSaved=   2.
 NSaved= 2 IEnMin= 2 EnMin= -1713.36621431498     IErMin= 2 ErrMin= 1.83D-02
 ErrMax= 1.83D-02  0.00D+00 EMaxC= 1.00D-01 BMatC= 1.72D-01 BMatP= 9.94D-01
 IDIUse=3 WtCom= 8.17D-01 WtEn= 1.83D-01
 Coeff-Com:  0.251D+00 0.749D+00
 Coeff-En:   0.396D+00 0.604D+00
 Coeff:      0.277D+00 0.723D+00
 Gap=     0.285 Goal=   None    Shift=    0.000
 RMSDP=2.03D-03 MaxDP=1.33D-01 DE=-1.77D-01 OVMax= 2.11D-01

 Cycle   3  Pass 0  IDiag  1:
 RMSU=  1.62D-03    CP:  9.90D-01  6.57D-01
 E= -1713.94525939504     Delta-E=       -0.579045080062 Rises=F Damp=F
 DIIS: error= 9.91D-03 at cycle   3 NSaved=   3.
 NSaved= 3 IEnMin= 3 EnMin= -1713.94525939504     IErMin= 3 ErrMin= 9.91D-03
 ErrMax= 9.91D-03  0.00D+00 EMaxC= 1.00D-01 BMatC= 9.63D-02 BMatP= 1.72D-01
 IDIUse=3 WtCom= 9.01D-01 WtEn= 9.91D-02
 Coeff-Com:  0.105D+00 0.435D+00 0.460D+00
 Coeff-En:   0.000D+00 0.000D+00 0.100D+01
 Coeff:      0.948D-01 0.392D+00 0.514D+00
 Gap=     0.246 Goal=   None    Shift=    0.000
 RMSDP=1.24D-03 MaxDP=3.63D-02 DE=-5.79D-01 OVMax= 8.47D-02

 Cycle   4  Pass 0  IDiag  1:
 RMSU=  7.30D-04    CP:  9.95D-01  7.24D-01  3.99D-01
 E= -1714.02383488449     Delta-E=       -0.078575489451 Rises=F Damp=F
 DIIS: error= 3.07D-03 at cycle   4 NSaved=   4.
 NSaved= 4 IEnMin= 4 EnMin= -1714.02383488449     IErMin= 4 ErrMin= 3.07D-03
 ErrMax= 3.07D-03  0.00D+00 EMaxC= 1.00D-01 BMatC= 1.28D-02 BMatP= 9.63D-02
 IDIUse=3 WtCom= 9.69D-01 WtEn= 3.07D-02
 Coeff-Com:  0.111D-01 0.746D-01 0.279D+00 0.636D+00
 Coeff-En:   0.000D+00 0.000D+00 0.114D+00 0.886D+00
 Coeff:      0.107D-01 0.723D-01 0.274D+00 0.643D+00
 Gap=     0.241 Goal=   None    Shift=    0.000
 RMSDP=3.91D-04 MaxDP=1.42D-02 DE=-7.86D-02 OVMax= 2.49D-02

 Cycle   5  Pass 0  IDiag  1:
 RMSU=  1.72D-04    CP:  9.94D-01  7.11D-01  5.47D-01  6.54D-01
 E= -1714.03458186221     Delta-E=       -0.010746977716 Rises=F Damp=F
 DIIS: error= 8.67D-04 at cycle   5 NSaved=   5.
 NSaved= 5 IEnMin= 5 EnMin= -1714.03458186221     IErMin= 5 ErrMin= 8.67D-04
 ErrMax= 8.67D-04  0.00D+00 EMaxC= 1.00D-01 BMatC= 9.22D-04 BMatP= 1.28D-02
 IDIUse=3 WtCom= 9.91D-01 WtEn= 8.67D-03
 Coeff-Com: -0.511D-03 0.156D-01 0.115D+00 0.343D+00 0.527D+00
 Coeff-En:   0.000D+00 0.000D+00 0.000D+00 0.000D+00 0.100D+01
 Coeff:     -0.506D-03 0.155D-01 0.114D+00 0.340D+00 0.531D+00
 Gap=     0.241 Goal=   None    Shift=    0.000
 RMSDP=1.07D-04 MaxDP=7.19D-03 DE=-1.07D-02 OVMax= 5.15D-03

 Cycle   6  Pass 0  IDiag  1:
 RMSU=  5.39D-05    CP:  9.94D-01  7.14D-01  5.40D-01  7.12D-01  5.34D-01
 E= -1714.03532483894     Delta-E=       -0.000742976730 Rises=F Damp=F
 DIIS: error= 3.58D-04 at cycle   6 NSaved=   6.
 NSaved= 6 IEnMin= 6 EnMin= -1714.03532483894     IErMin= 6 ErrMin= 3.58D-04
 ErrMax= 3.58D-04  0.00D+00 EMaxC= 1.00D-01 BMatC= 1.10D-04 BMatP= 9.22D-04
 IDIUse=3 WtCom= 9.96D-01 WtEn= 3.58D-03
 Coeff-Com: -0.114D-02 0.325D-02 0.437D-01 0.143D+00 0.315D+00 0.496D+00
 Coeff-En:   0.000D+00 0.000D+00 0.000D+00 0.000D+00 0.259D-01 0.974D+00
 Coeff:     -0.114D-02 0.324D-02 0.436D-01 0.143D+00 0.314D+00 0.497D+00
 Gap=     0.241 Goal=   None    Shift=    0.000
 RMSDP=3.39D-05 MaxDP=1.65D-03 DE=-7.43D-04 OVMax= 2.36D-03

 Cycle   7  Pass 0  IDiag  1:
 RMSU=  2.27D-05    CP:  9.94D-01  7.14D-01  5.41D-01  7.11D-01  5.88D-01
                    CP:  5.68D-01
 E= -1714.03539848730     Delta-E=       -0.000073648363 Rises=F Damp=F
 DIIS: error= 1.53D-04 at cycle   7 NSaved=   7.
 NSaved= 7 IEnMin= 7 EnMin= -1714.03539848730     IErMin= 7 ErrMin= 1.53D-04
 ErrMax= 1.53D-04  0.00D+00 EMaxC= 1.00D-01 BMatC= 1.81D-05 BMatP= 1.10D-04
 IDIUse=3 WtCom= 9.98D-01 WtEn= 1.53D-03
 Coeff-Com: -0.704D-03-0.670D-04 0.127D-01 0.464D-01 0.137D+00 0.330D+00
 Coeff-Com:  0.475D+00
 Coeff-En:   0.000D+00 0.000D+00 0.000D+00 0.000D+00 0.000D+00 0.129D+00
 Coeff-En:   0.871D+00
 Coeff:     -0.703D-03-0.669D-04 0.127D-01 0.463D-01 0.137D+00 0.329D+00
 Coeff:      0.475D+00
 Gap=     0.241 Goal=   None    Shift=    0.000
 RMSDP=1.21D-05 MaxDP=4.99D-04 DE=-7.36D-05 OVMax= 7.57D-04

 Cycle   8  Pass 0  IDiag  1:
 RMSU=  5.58D-06    CP:  9.94D-01  7.14D-01  5.41D-01  7.11D-01  5.93D-01
                    CP:  6.32D-01  5.54D-01
 E= -1714.03541299932     Delta-E=       -0.000014512021 Rises=F Damp=F
 DIIS: error= 2.87D-05 at cycle   8 NSaved=   8.
 NSaved= 8 IEnMin= 8 EnMin= -1714.03541299932     IErMin= 8 ErrMin= 2.87D-05
 ErrMax= 2.87D-05  0.00D+00 EMaxC= 1.00D-01 BMatC= 5.79D-07 BMatP= 1.81D-05
 IDIUse=1 WtCom= 1.00D+00 WtEn= 0.00D+00
 Coeff-Com: -0.228D-03-0.304D-03 0.180D-02 0.812D-02 0.365D-01 0.110D+00
 Coeff-Com:  0.220D+00 0.624D+00
 Coeff:     -0.228D-03-0.304D-03 0.180D-02 0.812D-02 0.365D-01 0.110D+00
 Coeff:      0.220D+00 0.624D+00
 Gap=     0.241 Goal=   None    Shift=    0.000
 RMSDP=2.93D-06 MaxDP=1.66D-04 DE=-1.45D-05 OVMax= 1.90D-04

 Initial convergence to 1.0D-05 achieved.  Increase integral accuracy.
 Cycle   9  Pass 1  IDiag  1:
 E= -1714.03550774465     Delta-E=       -0.000094745334 Rises=F Damp=F
 DIIS: error= 1.52D-04 at cycle   1 NSaved=   1.
 NSaved= 1 IEnMin= 1 EnMin= -1714.03550774465     IErMin= 1 ErrMin= 1.52D-04
 ErrMax= 1.52D-04  0.00D+00 EMaxC= 1.00D-01 BMatC= 1.19D-06 BMatP= 1.19D-06
 IDIUse=3 WtCom= 9.98D-01 WtEn= 1.52D-03
 Coeff-Com:  0.100D+01
 Coeff-En:   0.100D+01
 Coeff:      0.100D+01
 Gap=     0.241 Goal=   None    Shift=    0.000
 RMSDP=2.93D-06 MaxDP=1.66D-04 DE=-9.47D-05 OVMax= 2.42D-04

 Cycle  10  Pass 1  IDiag  1:
 RMSU=  4.53D-05    CP:  1.00D+00
 E= -1714.03550856820     Delta-E=       -0.000000823542 Rises=F Damp=F
 DIIS: error= 3.44D-05 at cycle   2 NSaved=   2.
 NSaved= 2 IEnMin= 2 EnMin= -1714.03550856820     IErMin= 2 ErrMin= 3.44D-05
 ErrMax= 3.44D-05  0.00D+00 EMaxC= 1.00D-01 BMatC= 5.39D-07 BMatP= 1.19D-06
 IDIUse=1 WtCom= 1.00D+00 WtEn= 0.00D+00
 Coeff-Com:  0.353D+00 0.647D+00
 Coeff:      0.353D+00 0.647D+00
 Gap=     0.241 Goal=   None    Shift=    0.000
 RMSDP=3.83D-06 MaxDP=1.83D-04 DE=-8.24D-07 OVMax= 3.06D-04

 Cycle  11  Pass 1  IDiag  1:
 RMSU=  3.83D-06    CP:  1.00D+00  1.00D+00
 E= -1714.03550850593     Delta-E=        0.000000062264 Rises=F Damp=F
 DIIS: error= 4.13D-05 at cycle   3 NSaved=   3.
 NSaved= 3 IEnMin= 2 EnMin= -1714.03550856820     IErMin= 2 ErrMin= 3.44D-05
 ErrMax= 4.13D-05  0.00D+00 EMaxC= 1.00D-01 BMatC= 6.34D-07 BMatP= 5.39D-07
 IDIUse=1 WtCom= 1.00D+00 WtEn= 0.00D+00
 Coeff-Com:  0.496D-02 0.519D+00 0.476D+00
 Coeff:      0.496D-02 0.519D+00 0.476D+00
 Gap=     0.241 Goal=   None    Shift=    0.000
 RMSDP=2.04D-06 MaxDP=1.07D-04 DE= 6.23D-08 OVMax= 1.84D-04

 Cycle  12  Pass 1  IDiag  1:
 RMSU=  6.19D-07    CP:  1.00D+00  1.01D+00  4.97D-01
 E= -1714.03550899293     Delta-E=       -0.000000486997 Rises=F Damp=F
 DIIS: error= 4.27D-06 at cycle   4 NSaved=   4.
 NSaved= 4 IEnMin= 4 EnMin= -1714.03550899293     IErMin= 4 ErrMin= 4.27D-06
 ErrMax= 4.27D-06  0.00D+00 EMaxC= 1.00D-01 BMatC= 1.34D-08 BMatP= 5.39D-07
 IDIUse=1 WtCom= 1.00D+00 WtEn= 0.00D+00
 Coeff-Com: -0.609D-02 0.289D+00 0.281D+00 0.436D+00
 Coeff:     -0.609D-02 0.289D+00 0.281D+00 0.436D+00
 Gap=     0.241 Goal=   None    Shift=    0.000
 RMSDP=3.40D-07 MaxDP=1.61D-05 DE=-4.87D-07 OVMax= 1.92D-05

 Cycle  13  Pass 1  IDiag  1:
 RMSU=  1.96D-07    CP:  1.00D+00  1.01D+00  5.03D-01  5.53D-01
 E= -1714.03550900405     Delta-E=       -0.000000011119 Rises=F Damp=F
 DIIS: error= 1.09D-06 at cycle   5 NSaved=   5.
 NSaved= 5 IEnMin= 5 EnMin= -1714.03550900405     IErMin= 5 ErrMin= 1.09D-06
 ErrMax= 1.09D-06  0.00D+00 EMaxC= 1.00D-01 BMatC= 4.80D-10 BMatP= 1.34D-08
 IDIUse=1 WtCom= 1.00D+00 WtEn= 0.00D+00
 Coeff-Com: -0.361D-02 0.142D+00 0.139D+00 0.248D+00 0.475D+00
 Coeff:     -0.361D-02 0.142D+00 0.139D+00 0.248D+00 0.475D+00
 Gap=     0.241 Goal=   None    Shift=    0.000
 RMSDP=7.71D-08 MaxDP=4.58D-06 DE=-1.11D-08 OVMax= 6.43D-06

 Cycle  14  Pass 1  IDiag  1:
 RMSU=  6.64D-08    CP:  1.00D+00  1.01D+00  5.03D-01  5.61D-01  8.04D-01
 E= -1714.03550900436     Delta-E=       -0.000000000316 Rises=F Damp=F
 DIIS: error= 3.45D-07 at cycle   6 NSaved=   6.
 NSaved= 6 IEnMin= 6 EnMin= -1714.03550900436     IErMin= 6 ErrMin= 3.45D-07
 ErrMax= 3.45D-07  0.00D+00 EMaxC= 1.00D-01 BMatC= 5.99D-11 BMatP= 4.80D-10
 IDIUse=1 WtCom= 1.00D+00 WtEn= 0.00D+00
 Coeff-Com: -0.107D-02 0.340D-01 0.335D-01 0.716D-01 0.280D+00 0.582D+00
 Coeff:     -0.107D-02 0.340D-01 0.335D-01 0.716D-01 0.280D+00 0.582D+00
 Gap=     0.241 Goal=   None    Shift=    0.000
 RMSDP=2.68D-08 MaxDP=1.00D-06 DE=-3.16D-10 OVMax= 1.60D-06

 Cycle  15  Pass 1  IDiag  1:
 RMSU=  1.87D-08    CP:  1.00D+00  1.01D+00  5.02D-01  5.66D-01  8.66D-01
                    CP:  7.83D-01
 E= -1714.03550900441     Delta-E=       -0.000000000041 Rises=F Damp=F
 DIIS: error= 1.02D-07 at cycle   7 NSaved=   7.
 NSaved= 7 IEnMin= 7 EnMin= -1714.03550900441     IErMin= 7 ErrMin= 1.02D-07
 ErrMax= 1.02D-07  0.00D+00 EMaxC= 1.00D-01 BMatC= 7.81D-12 BMatP= 5.99D-11
 IDIUse=1 WtCom= 1.00D+00 WtEn= 0.00D+00
 Coeff-Com: -0.136D-03 0.508D-03 0.652D-03 0.804D-02 0.974D-01 0.333D+00
 Coeff-Com:  0.561D+00
 Coeff:     -0.136D-03 0.508D-03 0.652D-03 0.804D-02 0.974D-01 0.333D+00
 Coeff:      0.561D+00
 Gap=     0.241 Goal=   None    Shift=    0.000
 RMSDP=9.43D-09 MaxDP=7.88D-07 DE=-4.14D-11 OVMax= 5.44D-07

 SCF Done:  E(RB3LYP) =  -1714.03550900     A.U. after   15 cycles
            NFock= 15  Conv=0.94D-08     -V/T= 2.0068
 KE= 1.702520456829D+03 PE=-8.345086482612D+03 EE= 2.768646798174D+03
 Leave Link  502 at Fri Oct  2 06:17:18 2020, MaxMem=  2147483648 cpu:       352.8
 (Enter /prod/apps/gaussian/g09d1/l601.exe)
 Copying SCF densities to generalized density rwf, IOpCl= 0 IROHF=0.

 **********************************************************************

            Population analysis using the SCF density.

 **********************************************************************

 Orbital symmetries:
       Occupied  (A) (A) (A) (A) (A) (A) (A) (A) (A) (A) (A) (A)
                 (A) (A) (A) (A) (A) (A) (A) (A) (A) (A) (A) (A)
                 (A) (A) (A) (A) (A) (A) (A) (A) (A) (A) (A) (A)
                 (A) (A) (A) (A) (A) (A) (A) (A) (A) (A) (A) (A)
                 (A) (A) (A) (A) (A) (A) (A) (A) (A) (A) (A) (A)
                 (A) (A) (A) (A) (A) (A) (A) (A) (A) (A) (A) (A)
                 (A) (A) (A) (A) (A) (A) (A) (A) (A) (A) (A) (A)
                 (A) (A) (A) (A)
       Virtual   (A) (A) (A) (A) (A) (A) (A) (A) (A) (A) (A) (A)
                 (A) (A) (A) (A) (A) (A) (A) (A) (A) (A) (A) (A)
                 (A) (A) (A) (A) (A) (A) (A) (A) (A) (A) (A) (A)
                 (A) (A) (A) (A) (A) (A) (A) (A) (A) (A) (A) (A)
                 (A) (A) (A) (A) (A) (A) (A) (A) (A) (A) (A) (A)
                 (A) (A) (A) (A) (A) (A) (A) (A) (A) (A) (A) (A)
                 (A) (A) (A) (A) (A) (A) (A) (A) (A) (A) (A) (A)
                 (A) (A) (A) (A) (A) (A) (A) (A) (A) (A) (A) (A)
                 (A) (A) (A) (A) (A) (A) (A) (A) (A) (A) (A) (A)
                 (A) (A) (A) (A) (A) (A) (A) (A) (A) (A) (A) (A)
                 (A) (A) (A) (A) (A) (A) (A) (A) (A) (A) (A) (A)
                 (A) (A) (A) (A) (A) (A) (A) (A) (A) (A) (A) (A)
                 (A) (A) (A) (A) (A) (A) (A) (A) (A) (A) (A) (A)
                 (A) (A) (A) (A) (A) (A) (A) (A) (A) (A) (A) (A)
                 (A) (A) (A) (A) (A) (A) (A) (A) (A) (A) (A) (A)
                 (A) (A) (A) (A) (A) (A) (A) (A) (A) (A) (A) (A)
                 (A) (A) (A) (A) (A) (A) (A) (A) (A) (A) (A) (A)
                 (A) (A) (A) (A) (A) (A) (A) (A) (A) (A) (A) (A)
                 (A) (A) (A) (A) (A) (A) (A) (A) (A) (A) (A) (A)
                 (A) (A) (A) (A) (A) (A) (A) (A) (A) (A) (A) (A)
                 (A) (A) (A) (A) (A) (A) (A) (A) (A) (A) (A) (A)
                 (A) (A) (A) (A) (A) (A) (A) (A) (A) (A) (A) (A)
                 (A) (A) (A) (A) (A) (A) (A) (A) (A) (A) (A)
 The electronic state is 1-A.
 Alpha  occ. eigenvalues --  -89.14403 -89.09149 -19.15861 -19.15641 -19.14382
 Alpha  occ. eigenvalues --  -19.14356 -14.39196 -14.38902 -10.28758 -10.24167
 Alpha  occ. eigenvalues --  -10.23781 -10.23502 -10.22953 -10.21241 -10.20727
 Alpha  occ. eigenvalues --  -10.20622 -10.19946 -10.19938 -10.19841 -10.19802
 Alpha  occ. eigenvalues --  -10.19776  -8.16598  -8.12177  -6.13085  -6.13029
 Alpha  occ. eigenvalues --   -6.12992  -6.08590  -6.08539  -6.08472  -1.13608
 Alpha  occ. eigenvalues --   -1.09769  -1.01795  -0.99410  -0.96105  -0.95074
 Alpha  occ. eigenvalues --   -0.86814  -0.85874  -0.80355  -0.75314  -0.74907
 Alpha  occ. eigenvalues --   -0.74319  -0.73358  -0.72150  -0.68456  -0.63621
 Alpha  occ. eigenvalues --   -0.61502  -0.60964  -0.59219  -0.57899  -0.56215
 Alpha  occ. eigenvalues --   -0.53978  -0.52139  -0.51602  -0.50417  -0.49885
 Alpha  occ. eigenvalues --   -0.49311  -0.48462  -0.47371  -0.46585  -0.45970
 Alpha  occ. eigenvalues --   -0.45397  -0.44638  -0.44433  -0.43518  -0.43281
 Alpha  occ. eigenvalues --   -0.42869  -0.42597  -0.41780  -0.41389  -0.40359
 Alpha  occ. eigenvalues --   -0.39702  -0.38327  -0.36507  -0.36372  -0.35574
 Alpha  occ. eigenvalues --   -0.35117  -0.34746  -0.34032  -0.33078  -0.32333
 Alpha  occ. eigenvalues --   -0.31793  -0.31223  -0.29926  -0.29624  -0.28937
 Alpha  occ. eigenvalues --   -0.26657  -0.25925  -0.25149
 Alpha virt. eigenvalues --   -0.01080  -0.01020   0.01737   0.03155   0.04538
 Alpha virt. eigenvalues --    0.05164   0.05802   0.06398   0.07275   0.07433
 Alpha virt. eigenvalues --    0.08679   0.08840   0.09579   0.10243   0.10871
 Alpha virt. eigenvalues --    0.11794   0.13310   0.13484   0.13923   0.14219
 Alpha virt. eigenvalues --    0.14644   0.15234   0.15923   0.16088   0.16515
 Alpha virt. eigenvalues --    0.17211   0.17516   0.17917   0.18215   0.18844
 Alpha virt. eigenvalues --    0.19461   0.20002   0.21112   0.22257   0.22326
 Alpha virt. eigenvalues --    0.22819   0.25746   0.27832   0.29020   0.29672
 Alpha virt. eigenvalues --    0.31946   0.32928   0.33379   0.33793   0.35458
 Alpha virt. eigenvalues --    0.35837   0.37640   0.40998   0.43865   0.44650
 Alpha virt. eigenvalues --    0.44864   0.45731   0.46534   0.47857   0.49639
 Alpha virt. eigenvalues --    0.51029   0.51668   0.51897   0.53022   0.53520
 Alpha virt. eigenvalues --    0.54205   0.54872   0.55803   0.56073   0.57237
 Alpha virt. eigenvalues --    0.58257   0.58693   0.59288   0.59366   0.60036
 Alpha virt. eigenvalues --    0.60293   0.61547   0.61677   0.62856   0.63877
 Alpha virt. eigenvalues --    0.65395   0.66434   0.67331   0.68220   0.68891
 Alpha virt. eigenvalues --    0.70226   0.71034   0.72711   0.74390   0.75824
 Alpha virt. eigenvalues --    0.76609   0.77582   0.78658   0.79445   0.80132
 Alpha virt. eigenvalues --    0.80825   0.81919   0.81998   0.82174   0.82665
 Alpha virt. eigenvalues --    0.83059   0.83609   0.84080   0.85074   0.85542
 Alpha virt. eigenvalues --    0.85831   0.86268   0.87233   0.87940   0.88079
 Alpha virt. eigenvalues --    0.89339   0.90184   0.90868   0.91659   0.92558
 Alpha virt. eigenvalues --    0.93009   0.93754   0.94636   0.95176   0.96487
 Alpha virt. eigenvalues --    0.97363   0.98240   0.98756   0.99228   0.99592
 Alpha virt. eigenvalues --    1.00379   1.03440   1.03753   1.05014   1.05778
 Alpha virt. eigenvalues --    1.07036   1.07489   1.08847   1.10013   1.10455
 Alpha virt. eigenvalues --    1.10962   1.11735   1.12809   1.15527   1.16312
 Alpha virt. eigenvalues --    1.16575   1.17543   1.18324   1.20070   1.22810
 Alpha virt. eigenvalues --    1.23052   1.24741   1.25072   1.26534   1.30393
 Alpha virt. eigenvalues --    1.32584   1.33215   1.34984   1.37660   1.38809
 Alpha virt. eigenvalues --    1.40309   1.42019   1.42855   1.44523   1.46461
 Alpha virt. eigenvalues --    1.47515   1.48341   1.49324   1.50474   1.51011
 Alpha virt. eigenvalues --    1.56730   1.57415   1.59170   1.60559   1.64084
 Alpha virt. eigenvalues --    1.67980   1.70080   1.72264   1.72550   1.75815
 Alpha virt. eigenvalues --    1.77386   1.79010   1.79287   1.79619   1.80481
 Alpha virt. eigenvalues --    1.80910   1.81289   1.81640   1.81669   1.82049
 Alpha virt. eigenvalues --    1.83268   1.83961   1.85824   1.86507   1.88186
 Alpha virt. eigenvalues --    1.89001   1.89480   1.91525   1.92437   1.92624
 Alpha virt. eigenvalues --    1.92966   1.94953   1.96469   1.96944   1.97533
 Alpha virt. eigenvalues --    1.99263   2.00317   2.01900   2.03135   2.03543
 Alpha virt. eigenvalues --    2.05139   2.05262   2.06310   2.07298   2.08363
 Alpha virt. eigenvalues --    2.10377   2.11412   2.13034   2.13419   2.13984
 Alpha virt. eigenvalues --    2.14456   2.16971   2.18840   2.19260   2.21530
 Alpha virt. eigenvalues --    2.22201   2.24528   2.25223   2.25915   2.28327
 Alpha virt. eigenvalues --    2.29967   2.30222   2.30688   2.32396   2.33786
 Alpha virt. eigenvalues --    2.35766   2.38751   2.40024   2.40588   2.41404
 Alpha virt. eigenvalues --    2.46701   2.49280   2.51895   2.55156   2.55789
 Alpha virt. eigenvalues --    2.57050   2.59370   2.65412   2.67363   2.69221
 Alpha virt. eigenvalues --    2.70423   2.71675   2.72052   2.73641   2.73901
 Alpha virt. eigenvalues --    2.75886   2.76019   2.77881   2.81738   2.83280
 Alpha virt. eigenvalues --    2.91531   2.93123   3.04104   3.40304   3.76796
 Alpha virt. eigenvalues --    3.80387   3.90523   3.95244   3.98333   4.01173
 Alpha virt. eigenvalues --    4.05405   4.07428   4.08527   4.10664   4.14790
 Alpha virt. eigenvalues --    4.21253   4.22329   4.23788   4.30841   4.32145
 Alpha virt. eigenvalues --    4.34382   4.40554   4.53837   4.69607   4.73849
          Condensed to atoms (all electrons):
               1          2          3          4          5          6
     1  C    4.986438   0.266141  -0.051144  -0.008066   0.001821   0.004468
     2  N    0.266141   7.227062   0.287436   0.138248  -0.055427  -0.056253
     3  C   -0.051144   0.287436   4.987659  -0.023864  -0.003087  -0.002029
     4  S   -0.008066   0.138248  -0.023864  13.560650   0.429141   0.447171
     5  O    0.001821  -0.055427  -0.003087   0.429141   8.249828  -0.043287
     6  O    0.004468  -0.056253  -0.002029   0.447171  -0.043287   8.222663
     7  N   -0.004342  -0.056949   0.002139   0.163246  -0.051964  -0.059943
     8  C   -0.000054   0.004402  -0.000175  -0.004375  -0.003493   0.002458
     9  C   -0.000021  -0.000012   0.000002   0.000076  -0.000126  -0.000091
    10  S    0.000001   0.000036  -0.000001   0.000433   0.000206   0.000007
    11  O    0.000000   0.000000   0.000000  -0.000041   0.000000   0.000000
    12  O    0.000000   0.000000   0.000000  -0.000003   0.000000   0.000000
    13  C    0.000015  -0.001145   0.000013  -0.003535  -0.006040  -0.000078
    14  C    0.000406  -0.009094   0.000171  -0.006868  -0.000361  -0.000100
    15  C   -0.000022   0.000166   0.000001   0.000194  -0.000002   0.000000
    16  C    0.000003   0.000004   0.000000  -0.000020   0.000000   0.000000
    17  C   -0.000002  -0.000012   0.000000  -0.000003   0.000000   0.000000
    18  C    0.000000   0.000000   0.000000   0.000000   0.000000   0.000000
    19  C    0.000000   0.000000   0.000000   0.000000   0.000000   0.000000
    20  C    0.000000   0.000000   0.000000   0.000000   0.000000   0.000000
    21  C    0.000001   0.000000   0.000000   0.000000   0.000000   0.000000
    22  H    0.374577  -0.035011  -0.004089   0.002404  -0.000052   0.000161
    23  H    0.376804  -0.043473  -0.002242  -0.007533  -0.000043   0.005835
    24  H    0.372550  -0.037010   0.005043   0.002119   0.000006  -0.002416
    25  H   -0.002672  -0.039919   0.375089   0.001494   0.000365  -0.000106
    26  H    0.004567  -0.030573   0.378598  -0.004550   0.011616  -0.000046
    27  H   -0.002512  -0.047436   0.372271  -0.002315  -0.000563   0.001807
    28  H   -0.000173   0.000340  -0.000029  -0.008011   0.001640   0.002751
    29  H    0.000000   0.000001   0.000000  -0.000045   0.000000   0.000000
    30  H    0.000000   0.000004   0.000000   0.000059  -0.000011  -0.000020
    31  H    0.000001  -0.000004   0.000007  -0.000298  -0.000067   0.000000
    32  H   -0.000005  -0.000024  -0.000004  -0.002658   0.015999  -0.000079
    33  H   -0.002389   0.012877  -0.000050   0.001847  -0.000133   0.000006
    34  H   -0.000231   0.000133   0.000001  -0.000540   0.000005  -0.000004
    35  H    0.000000  -0.000005   0.000000   0.000001   0.000000   0.000000
    36  H   -0.000001   0.000015   0.000000  -0.000014  -0.000001   0.000000
    37  H    0.000000   0.000000   0.000001   0.000000   0.000000   0.000000
    38  H    0.000000   0.000000   0.000000   0.000000   0.000000   0.000000
    39  H    0.000000   0.000000   0.000000   0.000000   0.000000   0.000000
    40  H    0.000000   0.000000   0.000000   0.000000   0.000000   0.000000
    41  H    0.000000   0.000000   0.000000   0.000000   0.000000   0.000000
               7          8          9         10         11         12
     1  C   -0.004342  -0.000054  -0.000021   0.000001   0.000000   0.000000
     2  N   -0.056949   0.004402  -0.000012   0.000036   0.000000   0.000000
     3  C    0.002139  -0.000175   0.000002  -0.000001   0.000000   0.000000
     4  S    0.163246  -0.004375   0.000076   0.000433  -0.000041  -0.000003
     5  O   -0.051964  -0.003493  -0.000126   0.000206   0.000000   0.000000
     6  O   -0.059943   0.002458  -0.000091   0.000007   0.000000   0.000000
     7  N    7.357355   0.207961  -0.046896   0.005531  -0.000291  -0.000034
     8  C    0.207961   4.871053   0.346843  -0.097075   0.001378   0.000717
     9  C   -0.046896   0.346843   5.748937   0.125582  -0.045375  -0.044124
    10  S    0.005531  -0.097075   0.125582  13.860995   0.436909   0.413467
    11  O   -0.000291   0.001378  -0.045375   0.436909   8.197024  -0.044362
    12  O   -0.000034   0.000717  -0.044124   0.413467  -0.044362   8.243173
    13  C   -0.044823   0.358494  -0.196271   0.154076  -0.045719  -0.044756
    14  C   -0.056950   0.358532  -0.050105   0.002357  -0.000063  -0.000599
    15  C    0.003761  -0.029436  -0.004190  -0.001687  -0.000003   0.000570
    16  C   -0.000108   0.004010  -0.000057   0.000367   0.000000   0.000120
    17  C   -0.000002   0.000090  -0.000001  -0.000007   0.000000  -0.000001
    18  C    0.000000   0.000001   0.000000   0.000000   0.000000   0.000000
    19  C    0.000000   0.000000   0.000000   0.000000   0.000000   0.000000
    20  C    0.000000   0.000002   0.000000   0.000000   0.000000   0.000000
    21  C   -0.000003   0.000092  -0.000006  -0.000009   0.000000  -0.000001
    22  H   -0.000170   0.000029  -0.000001   0.000000   0.000000   0.000000
    23  H   -0.000224  -0.000003   0.000001   0.000000   0.000000   0.000000
    24  H    0.006852  -0.000955   0.000013  -0.000002   0.000000   0.000000
    25  H   -0.000076   0.000016   0.000000   0.000000   0.000000   0.000000
    26  H    0.000153  -0.000013   0.000000   0.000002   0.000000   0.000000
    27  H   -0.000110   0.000003   0.000000   0.000000   0.000000   0.000000
    28  H    0.293599  -0.025533  -0.006377  -0.000053   0.000005   0.000001
    29  H    0.002076  -0.028076   0.334672  -0.008586   0.000864  -0.000921
    30  H   -0.001137  -0.025440   0.333947  -0.002337   0.000055   0.000962
    31  H    0.002190  -0.030050   0.009097  -0.012165   0.000930  -0.000546
    32  H   -0.002930  -0.021526   0.005492  -0.003735   0.000483   0.000830
    33  H   -0.004309  -0.030720   0.005141  -0.000178   0.000001   0.000001
    34  H   -0.001147  -0.036465  -0.006740  -0.000096   0.000001   0.000001
    35  H    0.000012  -0.004249   0.002011   0.000779   0.000008   0.002295
    36  H    0.000005  -0.005135  -0.000372   0.000479   0.000004   0.001133
    37  H    0.000000  -0.000044   0.000000   0.000000   0.000000   0.000000
    38  H    0.000000   0.000000   0.000000   0.000000   0.000000   0.000000
    39  H    0.000000   0.000000   0.000000   0.000000   0.000000   0.000000
    40  H    0.000000   0.000000   0.000000   0.000000   0.000000   0.000000
    41  H    0.000000  -0.000052  -0.000016  -0.000001   0.000000   0.000000
              13         14         15         16         17         18
     1  C    0.000015   0.000406  -0.000022   0.000003  -0.000002   0.000000
     2  N   -0.001145  -0.009094   0.000166   0.000004  -0.000012   0.000000
     3  C    0.000013   0.000171   0.000001   0.000000   0.000000   0.000000
     4  S   -0.003535  -0.006868   0.000194  -0.000020  -0.000003   0.000000
     5  O   -0.006040  -0.000361  -0.000002   0.000000   0.000000   0.000000
     6  O   -0.000078  -0.000100   0.000000   0.000000   0.000000   0.000000
     7  N   -0.044823  -0.056950   0.003761  -0.000108  -0.000002   0.000000
     8  C    0.358494   0.358532  -0.029436   0.004010   0.000090   0.000001
     9  C   -0.196271  -0.050105  -0.004190  -0.000057  -0.000001   0.000000
    10  S    0.154076   0.002357  -0.001687   0.000367  -0.000007   0.000000
    11  O   -0.045719  -0.000063  -0.000003   0.000000   0.000000   0.000000
    12  O   -0.044756  -0.000599   0.000570   0.000120  -0.000001   0.000000
    13  C    5.707328  -0.045855  -0.005942  -0.000061  -0.000006   0.000000
    14  C   -0.045855   5.154385   0.337823  -0.036788  -0.004166  -0.000057
    15  C   -0.005942   0.337823   5.209895   0.334644  -0.056137   0.006838
    16  C   -0.000061  -0.036788   0.334644   4.650606   0.549475  -0.019508
    17  C   -0.000006  -0.004166  -0.056137   0.549475   4.956737   0.523967
    18  C    0.000000  -0.000057   0.006838  -0.019508   0.523967   4.867719
    19  C    0.000000   0.000018   0.000387  -0.034736  -0.036030   0.550332
    20  C    0.000000  -0.000034   0.006758  -0.018802  -0.047276  -0.026078
    21  C   -0.000001  -0.004550  -0.057541   0.546554  -0.037080  -0.047395
    22  H    0.000000   0.000275  -0.000016   0.000009   0.000023   0.000001
    23  H   -0.000001  -0.000035   0.000000   0.000000   0.000000   0.000000
    24  H    0.000032   0.001446   0.000017  -0.000003   0.000000   0.000000
    25  H   -0.000005   0.000085  -0.000004   0.000000   0.000003   0.000000
    26  H    0.000054   0.000020  -0.000001   0.000000   0.000000   0.000000
    27  H   -0.000001  -0.000013   0.000000   0.000000   0.000000   0.000000
    28  H    0.005030  -0.000808  -0.000069   0.000001   0.000000   0.000000
    29  H    0.008441  -0.004818   0.000166  -0.000197   0.000000   0.000000
    30  H    0.005959   0.002832   0.000147   0.000005   0.000000   0.000000
    31  H    0.339453  -0.005251  -0.000068  -0.000139   0.000011   0.000000
    32  H    0.331004   0.002268   0.000164   0.000004   0.000000   0.000000
    33  H   -0.005389   0.364265  -0.033875  -0.001745   0.004032  -0.000119
    34  H    0.005536   0.358498  -0.037459  -0.002555  -0.000038  -0.000010
    35  H   -0.000376  -0.039748   0.361391  -0.028547   0.003474  -0.000201
    36  H    0.002058  -0.039467   0.362462  -0.028711  -0.004072   0.000120
    37  H   -0.000012   0.000173  -0.009536  -0.047605   0.355072  -0.045558
    38  H    0.000000  -0.000001  -0.000186   0.003758  -0.039411   0.356773
    39  H    0.000000   0.000000   0.000007   0.000736   0.004657  -0.042782
    40  H    0.000000  -0.000001  -0.000185   0.003732   0.000879   0.004542
    41  H    0.000001   0.000163  -0.009109  -0.048671   0.006114   0.000368
              19         20         21         22         23         24
     1  C    0.000000   0.000000   0.000001   0.374577   0.376804   0.372550
     2  N    0.000000   0.000000   0.000000  -0.035011  -0.043473  -0.037010
     3  C    0.000000   0.000000   0.000000  -0.004089  -0.002242   0.005043
     4  S    0.000000   0.000000   0.000000   0.002404  -0.007533   0.002119
     5  O    0.000000   0.000000   0.000000  -0.000052  -0.000043   0.000006
     6  O    0.000000   0.000000   0.000000   0.000161   0.005835  -0.002416
     7  N    0.000000   0.000000  -0.000003  -0.000170  -0.000224   0.006852
     8  C    0.000000   0.000002   0.000092   0.000029  -0.000003  -0.000955
     9  C    0.000000   0.000000  -0.000006  -0.000001   0.000001   0.000013
    10  S    0.000000   0.000000  -0.000009   0.000000   0.000000  -0.000002
    11  O    0.000000   0.000000   0.000000   0.000000   0.000000   0.000000
    12  O    0.000000   0.000000  -0.000001   0.000000   0.000000   0.000000
    13  C    0.000000   0.000000  -0.000001   0.000000  -0.000001   0.000032
    14  C    0.000018  -0.000034  -0.004550   0.000275  -0.000035   0.001446
    15  C    0.000387   0.006758  -0.057541  -0.000016   0.000000   0.000017
    16  C   -0.034736  -0.018802   0.546554   0.000009   0.000000  -0.000003
    17  C   -0.036030  -0.047276  -0.037080   0.000023   0.000000   0.000000
    18  C    0.550332  -0.026078  -0.047395   0.000001   0.000000   0.000000
    19  C    4.852200   0.550800  -0.036116   0.000000   0.000000   0.000000
    20  C    0.550800   4.864958   0.524492   0.000000   0.000000   0.000000
    21  C   -0.036116   0.524492   4.959735   0.000000   0.000000  -0.000001
    22  H    0.000000   0.000000   0.000000   0.546235  -0.035295  -0.026151
    23  H    0.000000   0.000000   0.000000  -0.035295   0.551567  -0.032619
    24  H    0.000000   0.000000  -0.000001  -0.026151  -0.032619   0.548232
    25  H    0.000000   0.000000   0.000000   0.005213  -0.001656   0.000068
    26  H    0.000000   0.000000   0.000000   0.000011  -0.000174  -0.000191
    27  H    0.000000   0.000000   0.000000  -0.001418   0.008499  -0.000252
    28  H    0.000000   0.000000   0.000000   0.000012   0.000021   0.001016
    29  H    0.000000   0.000000   0.000023   0.000000   0.000000  -0.000002
    30  H    0.000000   0.000000   0.000000   0.000000   0.000000  -0.000004
    31  H    0.000000   0.000000   0.000000   0.000000   0.000000   0.000000
    32  H    0.000000   0.000000   0.000000   0.000001  -0.000001   0.000000
    33  H   -0.000006  -0.000011  -0.000001  -0.000334   0.000269  -0.001006
    34  H   -0.000006  -0.000159   0.004179   0.000007   0.000010   0.001863
    35  H    0.000011   0.000114  -0.003663   0.000000   0.000000   0.000001
    36  H    0.000011  -0.000205   0.003652   0.000000   0.000000   0.000002
    37  H    0.004880   0.000361   0.006167   0.000001   0.000000   0.000000
    38  H   -0.042873   0.004533   0.000880   0.000000   0.000000   0.000000
    39  H    0.359411  -0.042680   0.004676   0.000000   0.000000   0.000000
    40  H   -0.042820   0.356837  -0.039396   0.000000   0.000000   0.000000
    41  H    0.004903  -0.045176   0.354943   0.000000   0.000000   0.000000
              25         26         27         28         29         30
     1  C   -0.002672   0.004567  -0.002512  -0.000173   0.000000   0.000000
     2  N   -0.039919  -0.030573  -0.047436   0.000340   0.000001   0.000004
     3  C    0.375089   0.378598   0.372271  -0.000029   0.000000   0.000000
     4  S    0.001494  -0.004550  -0.002315  -0.008011  -0.000045   0.000059
     5  O    0.000365   0.011616  -0.000563   0.001640   0.000000  -0.000011
     6  O   -0.000106  -0.000046   0.001807   0.002751   0.000000  -0.000020
     7  N   -0.000076   0.000153  -0.000110   0.293599   0.002076  -0.001137
     8  C    0.000016  -0.000013   0.000003  -0.025533  -0.028076  -0.025440
     9  C    0.000000   0.000000   0.000000  -0.006377   0.334672   0.333947
    10  S    0.000000   0.000002   0.000000  -0.000053  -0.008586  -0.002337
    11  O    0.000000   0.000000   0.000000   0.000005   0.000864   0.000055
    12  O    0.000000   0.000000   0.000000   0.000001  -0.000921   0.000962
    13  C   -0.000005   0.000054  -0.000001   0.005030   0.008441   0.005959
    14  C    0.000085   0.000020  -0.000013  -0.000808  -0.004818   0.002832
    15  C   -0.000004  -0.000001   0.000000  -0.000069   0.000166   0.000147
    16  C    0.000000   0.000000   0.000000   0.000001  -0.000197   0.000005
    17  C    0.000003   0.000000   0.000000   0.000000   0.000000   0.000000
    18  C    0.000000   0.000000   0.000000   0.000000   0.000000   0.000000
    19  C    0.000000   0.000000   0.000000   0.000000   0.000000   0.000000
    20  C    0.000000   0.000000   0.000000   0.000000   0.000000   0.000000
    21  C    0.000000   0.000000   0.000000   0.000000   0.000023   0.000000
    22  H    0.005213   0.000011  -0.001418   0.000012   0.000000   0.000000
    23  H   -0.001656  -0.000174   0.008499   0.000021   0.000000   0.000000
    24  H    0.000068  -0.000191  -0.000252   0.001016  -0.000002  -0.000004
    25  H    0.560078  -0.021069  -0.041959  -0.000001   0.000000   0.000000
    26  H   -0.021069   0.483800  -0.029449  -0.000006   0.000000   0.000000
    27  H   -0.041959  -0.029449   0.578333   0.000002   0.000000   0.000000
    28  H   -0.000001  -0.000006   0.000002   0.373941   0.000229   0.001959
    29  H    0.000000   0.000000   0.000000   0.000229   0.503088  -0.020057
    30  H    0.000000   0.000000   0.000000   0.001959  -0.020057   0.484999
    31  H    0.000000   0.000016   0.000000  -0.000098  -0.000276  -0.000245
    32  H    0.000002   0.000045  -0.000002   0.000082  -0.000217  -0.000198
    33  H   -0.000251  -0.000055   0.000062  -0.000437   0.000237  -0.000100
    34  H   -0.000002  -0.000001   0.000000   0.003763   0.002025  -0.000013
    35  H    0.000000   0.000000   0.000000  -0.000008   0.004555   0.000065
    36  H    0.000000   0.000000   0.000000   0.000007   0.000049  -0.000013
    37  H    0.000004   0.000000   0.000000   0.000000   0.000000   0.000000
    38  H    0.000000   0.000000   0.000000   0.000000   0.000000   0.000000
    39  H    0.000000   0.000000   0.000000   0.000000   0.000000   0.000000
    40  H    0.000000   0.000000   0.000000   0.000000   0.000000   0.000000
    41  H    0.000000   0.000000   0.000000   0.000000   0.000134   0.000000
              31         32         33         34         35         36
     1  C    0.000001  -0.000005  -0.002389  -0.000231   0.000000  -0.000001
     2  N   -0.000004  -0.000024   0.012877   0.000133  -0.000005   0.000015
     3  C    0.000007  -0.000004  -0.000050   0.000001   0.000000   0.000000
     4  S   -0.000298  -0.002658   0.001847  -0.000540   0.000001  -0.000014
     5  O   -0.000067   0.015999  -0.000133   0.000005   0.000000  -0.000001
     6  O    0.000000  -0.000079   0.000006  -0.000004   0.000000   0.000000
     7  N    0.002190  -0.002930  -0.004309  -0.001147   0.000012   0.000005
     8  C   -0.030050  -0.021526  -0.030720  -0.036465  -0.004249  -0.005135
     9  C    0.009097   0.005492   0.005141  -0.006740   0.002011  -0.000372
    10  S   -0.012165  -0.003735  -0.000178  -0.000096   0.000779   0.000479
    11  O    0.000930   0.000483   0.000001   0.000001   0.000008   0.000004
    12  O   -0.000546   0.000830   0.000001   0.000001   0.002295   0.001133
    13  C    0.339453   0.331004  -0.005389   0.005536  -0.000376   0.002058
    14  C   -0.005251   0.002268   0.364265   0.358498  -0.039748  -0.039467
    15  C   -0.000068   0.000164  -0.033875  -0.037459   0.361391   0.362462
    16  C   -0.000139   0.000004  -0.001745  -0.002555  -0.028547  -0.028711
    17  C    0.000011   0.000000   0.004032  -0.000038   0.003474  -0.004072
    18  C    0.000000   0.000000  -0.000119  -0.000010  -0.000201   0.000120
    19  C    0.000000   0.000000  -0.000006  -0.000006   0.000011   0.000011
    20  C    0.000000   0.000000  -0.000011  -0.000159   0.000114  -0.000205
    21  C    0.000000   0.000000  -0.000001   0.004179  -0.003663   0.003652
    22  H    0.000000   0.000001  -0.000334   0.000007   0.000000   0.000000
    23  H    0.000000  -0.000001   0.000269   0.000010   0.000000   0.000000
    24  H    0.000000   0.000000  -0.001006   0.001863   0.000001   0.000002
    25  H    0.000000   0.000002  -0.000251  -0.000002   0.000000   0.000000
    26  H    0.000016   0.000045  -0.000055  -0.000001   0.000000   0.000000
    27  H    0.000000  -0.000002   0.000062   0.000000   0.000000   0.000000
    28  H   -0.000098   0.000082  -0.000437   0.003763  -0.000008   0.000007
    29  H   -0.000276  -0.000217   0.000237   0.002025   0.004555   0.000049
    30  H   -0.000245  -0.000198  -0.000100  -0.000013   0.000065  -0.000013
    31  H    0.501031  -0.015817   0.001606   0.000174   0.000074   0.005068
    32  H   -0.015817   0.423586   0.000001  -0.000095  -0.000007   0.000042
    33  H    0.001606   0.000001   0.538243  -0.033922   0.004917  -0.004419
    34  H    0.000174  -0.000095  -0.033922   0.607803  -0.004571   0.005718
    35  H    0.000074  -0.000007   0.004917  -0.004571   0.564893  -0.032743
    36  H    0.005068   0.000042  -0.004419   0.005718  -0.032743   0.565089
    37  H    0.000073   0.000000   0.000751   0.000040   0.000076   0.005492
    38  H    0.000000   0.000000   0.000003   0.000000   0.000003  -0.000007
    39  H    0.000000   0.000000   0.000000   0.000000   0.000000   0.000000
    40  H    0.000000   0.000000   0.000000   0.000004  -0.000006   0.000003
    41  H    0.000000   0.000000   0.000042   0.000877   0.004990   0.000066
              37         38         39         40         41
     1  C    0.000000   0.000000   0.000000   0.000000   0.000000
     2  N    0.000000   0.000000   0.000000   0.000000   0.000000
     3  C    0.000001   0.000000   0.000000   0.000000   0.000000
     4  S    0.000000   0.000000   0.000000   0.000000   0.000000
     5  O    0.000000   0.000000   0.000000   0.000000   0.000000
     6  O    0.000000   0.000000   0.000000   0.000000   0.000000
     7  N    0.000000   0.000000   0.000000   0.000000   0.000000
     8  C   -0.000044   0.000000   0.000000   0.000000  -0.000052
     9  C    0.000000   0.000000   0.000000   0.000000  -0.000016
    10  S    0.000000   0.000000   0.000000   0.000000  -0.000001
    11  O    0.000000   0.000000   0.000000   0.000000   0.000000
    12  O    0.000000   0.000000   0.000000   0.000000   0.000000
    13  C   -0.000012   0.000000   0.000000   0.000000   0.000001
    14  C    0.000173  -0.000001   0.000000  -0.000001   0.000163
    15  C   -0.009536  -0.000186   0.000007  -0.000185  -0.009109
    16  C   -0.047605   0.003758   0.000736   0.003732  -0.048671
    17  C    0.355072  -0.039411   0.004657   0.000879   0.006114
    18  C   -0.045558   0.356773  -0.042782   0.004542   0.000368
    19  C    0.004880  -0.042873   0.359411  -0.042820   0.004903
    20  C    0.000361   0.004533  -0.042680   0.356837  -0.045176
    21  C    0.006167   0.000880   0.004676  -0.039396   0.354943
    22  H    0.000001   0.000000   0.000000   0.000000   0.000000
    23  H    0.000000   0.000000   0.000000   0.000000   0.000000
    24  H    0.000000   0.000000   0.000000   0.000000   0.000000
    25  H    0.000004   0.000000   0.000000   0.000000   0.000000
    26  H    0.000000   0.000000   0.000000   0.000000   0.000000
    27  H    0.000000   0.000000   0.000000   0.000000   0.000000
    28  H    0.000000   0.000000   0.000000   0.000000   0.000000
    29  H    0.000000   0.000000   0.000000   0.000000   0.000134
    30  H    0.000000   0.000000   0.000000   0.000000   0.000000
    31  H    0.000073   0.000000   0.000000   0.000000   0.000000
    32  H    0.000000   0.000000   0.000000   0.000000   0.000000
    33  H    0.000751   0.000003   0.000000   0.000000   0.000042
    34  H    0.000040   0.000000   0.000000   0.000004   0.000877
    35  H    0.000076   0.000003   0.000000  -0.000006   0.004990
    36  H    0.005492  -0.000007   0.000000   0.000003   0.000066
    37  H    0.612441  -0.005657  -0.000183   0.000018  -0.000183
    38  H   -0.005657   0.595558  -0.005470  -0.000190   0.000018
    39  H   -0.000183  -0.005470   0.594794  -0.005496  -0.000184
    40  H    0.000018  -0.000190  -0.005496   0.595195  -0.005695
    41  H   -0.000183   0.000018  -0.000184  -0.005695   0.615440
 Mulliken charges:
               1
     1  C   -0.316159
     2  N   -0.524519
     3  C   -0.321713
     4  S    1.325655
     5  O   -0.545973
     6  O   -0.522874
     7  N   -0.712475
     8  C    0.186787
     9  C   -0.511033
    10  S    1.124706
    11  O   -0.501808
    12  O   -0.527925
    13  C   -0.517476
    14  C   -0.277987
    15  C   -0.379922
    16  C    0.174225
    17  C   -0.180289
    18  C   -0.128953
    19  C   -0.130365
    20  C   -0.128433
    21  C   -0.179631
    22  H    0.173577
    23  H    0.180293
    24  H    0.161353
    25  H    0.165304
    26  H    0.207247
    27  H    0.165054
    28  H    0.357203
    29  H    0.206634
    30  H    0.218582
    31  H    0.205294
    32  H    0.267296
    33  H    0.185148
    34  H    0.133418
    35  H    0.164452
    36  H    0.163685
    37  H    0.123229
    38  H    0.132268
    39  H    0.132515
    40  H    0.132580
    41  H    0.121030
 Sum of Mulliken charges =   0.00000
 Mulliken charges with hydrogens summed into heavy atoms:
               1
     1  C    0.199064
     2  N   -0.524519
     3  C    0.215891
     4  S    1.325655
     5  O   -0.545973
     6  O   -0.522874
     7  N   -0.355272
     8  C    0.186787
     9  C   -0.085816
    10  S    1.124706
    11  O   -0.501808
    12  O   -0.527925
    13  C   -0.044886
    14  C    0.040578
    15  C   -0.051784
    16  C    0.174225
    17  C   -0.057060
    18  C    0.003315
    19  C    0.002150
    20  C    0.004146
    21  C   -0.058601
 Electronic spatial extent (au):  <R**2>=           8237.5849
 Charge=              0.0000 electrons
 Dipole moment (field-independent basis, Debye):
    X=             -5.8204    Y=             -5.4019    Z=             -1.7994  Tot=              8.1422
 Quadrupole moment (field-independent basis, Debye-Ang):
   XX=           -159.3118   YY=           -153.9264   ZZ=           -128.2247
   XY=              0.4037   XZ=              1.4332   YZ=            -11.2409
 Traceless Quadrupole moment (field-independent basis, Debye-Ang):
   XX=            -12.1575   YY=             -6.7721   ZZ=             18.9296
   XY=              0.4037   XZ=              1.4332   YZ=            -11.2409
 Octapole moment (field-independent basis, Debye-Ang**2):
  XXX=            -83.4075  YYY=           -133.9595  ZZZ=             -2.9453  XYY=            -25.3900
  XXY=            -19.1207  XXZ=             -3.3173  XZZ=              7.2588  YZZ=              6.4884
  YYZ=             -7.8848  XYZ=             -5.0254
 Hexadecapole moment (field-independent basis, Debye-Ang**3):
 XXXX=          -6275.5513 YYYY=          -3933.4416 ZZZZ=           -761.6026 XXXY=            161.7786
 XXXZ=             83.2456 YYYX=           -157.3687 YYYZ=           -118.9525 ZZZX=             -2.0969
 ZZZY=             -9.9033 XXYY=          -1841.3187 XXZZ=          -1143.6011 YYZZ=           -722.0605
 XXYZ=            -79.1613 YYXZ=             19.0849 ZZXY=             25.9709
 N-N= 2.159883718604D+03 E-N=-8.345086528943D+03  KE= 1.702520456829D+03
 No NMR shielding tensors so no spin-rotation constants.
 Leave Link  601 at Fri Oct  2 06:17:19 2020, MaxMem=  2147483648 cpu:         0.3
 (Enter /prod/apps/gaussian/g09d1/l9999.exe)
 1\1\GINC-PIRINEUS20\SP\RB3LYP\6-31G(d)\C13H20N2O4S2\UBAFAR01\02-Oct-20
 20\0\\#p b3lyp/6-31G(d)\\SM40.n.8.pdb.xyz\\0,1\C,0,6.092,1.02,-0.247\N
 ,0,5.757,0.259,0.964\C,0,6.027,0.996,2.21\S,0,4.239,-0.49,0.904\O,0,3.
 977,-0.953,2.266\O,0,3.259,0.342,0.201\N,0,4.412,-1.825,-0.082\C,0,5.3
 71,-2.934,0.102\C,0,4.801,-4.164,-0.685\S,0,4.711,-5.14,0.857\O,0,3.33
 4,-5.488,1.239\O,0,5.761,-6.171,0.916\C,0,5.268,-3.542,1.544\C,0,6.797
 ,-2.543,-0.332\C,0,7.876,-3.633,-0.214\C,0,9.222,-3.133,-0.692\C,0,10.
 115,-2.526,0.198\C,0,11.344,-2.035,-0.242\C,0,11.7,-2.145,-1.588\C,0,1
 0.819,-2.751,-2.485\C,0,9.591,-3.24,-2.039\H,0,7.153,1.272,-0.195\H,0,
 5.504,1.94,-0.339\H,0,5.933,0.406,-1.134\H,0,7.095,1.222,2.225\H,0,5.7
 79,0.367,3.061\H,0,5.466,1.937,2.272\H,0,4.232,-1.579,-1.053\H,0,5.468
 ,-4.605,-1.425\H,0,3.807,-3.997,-1.1\H,0,6.208,-3.628,2.089\H,0,4.5,-3
 .078,2.16\H,0,7.091,-1.672,0.259\H,0,6.743,-2.213,-1.376\H,0,7.588,-4.
 518,-0.792\H,0,7.963,-3.959,0.826\H,0,9.847,-2.444,1.248\H,0,12.025,-1
 .572,0.465\H,0,12.657,-1.767,-1.933\H,0,11.089,-2.847,-3.532\H,0,8.914
 ,-3.717,-2.743\\Version=AM64L-G09RevD.01\State=1-A\HF=-1714.035509\RMS
 D=9.434e-09\Dipole=2.1706083,1.9263576,-1.3562113\Quadrupole=-6.489935
 ,-6.2046726,12.6946076,2.9557505,7.2774358,6.4068436\PG=C01 [X(C13H20N
 2O4S2)]\\@


 DIATOMIC MOLECULES ARE PECULIAR BECAUSE THEY ONLY HAVE TWO ENDS,
 AND THESE ENDS ARE VERY CLOSE TOGETHER.
 KLAUS RUEDENBERG, REV.MOD.PHYS. PG 176, 32, (1960)
 Job cpu time:       0 days  0 hours  5 minutes 59.5 seconds.
 File lengths (MBytes):  RWF=     73 Int=      0 D2E=      0 Chk=      6 Scr=      1
 Normal termination of Gaussian 09 at Fri Oct  2 06:17:19 2020.
 Initial command:
 /prod/apps/gaussian/g09d1/l1.exe "/tmp/ubafar01/1462953/Gau-37073.inp" -scrdir="/tmp/ubafar01/1462953/"
 Entering Link 1 = /prod/apps/gaussian/g09d1/l1.exe PID=     38209.
  
 Copyright (c) 1988,1990,1992,1993,1995,1998,2003,2009,2013,
            Gaussian, Inc.  All Rights Reserved.
  
 This is part of the Gaussian(R) 09 program.  It is based on
 the Gaussian(R) 03 system (copyright 2003, Gaussian, Inc.),
 the Gaussian(R) 98 system (copyright 1998, Gaussian, Inc.),
 the Gaussian(R) 94 system (copyright 1995, Gaussian, Inc.),
[...]
     9  C   -0.190559  -0.049245  -0.004298  -0.000068  -0.000002   0.000000
    10  S    0.154935   0.002808  -0.001587   0.000326  -0.000006   0.000000
    11  O   -0.046257  -0.000063  -0.000004   0.000000   0.000000   0.000000
    12  O   -0.044765  -0.000571   0.000505   0.000113  -0.000001   0.000000
    13  C    5.707645  -0.046095  -0.005929  -0.000059  -0.000005   0.000000
    14  C   -0.046095   5.147642   0.338009  -0.037065  -0.004139  -0.000057
    15  C   -0.005929   0.338009   5.210702   0.338488  -0.056831   0.006847
    16  C   -0.000059  -0.037065   0.338488   4.653323   0.548633  -0.020492
    17  C   -0.000005  -0.004139  -0.056831   0.548633   4.963300   0.522929
    18  C    0.000000  -0.000057   0.006847  -0.020492   0.522929   4.878290
    19  C    0.000000   0.000017   0.000365  -0.034520  -0.037084   0.548372
    20  C    0.000000  -0.000037   0.006767  -0.019999  -0.047233  -0.027183
    21  C   -0.000001  -0.004377  -0.058241   0.546246  -0.037137  -0.047342
    22  H    0.000000   0.000252  -0.000015   0.000009   0.000022   0.000001
    23  H   -0.000001  -0.000034   0.000000   0.000000   0.000000   0.000000
    24  H    0.000030   0.001480   0.000017  -0.000003   0.000000   0.000000
    25  H   -0.000005   0.000081  -0.000004   0.000000   0.000003   0.000000
    26  H    0.000052   0.000020  -0.000001   0.000000   0.000000   0.000000
    27  H   -0.000001  -0.000013   0.000000   0.000000   0.000000   0.000000
    28  H    0.004590  -0.000597  -0.000059   0.000001   0.000000   0.000000
    29  H    0.008199  -0.004521   0.000143  -0.000173   0.000000   0.000000
    30  H    0.005936   0.002703   0.000141   0.000005   0.000000   0.000000
    31  H    0.341638  -0.005003   0.000101  -0.000137   0.000011   0.000000
    32  H    0.330116   0.002303   0.000165   0.000004   0.000000   0.000000
    33  H   -0.005422   0.365015  -0.034059  -0.001676   0.003949  -0.000115
    34  H    0.005365   0.364183  -0.036812  -0.002445  -0.000036  -0.000009
    35  H   -0.000415  -0.039306   0.360194  -0.027908   0.003533  -0.000201
    36  H    0.002246  -0.038893   0.361223  -0.028175  -0.004043   0.000119
    37  H   -0.000012   0.000178  -0.009414  -0.047089   0.357333  -0.044476
    38  H    0.000000  -0.000001  -0.000183   0.003701  -0.038732   0.358585
    39  H    0.000000   0.000000   0.000006   0.000697   0.004626  -0.042401
    40  H    0.000000  -0.000001  -0.000182   0.003676   0.000840   0.004492
    41  H    0.000000   0.000189  -0.009022  -0.047578   0.005990   0.000334
              19         20         21         22         23         24
     1  C    0.000000   0.000000   0.000001   0.376588   0.377383   0.373720
     2  N    0.000000   0.000000   0.000000  -0.034143  -0.043632  -0.036618
     3  C    0.000000   0.000000   0.000000  -0.004052  -0.002265   0.004884
     4  S    0.000000   0.000000   0.000000   0.002354  -0.008175   0.002616
     5  O    0.000000   0.000000   0.000000  -0.000052  -0.000043   0.000006
     6  O    0.000000   0.000000   0.000000   0.000150   0.005835  -0.002407
     7  N    0.000000   0.000000  -0.000003  -0.000164  -0.000231   0.006462
     8  C    0.000000   0.000002   0.000091   0.000031   0.000000  -0.000939
     9  C    0.000000   0.000000  -0.000005  -0.000001   0.000001   0.000012
    10  S    0.000000   0.000000  -0.000009   0.000000   0.000000  -0.000002
    11  O    0.000000   0.000000   0.000000   0.000000   0.000000   0.000000
    12  O    0.000000   0.000000  -0.000001   0.000000   0.000000   0.000000
    13  C    0.000000   0.000000  -0.000001   0.000000  -0.000001   0.000030
    14  C    0.000017  -0.000037  -0.004377   0.000252  -0.000034   0.001480
    15  C    0.000365   0.006767  -0.058241  -0.000015   0.000000   0.000017
    16  C   -0.034520  -0.019999   0.546246   0.000009   0.000000  -0.000003
    17  C   -0.037084  -0.047233  -0.037137   0.000022   0.000000   0.000000
    18  C    0.548372  -0.027183  -0.047342   0.000001   0.000000   0.000000
    19  C    4.866224   0.548572  -0.037231   0.000000   0.000000   0.000000
    20  C    0.548572   4.877846   0.523304   0.000000   0.000000   0.000000
    21  C   -0.037231   0.523304   4.966706   0.000000   0.000000  -0.000001
    22  H    0.000000   0.000000   0.000000   0.530843  -0.033703  -0.025029
    23  H    0.000000   0.000000   0.000000  -0.033703   0.550169  -0.031929
    24  H    0.000000   0.000000  -0.000001  -0.025029  -0.031929   0.532600
    25  H    0.000000   0.000000   0.000000   0.004968  -0.001583   0.000063
    26  H    0.000000   0.000000   0.000000   0.000019  -0.000169  -0.000190
    27  H    0.000000   0.000000   0.000000  -0.001357   0.008270  -0.000234
    28  H    0.000000   0.000000   0.000000   0.000009   0.000023   0.000853
    29  H    0.000000   0.000000   0.000021   0.000000   0.000000  -0.000001
    30  H    0.000000   0.000000   0.000000   0.000000   0.000000  -0.000004
    31  H    0.000000   0.000000   0.000000   0.000000   0.000000   0.000000
    32  H    0.000000   0.000000   0.000000   0.000001  -0.000001   0.000000
    33  H   -0.000006  -0.000011  -0.000017  -0.000303   0.000259  -0.000972
    34  H   -0.000006  -0.000145   0.004036   0.000005   0.000009   0.001678
    35  H    0.000012   0.000108  -0.003752   0.000000   0.000000   0.000001
    36  H    0.000011  -0.000203   0.003693   0.000000   0.000000   0.000002
    37  H    0.004814   0.000329   0.006052   0.000001   0.000000   0.000000
    38  H   -0.042565   0.004485   0.000838   0.000000   0.000000   0.000000
    39  H    0.361075  -0.042403   0.004642   0.000000   0.000000   0.000000
    40  H   -0.042540   0.358614  -0.038847   0.000000   0.000000   0.000000
    41  H    0.004819  -0.044190   0.357391   0.000000   0.000000   0.000000
              25         26         27         28         29         30
     1  C   -0.002540   0.004523  -0.002298  -0.000145   0.000000   0.000000
     2  N   -0.038579  -0.031111  -0.047327   0.000252   0.000001   0.000004
     3  C    0.377821   0.378132   0.372696  -0.000024   0.000000   0.000000
     4  S    0.001516  -0.004819  -0.002570  -0.007403  -0.000040   0.000115
     5  O    0.000345   0.011101  -0.000548   0.001456   0.000000  -0.000010
     6  O   -0.000104  -0.000047   0.001784   0.002271   0.000000  -0.000020
     7  N   -0.000078   0.000154  -0.000110   0.295612   0.001977  -0.000868
     8  C    0.000015  -0.000017   0.000003  -0.023019  -0.027615  -0.025221
     9  C    0.000000   0.000000   0.000000  -0.006163   0.338830   0.335833
    10  S    0.000000   0.000002   0.000000  -0.000100  -0.009807  -0.003298
    11  O    0.000000   0.000000   0.000000   0.000004   0.000851   0.000011
    12  O    0.000000   0.000000   0.000000   0.000001  -0.000980   0.000961
    13  C   -0.000005   0.000052  -0.000001   0.004590   0.008199   0.005936
    14  C    0.000081   0.000020  -0.000013  -0.000597  -0.004521   0.002703
    15  C   -0.000004  -0.000001   0.000000  -0.000059   0.000143   0.000141
    16  C    0.000000   0.000000   0.000000   0.000001  -0.000173   0.000005
    17  C    0.000003   0.000000   0.000000   0.000000   0.000000   0.000000
    18  C    0.000000   0.000000   0.000000   0.000000   0.000000   0.000000
    19  C    0.000000   0.000000   0.000000   0.000000   0.000000   0.000000
    20  C    0.000000   0.000000   0.000000   0.000000   0.000000   0.000000
    21  C    0.000000   0.000000   0.000000   0.000000   0.000021   0.000000
    22  H    0.004968   0.000019  -0.001357   0.000009   0.000000   0.000000
    23  H   -0.001583  -0.000169   0.008270   0.000023   0.000000   0.000000
    24  H    0.000063  -0.000190  -0.000234   0.000853  -0.000001  -0.000004
    25  H    0.540363  -0.020543  -0.039840  -0.000001   0.000000   0.000000
    26  H   -0.020543   0.490857  -0.030157  -0.000006   0.000000   0.000000
    27  H   -0.039840  -0.030157   0.574178   0.000002   0.000000   0.000000
    28  H   -0.000001  -0.000006   0.000002   0.340513   0.000204   0.001707
    29  H    0.000000   0.000000   0.000000   0.000204   0.481032  -0.017097
    30  H    0.000000   0.000000   0.000000   0.001707  -0.017097   0.469914
    31  H    0.000000   0.000015   0.000000  -0.000084  -0.000264  -0.000229
    32  H    0.000002   0.000047  -0.000002   0.000088  -0.000210  -0.000213
    33  H   -0.000236  -0.000056   0.000060  -0.000396   0.000223  -0.000093
    34  H   -0.000002  -0.000001   0.000000   0.003202   0.001874  -0.000015
    35  H    0.000000   0.000000   0.000000  -0.000007   0.004559   0.000066
    36  H    0.000000   0.000000   0.000000   0.000006   0.000047  -0.000013
    37  H    0.000003   0.000000   0.000000   0.000000   0.000000   0.000000
    38  H    0.000000   0.000000   0.000000   0.000000   0.000000   0.000000
    39  H    0.000000   0.000000   0.000000   0.000000   0.000000   0.000000
    40  H    0.000000   0.000000   0.000000   0.000000   0.000000   0.000000
    41  H    0.000000   0.000000   0.000000   0.000000   0.000122   0.000000
              31         32         33         34         35         36
     1  C    0.000001  -0.000005  -0.002452  -0.000160   0.000000   0.000000
     2  N   -0.000005  -0.000034   0.012481   0.000123  -0.000005   0.000015
     3  C    0.000007  -0.000004  -0.000073   0.000000   0.000000   0.000000
     4  S   -0.000279  -0.002418   0.001833  -0.000507   0.000001  -0.000014
     5  O   -0.000073   0.016463  -0.000133   0.000005   0.000000  -0.000001
     6  O    0.000000  -0.000082   0.000007  -0.000003   0.000000   0.000000
     7  N    0.002137  -0.003099  -0.004383  -0.001149   0.000009   0.000000
     8  C   -0.029127  -0.022255  -0.030848  -0.034917  -0.004431  -0.005268
     9  C    0.008585   0.005542   0.005087  -0.006603   0.002234  -0.000396
    10  S   -0.011808  -0.003667  -0.000172  -0.000108   0.000814   0.000494
    11  O    0.000902   0.000494   0.000001   0.000001   0.000008   0.000004
    12  O   -0.000684   0.000853   0.000001   0.000001   0.002163   0.001079
    13  C    0.341638   0.330116  -0.005422   0.005365  -0.000415   0.002246
    14  C   -0.005003   0.002303   0.365015   0.364183  -0.039306  -0.038893
    15  C    0.000101   0.000165  -0.034059  -0.036812   0.360194   0.361223
    16  C   -0.000137   0.000004  -0.001676  -0.002445  -0.027908  -0.028175
    17  C    0.000011   0.000000   0.003949  -0.000036   0.003533  -0.004043
    18  C    0.000000   0.000000  -0.000115  -0.000009  -0.000201   0.000119
    19  C    0.000000   0.000000  -0.000006  -0.000006   0.000012   0.000011
    20  C    0.000000   0.000000  -0.000011  -0.000145   0.000108  -0.000203
    21  C    0.000000   0.000000  -0.000017   0.004036  -0.003752   0.003693
    22  H    0.000000   0.000001  -0.000303   0.000005   0.000000   0.000000
    23  H    0.000000  -0.000001   0.000259   0.000009   0.000000   0.000000
    24  H    0.000000   0.000000  -0.000972   0.001678   0.000001   0.000002
    25  H    0.000000   0.000002  -0.000236  -0.000002   0.000000   0.000000
    26  H    0.000015   0.000047  -0.000056  -0.000001   0.000000   0.000000
    27  H    0.000000  -0.000002   0.000060   0.000000   0.000000   0.000000
    28  H   -0.000084   0.000088  -0.000396   0.003202  -0.000007   0.000006
    29  H   -0.000264  -0.000210   0.000223   0.001874   0.004559   0.000047
    30  H   -0.000229  -0.000213  -0.000093  -0.000015   0.000066  -0.000013
    31  H    0.482313  -0.014820   0.001555   0.000165   0.000061   0.005035
    32  H   -0.014820   0.431504  -0.000006  -0.000091  -0.000008   0.000047
    33  H    0.001555  -0.000006   0.534637  -0.032544   0.004917  -0.004477
    34  H    0.000165  -0.000091  -0.032544   0.579501  -0.004535   0.005513
    35  H    0.000061  -0.000008   0.004917  -0.004535   0.568343  -0.033992
    36  H    0.005035   0.000047  -0.004477   0.005513  -0.033992   0.567585
    37  H    0.000067   0.000000   0.000730   0.000036   0.000080   0.005307
    38  H    0.000000   0.000000   0.000003   0.000000   0.000003  -0.000007
    39  H    0.000000   0.000000   0.000000   0.000000   0.000000   0.000000
    40  H    0.000000   0.000000   0.000000   0.000004  -0.000006   0.000003
    41  H    0.000000   0.000000   0.000038   0.000816   0.004837   0.000069
              37         38         39         40         41
     1  C    0.000000   0.000000   0.000000   0.000000   0.000000
     2  N    0.000000   0.000000   0.000000   0.000000   0.000000
     3  C    0.000001   0.000000   0.000000   0.000000   0.000000
     4  S    0.000000   0.000000   0.000000   0.000000   0.000000
     5  O    0.000000   0.000000   0.000000   0.000000   0.000000
     6  O    0.000000   0.000000   0.000000   0.000000   0.000000
     7  N    0.000000   0.000000   0.000000   0.000000   0.000000
     8  C   -0.000044   0.000000   0.000000   0.000000  -0.000051
     9  C    0.000000   0.000000   0.000000   0.000000  -0.000015
    10  S    0.000000   0.000000   0.000000   0.000000  -0.000001
    11  O    0.000000   0.000000   0.000000   0.000000   0.000000
    12  O    0.000000   0.000000   0.000000   0.000000   0.000000
    13  C   -0.000012   0.000000   0.000000   0.000000   0.000000
    14  C    0.000178  -0.000001   0.000000  -0.000001   0.000189
    15  C   -0.009414  -0.000183   0.000006  -0.000182  -0.009022
    16  C   -0.047089   0.003701   0.000697   0.003676  -0.047578
    17  C    0.357333  -0.038732   0.004626   0.000840   0.005990
    18  C   -0.044476   0.358585  -0.042401   0.004492   0.000334
    19  C    0.004814  -0.042565   0.361075  -0.042540   0.004819
    20  C    0.000329   0.004485  -0.042403   0.358614  -0.044190
    21  C    0.006052   0.000838   0.004642  -0.038847   0.357391
    22  H    0.000001   0.000000   0.000000   0.000000   0.000000
    23  H    0.000000   0.000000   0.000000   0.000000   0.000000
    24  H    0.000000   0.000000   0.000000   0.000000   0.000000
    25  H    0.000003   0.000000   0.000000   0.000000   0.000000
    26  H    0.000000   0.000000   0.000000   0.000000   0.000000
    27  H    0.000000   0.000000   0.000000   0.000000   0.000000
    28  H    0.000000   0.000000   0.000000   0.000000   0.000000
    29  H    0.000000   0.000000   0.000000   0.000000   0.000122
    30  H    0.000000   0.000000   0.000000   0.000000   0.000000
    31  H    0.000067   0.000000   0.000000   0.000000   0.000000
    32  H    0.000000   0.000000   0.000000   0.000000   0.000000
    33  H    0.000730   0.000003   0.000000   0.000000   0.000038
    34  H    0.000036   0.000000   0.000000   0.000004   0.000816
    35  H    0.000080   0.000003   0.000000  -0.000006   0.004837
    36  H    0.005307  -0.000007   0.000000   0.000003   0.000069
    37  H    0.598402  -0.005465  -0.000176   0.000018  -0.000175
    38  H   -0.005465   0.583915  -0.005314  -0.000183   0.000018
    39  H   -0.000176  -0.005314   0.584494  -0.005342  -0.000177
    40  H    0.000018  -0.000183  -0.005342   0.584088  -0.005477
    41  H   -0.000175   0.000018  -0.000177  -0.005477   0.599167
 Mulliken charges:
               1
     1  C   -0.323648
     2  N   -0.524851
     3  C   -0.323404
     4  S    1.318152
     5  O   -0.560082
     6  O   -0.540397
     7  N   -0.723748
     8  C    0.186951
     9  C   -0.505701
    10  S    1.115431
    11  O   -0.529320
    12  O   -0.546562
    13  C   -0.517100
    14  C   -0.282683
    15  C   -0.381945
    16  C    0.168346
    17  C   -0.185991
    18  C   -0.137693
    19  C   -0.140329
    20  C   -0.138621
    21  C   -0.186057
    22  H    0.183565
    23  H    0.179818
    24  H    0.173905
    25  H    0.178334
    26  H    0.202193
    27  H    0.167464
    28  H    0.387211
    29  H    0.222625
    30  H    0.229683
    31  H    0.219919
    32  H    0.259283
    33  H    0.187655
    34  H    0.153571
    35  H    0.162624
    36  H    0.162987
    37  H    0.133498
    38  H    0.140901
    39  H    0.140273
    40  H    0.140846
    41  H    0.132896
 Sum of Mulliken charges =   0.00000
 Mulliken charges with hydrogens summed into heavy atoms:
               1
     1  C    0.213640
     2  N   -0.524851
     3  C    0.224588
     4  S    1.318152
     5  O   -0.560082
     6  O   -0.540397
     7  N   -0.336537
     8  C    0.186951
     9  C   -0.053393
    10  S    1.115431
    11  O   -0.529320
    12  O   -0.546562
    13  C   -0.037898
    14  C    0.058542
    15  C   -0.056334
    16  C    0.168346
    17  C   -0.052492
    18  C    0.003208
    19  C   -0.000056
    20  C    0.002225
    21  C   -0.053161
 Electronic spatial extent (au):  <R**2>=           8240.3879
 Charge=              0.0000 electrons
 Dipole moment (field-independent basis, Debye):
    X=             -6.7462    Y=             -6.2189    Z=             -2.3792  Tot=              9.4788
 Quadrupole moment (field-independent basis, Debye-Ang):
   XX=           -162.7221   YY=           -155.7458   ZZ=           -126.7650
   XY=              0.4003   XZ=              1.1562   YZ=            -12.3875
 Traceless Quadrupole moment (field-independent basis, Debye-Ang):
   XX=            -14.3111   YY=             -7.3349   ZZ=             21.6460
   XY=              0.4003   XZ=              1.1562   YZ=            -12.3875
 Octapole moment (field-independent basis, Debye-Ang**2):
  XXX=            -96.5821  YYY=           -151.3326  ZZZ=             -5.5495  XYY=            -33.9094
  XXY=            -21.7198  XXZ=             -5.1491  XZZ=              5.6318  YZZ=              6.1831
  YYZ=             -9.7979  XYZ=             -5.7184
 Hexadecapole moment (field-independent basis, Debye-Ang**3):
 XXXX=          -6313.8770 YYYY=          -3966.0039 ZZZZ=           -751.3611 XXXY=            172.7567
 XXXZ=             86.9461 YYYX=           -173.4920 YYYZ=           -133.9742 ZZZX=             -3.9321
 ZZZY=            -14.1503 XXYY=          -1864.5696 XXZZ=          -1140.1757 YYZZ=           -718.3888
 XXYZ=            -85.5894 YYXZ=             18.0420 ZZXY=             28.1230
 N-N= 2.159868281301D+03 E-N=-8.345163988680D+03  KE= 1.702532252779D+03
 No NMR shielding tensors so no spin-rotation constants.
 Leave Link  601 at Fri Oct  2 06:22:07 2020, MaxMem=  2147483648 cpu:         0.3
 (Enter /prod/apps/gaussian/g09d1/l9999.exe)
 1\1\GINC-PIRINEUS20\SP\RB3LYP\6-31G(d)\C13H20N2O4S2\UBAFAR01\02-Oct-20
 20\0\\#p b3lyp/6-31G(d) scrf=(iefpcm,read,solvent=n-Octanol) geom=allc
 heck guess=read\\SM40.n.8.pdb.xyz\\0,1\C,0,6.092,1.02,-0.247\N,0,5.757
 ,0.259,0.964\C,0,6.027,0.996,2.21\S,0,4.239,-0.49,0.904\O,0,3.977,-0.9
 53,2.266\O,0,3.259,0.342,0.201\N,0,4.412,-1.825,-0.082\C,0,5.371,-2.93
 4,0.102\C,0,4.801,-4.164,-0.685\S,0,4.711,-5.14,0.857\O,0,3.334,-5.488
 ,1.239\O,0,5.761,-6.171,0.916\C,0,5.268,-3.542,1.544\C,0,6.797,-2.543,
 -0.332\C,0,7.876,-3.633,-0.214\C,0,9.222,-3.133,-0.692\C,0,10.115,-2.5
 26,0.198\C,0,11.344,-2.035,-0.242\C,0,11.7,-2.145,-1.588\C,0,10.819,-2
 .751,-2.485\C,0,9.591,-3.24,-2.039\H,0,7.153,1.272,-0.195\H,0,5.504,1.
 94,-0.339\H,0,5.933,0.406,-1.134\H,0,7.095,1.222,2.225\H,0,5.779,0.367
 ,3.061\H,0,5.466,1.937,2.272\H,0,4.232,-1.579,-1.053\H,0,5.468,-4.605,
 -1.425\H,0,3.807,-3.997,-1.1\H,0,6.208,-3.628,2.089\H,0,4.5,-3.078,2.1
 6\H,0,7.091,-1.672,0.259\H,0,6.743,-2.213,-1.376\H,0,7.588,-4.518,-0.7
 92\H,0,7.963,-3.959,0.826\H,0,9.847,-2.444,1.248\H,0,12.025,-1.572,0.4
 65\H,0,12.657,-1.767,-1.933\H,0,11.089,-2.847,-3.532\H,0,8.914,-3.717,
 -2.743\\Version=AM64L-G09RevD.01\State=1-A\HF=-1714.0664869\RMSD=4.560
 e-09\Dipole=2.4764567,2.2242457,-1.6814204\Quadrupole=-7.502983,-6.736
 946,14.239929,3.2587149,8.6545001,6.9907509\PG=C01 [X(C13H20N2O4S2)]\\
 @


 THE SOLUTION TO A PROBLEM CHANGES THE PROBLEM.

                                 -- JOHN PEERS
           PAUL DICKSON'S "THE OFFICIAL RULES"
 Job cpu time:       0 days  0 hours  4 minutes 48.2 seconds.
 File lengths (MBytes):  RWF=    228 Int=      0 D2E=      0 Chk=      7 Scr=      1
 Normal termination of Gaussian 09 at Fri Oct  2 06:22:07 2020.
