 Entering Gaussian System, Link 0=g09
 Initial command:
 /prod/apps/gaussian/g09d1/l1.exe "/tmp/ubafar01/1462887/Gau-68198.inp" -scrdir="/tmp/ubafar01/1462887/"
 Entering Link 1 = /prod/apps/gaussian/g09d1/l1.exe PID=     68206.
  
 Copyright (c) 1988,1990,1992,1993,1995,1998,2003,2009,2013,
            Gaussian, Inc.  All Rights Reserved.
  
 This is part of the Gaussian(R) 09 program.  It is based on
 the Gaussian(R) 03 system (copyright 2003, Gaussian, Inc.),
 the Gaussian(R) 98 system (copyright 1998, Gaussian, Inc.),
 the Gaussian(R) 94 system (copyright 1995, Gaussian, Inc.),
 the Gaussian 92(TM) system (copyright 1992, Gaussian, Inc.),
 the Gaussian 90(TM) system (copyright 1990, Gaussian, Inc.),
 the Gaussian 88(TM) system (copyright 1988, Gaussian, Inc.),
 the Gaussian 86(TM) system (copyright 1986, Carnegie Mellon
 University), and the Gaussian 82(TM) system (copyright 1983,
 Carnegie Mellon University). Gaussian is a federally registered
 trademark of Gaussian, Inc.
  
 This software contains proprietary and confidential information,
 including trade secrets, belonging to Gaussian, Inc.
  
 This software is provided under written license and may be
 used, copied, transmitted, or stored only in accord with that
 written license.
  
 The following legend is applicable only to US Government
 contracts under FAR:
  
                    RESTRICTED RIGHTS LEGEND
  
 Use, reproduction and disclosure by the US Government is
 subject to restrictions as set forth in subparagraphs (a)
 and (c) of the Commercial Computer Software - Restricted
 Rights clause in FAR 52.227-19.
  
 Gaussian, Inc.
 340 Quinnipiac St., Bldg. 40, Wallingford CT 06492
  
  
 ---------------------------------------------------------------
 Warning -- This program may not be used in any manner that
 competes with the business of Gaussian, Inc. or will provide
 assistance to any competitor of Gaussian, Inc.  The licensee
 of this program is prohibited from giving any competitor of
 Gaussian, Inc. access to this program.  By using this program,
 the user acknowledges that Gaussian, Inc. is engaged in the
 business of creating and licensing software in the field of
 computational chemistry and represents and warrants to the
 licensee that it is not a competitor of Gaussian, Inc. and that
 it will not use this program in any manner prohibited above.
 ---------------------------------------------------------------
  

 Cite this work as:
 Gaussian 09, Revision D.01,
 M. J. Frisch, G. W. Trucks, H. B. Schlegel, G. E. Scuseria, 
 M. A. Robb, J. R. Cheeseman, G. Scalmani, V. Barone, B. Mennucci, 
 G. A. Petersson, H. Nakatsuji, M. Caricato, X. Li, H. P. Hratchian, 
 A. F. Izmaylov, J. Bloino, G. Zheng, J. L. Sonnenberg, M. Hada, 
 M. Ehara, K. Toyota, R. Fukuda, J. Hasegawa, M. Ishida, T. Nakajima, 
 Y. Honda, O. Kitao, H. Nakai, T. Vreven, J. A. Montgomery, Jr., 
 J. E. Peralta, F. Ogliaro, M. Bearpark, J. J. Heyd, E. Brothers, 
 K. N. Kudin, V. N. Staroverov, T. Keith, R. Kobayashi, J. Normand, 
 K. Raghavachari, A. Rendell, J. C. Burant, S. S. Iyengar, J. Tomasi, 
 M. Cossi, N. Rega, J. M. Millam, M. Klene, J. E. Knox, J. B. Cross, 
 V. Bakken, C. Adamo, J. Jaramillo, R. Gomperts, R. E. Stratmann, 
 O. Yazyev, A. J. Austin, R. Cammi, C. Pomelli, J. W. Ochterski, 
 R. L. Martin, K. Morokuma, V. G. Zakrzewski, G. A. Voth, 
 P. Salvador, J. J. Dannenberg, S. Dapprich, A. D. Daniels, 
 O. Farkas, J. B. Foresman, J. V. Ortiz, J. Cioslowski, 
 and D. J. Fox, Gaussian, Inc., Wallingford CT, 2013.
 
 ******************************************
 Gaussian 09:  AM64L-G09RevD.01 24-Apr-2013
                 2-Oct-2020 
 ******************************************
 %nproc=1
 Will use up to    1 processors via shared memory.
 %Chk=SM40.n.22.pdb.xyz.mst.n.w.chk
 %mem=16GB
 -----------------
 #p b3lyp/6-31G(d)
 -----------------
 1/38=1/1;
 2/12=2,17=6,18=5,40=1/2;
 3/5=1,6=6,7=1,11=2,16=1,25=1,30=1,74=-5/1,2,3;
 4//1;
 5/5=2,38=5/2;
 6/7=2,8=2,9=2,10=2,28=1/1;
 99/5=1,9=1/99;
 Leave Link    1 at Fri Oct  2 02:01:19 2020, MaxMem=  2147483648 cpu:         0.0
 (Enter /prod/apps/gaussian/g09d1/l101.exe)
 -----------------
 SM40.n.22.pdb.xyz
 -----------------
 Symbolic Z-matrix:
 Charge =  0 Multiplicity = 1
 C                     3.297     0.938     2.139 
 N                     3.228    -0.078     1.073 
 C                     1.877    -0.242     0.513 
 S                     4.441     0.061    -0.085 
 O                     4.092     0.994    -1.168 
 O                     5.683     0.289     0.668 
 N                     4.372    -1.457    -0.786 
 C                     5.179    -2.603    -0.294 
 C                     4.511    -3.89     -0.887 
 S                     3.724    -4.232     0.72 
 O                     2.303    -3.828     0.756 
 O                     4.086    -5.545     1.292 
 C                     4.844    -2.878     1.208 
 C                     6.671    -2.419    -0.635 
 C                     7.657    -3.54     -0.251 
 C                     7.65     -4.773    -1.135 
 C                     7.867    -4.665    -2.516 
 C                     7.894    -5.797    -3.328 
 C                     7.706    -7.065    -2.772 
 C                     7.492    -7.188    -1.399 
 C                     7.466    -6.05     -0.589 
 H                     2.618     0.617     2.931 
 H                     2.991     1.932     1.791 
 H                     4.31      0.982     2.534 
 H                     1.219    -0.534     1.333 
 H                     1.89     -1.039    -0.229 
 H                     1.501     0.683     0.061 
 H                     4.44     -1.343    -1.799 
 H                     5.225    -4.678    -1.122 
 H                     3.808    -3.733    -1.703 
 H                     5.679    -3.271     1.788 
 H                     4.334    -2.073     1.734 
 H                     6.987    -1.495    -0.146 
 H                     6.739    -2.239    -1.713 
 H                     7.52     -3.841     0.793 
 H                     8.656    -3.09     -0.298 
 H                     8.017    -3.684    -2.957 
 H                     8.064    -5.691    -4.395 
 H                     7.726    -7.947    -3.404 
 H                     7.344    -8.168    -0.955 
 H                     7.294    -6.151     0.478 
 
 NAtoms=     41 NQM=       41 NQMF=       0 NMMI=      0 NMMIF=      0
                NMic=       0 NMicF=      0.
                    Isotopes and Nuclear Properties:
 (Nuclear quadrupole moments (NQMom) in fm**2, nuclear magnetic moments (NMagM)
  in nuclear magnetons)

  Atom         1           2           3           4           5           6           7           8           9          10
 IAtWgt=          12          14          12          32          16          16          14          12          12          32
 AtmWgt=  12.0000000  14.0030740  12.0000000  31.9720718  15.9949146  15.9949146  14.0030740  12.0000000  12.0000000  31.9720718
 NucSpn=           0           2           0           0           0           0           2           0           0           0
 AtZEff=   0.0000000   0.0000000   0.0000000   0.0000000   0.0000000   0.0000000   0.0000000   0.0000000   0.0000000   0.0000000
 NQMom=    0.0000000   2.0440000   0.0000000   0.0000000   0.0000000   0.0000000   2.0440000   0.0000000   0.0000000   0.0000000
 NMagM=    0.0000000   0.4037610   0.0000000   0.0000000   0.0000000   0.0000000   0.4037610   0.0000000   0.0000000   0.0000000
 AtZNuc=   6.0000000   7.0000000   6.0000000  16.0000000   8.0000000   8.0000000   7.0000000   6.0000000   6.0000000  16.0000000

  Atom        11          12          13          14          15          16          17          18          19          20
 IAtWgt=          16          16          12          12          12          12          12          12          12          12
 AtmWgt=  15.9949146  15.9949146  12.0000000  12.0000000  12.0000000  12.0000000  12.0000000  12.0000000  12.0000000  12.0000000
 NucSpn=           0           0           0           0           0           0           0           0           0           0
 AtZEff=   0.0000000   0.0000000   0.0000000   0.0000000   0.0000000   0.0000000   0.0000000   0.0000000   0.0000000   0.0000000
 NQMom=    0.0000000   0.0000000   0.0000000   0.0000000   0.0000000   0.0000000   0.0000000   0.0000000   0.0000000   0.0000000
 NMagM=    0.0000000   0.0000000   0.0000000   0.0000000   0.0000000   0.0000000   0.0000000   0.0000000   0.0000000   0.0000000
 AtZNuc=   8.0000000   8.0000000   6.0000000   6.0000000   6.0000000   6.0000000   6.0000000   6.0000000   6.0000000   6.0000000

  Atom        21          22          23          24          25          26          27          28          29          30
 IAtWgt=          12           1           1           1           1           1           1           1           1           1
 AtmWgt=  12.0000000   1.0078250   1.0078250   1.0078250   1.0078250   1.0078250   1.0078250   1.0078250   1.0078250   1.0078250
 NucSpn=           0           1           1           1           1           1           1           1           1           1
 AtZEff=   0.0000000   0.0000000   0.0000000   0.0000000   0.0000000   0.0000000   0.0000000   0.0000000   0.0000000   0.0000000
 NQMom=    0.0000000   0.0000000   0.0000000   0.0000000   0.0000000   0.0000000   0.0000000   0.0000000   0.0000000   0.0000000
 NMagM=    0.0000000   2.7928460   2.7928460   2.7928460   2.7928460   2.7928460   2.7928460   2.7928460   2.7928460   2.7928460
 AtZNuc=   6.0000000   1.0000000   1.0000000   1.0000000   1.0000000   1.0000000   1.0000000   1.0000000   1.0000000   1.0000000

  Atom        31          32          33          34          35          36          37          38          39          40
 IAtWgt=           1           1           1           1           1           1           1           1           1           1
 AtmWgt=   1.0078250   1.0078250   1.0078250   1.0078250   1.0078250   1.0078250   1.0078250   1.0078250   1.0078250   1.0078250
 NucSpn=           1           1           1           1           1           1           1           1           1           1
 AtZEff=   0.0000000   0.0000000   0.0000000   0.0000000   0.0000000   0.0000000   0.0000000   0.0000000   0.0000000   0.0000000
 NQMom=    0.0000000   0.0000000   0.0000000   0.0000000   0.0000000   0.0000000   0.0000000   0.0000000   0.0000000   0.0000000
 NMagM=    2.7928460   2.7928460   2.7928460   2.7928460   2.7928460   2.7928460   2.7928460   2.7928460   2.7928460   2.7928460
 AtZNuc=   1.0000000   1.0000000   1.0000000   1.0000000   1.0000000   1.0000000   1.0000000   1.0000000   1.0000000   1.0000000

  Atom        41
 IAtWgt=           1
 AtmWgt=   1.0078250
 NucSpn=           1
 AtZEff=   0.0000000
 NQMom=    0.0000000
 NMagM=    2.7928460
 AtZNuc=   1.0000000
 Leave Link  101 at Fri Oct  2 02:01:19 2020, MaxMem=  2147483648 cpu:         0.2
 (Enter /prod/apps/gaussian/g09d1/l202.exe)
                          Input orientation:                          
 ---------------------------------------------------------------------
 Center     Atomic      Atomic             Coordinates (Angstroms)
 Number     Number       Type             X           Y           Z
 ---------------------------------------------------------------------
      1          6           0        3.297000    0.938000    2.139000
      2          7           0        3.228000   -0.078000    1.073000
      3          6           0        1.877000   -0.242000    0.513000
      4         16           0        4.441000    0.061000   -0.085000
      5          8           0        4.092000    0.994000   -1.168000
      6          8           0        5.683000    0.289000    0.668000
      7          7           0        4.372000   -1.457000   -0.786000
      8          6           0        5.179000   -2.603000   -0.294000
      9          6           0        4.511000   -3.890000   -0.887000
     10         16           0        3.724000   -4.232000    0.720000
     11          8           0        2.303000   -3.828000    0.756000
     12          8           0        4.086000   -5.545000    1.292000
     13          6           0        4.844000   -2.878000    1.208000
     14          6           0        6.671000   -2.419000   -0.635000
     15          6           0        7.657000   -3.540000   -0.251000
     16          6           0        7.650000   -4.773000   -1.135000
     17          6           0        7.867000   -4.665000   -2.516000
     18          6           0        7.894000   -5.797000   -3.328000
     19          6           0        7.706000   -7.065000   -2.772000
     20          6           0        7.492000   -7.188000   -1.399000
     21          6           0        7.466000   -6.050000   -0.589000
     22          1           0        2.618000    0.617000    2.931000
     23          1           0        2.991000    1.932000    1.791000
     24          1           0        4.310000    0.982000    2.534000
     25          1           0        1.219000   -0.534000    1.333000
     26          1           0        1.890000   -1.039000   -0.229000
     27          1           0        1.501000    0.683000    0.061000
     28          1           0        4.440000   -1.343000   -1.799000
     29          1           0        5.225000   -4.678000   -1.122000
     30          1           0        3.808000   -3.733000   -1.703000
     31          1           0        5.679000   -3.271000    1.788000
     32          1           0        4.334000   -2.073000    1.734000
     33          1           0        6.987000   -1.495000   -0.146000
     34          1           0        6.739000   -2.239000   -1.713000
     35          1           0        7.520000   -3.841000    0.793000
     36          1           0        8.656000   -3.090000   -0.298000
     37          1           0        8.017000   -3.684000   -2.957000
     38          1           0        8.064000   -5.691000   -4.395000
     39          1           0        7.726000   -7.947000   -3.404000
     40          1           0        7.344000   -8.168000   -0.955000
     41          1           0        7.294000   -6.151000    0.478000
 ---------------------------------------------------------------------
                    Distance matrix (angstroms):
                    1          2          3          4          5
     1  C    0.000000
     2  N    1.474236   0.000000
     3  C    2.460219   1.471631   0.000000
     4  S    2.650291   1.682752   2.650190   0.000000
     5  O    3.401678   2.630164   3.042973   1.471455   0.000000
     6  O    2.877158   2.515102   3.845988   1.470223   2.529664
     7  N    3.930302   2.581910   3.064091   1.673465   2.496342
     8  C    4.690426   3.471414   4.138692   2.772223   3.857960
     9  C    5.825809   4.474263   4.712309   4.032184   4.909988
    10  S    5.378177   4.198374   4.401631   4.426281   5.568756
    11  O    5.061174   3.875386   3.619381   4.516929   5.491264
    12  O    6.585531   5.538250   5.797269   5.783545   6.986427
    13  C    4.221590   3.235689   4.029220   3.236044   4.604700
    14  C    5.508938   4.500199   5.388847   3.380207   4.310905
    15  C    6.691351   5.775332   6.698425   4.830881   5.840143
    16  C    7.891971   6.817065   7.521529   5.896417   6.776337
    17  C    8.599275   7.445926   8.038524   6.323157   6.934840
    18  C    9.817368   8.593446   9.045197   7.533686   8.077034
    19  C   10.373293   9.146293   9.556244   8.286137   8.976708
    20  C    9.805475   8.651276   9.134051   7.973907   8.863322
    21  C    8.582231   7.509173   8.135367   6.837321   7.831798
    22  H    1.091488   2.075401   2.670896   3.567733   4.372254
    23  H    1.096711   2.147509   2.756911   3.020350   3.293589
    24  H    1.088177   2.104482   3.391475   2.779310   3.708433
    25  H    2.671049   2.076443   1.091159   3.570159   4.104134
    26  H    3.390516   2.099755   1.089010   2.781787   3.140639
    27  H    2.758392   2.141447   1.096041   3.008621   2.884518
    28  H    4.692255   3.364157   3.623053   2.215629   2.445574
    29  H    6.774272   5.474124   5.793136   4.914076   5.784236
    30  H    6.069623   4.626186   4.563606   4.172895   4.765649
    31  H    4.849001   4.088261   5.025502   4.017835   5.426484
    32  H    3.210220   2.374907   3.298523   2.806094   4.229262
    33  H    4.975622   4.198087   5.302489   2.984455   3.952294
    34  H    6.064536   4.975825   5.708076   3.636095   4.213778
    35  H    6.517997   5.714878   6.698854   5.047448   6.242910
    36  H    7.133206   6.357277   7.397545   5.266915   6.185956
    37  H    8.343291   7.223480   7.847794   5.921249   6.363162
    38  H   10.457585   9.208240   9.594740   8.049083   8.418999
    39  H   11.370317  10.109238  10.436509   9.270116   9.906923
    40  H   10.434092   9.300663   9.739845   8.769307   9.724357
    41  H    8.305953   7.332647   8.016321   6.858974   8.000822
                    6          7          8          9         10
     6  O    0.000000
     7  N    2.623233   0.000000
     8  C    3.089195   1.485473   0.000000
     9  C    4.610385   2.439059   1.566602   0.000000
    10  S    4.927456   3.223130   2.408083   1.821752   0.000000
    11  O    5.327460   3.504307   3.297651   2.752918   1.477753
    12  O    6.080735   4.594739   3.516448   2.769060   1.477226
    13  C    3.320453   2.493604   1.563283   2.350331   1.823694
    14  C    3.163419   2.496727   1.541493   2.625442   3.715885
    15  C    4.404824   3.926365   2.649585   3.228670   4.109768
    16  C    5.722215   4.675782   3.394410   3.270247   4.375749
    17  C    6.280910   5.049672   4.051478   3.810118   5.274811
    18  C    7.608938   6.140183   5.174748   4.586918   6.018673
    19  C    8.367045   6.819781   5.695231   4.882814   6.006353
    20  C    7.965582   6.553971   5.252925   4.474965   5.236976
    21  C    6.703884   5.541416   4.147192   3.672387   4.361327
    22  H    3.824000   4.603703   5.227595   6.202711   5.442845
    23  H    3.347752   4.475870   5.449843   6.586180   6.299145
    24  H    2.418126   4.120069   4.648115   5.956511   5.551557
    25  H    4.587685   3.909412   4.754944   5.198884   4.508436
    26  H    4.117650   2.577847   3.642505   3.928206   3.802553
    27  H    4.244150   3.679626   4.944846   5.556180   5.434449
    28  H    3.208514   1.021660   2.097319   2.706288   3.899274
    29  H    5.299524   3.348932   2.234575   1.089020   2.417619
    30  H    5.031277   2.517769   2.267559   1.088446   2.475275
    31  H    3.732026   3.409446   2.242977   2.983791   2.426143
    32  H    2.921507   2.594475   2.260024   3.194129   2.462027
    33  H    2.354924   2.692447   2.125660   3.523589   4.346066
    34  H    3.629749   2.659613   2.140013   2.893451   4.356807
    35  H    4.521846   4.252834   2.862603   3.446575   3.816782
    36  H    4.603208   4.610584   3.510942   4.262387   5.163827
    37  H    5.862841   4.791534   4.039106   4.076686   5.678951
    38  H    8.189233   6.677013   5.888732   5.307869   6.864948
    39  H    9.412052   7.760370   6.687125   5.755933   6.842851
    40  H    8.770057   7.341585   6.007776   5.131452   5.603760
    41  H    6.641161   5.671809   4.202084   3.836722   4.060299
                   11         12         13         14         15
    11  O    0.000000
    12  O    2.532681   0.000000
    13  C    2.750179   2.773898   0.000000
    14  C    4.795788   4.490816   2.635386   0.000000
    15  C    5.455484   4.376404   3.237266   1.541523   0.000000
    16  C    5.749723   4.380458   4.117561   2.598029   1.517166
    17  C    6.508813   5.437943   5.118601   3.164347   2.537706
    18  C    7.198284   5.992393   6.196641   4.489862   3.823369
    19  C    7.219236   5.650743   6.446892   5.217596   4.333990
    20  C    6.546705   4.641311   5.690734   4.899092   3.827928
    21  C    5.779522   3.900972   4.490621   3.717298   2.539847
    22  H    4.958616   6.543057   4.487631   6.193582   7.266175
    23  H    5.892552   7.573213   5.187446   6.193471   7.475567
    24  H    5.506853   6.647892   4.116191   5.213797   6.277509
    25  H    3.515455   5.773343   4.318632   6.095125   7.279625
    26  H    2.986522   5.238310   3.764705   4.992714   6.285998
    27  H    4.634150   6.854602   5.017168   6.069244   7.471774
    28  H    4.155721   5.228422   3.400219   2.736792   4.191921
    29  H    3.575957   2.806494   2.968848   2.726017   2.822819
    30  H    2.884568   3.511503   3.205970   3.326258   4.118295
    31  H    3.573884   2.820415   1.089988   2.753343   2.853483
    32  H    2.856829   3.508796   1.088486   3.345661   4.139401
    33  H    5.310023   5.185185   2.887638   1.092132   2.154519
    34  H    5.319678   5.195967   3.539998   1.095038   2.161659
    35  H    5.217147   3.865873   2.874121   2.186794   1.095128
    36  H    6.481988   5.425866   4.104184   2.122271   1.096681
    37  H    6.815930   6.080303   5.297621   2.967090   2.733637
    38  H    7.949383   6.941741   7.048048   5.175329   4.686703
    39  H    7.980018   6.408714   7.434462   6.272095   5.419208
    40  H    6.868392   4.748021   6.238002   5.797097   4.691691
    41  H    5.512141   3.364684   4.153063   3.943948   2.735056
                   16         17         18         19         20
    16  C    0.000000
    17  C    1.402111   0.000000
    18  C    2.432563   1.393376   0.000000
    19  C    2.817121   2.418979   1.397249   0.000000
    20  C    2.434519   2.784572   2.411955   1.395010   0.000000
    21  C    1.400964   2.406731   2.783759   2.419362   1.397076
    22  H    8.420539   9.226122  10.399551  10.836285  10.169700
    23  H    8.673222   9.265313  10.487183  11.135448  10.658776
    24  H    7.598499   8.369191   9.652095  10.219621   9.609501
    25  H    8.088134   8.722148   9.694314  10.078996   9.544112
    26  H    6.923958   7.355459   8.263799   8.752450   8.400090
    27  H    8.307139   8.704481   9.713196  10.322762   9.998816
    28  H    4.744460   4.826396   5.840040   6.659938   6.605962
    29  H    2.426895   2.987234   3.638978   3.817804   3.393541
    30  H    4.020595   4.243239   4.857583   5.238262   5.059772
    31  H    3.832072   5.025435   6.120487   6.268713   5.365336
    32  H    5.149468   6.104347   7.222577   7.522931   6.778781
    33  H    3.487546   4.054652   5.427244   6.199817   5.851092
    34  H    2.754117   2.793326   4.074508   5.034565   5.015796
    35  H    2.145392   3.427662   4.576948   4.810197   4.001007
    36  H    2.131923   2.832432   4.133932   4.777426   4.400080
    37  H    2.154134   1.085975   2.148846   3.400310   3.870530
    38  H    3.411996   2.149913   1.085645   2.156425   3.397677
    39  H    3.902360   3.402932   2.157892   1.085241   2.156586
    40  H    3.413512   3.870563   3.399304   2.156187   1.086020
    41  H    2.151137   3.391248   3.869231   3.401123   2.153532
                   21         22         23         24         25
    21  C    0.000000
    22  H    8.963392   0.000000
    23  H    9.455282   1.779875   0.000000
    24  H    8.316399   1.775865   1.787263   0.000000
    25  H    8.552505   2.415700   3.070978   3.646222   0.000000
    26  H    7.505431   3.641143   3.757585   4.192256   1.773446
    27  H    9.018704   3.080413   2.602499   3.754412   1.782862
    28  H    5.725087   5.434536   5.070831   4.919087   4.564948
    29  H    2.681148   7.159629   7.560980   6.799938   6.264806
    30  H    4.471068   6.466263   6.705800   6.358883   5.114080
    31  H    4.070177   5.078653   5.856327   4.529756   5.252599
    32  H    5.569765   3.407868   4.224562   3.158101   3.497506
    33  H    4.601491   5.746010   5.609306   4.525954   6.031649
    34  H    4.039261   6.834187   6.612319   5.857635   6.531121
    35  H    2.606247   6.962357   7.405091   6.049505   7.136557
    36  H    3.203495   7.786253   7.853447   6.594628   8.031330
    37  H    3.392489   9.072836   8.907504   8.103363   8.633621
    38  H    3.869383  11.095948  11.050432  10.326301  10.308184
    39  H    3.404473  11.813805  12.124475  11.254152  10.942248
    40  H    2.152850  10.705713  11.335745  10.251867  10.051295
    41  H    1.085483   8.584172   9.250658   8.000693   8.317893
                   26         27         28         29         30
    26  H    0.000000
    27  H    1.789051   0.000000
    28  H    3.009953   4.025170   0.000000
    29  H    5.016173   6.633852   3.492389   0.000000
    30  H    3.620640   5.285357   2.474013   1.799576   0.000000
    31  H    4.838040   6.006024   4.256627   3.264026   3.987627
    32  H    3.300858   4.291894   3.609186   3.966944   3.852953
    33  H    5.118030   5.906160   3.040185   3.766790   4.187951
    34  H    5.211051   6.254743   2.468930   2.930904   3.289817
    35  H    6.371231   7.565102   4.737602   3.104000   4.474441
    36  H    7.070369   8.096816   4.804130   3.869429   5.088278
    37  H    7.209587   8.404598   4.429015   3.485760   4.392106
    38  H    8.781511  10.176285   6.227174   4.449564   5.403162
    39  H    9.584361  11.190789   7.548949   4.706260   6.000160
    40  H    9.005322  10.654253   7.464997   4.086337   5.721191
    41  H    7.472323   8.968628   6.037128   3.001748   4.770292
                   31         32         33         34         35
    31  H    0.000000
    32  H    1.801984   0.000000
    33  H    2.933496   3.302559   0.000000
    34  H    3.800740   4.206351   1.752292   0.000000
    35  H    2.168918   3.763230   2.582543   3.075126   0.000000
    36  H    3.639600   4.882929   2.313588   2.530082   1.744929
    37  H    5.305831   6.177806   3.708685   2.295396   3.786048
    38  H    7.055077   8.035388   6.067977   4.567828   5.534779
    39  H    7.280937   8.509323   7.265603   6.034477   5.875073
    40  H    5.854646   7.310256   6.731334   6.007797   4.670054
    41  H    3.552284   5.193190   4.707649   4.517992   2.342307
                   36         37         38         39         40
    36  H    0.000000
    37  H    2.798471   0.000000
    38  H    4.888872   2.469434   0.000000
    39  H    5.839742   4.296238   2.487139   0.000000
    40  H    5.285743   4.956530   4.299713   2.488447   0.000000
    41  H    3.439032   4.290460   4.954859   4.299089   2.474728
                   41
    41  H    0.000000
 Stoichiometry    C13H20N2O4S2
 Framework group  C1[X(C13H20N2O4S2)]
 Deg. of freedom   117
 Full point group                 C1      NOp   1
 Largest Abelian subgroup         C1      NOp   1
 Largest concise Abelian subgroup C1      NOp   1
                         Standard orientation:                         
 ---------------------------------------------------------------------
 Center     Atomic      Atomic             Coordinates (Angstroms)
 Number     Number       Type             X           Y           Z
 ---------------------------------------------------------------------
      1          6           0        4.685274    0.022554    1.075101
      2          7           0        3.574838    0.182843    0.118748
      3          6           0        3.961439    0.902228   -1.105475
      4         16           0        2.701110   -1.228255   -0.158840
      5          8           0        3.286740   -2.062798   -1.219855
      6          8           0        2.482007   -1.825492    1.166626
      7          7           0        1.303732   -0.597490   -0.829629
      8          6           0        0.127865   -0.207749   -0.009831
      9          6           0       -0.743795    0.724953   -0.917860
     10         16           0       -0.110253    2.188377   -0.037065
     11          8           0        0.952854    2.888949   -0.787236
     12          8           0       -1.166275    3.005498    0.594859
     13          6           0        0.550217    0.872141    1.038649
     14          6           0       -0.597199   -1.448859    0.547062
     15          6           0       -1.878723   -1.240884    1.378167
     16          6           0       -3.137416   -0.906405    0.599957
     17          6           0       -3.594826   -1.753059   -0.419782
     18          6           0       -4.767690   -1.467959   -1.115917
     19          6           0       -5.510620   -0.326736   -0.802917
     20          6           0       -5.069242    0.523254    0.211360
     21          6           0       -3.892722    0.232974    0.906599
     22          1           0        5.025009    1.025044    1.341446
     23          1           0        5.527744   -0.535787    0.649335
     24          1           0        4.324482   -0.481012    1.969740
     25          1           0        4.322347    1.886613   -0.803216
     26          1           0        3.085427    1.027903   -1.740102
     27          1           0        4.752103    0.382693   -1.658863
     28          1           0        1.042778   -1.179968   -1.627382
     29          1           0       -1.813457    0.623380   -0.740458
     30          1           0       -0.513196    0.710610   -1.981501
     31          1           0       -0.010616    0.832609    1.972446
     32          1           0        1.619937    0.965477    1.216941
     33          1           0        0.132333   -1.982521    1.160040
     34          1           0       -0.825755   -2.101082   -0.302335
     35          1           0       -1.722128   -0.486845    2.156761
     36          1           0       -2.046232   -2.183903    1.912364
     37          1           0       -3.025782   -2.643974   -0.668383
     38          1           0       -5.104270   -2.137168   -1.901728
     39          1           0       -6.423717   -0.103612   -1.345335
     40          1           0       -5.637573    1.413656    0.463599
     41          1           0       -3.551119    0.900487    1.691461
 ---------------------------------------------------------------------
 Rotational constants (GHZ):      0.4932568      0.1604150      0.1362812
 Leave Link  202 at Fri Oct  2 02:01:19 2020, MaxMem=  2147483648 cpu:         0.0
 (Enter /prod/apps/gaussian/g09d1/l301.exe)
 Standard basis: 6-31G(d) (6D, 7F)
 Ernie: Thresh=  0.10000D-02 Tol=  0.10000D-05 Strict=F.
 There are   363 symmetry adapted cartesian basis functions of A   symmetry.
 There are   363 symmetry adapted basis functions of A   symmetry.
   363 basis functions,   716 primitive gaussians,   363 cartesian basis functions
    88 alpha electrons       88 beta electrons
       nuclear repulsion energy      2202.5925506110 Hartrees.
 IExCor=  402 DFT=T Ex+Corr=B3LYP ExCW=0 ScaHFX=  0.200000
 ScaDFX=  0.800000  0.720000  1.000000  0.810000 ScalE2=  1.000000  1.000000
 IRadAn=      0 IRanWt=     -1 IRanGd=            0 ICorTp=0 IEmpDi=  4
 NAtoms=   41 NActive=   41 NUniq=   41 SFac= 1.00D+00 NAtFMM=   60 NAOKFM=F Big=F
 Integral buffers will be    131072 words long.
 Raffenetti 2 integral format.
 Two-electron integral symmetry is turned on.
 Leave Link  301 at Fri Oct  2 02:01:19 2020, MaxMem=  2147483648 cpu:         0.1
 (Enter /prod/apps/gaussian/g09d1/l302.exe)
 NPDir=0 NMtPBC=     1 NCelOv=     1 NCel=       1 NClECP=     1 NCelD=      1
         NCelK=      1 NCelE2=     1 NClLst=     1 CellRange=     0.0.
 One-electron integrals computed using PRISM.
 NBasis=   363 RedAO= T EigKep=  4.68D-04  NBF=   363
 NBsUse=   363 1.00D-06 EigRej= -1.00D+00 NBFU=   363
 Precomputing XC quadrature grid using
 IXCGrd= 4 IRadAn=           0 IRanWt=          -1 IRanGd=           0 AccXCQ= 0.00D+00.
 Generated NRdTot=       0 NPtTot=           0 NUsed=           0 NTot=          32
 NSgBfM=   359   359   359   359   359 MxSgAt=    41 MxSgA2=    41.
 Leave Link  302 at Fri Oct  2 02:01:20 2020, MaxMem=  2147483648 cpu:         1.3
 (Enter /prod/apps/gaussian/g09d1/l303.exe)
 DipDrv:  MaxL=1.
 Leave Link  303 at Fri Oct  2 02:01:20 2020, MaxMem=  2147483648 cpu:         0.0
 (Enter /prod/apps/gaussian/g09d1/l401.exe)
 ExpMin= 1.17D-01 ExpMax= 2.19D+04 ExpMxC= 3.30D+03 IAcc=1 IRadAn=         1 AccDes= 0.00D+00
 Harris functional with IExCor=  402 and IRadAn=       1 diagonalized for initial guess.
 HarFok:  IExCor=  402 AccDes= 0.00D+00 IRadAn=         1 IDoV= 1 UseB2=F ITyADJ=14
 ICtDFT=  3500011 ScaDFX=  1.000000  1.000000  1.000000  1.000000
 FoFCou: FMM=F IPFlag=           0 FMFlag=      100000 FMFlg1=           0
         NFxFlg=           0 DoJE=T BraDBF=F KetDBF=T FulRan=T
         wScrn=  0.000000 ICntrl=     500 IOpCl=  0 I1Cent=   200000004 NGrid=           0
         NMat0=    1 NMatS0=      1 NMatT0=    0 NMatD0=    1 NMtDS0=    0 NMtDT0=    0
 Petite list used in FoFCou.
 Harris En= -1714.14712351556    
 JPrj=0 DoOrth=F DoCkMO=F.
 Leave Link  401 at Fri Oct  2 02:01:25 2020, MaxMem=  2147483648 cpu:         4.8
 (Enter /prod/apps/gaussian/g09d1/l502.exe)
 Closed shell SCF:
 Using DIIS extrapolation, IDIIS=  1040.
 Integral symmetry usage will be decided dynamically.
 IVT=      418784 IEndB=      418784 NGot=  2147483648 MDV=  2147213637
 LenX=  2147213637 LenY=  2147081427
 Requested convergence on RMS density matrix=1.00D-08 within 128 cycles.
 Requested convergence on MAX density matrix=1.00D-06.
 Requested convergence on             energy=1.00D-06.
 No special actions if energy rises.
 Fock matrices will be formed incrementally for  20 cycles.
 Integral accuracy reduced to 1.0D-05 until final iterations.

 Cycle   1  Pass 0  IDiag  1:
 FoFJK:  IHMeth= 1 ICntrl=       0 DoSepK=F KAlg= 0 I1Cent=   0 FoldK=F
 IRaf= 750000000 NMat=   1 IRICut=       1 DoRegI=T DoRafI=F ISym2E= 0.
 FoFCou: FMM=F IPFlag=           0 FMFlag=      100000 FMFlg1=           0
         NFxFlg=           0 DoJE=F BraDBF=F KetDBF=F FulRan=T
         wScrn=  0.000000 ICntrl=       0 IOpCl=  0 I1Cent=           0 NGrid=           0
         NMat0=    1 NMatS0=      1 NMatT0=    0 NMatD0=    1 NMtDS0=    0 NMtDT0=    0
 Symmetry not used in FoFCou.
 E= -1713.19786255911    
 DIIS: error= 4.87D-02 at cycle   1 NSaved=   1.
 NSaved= 1 IEnMin= 1 EnMin= -1713.19786255911     IErMin= 1 ErrMin= 4.87D-02
 ErrMax= 4.87D-02  0.00D+00 EMaxC= 1.00D-01 BMatC= 9.92D-01 BMatP= 9.92D-01
 IDIUse=3 WtCom= 5.13D-01 WtEn= 4.87D-01
 Coeff-Com:  0.100D+01
 Coeff-En:   0.100D+01
 Coeff:      0.100D+01
 Gap=     0.345 Goal=   None    Shift=    0.000
 GapD=    0.345 DampG=1.000 DampE=0.500 DampFc=0.5000 IDamp=-1.
 Damping current iteration by 5.00D-01
 RMSDP=7.03D-03 MaxDP=6.03D-01              OVMax= 2.41D-01

 Cycle   2  Pass 0  IDiag  1:
 RMSU=  3.51D-03    CP:  9.99D-01
 E= -1713.37038782833     Delta-E=       -0.172525269219 Rises=F Damp=T
 DIIS: error= 1.95D-02 at cycle   2 NSaved=   2.
 NSaved= 2 IEnMin= 2 EnMin= -1713.37038782833     IErMin= 2 ErrMin= 1.95D-02
 ErrMax= 1.95D-02  0.00D+00 EMaxC= 1.00D-01 BMatC= 1.74D-01 BMatP= 9.92D-01
 IDIUse=3 WtCom= 8.05D-01 WtEn= 1.95D-01
 Coeff-Com:  0.253D+00 0.747D+00
 Coeff-En:   0.398D+00 0.602D+00
 Coeff:      0.281D+00 0.719D+00
 Gap=     0.299 Goal=   None    Shift=    0.000
 RMSDP=2.06D-03 MaxDP=1.27D-01 DE=-1.73D-01 OVMax= 2.07D-01

 Cycle   3  Pass 0  IDiag  1:
 RMSU=  1.65D-03    CP:  9.90D-01  6.50D-01
 E= -1713.94709492401     Delta-E=       -0.576707095675 Rises=F Damp=F
 DIIS: error= 1.06D-02 at cycle   3 NSaved=   3.
 NSaved= 3 IEnMin= 3 EnMin= -1713.94709492401     IErMin= 3 ErrMin= 1.06D-02
 ErrMax= 1.06D-02  0.00D+00 EMaxC= 1.00D-01 BMatC= 9.93D-02 BMatP= 1.74D-01
 IDIUse=3 WtCom= 8.94D-01 WtEn= 1.06D-01
 Coeff-Com:  0.108D+00 0.435D+00 0.457D+00
 Coeff-En:   0.000D+00 0.000D+00 0.100D+01
 Coeff:      0.964D-01 0.389D+00 0.515D+00
 Gap=     0.241 Goal=   None    Shift=    0.000
 RMSDP=1.30D-03 MaxDP=4.31D-02 DE=-5.77D-01 OVMax= 8.11D-02

 Cycle   4  Pass 0  IDiag  1:
 RMSU=  7.59D-04    CP:  9.95D-01  7.25D-01  3.85D-01
 E= -1714.02696885947     Delta-E=       -0.079873935465 Rises=F Damp=F
 DIIS: error= 4.02D-03 at cycle   4 NSaved=   4.
 NSaved= 4 IEnMin= 4 EnMin= -1714.02696885947     IErMin= 4 ErrMin= 4.02D-03
 ErrMax= 4.02D-03  0.00D+00 EMaxC= 1.00D-01 BMatC= 1.46D-02 BMatP= 9.93D-02
 IDIUse=3 WtCom= 9.60D-01 WtEn= 4.02D-02
 Coeff-Com:  0.135D-01 0.771D-01 0.288D+00 0.622D+00
 Coeff-En:   0.000D+00 0.000D+00 0.131D+00 0.869D+00
 Coeff:      0.130D-01 0.740D-01 0.281D+00 0.632D+00
 Gap=     0.237 Goal=   None    Shift=    0.000
 RMSDP=4.21D-04 MaxDP=1.61D-02 DE=-7.99D-02 OVMax= 2.29D-02

 Cycle   5  Pass 0  IDiag  1:
 RMSU=  1.79D-04    CP:  9.95D-01  7.09D-01  5.42D-01  6.38D-01
 E= -1714.03913320758     Delta-E=       -0.012164348104 Rises=F Damp=F
 DIIS: error= 1.25D-03 at cycle   5 NSaved=   5.
 NSaved= 5 IEnMin= 5 EnMin= -1714.03913320758     IErMin= 5 ErrMin= 1.25D-03
 ErrMax= 1.25D-03  0.00D+00 EMaxC= 1.00D-01 BMatC= 1.11D-03 BMatP= 1.46D-02
 IDIUse=3 WtCom= 9.88D-01 WtEn= 1.25D-02
 Coeff-Com:  0.341D-03 0.161D-01 0.122D+00 0.346D+00 0.516D+00
 Coeff-En:   0.000D+00 0.000D+00 0.000D+00 0.000D+00 0.100D+01
 Coeff:      0.337D-03 0.159D-01 0.120D+00 0.342D+00 0.522D+00
 Gap=     0.237 Goal=   None    Shift=    0.000
 RMSDP=1.15D-04 MaxDP=6.92D-03 DE=-1.22D-02 OVMax= 6.12D-03

 Cycle   6  Pass 0  IDiag  1:
 RMSU=  6.05D-05    CP:  9.94D-01  7.12D-01  5.34D-01  6.97D-01  5.26D-01
 E= -1714.03998385920     Delta-E=       -0.000850651625 Rises=F Damp=F
 DIIS: error= 7.79D-04 at cycle   6 NSaved=   6.
 NSaved= 6 IEnMin= 6 EnMin= -1714.03998385920     IErMin= 6 ErrMin= 7.79D-04
 ErrMax= 7.79D-04  0.00D+00 EMaxC= 1.00D-01 BMatC= 1.58D-04 BMatP= 1.11D-03
 IDIUse=3 WtCom= 9.92D-01 WtEn= 7.79D-03
 Coeff-Com: -0.908D-03 0.331D-02 0.485D-01 0.152D+00 0.326D+00 0.472D+00
 Coeff-En:   0.000D+00 0.000D+00 0.000D+00 0.000D+00 0.715D-01 0.929D+00
 Coeff:     -0.901D-03 0.329D-02 0.481D-01 0.150D+00 0.324D+00 0.475D+00
 Gap=     0.237 Goal=   None    Shift=    0.000
 RMSDP=4.03D-05 MaxDP=2.14D-03 DE=-8.51D-04 OVMax= 3.29D-03

 Cycle   7  Pass 0  IDiag  1:
 RMSU=  2.53D-05    CP:  9.94D-01  7.11D-01  5.36D-01  6.97D-01  5.90D-01
                    CP:  5.18D-01
 E= -1714.04009405826     Delta-E=       -0.000110199061 Rises=F Damp=F
 DIIS: error= 2.76D-04 at cycle   7 NSaved=   7.
 NSaved= 7 IEnMin= 7 EnMin= -1714.04009405826     IErMin= 7 ErrMin= 2.76D-04
 ErrMax= 2.76D-04  0.00D+00 EMaxC= 1.00D-01 BMatC= 2.09D-05 BMatP= 1.58D-04
 IDIUse=3 WtCom= 9.97D-01 WtEn= 2.76D-03
 Coeff-Com: -0.647D-03-0.230D-03 0.136D-01 0.473D-01 0.138D+00 0.312D+00
 Coeff-Com:  0.490D+00
 Coeff-En:   0.000D+00 0.000D+00 0.000D+00 0.000D+00 0.000D+00 0.104D+00
 Coeff-En:   0.896D+00
 Coeff:     -0.645D-03-0.229D-03 0.136D-01 0.472D-01 0.138D+00 0.311D+00
 Coeff:      0.491D+00
 Gap=     0.237 Goal=   None    Shift=    0.000
 RMSDP=1.29D-05 MaxDP=6.46D-04 DE=-1.10D-04 OVMax= 1.01D-03

 Cycle   8  Pass 0  IDiag  1:
 RMSU=  6.01D-06    CP:  9.94D-01  7.11D-01  5.36D-01  6.97D-01  5.94D-01
                    CP:  5.95D-01  5.89D-01
 E= -1714.04011088429     Delta-E=       -0.000016826030 Rises=F Damp=F
 DIIS: error= 3.84D-05 at cycle   8 NSaved=   8.
 NSaved= 8 IEnMin= 8 EnMin= -1714.04011088429     IErMin= 8 ErrMin= 3.84D-05
 ErrMax= 3.84D-05  0.00D+00 EMaxC= 1.00D-01 BMatC= 7.13D-07 BMatP= 2.09D-05
 IDIUse=1 WtCom= 1.00D+00 WtEn= 0.00D+00
 Coeff-Com: -0.234D-03-0.362D-03 0.232D-02 0.946D-02 0.399D-01 0.111D+00
 Coeff-Com:  0.232D+00 0.606D+00
 Coeff:     -0.234D-03-0.362D-03 0.232D-02 0.946D-02 0.399D-01 0.111D+00
 Coeff:      0.232D+00 0.606D+00
 Gap=     0.237 Goal=   None    Shift=    0.000
 RMSDP=3.33D-06 MaxDP=1.57D-04 DE=-1.68D-05 OVMax= 2.66D-04

 Initial convergence to 1.0D-05 achieved.  Increase integral accuracy.
 Cycle   9  Pass 1  IDiag  1:
 E= -1714.04028237987     Delta-E=       -0.000171495582 Rises=F Damp=F
 DIIS: error= 4.93D-05 at cycle   1 NSaved=   1.
 NSaved= 1 IEnMin= 1 EnMin= -1714.04028237987     IErMin= 1 ErrMin= 4.93D-05
 ErrMax= 4.93D-05  0.00D+00 EMaxC= 1.00D-01 BMatC= 9.07D-07 BMatP= 9.07D-07
 IDIUse=1 WtCom= 1.00D+00 WtEn= 0.00D+00
 Coeff-Com:  0.100D+01
 Coeff:      0.100D+01
 Gap=     0.237 Goal=   None    Shift=    0.000
 RMSDP=3.33D-06 MaxDP=1.57D-04 DE=-1.71D-04 OVMax= 3.61D-04

 Cycle  10  Pass 1  IDiag  1:
 RMSU=  2.41D-05    CP:  1.00D+00
 E= -1714.04028266776     Delta-E=       -0.000000287883 Rises=F Damp=F
 DIIS: error= 3.67D-05 at cycle   2 NSaved=   2.
 NSaved= 2 IEnMin= 2 EnMin= -1714.04028266776     IErMin= 2 ErrMin= 3.67D-05
 ErrMax= 3.67D-05  0.00D+00 EMaxC= 1.00D-01 BMatC= 7.62D-07 BMatP= 9.07D-07
 IDIUse=1 WtCom= 1.00D+00 WtEn= 0.00D+00
 Coeff-Com:  0.469D+00 0.531D+00
 Coeff:      0.469D+00 0.531D+00
 Gap=     0.237 Goal=   None    Shift=    0.000
 RMSDP=3.96D-06 MaxDP=1.43D-04 DE=-2.88D-07 OVMax= 3.81D-04

 Cycle  11  Pass 1  IDiag  1:
 RMSU=  3.94D-06    CP:  1.00D+00  9.81D-01
 E= -1714.04028304554     Delta-E=       -0.000000377781 Rises=F Damp=F
 DIIS: error= 2.97D-05 at cycle   3 NSaved=   3.
 NSaved= 3 IEnMin= 3 EnMin= -1714.04028304554     IErMin= 3 ErrMin= 2.97D-05
 ErrMax= 2.97D-05  0.00D+00 EMaxC= 1.00D-01 BMatC= 3.64D-07 BMatP= 7.62D-07
 IDIUse=1 WtCom= 1.00D+00 WtEn= 0.00D+00
 Coeff-Com:  0.437D-02 0.407D+00 0.589D+00
 Coeff:      0.437D-02 0.407D+00 0.589D+00
 Gap=     0.237 Goal=   None    Shift=    0.000
 RMSDP=1.71D-06 MaxDP=6.76D-05 DE=-3.78D-07 OVMax= 1.20D-04

 Cycle  12  Pass 1  IDiag  1:
 RMSU=  6.43D-07    CP:  1.00D+00  9.98D-01  6.10D-01
 E= -1714.04028335211     Delta-E=       -0.000000306576 Rises=F Damp=F
 DIIS: error= 6.32D-06 at cycle   4 NSaved=   4.
 NSaved= 4 IEnMin= 4 EnMin= -1714.04028335211     IErMin= 4 ErrMin= 6.32D-06
 ErrMax= 6.32D-06  0.00D+00 EMaxC= 1.00D-01 BMatC= 1.46D-08 BMatP= 3.64D-07
 IDIUse=1 WtCom= 1.00D+00 WtEn= 0.00D+00
 Coeff-Com: -0.852D-02 0.241D+00 0.367D+00 0.401D+00
 Coeff:     -0.852D-02 0.241D+00 0.367D+00 0.401D+00
 Gap=     0.237 Goal=   None    Shift=    0.000
 RMSDP=3.77D-07 MaxDP=1.68D-05 DE=-3.07D-07 OVMax= 2.86D-05

 Cycle  13  Pass 1  IDiag  1:
 RMSU=  1.98D-07    CP:  1.00D+00  9.99D-01  6.08D-01  5.03D-01
 E= -1714.04028336451     Delta-E=       -0.000000012397 Rises=F Damp=F
 DIIS: error= 1.35D-06 at cycle   5 NSaved=   5.
 NSaved= 5 IEnMin= 5 EnMin= -1714.04028336451     IErMin= 5 ErrMin= 1.35D-06
 ErrMax= 1.35D-06  0.00D+00 EMaxC= 1.00D-01 BMatC= 6.90D-10 BMatP= 1.46D-08
 IDIUse=1 WtCom= 1.00D+00 WtEn= 0.00D+00
 Coeff-Com: -0.525D-02 0.115D+00 0.176D+00 0.235D+00 0.479D+00
 Coeff:     -0.525D-02 0.115D+00 0.176D+00 0.235D+00 0.479D+00
 Gap=     0.237 Goal=   None    Shift=    0.000
 RMSDP=8.87D-08 MaxDP=4.14D-06 DE=-1.24D-08 OVMax= 7.84D-06

 Cycle  14  Pass 1  IDiag  1:
 RMSU=  6.74D-08    CP:  1.00D+00  9.99D-01  6.10D-01  5.25D-01  7.23D-01
 E= -1714.04028336514     Delta-E=       -0.000000000632 Rises=F Damp=F
 DIIS: error= 2.97D-07 at cycle   6 NSaved=   6.
 NSaved= 6 IEnMin= 6 EnMin= -1714.04028336514     IErMin= 6 ErrMin= 2.97D-07
 ErrMax= 2.97D-07  0.00D+00 EMaxC= 1.00D-01 BMatC= 5.24D-11 BMatP= 6.90D-10
 IDIUse=1 WtCom= 1.00D+00 WtEn= 0.00D+00
 Coeff-Com: -0.147D-02 0.236D-01 0.362D-01 0.617D-01 0.246D+00 0.634D+00
 Coeff:     -0.147D-02 0.236D-01 0.362D-01 0.617D-01 0.246D+00 0.634D+00
 Gap=     0.237 Goal=   None    Shift=    0.000
 RMSDP=2.54D-08 MaxDP=1.20D-06 DE=-6.32D-10 OVMax= 1.69D-06

 Cycle  15  Pass 1  IDiag  1:
 RMSU=  2.00D-08    CP:  1.00D+00  9.99D-01  6.09D-01  5.26D-01  7.68D-01
                    CP:  8.18D-01
 E= -1714.04028336523     Delta-E=       -0.000000000082 Rises=F Damp=F
 DIIS: error= 1.07D-07 at cycle   7 NSaved=   7.
 NSaved= 7 IEnMin= 7 EnMin= -1714.04028336523     IErMin= 7 ErrMin= 1.07D-07
 ErrMax= 1.07D-07  0.00D+00 EMaxC= 1.00D-01 BMatC= 9.30D-12 BMatP= 5.24D-11
 IDIUse=1 WtCom= 1.00D+00 WtEn= 0.00D+00
 Coeff-Com: -0.233D-03 0.817D-03 0.120D-02 0.894D-02 0.870D-01 0.368D+00
 Coeff-Com:  0.535D+00
 Coeff:     -0.233D-03 0.817D-03 0.120D-02 0.894D-02 0.870D-01 0.368D+00
 Coeff:      0.535D+00
 Gap=     0.237 Goal=   None    Shift=    0.000
 RMSDP=1.11D-08 MaxDP=7.16D-07 DE=-8.19D-11 OVMax= 6.11D-07

 Cycle  16  Pass 1  IDiag  1:
 RMSU=  6.96D-09    CP:  1.00D+00  9.99D-01  6.09D-01  5.28D-01  7.77D-01
                    CP:  8.46D-01  5.95D-01
 E= -1714.04028336523     Delta-E=       -0.000000000006 Rises=F Damp=F
 DIIS: error= 5.54D-08 at cycle   8 NSaved=   8.
 NSaved= 8 IEnMin= 8 EnMin= -1714.04028336523     IErMin= 8 ErrMin= 5.54D-08
 ErrMax= 5.54D-08  0.00D+00 EMaxC= 1.00D-01 BMatC= 1.65D-12 BMatP= 9.30D-12
 IDIUse=1 WtCom= 1.00D+00 WtEn= 0.00D+00
 Coeff-Com: -0.116D-04-0.178D-02-0.275D-02-0.444D-03 0.307D-01 0.171D+00
 Coeff-Com:  0.348D+00 0.456D+00
 Coeff:     -0.116D-04-0.178D-02-0.275D-02-0.444D-03 0.307D-01 0.171D+00
 Coeff:      0.348D+00 0.456D+00
 Gap=     0.237 Goal=   None    Shift=    0.000
 RMSDP=3.87D-09 MaxDP=1.74D-07 DE=-5.91D-12 OVMax= 2.19D-07

 SCF Done:  E(RB3LYP) =  -1714.04028337     A.U. after   16 cycles
            NFock= 16  Conv=0.39D-08     -V/T= 2.0068
 KE= 1.702502203432D+03 PE=-8.431076097061D+03 EE= 2.811941059652D+03
 Leave Link  502 at Fri Oct  2 02:08:15 2020, MaxMem=  2147483648 cpu:       409.8
 (Enter /prod/apps/gaussian/g09d1/l601.exe)
 Copying SCF densities to generalized density rwf, IOpCl= 0 IROHF=0.

 **********************************************************************

            Population analysis using the SCF density.

 **********************************************************************

 Orbital symmetries:
       Occupied  (A) (A) (A) (A) (A) (A) (A) (A) (A) (A) (A) (A)
                 (A) (A) (A) (A) (A) (A) (A) (A) (A) (A) (A) (A)
                 (A) (A) (A) (A) (A) (A) (A) (A) (A) (A) (A) (A)
                 (A) (A) (A) (A) (A) (A) (A) (A) (A) (A) (A) (A)
                 (A) (A) (A) (A) (A) (A) (A) (A) (A) (A) (A) (A)
                 (A) (A) (A) (A) (A) (A) (A) (A) (A) (A) (A) (A)
                 (A) (A) (A) (A) (A) (A) (A) (A) (A) (A) (A) (A)
                 (A) (A) (A) (A)
       Virtual   (A) (A) (A) (A) (A) (A) (A) (A) (A) (A) (A) (A)
                 (A) (A) (A) (A) (A) (A) (A) (A) (A) (A) (A) (A)
                 (A) (A) (A) (A) (A) (A) (A) (A) (A) (A) (A) (A)
                 (A) (A) (A) (A) (A) (A) (A) (A) (A) (A) (A) (A)
                 (A) (A) (A) (A) (A) (A) (A) (A) (A) (A) (A) (A)
                 (A) (A) (A) (A) (A) (A) (A) (A) (A) (A) (A) (A)
                 (A) (A) (A) (A) (A) (A) (A) (A) (A) (A) (A) (A)
                 (A) (A) (A) (A) (A) (A) (A) (A) (A) (A) (A) (A)
                 (A) (A) (A) (A) (A) (A) (A) (A) (A) (A) (A) (A)
                 (A) (A) (A) (A) (A) (A) (A) (A) (A) (A) (A) (A)
                 (A) (A) (A) (A) (A) (A) (A) (A) (A) (A) (A) (A)
                 (A) (A) (A) (A) (A) (A) (A) (A) (A) (A) (A) (A)
                 (A) (A) (A) (A) (A) (A) (A) (A) (A) (A) (A) (A)
                 (A) (A) (A) (A) (A) (A) (A) (A) (A) (A) (A) (A)
                 (A) (A) (A) (A) (A) (A) (A) (A) (A) (A) (A) (A)
                 (A) (A) (A) (A) (A) (A) (A) (A) (A) (A) (A) (A)
                 (A) (A) (A) (A) (A) (A) (A) (A) (A) (A) (A) (A)
                 (A) (A) (A) (A) (A) (A) (A) (A) (A) (A) (A) (A)
                 (A) (A) (A) (A) (A) (A) (A) (A) (A) (A) (A) (A)
                 (A) (A) (A) (A) (A) (A) (A) (A) (A) (A) (A) (A)
                 (A) (A) (A) (A) (A) (A) (A) (A) (A) (A) (A) (A)
                 (A) (A) (A) (A) (A) (A) (A) (A) (A) (A) (A) (A)
                 (A) (A) (A) (A) (A) (A) (A) (A) (A) (A) (A)
 The electronic state is 1-A.
 Alpha  occ. eigenvalues --  -89.13889 -89.08958 -19.15442 -19.15181 -19.14217
 Alpha  occ. eigenvalues --  -19.14087 -14.38913 -14.38337 -10.28508 -10.23194
 Alpha  occ. eigenvalues --  -10.23151 -10.22953 -10.22277 -10.20971 -10.20919
 Alpha  occ. eigenvalues --  -10.20777 -10.20025 -10.19880 -10.19856 -10.19759
 Alpha  occ. eigenvalues --  -10.19663  -8.16131  -8.11992  -6.12627  -6.12551
 Alpha  occ. eigenvalues --   -6.12507  -6.08407  -6.08349  -6.08285  -1.12942
 Alpha  occ. eigenvalues --   -1.09329  -1.00920  -0.98873  -0.95993  -0.94508
 Alpha  occ. eigenvalues --   -0.86829  -0.85659  -0.80308  -0.75346  -0.75020
 Alpha  occ. eigenvalues --   -0.73556  -0.72997  -0.71512  -0.68094  -0.63394
 Alpha  occ. eigenvalues --   -0.61443  -0.60446  -0.58854  -0.58016  -0.54735
 Alpha  occ. eigenvalues --   -0.53663  -0.52339  -0.51421  -0.50236  -0.49018
 Alpha  occ. eigenvalues --   -0.48511  -0.47155  -0.46833  -0.46120  -0.45750
 Alpha  occ. eigenvalues --   -0.45061  -0.44752  -0.43949  -0.42970  -0.42932
 Alpha  occ. eigenvalues --   -0.42435  -0.42088  -0.41394  -0.41287  -0.40332
 Alpha  occ. eigenvalues --   -0.39237  -0.37957  -0.36995  -0.36707  -0.35080
 Alpha  occ. eigenvalues --   -0.34872  -0.34584  -0.33896  -0.32722  -0.32138
 Alpha  occ. eigenvalues --   -0.31147  -0.30885  -0.29363  -0.28865  -0.28800
 Alpha  occ. eigenvalues --   -0.26282  -0.25964  -0.25115
 Alpha virt. eigenvalues --   -0.01393  -0.01046   0.02918   0.03790   0.05243
 Alpha virt. eigenvalues --    0.05889   0.06446   0.06802   0.07307   0.08340
 Alpha virt. eigenvalues --    0.08833   0.08991   0.09206   0.10842   0.11758
 Alpha virt. eigenvalues --    0.12576   0.13024   0.13681   0.14687   0.14745
 Alpha virt. eigenvalues --    0.15276   0.15823   0.15878   0.16453   0.16995
 Alpha virt. eigenvalues --    0.17754   0.18048   0.18499   0.18867   0.19382
 Alpha virt. eigenvalues --    0.20035   0.20535   0.21466   0.21717   0.22124
 Alpha virt. eigenvalues --    0.24407   0.24838   0.26348   0.28781   0.29735
 Alpha virt. eigenvalues --    0.31375   0.33560   0.34122   0.35126   0.36064
 Alpha virt. eigenvalues --    0.36327   0.39560   0.41467   0.42945   0.43674
 Alpha virt. eigenvalues --    0.45587   0.46897   0.47726   0.48464   0.49446
 Alpha virt. eigenvalues --    0.50962   0.51345   0.52209   0.52903   0.54140
 Alpha virt. eigenvalues --    0.55184   0.55706   0.56126   0.57051   0.57330
 Alpha virt. eigenvalues --    0.58448   0.59007   0.59522   0.59780   0.60138
 Alpha virt. eigenvalues --    0.61055   0.61465   0.62368   0.63024   0.63945
 Alpha virt. eigenvalues --    0.64834   0.65342   0.68664   0.69172   0.70743
 Alpha virt. eigenvalues --    0.71687   0.72833   0.73340   0.75057   0.76330
 Alpha virt. eigenvalues --    0.76879   0.78276   0.78856   0.79763   0.80521
 Alpha virt. eigenvalues --    0.81141   0.81422   0.81802   0.82974   0.83376
 Alpha virt. eigenvalues --    0.83936   0.84312   0.84491   0.84675   0.85948
 Alpha virt. eigenvalues --    0.86665   0.87110   0.87470   0.89360   0.89745
 Alpha virt. eigenvalues --    0.90156   0.90928   0.91551   0.91999   0.93311
 Alpha virt. eigenvalues --    0.93439   0.94462   0.94738   0.95622   0.96569
 Alpha virt. eigenvalues --    0.97406   0.97922   0.98503   1.00380   1.00828
 Alpha virt. eigenvalues --    1.02151   1.04250   1.05333   1.05734   1.07302
 Alpha virt. eigenvalues --    1.08028   1.08480   1.09199   1.09649   1.10479
 Alpha virt. eigenvalues --    1.11607   1.12328   1.14354   1.15855   1.16501
 Alpha virt. eigenvalues --    1.17236   1.18174   1.19610   1.20052   1.21427
 Alpha virt. eigenvalues --    1.23230   1.23747   1.25485   1.26432   1.29167
 Alpha virt. eigenvalues --    1.31927   1.32383   1.36434   1.37849   1.40832
 Alpha virt. eigenvalues --    1.41820   1.43067   1.43961   1.44544   1.45734
 Alpha virt. eigenvalues --    1.46850   1.48021   1.48840   1.50539   1.53667
 Alpha virt. eigenvalues --    1.55413   1.57606   1.58260   1.65339   1.67020
 Alpha virt. eigenvalues --    1.68599   1.70803   1.72768   1.72946   1.74782
 Alpha virt. eigenvalues --    1.77920   1.78003   1.79378   1.80222   1.80547
 Alpha virt. eigenvalues --    1.81013   1.81364   1.81544   1.82127   1.83411
 Alpha virt. eigenvalues --    1.83842   1.84653   1.85623   1.86709   1.87344
 Alpha virt. eigenvalues --    1.89344   1.90614   1.91277   1.92363   1.93832
 Alpha virt. eigenvalues --    1.95237   1.95524   1.97065   1.97494   1.98188
 Alpha virt. eigenvalues --    1.99670   2.00728   2.02327   2.04194   2.05138
 Alpha virt. eigenvalues --    2.06040   2.07164   2.08104   2.09198   2.09522
 Alpha virt. eigenvalues --    2.11498   2.13313   2.13423   2.14168   2.15067
 Alpha virt. eigenvalues --    2.16384   2.16676   2.17531   2.18270   2.20129
 Alpha virt. eigenvalues --    2.22210   2.23947   2.25875   2.27589   2.28419
 Alpha virt. eigenvalues --    2.29253   2.30515   2.30867   2.32498   2.36162
 Alpha virt. eigenvalues --    2.36521   2.37712   2.40565   2.41862   2.42657
 Alpha virt. eigenvalues --    2.45342   2.48197   2.50940   2.54681   2.57398
 Alpha virt. eigenvalues --    2.58096   2.60472   2.63590   2.65507   2.69364
 Alpha virt. eigenvalues --    2.71383   2.71760   2.72400   2.73304   2.74195
 Alpha virt. eigenvalues --    2.75263   2.77169   2.78802   2.82950   2.83322
 Alpha virt. eigenvalues --    2.87409   2.89006   3.05024   3.40023   3.79918
 Alpha virt. eigenvalues --    3.81728   3.90139   3.95788   3.98254   4.00946
 Alpha virt. eigenvalues --    4.07948   4.08814   4.11270   4.16162   4.18340
 Alpha virt. eigenvalues --    4.19890   4.24766   4.26612   4.32098   4.34035
 Alpha virt. eigenvalues --    4.34448   4.43467   4.50438   4.68917   4.75342
          Condensed to atoms (all electrons):
               1          2          3          4          5          6
     1  C    4.994788   0.289392  -0.050166  -0.027499  -0.002515  -0.003928
     2  N    0.289392   7.215988   0.268707   0.127009  -0.056757  -0.054737
     3  C   -0.050166   0.268707   5.000073  -0.010332   0.001647   0.001688
     4  S   -0.027499   0.127009  -0.010332  13.630494   0.447776   0.406936
     5  O   -0.002515  -0.056757   0.001647   0.447776   8.227685  -0.045654
     6  O   -0.003928  -0.054737   0.001688   0.406936  -0.045654   8.278135
     7  N    0.002374  -0.042429  -0.009269   0.118053  -0.056581  -0.053389
     8  C    0.000034  -0.005404   0.000508   0.004463   0.002205   0.006883
     9  C    0.000004  -0.000366   0.000053   0.000364  -0.000085   0.000047
    10  S    0.000006  -0.000084   0.000030  -0.000060   0.000007   0.000130
    11  O    0.000000  -0.000064   0.000259  -0.000528   0.000000   0.000000
    12  O    0.000000   0.000000   0.000000   0.000001   0.000000   0.000000
    13  C    0.000081  -0.009937  -0.000021  -0.006384  -0.000095  -0.000078
    14  C    0.000010  -0.000209  -0.000004  -0.003640  -0.000218  -0.008845
    15  C    0.000000   0.000000   0.000000   0.000012  -0.000001   0.000076
    16  C    0.000000   0.000000   0.000000   0.000000   0.000000  -0.000003
    17  C    0.000000   0.000000   0.000000  -0.000001   0.000000   0.000000
    18  C    0.000000   0.000000   0.000000   0.000000   0.000000   0.000000
    19  C    0.000000   0.000000   0.000000   0.000000   0.000000   0.000000
    20  C    0.000000   0.000000   0.000000   0.000000   0.000000   0.000000
    21  C    0.000000   0.000000   0.000000   0.000000   0.000000   0.000000
    22  H    0.378709  -0.038918  -0.002831   0.002218  -0.000110   0.000221
    23  H    0.371687  -0.046336  -0.002328  -0.003447   0.002648  -0.000505
    24  H    0.377273  -0.031210   0.004594  -0.004390  -0.000184   0.011715
    25  H   -0.003740  -0.034132   0.376462   0.003153   0.000035  -0.000050
    26  H    0.004523  -0.031502   0.374915  -0.002920  -0.001605   0.000019
    27  H   -0.002531  -0.045251   0.368584  -0.008452   0.005520  -0.000039
    28  H   -0.000057   0.002528  -0.000227  -0.016876   0.005417   0.000006
    29  H    0.000000   0.000000  -0.000001   0.000001   0.000000   0.000001
    30  H    0.000000   0.000004  -0.000020   0.000108  -0.000010   0.000002
    31  H   -0.000002   0.000330   0.000001  -0.000529   0.000000  -0.000203
    32  H   -0.000614   0.020087  -0.000780   0.004103   0.000031  -0.000739
    33  H    0.000007  -0.000043  -0.000003   0.002226  -0.000197   0.015706
    34  H    0.000000   0.000009   0.000000   0.000308  -0.000012   0.000098
    35  H    0.000000   0.000000   0.000000   0.000010   0.000000   0.000009
    36  H    0.000000   0.000000   0.000000  -0.000026   0.000000   0.000001
    37  H    0.000000   0.000000   0.000000   0.000000   0.000000   0.000000
    38  H    0.000000   0.000000   0.000000   0.000000   0.000000   0.000000
    39  H    0.000000   0.000000   0.000000   0.000000   0.000000   0.000000
    40  H    0.000000   0.000000   0.000000   0.000000   0.000000   0.000000
    41  H    0.000000   0.000000   0.000000   0.000000   0.000000   0.000000
               7          8          9         10         11         12
     1  C    0.002374   0.000034   0.000004   0.000006   0.000000   0.000000
     2  N   -0.042429  -0.005404  -0.000366  -0.000084  -0.000064   0.000000
     3  C   -0.009269   0.000508   0.000053   0.000030   0.000259   0.000000
     4  S    0.118053   0.004463   0.000364  -0.000060  -0.000528   0.000001
     5  O   -0.056581   0.002205  -0.000085   0.000007   0.000000   0.000000
     6  O   -0.053389   0.006883   0.000047   0.000130   0.000000   0.000000
     7  N    7.414576   0.191432  -0.051057   0.005070   0.000135  -0.000037
     8  C    0.191432   4.888757   0.346928  -0.106692  -0.000304   0.001622
     9  C   -0.051057   0.346928   5.756725   0.131892  -0.043823  -0.044712
    10  S    0.005070  -0.106692   0.131892  13.891376   0.414333   0.427555
    11  O    0.000135  -0.000304  -0.043823   0.414333   8.238107  -0.046872
    12  O   -0.000037   0.001622  -0.044712   0.427555  -0.046872   8.223766
    13  C   -0.041668   0.351130  -0.197843   0.139774  -0.043461  -0.045249
    14  C   -0.061424   0.392340  -0.045794   0.002423  -0.000069  -0.000234
    15  C    0.004514  -0.030991  -0.001552  -0.000307  -0.000001   0.000068
    16  C   -0.000044  -0.003257  -0.004626  -0.000037   0.000000  -0.000219
    17  C   -0.000018  -0.001013  -0.000445   0.000054   0.000000   0.000001
    18  C    0.000000  -0.000031   0.000207  -0.000010   0.000000   0.000000
    19  C    0.000000   0.000004   0.000086   0.000001   0.000000   0.000001
    20  C    0.000000   0.000005  -0.000300  -0.000022   0.000000  -0.000024
    21  C   -0.000004   0.000856  -0.005873   0.000983   0.000000  -0.000160
    22  H   -0.000080   0.000003   0.000000  -0.000005   0.000000   0.000000
    23  H   -0.000076  -0.000008   0.000000   0.000000   0.000000   0.000000
    24  H    0.000109   0.000017   0.000000   0.000007   0.000000   0.000000
    25  H   -0.000011   0.000003   0.000003   0.000008   0.000181   0.000000
    26  H    0.011788  -0.000098  -0.000050   0.001309   0.003344   0.000002
    27  H   -0.000189  -0.000029  -0.000002   0.000019   0.000038   0.000000
    28  H    0.299989  -0.025401  -0.005866   0.000157   0.000027   0.000002
    29  H    0.003011  -0.025693   0.319862  -0.003238   0.001023   0.000491
    30  H   -0.003795  -0.023292   0.338427  -0.007952  -0.000317   0.000733
    31  H    0.003260  -0.029226   0.006063  -0.007314   0.001225   0.000983
    32  H   -0.007040  -0.020770   0.008208  -0.009658   0.000592   0.000587
    33  H   -0.002764  -0.033663   0.005069  -0.000063   0.000001   0.000002
    34  H   -0.002155  -0.038838  -0.005411  -0.000141   0.000001   0.000002
    35  H    0.000052  -0.007718  -0.000049  -0.000342   0.000001  -0.000039
    36  H   -0.000133   0.004477  -0.000130   0.000033   0.000000   0.000000
    37  H   -0.000005   0.000192  -0.000052   0.000001   0.000000   0.000000
    38  H    0.000000   0.000000  -0.000001   0.000000   0.000000   0.000000
    39  H    0.000000   0.000000   0.000000   0.000000   0.000000   0.000000
    40  H    0.000000   0.000000  -0.000006  -0.000001   0.000000  -0.000003
    41  H    0.000000  -0.000015  -0.000135   0.000934   0.000001   0.001520
              13         14         15         16         17         18
     1  C    0.000081   0.000010   0.000000   0.000000   0.000000   0.000000
     2  N   -0.009937  -0.000209   0.000000   0.000000   0.000000   0.000000
     3  C   -0.000021  -0.000004   0.000000   0.000000   0.000000   0.000000
     4  S   -0.006384  -0.003640   0.000012   0.000000  -0.000001   0.000000
     5  O   -0.000095  -0.000218  -0.000001   0.000000   0.000000   0.000000
     6  O   -0.000078  -0.008845   0.000076  -0.000003   0.000000   0.000000
     7  N   -0.041668  -0.061424   0.004514  -0.000044  -0.000018   0.000000
     8  C    0.351130   0.392340  -0.030991  -0.003257  -0.001013  -0.000031
     9  C   -0.197843  -0.045794  -0.001552  -0.004626  -0.000445   0.000207
    10  S    0.139774   0.002423  -0.000307  -0.000037   0.000054  -0.000010
    11  O   -0.043461  -0.000069  -0.000001   0.000000   0.000000   0.000000
    12  O   -0.045249  -0.000234   0.000068  -0.000219   0.000001   0.000000
    13  C    5.722993  -0.041146  -0.005691  -0.000560   0.000009   0.000001
    14  C   -0.041146   5.132861   0.322110  -0.033428  -0.004566   0.000239
    15  C   -0.005691   0.322110   5.198715   0.344354  -0.066898   0.006086
    16  C   -0.000560  -0.033428   0.344354   4.688827   0.538181  -0.017890
    17  C    0.000009  -0.004566  -0.066898   0.538181   4.984338   0.529573
    18  C    0.000001   0.000239   0.006086  -0.017890   0.529573   4.859318
    19  C    0.000000  -0.000001   0.000376  -0.035332  -0.035767   0.546556
    20  C    0.000001  -0.000174   0.006917  -0.022596  -0.046518  -0.026016
    21  C   -0.000082   0.000658  -0.049704   0.542413  -0.044597  -0.045801
    22  H    0.000119   0.000000   0.000000   0.000000   0.000000   0.000000
    23  H   -0.000023   0.000000   0.000000   0.000000   0.000000   0.000000
    24  H    0.000127   0.000001   0.000000   0.000000   0.000000   0.000000
    25  H    0.000127   0.000000   0.000000   0.000000   0.000000   0.000000
    26  H   -0.000001   0.000022   0.000000   0.000000   0.000000   0.000000
    27  H   -0.000028   0.000000   0.000000   0.000000   0.000000   0.000000
    28  H    0.004992  -0.001279  -0.000081  -0.000008  -0.000004   0.000000
    29  H    0.004756  -0.005612  -0.003055   0.012637   0.000518  -0.000432
    30  H    0.009251   0.001371   0.000045   0.000027   0.000034  -0.000013
    31  H    0.330445  -0.006435   0.001155   0.000154   0.000002   0.000000
    32  H    0.332539   0.000768   0.000132   0.000001   0.000000   0.000000
    33  H   -0.005782   0.360702  -0.024064   0.003743   0.000177   0.000000
    34  H    0.005444   0.361058  -0.036769  -0.009147   0.004379  -0.000087
    35  H    0.002048  -0.039113   0.361528  -0.036141   0.004894  -0.000161
    36  H    0.000105  -0.033369   0.361497  -0.030035  -0.005057  -0.000033
    37  H    0.000000   0.000318  -0.008867  -0.049053   0.354884  -0.043373
    38  H    0.000000   0.000002  -0.000182   0.003683  -0.040490   0.357966
    39  H    0.000000   0.000000   0.000007   0.000705   0.004736  -0.042895
    40  H    0.000000   0.000001  -0.000175   0.003781   0.000802   0.004551
    41  H   -0.000097   0.000166  -0.010800  -0.044046   0.006253   0.000321
              19         20         21         22         23         24
     1  C    0.000000   0.000000   0.000000   0.378709   0.371687   0.377273
     2  N    0.000000   0.000000   0.000000  -0.038918  -0.046336  -0.031210
     3  C    0.000000   0.000000   0.000000  -0.002831  -0.002328   0.004594
     4  S    0.000000   0.000000   0.000000   0.002218  -0.003447  -0.004390
     5  O    0.000000   0.000000   0.000000  -0.000110   0.002648  -0.000184
     6  O    0.000000   0.000000   0.000000   0.000221  -0.000505   0.011715
     7  N    0.000000   0.000000  -0.000004  -0.000080  -0.000076   0.000109
     8  C    0.000004   0.000005   0.000856   0.000003  -0.000008   0.000017
     9  C    0.000086  -0.000300  -0.005873   0.000000   0.000000   0.000000
    10  S    0.000001  -0.000022   0.000983  -0.000005   0.000000   0.000007
    11  O    0.000000   0.000000   0.000000   0.000000   0.000000   0.000000
    12  O    0.000001  -0.000024  -0.000160   0.000000   0.000000   0.000000
    13  C    0.000000   0.000001  -0.000082   0.000119  -0.000023   0.000127
    14  C   -0.000001  -0.000174   0.000658   0.000000   0.000000   0.000001
    15  C    0.000376   0.006917  -0.049704   0.000000   0.000000   0.000000
    16  C   -0.035332  -0.022596   0.542413   0.000000   0.000000   0.000000
    17  C   -0.035767  -0.046518  -0.044597   0.000000   0.000000   0.000000
    18  C    0.546556  -0.026016  -0.045801   0.000000   0.000000   0.000000
    19  C    4.856456   0.550729  -0.035643   0.000000   0.000000   0.000000
    20  C    0.550729   4.862534   0.519130   0.000000   0.000000   0.000000
    21  C   -0.035643   0.519130   4.974576   0.000000   0.000000   0.000000
    22  H    0.000000   0.000000   0.000000   0.546902  -0.040540  -0.021222
    23  H    0.000000   0.000000   0.000000  -0.040540   0.575106  -0.029953
    24  H    0.000000   0.000000   0.000000  -0.021222  -0.029953   0.490511
    25  H    0.000000   0.000000   0.000000   0.005331  -0.001424   0.000011
    26  H    0.000000   0.000000   0.000000   0.000069  -0.000203  -0.000186
    27  H    0.000000   0.000000   0.000000  -0.001786   0.008650  -0.000174
    28  H    0.000000   0.000000   0.000000   0.000001   0.000008  -0.000004
    29  H   -0.000129   0.000778   0.007902   0.000000   0.000000   0.000000
    30  H   -0.000005   0.000003   0.000091   0.000000   0.000000   0.000000
    31  H    0.000000   0.000000  -0.000002  -0.000003   0.000000  -0.000006
    32  H    0.000000   0.000000   0.000000  -0.000428   0.000133  -0.000058
    33  H    0.000000   0.000002  -0.000097   0.000000   0.000000   0.000004
    34  H   -0.000003   0.000005   0.000159   0.000000   0.000000   0.000000
    35  H   -0.000003   0.000218  -0.004462   0.000000   0.000000   0.000000
    36  H    0.000036  -0.000231   0.001266   0.000000   0.000000   0.000000
    37  H    0.004798   0.000343   0.006023   0.000000   0.000000   0.000000
    38  H   -0.042388   0.004593   0.000804   0.000000   0.000000   0.000000
    39  H    0.360122  -0.042451   0.004688   0.000000   0.000000   0.000000
    40  H   -0.043012   0.358450  -0.037859   0.000000   0.000000   0.000000
    41  H    0.004722  -0.042381   0.355273   0.000000   0.000000   0.000000
              25         26         27         28         29         30
     1  C   -0.003740   0.004523  -0.002531  -0.000057   0.000000   0.000000
     2  N   -0.034132  -0.031502  -0.045251   0.002528   0.000000   0.000004
     3  C    0.376462   0.374915   0.368584  -0.000227  -0.000001  -0.000020
     4  S    0.003153  -0.002920  -0.008452  -0.016876   0.000001   0.000108
     5  O    0.000035  -0.001605   0.005520   0.005417   0.000000  -0.000010
     6  O   -0.000050   0.000019  -0.000039   0.000006   0.000001   0.000002
     7  N   -0.000011   0.011788  -0.000189   0.299989   0.003011  -0.003795
     8  C    0.000003  -0.000098  -0.000029  -0.025401  -0.025693  -0.023292
     9  C    0.000003  -0.000050  -0.000002  -0.005866   0.319862   0.338427
    10  S    0.000008   0.001309   0.000019   0.000157  -0.003238  -0.007952
    11  O    0.000181   0.003344   0.000038   0.000027   0.001023  -0.000317
    12  O    0.000000   0.000002   0.000000   0.000002   0.000491   0.000733
    13  C    0.000127  -0.000001  -0.000028   0.004992   0.004756   0.009251
    14  C    0.000000   0.000022   0.000000  -0.001279  -0.005612   0.001371
    15  C    0.000000   0.000000   0.000000  -0.000081  -0.003055   0.000045
    16  C    0.000000   0.000000   0.000000  -0.000008   0.012637   0.000027
    17  C    0.000000   0.000000   0.000000  -0.000004   0.000518   0.000034
    18  C    0.000000   0.000000   0.000000   0.000000  -0.000432  -0.000013
    19  C    0.000000   0.000000   0.000000   0.000000  -0.000129  -0.000005
    20  C    0.000000   0.000000   0.000000   0.000000   0.000778   0.000003
    21  C    0.000000   0.000000   0.000000   0.000000   0.007902   0.000091
    22  H    0.005331   0.000069  -0.001786   0.000001   0.000000   0.000000
    23  H   -0.001424  -0.000203   0.008650   0.000008   0.000000   0.000000
    24  H    0.000011  -0.000186  -0.000174  -0.000004   0.000000   0.000000
    25  H    0.536795  -0.020856  -0.037324   0.000001   0.000000  -0.000001
    26  H   -0.020856   0.489799  -0.030002  -0.000556   0.000005   0.000089
    27  H   -0.037324  -0.030002   0.578013   0.000082   0.000000   0.000000
    28  H    0.000001  -0.000556   0.000082   0.369156   0.000019   0.002880
    29  H    0.000000   0.000005   0.000000   0.000019   0.469082  -0.016685
    30  H   -0.000001   0.000089   0.000000   0.002880  -0.016685   0.493193
    31  H   -0.000001   0.000001   0.000000  -0.000096   0.000001  -0.000239
    32  H   -0.000322  -0.000383   0.000121   0.000170  -0.000230  -0.000306
    33  H    0.000000   0.000000   0.000000  -0.000629   0.000171  -0.000089
    34  H    0.000000  -0.000001   0.000000   0.005312   0.000413   0.000326
    35  H    0.000000   0.000000   0.000000   0.000009   0.000014  -0.000009
    36  H    0.000000   0.000000   0.000000   0.000000   0.000180   0.000002
    37  H    0.000000   0.000000   0.000000  -0.000005   0.000070  -0.000001
    38  H    0.000000   0.000000   0.000000   0.000000   0.000002   0.000000
    39  H    0.000000   0.000000   0.000000   0.000000  -0.000001   0.000000
    40  H    0.000000   0.000000   0.000000   0.000000   0.000021   0.000000
    41  H    0.000000   0.000000   0.000000   0.000000  -0.000099   0.000001
              31         32         33         34         35         36
     1  C   -0.000002  -0.000614   0.000007   0.000000   0.000000   0.000000
     2  N    0.000330   0.020087  -0.000043   0.000009   0.000000   0.000000
     3  C    0.000001  -0.000780  -0.000003   0.000000   0.000000   0.000000
     4  S   -0.000529   0.004103   0.002226   0.000308   0.000010  -0.000026
     5  O    0.000000   0.000031  -0.000197  -0.000012   0.000000   0.000000
     6  O   -0.000203  -0.000739   0.015706   0.000098   0.000009   0.000001
     7  N    0.003260  -0.007040  -0.002764  -0.002155   0.000052  -0.000133
     8  C   -0.029226  -0.020770  -0.033663  -0.038838  -0.007718   0.004477
     9  C    0.006063   0.008208   0.005069  -0.005411  -0.000049  -0.000130
    10  S   -0.007314  -0.009658  -0.000063  -0.000141  -0.000342   0.000033
    11  O    0.001225   0.000592   0.000001   0.000001   0.000001   0.000000
    12  O    0.000983   0.000587   0.000002   0.000002  -0.000039   0.000000
    13  C    0.330445   0.332539  -0.005782   0.005444   0.002048   0.000105
    14  C   -0.006435   0.000768   0.360702   0.361058  -0.039113  -0.033369
    15  C    0.001155   0.000132  -0.024064  -0.036769   0.361528   0.361497
    16  C    0.000154   0.000001   0.003743  -0.009147  -0.036141  -0.030035
    17  C    0.000002   0.000000   0.000177   0.004379   0.004894  -0.005057
    18  C    0.000000   0.000000   0.000000  -0.000087  -0.000161  -0.000033
    19  C    0.000000   0.000000   0.000000  -0.000003  -0.000003   0.000036
    20  C    0.000000   0.000000   0.000002   0.000005   0.000218  -0.000231
    21  C   -0.000002   0.000000  -0.000097   0.000159  -0.004462   0.001266
    22  H   -0.000003  -0.000428   0.000000   0.000000   0.000000   0.000000
    23  H    0.000000   0.000133   0.000000   0.000000   0.000000   0.000000
    24  H   -0.000006  -0.000058   0.000004   0.000000   0.000000   0.000000
    25  H   -0.000001  -0.000322   0.000000   0.000000   0.000000   0.000000
    26  H    0.000001  -0.000383   0.000000  -0.000001   0.000000   0.000000
    27  H    0.000000   0.000121   0.000000   0.000000   0.000000   0.000000
    28  H   -0.000096   0.000170  -0.000629   0.005312   0.000009   0.000000
    29  H    0.000001  -0.000230   0.000171   0.000413   0.000014   0.000180
    30  H   -0.000239  -0.000306  -0.000089   0.000326  -0.000009   0.000002
    31  H    0.502094  -0.014118   0.000531   0.000140   0.006678  -0.000160
    32  H   -0.014118   0.439648   0.000144  -0.000070   0.000003  -0.000002
    33  H    0.000531   0.000144   0.515358  -0.031358  -0.001196  -0.005072
    34  H    0.000140  -0.000070  -0.031358   0.597828   0.005234  -0.001522
    35  H    0.006678   0.000003  -0.001196   0.005234   0.581321  -0.032077
    36  H   -0.000160  -0.000002  -0.005072  -0.001522  -0.032077   0.567786
    37  H    0.000000   0.000000  -0.000134   0.004550   0.000017   0.001853
    38  H    0.000000   0.000000   0.000000   0.000008   0.000003  -0.000001
    39  H    0.000000   0.000000   0.000000   0.000000   0.000000   0.000000
    40  H    0.000000   0.000000   0.000000   0.000000  -0.000009   0.000003
    41  H    0.000083   0.000002  -0.000007   0.000006   0.007155   0.000128
              37         38         39         40         41
     1  C    0.000000   0.000000   0.000000   0.000000   0.000000
     2  N    0.000000   0.000000   0.000000   0.000000   0.000000
     3  C    0.000000   0.000000   0.000000   0.000000   0.000000
     4  S    0.000000   0.000000   0.000000   0.000000   0.000000
     5  O    0.000000   0.000000   0.000000   0.000000   0.000000
     6  O    0.000000   0.000000   0.000000   0.000000   0.000000
     7  N   -0.000005   0.000000   0.000000   0.000000   0.000000
     8  C    0.000192   0.000000   0.000000   0.000000  -0.000015
     9  C   -0.000052  -0.000001   0.000000  -0.000006  -0.000135
    10  S    0.000001   0.000000   0.000000  -0.000001   0.000934
    11  O    0.000000   0.000000   0.000000   0.000000   0.000001
    12  O    0.000000   0.000000   0.000000  -0.000003   0.001520
    13  C    0.000000   0.000000   0.000000   0.000000  -0.000097
    14  C    0.000318   0.000002   0.000000   0.000001   0.000166
    15  C   -0.008867  -0.000182   0.000007  -0.000175  -0.010800
    16  C   -0.049053   0.003683   0.000705   0.003781  -0.044046
    17  C    0.354884  -0.040490   0.004736   0.000802   0.006253
    18  C   -0.043373   0.357966  -0.042895   0.004551   0.000321
    19  C    0.004798  -0.042388   0.360122  -0.043012   0.004722
    20  C    0.000343   0.004593  -0.042451   0.358450  -0.042381
    21  C    0.006023   0.000804   0.004688  -0.037859   0.355273
    22  H    0.000000   0.000000   0.000000   0.000000   0.000000
    23  H    0.000000   0.000000   0.000000   0.000000   0.000000
    24  H    0.000000   0.000000   0.000000   0.000000   0.000000
    25  H    0.000000   0.000000   0.000000   0.000000   0.000000
    26  H    0.000000   0.000000   0.000000   0.000000   0.000000
    27  H    0.000000   0.000000   0.000000   0.000000   0.000000
    28  H   -0.000005   0.000000   0.000000   0.000000   0.000000
    29  H    0.000070   0.000002  -0.000001   0.000021  -0.000099
    30  H   -0.000001   0.000000   0.000000   0.000000   0.000001
    31  H    0.000000   0.000000   0.000000   0.000000   0.000083
    32  H    0.000000   0.000000   0.000000   0.000000   0.000002
    33  H   -0.000134   0.000000   0.000000   0.000000  -0.000007
    34  H    0.004550   0.000008   0.000000   0.000000   0.000006
    35  H    0.000017   0.000003   0.000000  -0.000009   0.007155
    36  H    0.001853  -0.000001   0.000000   0.000003   0.000128
    37  H    0.606972  -0.005611  -0.000181   0.000017  -0.000175
    38  H   -0.005611   0.593325  -0.005444  -0.000183   0.000016
    39  H   -0.000181  -0.005444   0.591235  -0.005458  -0.000170
    40  H    0.000017  -0.000183  -0.005458   0.583795  -0.005396
    41  H   -0.000175   0.000016  -0.000170  -0.005396   0.582810
 Mulliken charges:
               1
     1  C   -0.327834
     2  N   -0.526676
     3  C   -0.321536
     4  S    1.337850
     5  O   -0.528947
     6  O   -0.553505
     7  N   -0.722193
     8  C    0.160584
     9  C   -0.505761
    10  S    1.119822
    11  O   -0.523830
    12  O   -0.519786
    13  C   -0.505797
    14  C   -0.289487
    15  C   -0.368454
    16  C    0.147918
    17  C   -0.183460
    18  C   -0.128074
    19  C   -0.131606
    20  C   -0.122994
    21  C   -0.190539
    22  H    0.172349
    23  H    0.166611
    24  H    0.203017
    25  H    0.175749
    26  H    0.202478
    27  H    0.164780
    28  H    0.360333
    29  H    0.234218
    30  H    0.206146
    31  H    0.205187
    32  H    0.248249
    33  H    0.201320
    34  H    0.140234
    35  H    0.152124
    36  H    0.170480
    37  H    0.127420
    38  H    0.133897
    39  H    0.135105
    40  H    0.140678
    41  H    0.143930
 Sum of Mulliken charges =   0.00000
 Mulliken charges with hydrogens summed into heavy atoms:
               1
     1  C    0.214143
     2  N   -0.526676
     3  C    0.221471
     4  S    1.337850
     5  O   -0.528947
     6  O   -0.553505
     7  N   -0.361860
     8  C    0.160584
     9  C   -0.065397
    10  S    1.119822
    11  O   -0.523830
    12  O   -0.519786
    13  C   -0.052361
    14  C    0.052066
    15  C   -0.045850
    16  C    0.147918
    17  C   -0.056040
    18  C    0.005823
    19  C    0.003499
    20  C    0.017684
    21  C   -0.046609
 Electronic spatial extent (au):  <R**2>=           7960.1903
 Charge=              0.0000 electrons
 Dipole moment (field-independent basis, Debye):
    X=             -1.0231    Y=             -1.9372    Z=             -0.1073  Tot=              2.1934
 Quadrupole moment (field-independent basis, Debye-Ang):
   XX=           -126.0638   YY=           -161.6117   ZZ=           -133.9425
   XY=             13.2135   XZ=              7.6550   YZ=              3.2437
 Traceless Quadrupole moment (field-independent basis, Debye-Ang):
   XX=             14.4756   YY=            -21.0724   ZZ=              6.5968
   XY=             13.2135   XZ=              7.6550   YZ=              3.2437
 Octapole moment (field-independent basis, Debye-Ang**2):
  XXX=             65.2837  YYY=            -43.1018  ZZZ=             -3.3017  XYY=            -12.6197
  XXY=             57.3084  XXZ=             -5.3076  XZZ=              5.6238  YZZ=              6.6717
  YYZ=             -0.2888  XYZ=             -7.1121
 Hexadecapole moment (field-independent basis, Debye-Ang**3):
 XXXX=          -7070.8877 YYYY=          -2209.2991 ZZZZ=           -743.9434 XXXY=              4.1621
 XXXZ=            228.3072 YYYX=             46.9677 YYYZ=              9.8761 ZZZX=              2.3816
 ZZZY=              9.2328 XXYY=          -1694.2292 XXZZ=          -1393.9858 YYZZ=           -467.6544
 XXYZ=             23.2178 YYXZ=             44.1472 ZZXY=             18.9007
 N-N= 2.202592550611D+03 E-N=-8.431076092318D+03  KE= 1.702502203432D+03
 No NMR shielding tensors so no spin-rotation constants.
 Leave Link  601 at Fri Oct  2 02:08:16 2020, MaxMem=  2147483648 cpu:         0.4
 (Enter /prod/apps/gaussian/g09d1/l9999.exe)
 1\1\GINC-PIRINEUS7\SP\RB3LYP\6-31G(d)\C13H20N2O4S2\UBAFAR01\02-Oct-202
 0\0\\#p b3lyp/6-31G(d)\\SM40.n.22.pdb.xyz\\0,1\C,0,3.297,0.938,2.139\N
 ,0,3.228,-0.078,1.073\C,0,1.877,-0.242,0.513\S,0,4.441,0.061,-0.085\O,
 0,4.092,0.994,-1.168\O,0,5.683,0.289,0.668\N,0,4.372,-1.457,-0.786\C,0
 ,5.179,-2.603,-0.294\C,0,4.511,-3.89,-0.887\S,0,3.724,-4.232,0.72\O,0,
 2.303,-3.828,0.756\O,0,4.086,-5.545,1.292\C,0,4.844,-2.878,1.208\C,0,6
 .671,-2.419,-0.635\C,0,7.657,-3.54,-0.251\C,0,7.65,-4.773,-1.135\C,0,7
 .867,-4.665,-2.516\C,0,7.894,-5.797,-3.328\C,0,7.706,-7.065,-2.772\C,0
 ,7.492,-7.188,-1.399\C,0,7.466,-6.05,-0.589\H,0,2.618,0.617,2.931\H,0,
 2.991,1.932,1.791\H,0,4.31,0.982,2.534\H,0,1.219,-0.534,1.333\H,0,1.89
 ,-1.039,-0.229\H,0,1.501,0.683,0.061\H,0,4.44,-1.343,-1.799\H,0,5.225,
 -4.678,-1.122\H,0,3.808,-3.733,-1.703\H,0,5.679,-3.271,1.788\H,0,4.334
 ,-2.073,1.734\H,0,6.987,-1.495,-0.146\H,0,6.739,-2.239,-1.713\H,0,7.52
 ,-3.841,0.793\H,0,8.656,-3.09,-0.298\H,0,8.017,-3.684,-2.957\H,0,8.064
 ,-5.691,-4.395\H,0,7.726,-7.947,-3.404\H,0,7.344,-8.168,-0.955\H,0,7.2
 94,-6.151,0.478\\Version=AM64L-G09RevD.01\State=1-A\HF=-1714.0402834\R
 MSD=3.866e-09\Dipole=0.6796946,0.1341766,-0.5144556\Quadrupole=-0.7424
 832,-7.9733495,8.7158327,-10.96166,-1.1672771,11.6539406\PG=C01 [X(C13
 H20N2O4S2)]\\@



 WE LOSE BECAUSE WE WIN

 GAMBLERS,

 RECOLLECTING WHICH,

 TOSS THEIR DICE AGAIN....


                          EMILY DICKINSON  BOLTS OF MELODY NO. 533
[...]
    10  S    0.151437   0.002731  -0.000281   0.000032   0.000049  -0.000010
    11  O   -0.044052  -0.000074  -0.000001   0.000000   0.000000   0.000000
    12  O   -0.045253  -0.000240   0.000066  -0.000205   0.000001   0.000000
    13  C    5.707778  -0.041237  -0.005576  -0.000545   0.000011   0.000001
    14  C   -0.041237   5.117458   0.323060  -0.033163  -0.004458   0.000229
    15  C   -0.005576   0.323060   5.191412   0.346851  -0.065982   0.005942
    16  C   -0.000545  -0.033163   0.346851   4.696582   0.536303  -0.019766
    17  C    0.000011  -0.004458  -0.065982   0.536303   4.994954   0.526133
    18  C    0.000001   0.000229   0.005942  -0.019766   0.526133   4.884376
    19  C    0.000000   0.000001   0.000332  -0.035250  -0.037721   0.542070
    20  C    0.000001  -0.000181   0.006903  -0.023874  -0.046383  -0.028742
    21  C   -0.000092   0.000738  -0.050264   0.540032  -0.045726  -0.045620
    22  H    0.000109   0.000000   0.000000   0.000000   0.000000   0.000000
    23  H   -0.000022   0.000000   0.000000   0.000000   0.000000   0.000000
    24  H    0.000124   0.000001   0.000000   0.000000   0.000000   0.000000
    25  H    0.000118   0.000000   0.000000   0.000000   0.000000   0.000000
    26  H   -0.000007   0.000022   0.000000   0.000000   0.000000   0.000000
    27  H   -0.000027   0.000000   0.000000   0.000000   0.000000   0.000000
    28  H    0.004301  -0.000827  -0.000065  -0.000007  -0.000004   0.000000
    29  H    0.004991  -0.005847  -0.002879   0.012374   0.000436  -0.000418
    30  H    0.008509   0.001237   0.000031   0.000033   0.000026  -0.000012
    31  H    0.334773  -0.006197   0.001579   0.000117   0.000003   0.000000
    32  H    0.333773   0.000766   0.000129   0.000001   0.000000   0.000000
    33  H   -0.005870   0.361168  -0.024253   0.003687   0.000180   0.000001
    34  H    0.005183   0.368060  -0.035793  -0.008701   0.004366  -0.000062
    35  H    0.002201  -0.038559   0.364283  -0.037556   0.004839  -0.000158
    36  H    0.000102  -0.031344   0.362846  -0.029172  -0.005140  -0.000032
    37  H    0.000000   0.000604  -0.008402  -0.046534   0.359094  -0.041855
    38  H    0.000000   0.000002  -0.000172   0.003600  -0.039172   0.361446
    39  H    0.000000   0.000000   0.000007   0.000630   0.004657  -0.041875
    40  H    0.000000   0.000001  -0.000167   0.003752   0.000709   0.004530
    41  H   -0.000101   0.000160  -0.010421  -0.043192   0.006291   0.000246
              19         20         21         22         23         24
     1  C    0.000000   0.000000   0.000000   0.381189   0.373110   0.376787
     2  N    0.000000   0.000000   0.000000  -0.036846  -0.046050  -0.032193
     3  C    0.000000   0.000000   0.000000  -0.002882  -0.002208   0.004557
     4  S    0.000000   0.000000   0.000000   0.002362  -0.003829  -0.004152
     5  O    0.000000   0.000000   0.000000  -0.000105   0.002580  -0.000175
     6  O    0.000000   0.000000   0.000000   0.000211  -0.000484   0.011185
     7  N    0.000000   0.000000  -0.000004  -0.000087  -0.000074   0.000104
     8  C    0.000004   0.000003   0.000861   0.000004  -0.000008   0.000016
     9  C    0.000088  -0.000315  -0.005977   0.000000   0.000000   0.000000
    10  S    0.000001  -0.000021   0.001060  -0.000006   0.000000   0.000007
    11  O    0.000000   0.000000   0.000000   0.000000   0.000000   0.000000
    12  O    0.000001  -0.000026  -0.000165   0.000000   0.000000   0.000000
    13  C    0.000000   0.000001  -0.000092   0.000109  -0.000022   0.000124
    14  C    0.000001  -0.000181   0.000738   0.000000   0.000000   0.000001
    15  C    0.000332   0.006903  -0.050264   0.000000   0.000000   0.000000
    16  C   -0.035250  -0.023874   0.540032   0.000000   0.000000   0.000000
    17  C   -0.037721  -0.046383  -0.045726   0.000000   0.000000   0.000000
    18  C    0.542070  -0.028742  -0.045620   0.000000   0.000000   0.000000
    19  C    4.883510   0.547068  -0.037630   0.000000   0.000000   0.000000
    20  C    0.547068   4.894372   0.513369   0.000000   0.000000   0.000000
    21  C   -0.037630   0.513369   4.998563   0.000000   0.000000   0.000000
    22  H    0.000000   0.000000   0.000000   0.521795  -0.037538  -0.020405
    23  H    0.000000   0.000000   0.000000  -0.037538   0.566960  -0.030488
    24  H    0.000000   0.000000   0.000000  -0.020405  -0.030488   0.497607
    25  H    0.000000   0.000000   0.000000   0.004946  -0.001362   0.000020
    26  H    0.000000   0.000000   0.000000   0.000059  -0.000194  -0.000192
    27  H    0.000000   0.000000   0.000000  -0.001660   0.008294  -0.000173
    28  H    0.000000   0.000000   0.000000   0.000001   0.000007  -0.000004
    29  H   -0.000139   0.000829   0.008408   0.000000   0.000000   0.000000
    30  H   -0.000005   0.000003   0.000079   0.000000   0.000000   0.000000
    31  H    0.000000   0.000000   0.000004  -0.000002   0.000000  -0.000006
    32  H    0.000000   0.000000   0.000000  -0.000402   0.000129  -0.000079
    33  H    0.000000   0.000002  -0.000103   0.000000   0.000000   0.000004
    34  H   -0.000003   0.000005   0.000174   0.000000   0.000000   0.000000
    35  H   -0.000004   0.000257  -0.004261   0.000000   0.000000   0.000000
    36  H    0.000036  -0.000230   0.001332   0.000000   0.000000   0.000000
    37  H    0.004659   0.000295   0.005873   0.000000   0.000000   0.000000
    38  H   -0.041921   0.004539   0.000740   0.000000   0.000000   0.000000
    39  H    0.363296  -0.042096   0.004613   0.000000   0.000000   0.000000
    40  H   -0.042102   0.360965  -0.038444   0.000000   0.000000   0.000000
    41  H    0.004738  -0.043961   0.357138   0.000000   0.000000   0.000000
              25         26         27         28         29         30
     1  C   -0.003595   0.004548  -0.002261  -0.000042   0.000000   0.000000
     2  N   -0.033384  -0.032549  -0.045381   0.002080   0.000000   0.000006
     3  C    0.378139   0.373272   0.371685  -0.000243  -0.000001  -0.000019
     4  S    0.003156  -0.002502  -0.008813  -0.014481  -0.000011   0.000129
     5  O    0.000028  -0.001629   0.005595   0.004355   0.000000  -0.000009
     6  O   -0.000050   0.000026  -0.000038  -0.000077   0.000001   0.000002
     7  N    0.000005   0.012020  -0.000193   0.299546   0.002965  -0.003256
     8  C    0.000004  -0.000100  -0.000028  -0.021617  -0.026189  -0.022064
     9  C    0.000003  -0.000060  -0.000001  -0.005485   0.321615   0.342559
    10  S    0.000018   0.001277   0.000015   0.000067  -0.004517  -0.008590
    11  O    0.000185   0.003141   0.000036   0.000019   0.001031  -0.000481
    12  O    0.000000   0.000002   0.000000   0.000001   0.000402   0.000695
    13  C    0.000118  -0.000007  -0.000027   0.004301   0.004991   0.008509
    14  C    0.000000   0.000022   0.000000  -0.000827  -0.005847   0.001237
    15  C    0.000000   0.000000   0.000000  -0.000065  -0.002879   0.000031
    16  C    0.000000   0.000000   0.000000  -0.000007   0.012374   0.000033
    17  C    0.000000   0.000000   0.000000  -0.000004   0.000436   0.000026
    18  C    0.000000   0.000000   0.000000   0.000000  -0.000418  -0.000012
    19  C    0.000000   0.000000   0.000000   0.000000  -0.000139  -0.000005
    20  C    0.000000   0.000000   0.000000   0.000000   0.000829   0.000003
    21  C    0.000000   0.000000   0.000000   0.000000   0.008408   0.000079
    22  H    0.004946   0.000059  -0.001660   0.000001   0.000000   0.000000
    23  H   -0.001362  -0.000194   0.008294   0.000007   0.000000   0.000000
    24  H    0.000020  -0.000192  -0.000173  -0.000004   0.000000   0.000000
    25  H    0.522500  -0.021450  -0.034679   0.000000   0.000000  -0.000001
    26  H   -0.021450   0.497375  -0.030134  -0.000470   0.000005   0.000089
    27  H   -0.034679  -0.030134   0.568452   0.000075   0.000000   0.000000
    28  H    0.000000  -0.000470   0.000075   0.314884   0.000037   0.002292
    29  H    0.000000   0.000005   0.000000   0.000037   0.465656  -0.013445
    30  H   -0.000001   0.000089   0.000000   0.002292  -0.013445   0.456845
    31  H   -0.000001   0.000000   0.000000  -0.000074  -0.000023  -0.000208
    32  H   -0.000301  -0.000377   0.000117   0.000153  -0.000221  -0.000296
    33  H    0.000000   0.000000   0.000000  -0.000570   0.000165  -0.000083
    34  H    0.000000  -0.000001   0.000000   0.004257   0.000433   0.000284
    35  H    0.000000   0.000000   0.000000   0.000007   0.000032  -0.000008
    36  H    0.000000   0.000000   0.000000   0.000000   0.000171   0.000002
    37  H    0.000000   0.000000   0.000000  -0.000004   0.000064  -0.000001
    38  H    0.000000   0.000000   0.000000   0.000000   0.000002   0.000000
    39  H    0.000000   0.000000   0.000000   0.000000  -0.000001   0.000000
    40  H    0.000000   0.000000   0.000000   0.000000   0.000021   0.000000
    41  H    0.000000   0.000000   0.000000   0.000000  -0.000101   0.000001
              31         32         33         34         35         36
     1  C   -0.000003  -0.000712   0.000007   0.000000   0.000000   0.000000
     2  N    0.000309   0.019956  -0.000051   0.000009   0.000000   0.000000
     3  C    0.000000  -0.000754  -0.000002   0.000000   0.000000   0.000000
     4  S   -0.000455   0.004413   0.002528   0.000321   0.000010  -0.000029
     5  O    0.000000   0.000030  -0.000196  -0.000011   0.000000   0.000000
     6  O   -0.000205  -0.000772   0.014774   0.000090   0.000009   0.000001
     7  N    0.003150  -0.007168  -0.003071  -0.001865   0.000045  -0.000128
     8  C   -0.028868  -0.022062  -0.035789  -0.037279  -0.007599   0.004403
     9  C    0.005562   0.008003   0.005090  -0.005344  -0.000069  -0.000128
    10  S   -0.007165  -0.009792  -0.000100  -0.000155  -0.000332   0.000030
    11  O    0.001165   0.000472   0.000001   0.000001   0.000001   0.000000
    12  O    0.000741   0.000582   0.000002   0.000002  -0.000042   0.000000
    13  C    0.334773   0.333773  -0.005870   0.005183   0.002201   0.000102
    14  C   -0.006197   0.000766   0.361168   0.368060  -0.038559  -0.031344
    15  C    0.001579   0.000129  -0.024253  -0.035793   0.364283   0.362846
    16  C    0.000117   0.000001   0.003687  -0.008701  -0.037556  -0.029172
    17  C    0.000003   0.000000   0.000180   0.004366   0.004839  -0.005140
    18  C    0.000000   0.000000   0.000001  -0.000062  -0.000158  -0.000032
    19  C    0.000000   0.000000   0.000000  -0.000003  -0.000004   0.000036
    20  C    0.000000   0.000000   0.000002   0.000005   0.000257  -0.000230
    21  C    0.000004   0.000000  -0.000103   0.000174  -0.004261   0.001332
    22  H   -0.000002  -0.000402   0.000000   0.000000   0.000000   0.000000
    23  H    0.000000   0.000129   0.000000   0.000000   0.000000   0.000000
    24  H   -0.000006  -0.000079   0.000004   0.000000   0.000000   0.000000
    25  H   -0.000001  -0.000301   0.000000   0.000000   0.000000   0.000000
    26  H    0.000000  -0.000377   0.000000  -0.000001   0.000000   0.000000
    27  H    0.000000   0.000117   0.000000   0.000000   0.000000   0.000000
    28  H   -0.000074   0.000153  -0.000570   0.004257   0.000007   0.000000
    29  H   -0.000023  -0.000221   0.000165   0.000433   0.000032   0.000171
    30  H   -0.000208  -0.000296  -0.000083   0.000284  -0.000008   0.000002
    31  H    0.472589  -0.011578   0.000522   0.000128   0.006455  -0.000156
    32  H   -0.011578   0.430717   0.000141  -0.000063   0.000011  -0.000002
    33  H    0.000522   0.000141   0.530810  -0.030362  -0.001143  -0.005441
    34  H    0.000128  -0.000063  -0.030362   0.560344   0.004843  -0.001419
    35  H    0.006455   0.000011  -0.001143   0.004843   0.568019  -0.030545
    36  H   -0.000156  -0.000002  -0.005441  -0.001419  -0.030545   0.553385
    37  H    0.000000   0.000000  -0.000139   0.004200   0.000023   0.001723
    38  H    0.000000   0.000000   0.000000   0.000008   0.000003  -0.000001
    39  H    0.000000   0.000000   0.000000   0.000000   0.000000   0.000000
    40  H    0.000000   0.000000   0.000000   0.000000  -0.000008   0.000003
    41  H    0.000086   0.000001  -0.000008   0.000007   0.006810   0.000126
              37         38         39         40         41
     1  C    0.000000   0.000000   0.000000   0.000000   0.000000
     2  N    0.000000   0.000000   0.000000   0.000000   0.000000
     3  C    0.000000   0.000000   0.000000   0.000000   0.000000
     4  S    0.000000   0.000000   0.000000   0.000000   0.000000
     5  O    0.000000   0.000000   0.000000   0.000000   0.000000
     6  O    0.000000   0.000000   0.000000   0.000000   0.000000
     7  N   -0.000005   0.000000   0.000000   0.000000   0.000000
     8  C    0.000181   0.000000   0.000000   0.000000  -0.000006
     9  C   -0.000047  -0.000001   0.000000  -0.000006  -0.000156
    10  S    0.000001   0.000000   0.000000  -0.000001   0.000914
    11  O    0.000000   0.000000   0.000000   0.000000   0.000001
    12  O    0.000000   0.000000   0.000000  -0.000003   0.001455
    13  C    0.000000   0.000000   0.000000   0.000000  -0.000101
    14  C    0.000604   0.000002   0.000000   0.000001   0.000160
    15  C   -0.008402  -0.000172   0.000007  -0.000167  -0.010421
    16  C   -0.046534   0.003600   0.000630   0.003752  -0.043192
    17  C    0.359094  -0.039172   0.004657   0.000709   0.006291
    18  C   -0.041855   0.361446  -0.041875   0.004530   0.000246
    19  C    0.004659  -0.041921   0.363296  -0.042102   0.004738
    20  C    0.000295   0.004539  -0.042096   0.360965  -0.043961
    21  C    0.005873   0.000740   0.004613  -0.038444   0.357138
    22  H    0.000000   0.000000   0.000000   0.000000   0.000000
    23  H    0.000000   0.000000   0.000000   0.000000   0.000000
    24  H    0.000000   0.000000   0.000000   0.000000   0.000000
    25  H    0.000000   0.000000   0.000000   0.000000   0.000000
    26  H    0.000000   0.000000   0.000000   0.000000   0.000000
    27  H    0.000000   0.000000   0.000000   0.000000   0.000000
    28  H   -0.000004   0.000000   0.000000   0.000000   0.000000
    29  H    0.000064   0.000002  -0.000001   0.000021  -0.000101
    30  H   -0.000001   0.000000   0.000000   0.000000   0.000001
    31  H    0.000000   0.000000   0.000000   0.000000   0.000086
    32  H    0.000000   0.000000   0.000000   0.000000   0.000001
    33  H   -0.000139   0.000000   0.000000   0.000000  -0.000008
    34  H    0.004200   0.000008   0.000000   0.000000   0.000007
    35  H    0.000023   0.000003   0.000000  -0.000008   0.006810
    36  H    0.001723  -0.000001   0.000000   0.000003   0.000126
    37  H    0.575382  -0.005227  -0.000167   0.000016  -0.000165
    38  H   -0.005227   0.570311  -0.005177  -0.000172   0.000016
    39  H   -0.000167  -0.005177   0.571366  -0.005247  -0.000163
    40  H    0.000016  -0.000172  -0.005247   0.570036  -0.005251
    41  H   -0.000165   0.000016  -0.000163  -0.005251   0.577439
 Mulliken charges:
               1
     1  C   -0.327644
     2  N   -0.527756
     3  C   -0.324771
     4  S    1.339405
     5  O   -0.565618
     6  O   -0.579147
     7  N   -0.733497
     8  C    0.157186
     9  C   -0.494524
    10  S    1.117463
    11  O   -0.562620
    12  O   -0.563007
    13  C   -0.505502
    14  C   -0.289033
    15  C   -0.370753
    16  C    0.142014
    17  C   -0.191984
    18  C   -0.146598
    19  C   -0.151028
    20  C   -0.142782
    21  C   -0.204698
    22  H    0.189259
    23  H    0.171177
    24  H    0.197454
    25  H    0.185699
    26  H    0.197829
    27  H    0.169119
    28  H    0.411888
    29  H    0.234155
    30  H    0.235657
    31  H    0.227756
    32  H    0.255186
    33  H    0.188102
    34  H    0.168342
    35  H    0.162436
    36  H    0.179607
    37  H    0.150431
    38  H    0.151177
    39  H    0.150158
    40  H    0.151367
    41  H    0.148093
 Sum of Mulliken charges =   0.00000
 Mulliken charges with hydrogens summed into heavy atoms:
               1
     1  C    0.230247
     2  N   -0.527756
     3  C    0.227876
     4  S    1.339405
     5  O   -0.565618
     6  O   -0.579147
     7  N   -0.321609
     8  C    0.157186
     9  C   -0.024712
    10  S    1.117463
    11  O   -0.562620
    12  O   -0.563007
    13  C   -0.022560
    14  C    0.067412
    15  C   -0.028710
    16  C    0.142014
    17  C   -0.041553
    18  C    0.004579
    19  C   -0.000871
    20  C    0.008585
    21  C   -0.056605
 Electronic spatial extent (au):  <R**2>=           7962.6357
 Charge=              0.0000 electrons
 Dipole moment (field-independent basis, Debye):
    X=             -1.0608    Y=             -2.7439    Z=             -0.4335  Tot=              2.9736
 Quadrupole moment (field-independent basis, Debye-Ang):
   XX=           -126.9081   YY=           -165.3747   ZZ=           -132.6243
   XY=             16.6423   XZ=              8.9806   YZ=              3.9579
 Traceless Quadrupole moment (field-independent basis, Debye-Ang):
   XX=             14.7276   YY=            -23.7390   ZZ=              9.0114
   XY=             16.6423   XZ=              8.9806   YZ=              3.9579
 Octapole moment (field-independent basis, Debye-Ang**2):
  XXX=             77.1033  YYY=            -56.0859  ZZZ=             -4.3032  XYY=            -17.6804
  XXY=             63.6036  XXZ=             -6.5258  XZZ=              3.7918  YZZ=              6.2050
  YYZ=             -0.6346  XYZ=             -7.0290
 Hexadecapole moment (field-independent basis, Debye-Ang**3):
 XXXX=          -7025.7658 YYYY=          -2260.2530 ZZZZ=           -734.5166 XXXY=             47.2375
 XXXZ=            262.2990 YYYX=             71.8271 YYYZ=             12.5312 ZZZX=              5.7967
 ZZZY=             11.5354 XXYY=          -1703.6853 XXZZ=          -1386.9199 YYZZ=           -469.9787
 XXYZ=             26.6856 YYXZ=             51.5898 ZZXY=             26.5275
 N-N= 2.202596067242D+03 E-N=-8.431152588347D+03  KE= 1.702517271714D+03
 No NMR shielding tensors so no spin-rotation constants.
 Leave Link  601 at Fri Oct  2 02:13:25 2020, MaxMem=  2147483648 cpu:         0.3
 (Enter /prod/apps/gaussian/g09d1/l9999.exe)
 1\1\GINC-PIRINEUS7\SP\RB3LYP\6-31G(d)\C13H20N2O4S2\UBAFAR01\02-Oct-202
 0\0\\#p b3lyp/6-31G(d) scrf=(iefpcm,read,solvent=Water) geom=allcheck 
 guess=read\\SM40.n.22.pdb.xyz\\0,1\C,0,3.297,0.938,2.139\N,0,3.228,-0.
 078,1.073\C,0,1.877,-0.242,0.513\S,0,4.441,0.061,-0.085\O,0,4.092,0.99
 4,-1.168\O,0,5.683,0.289,0.668\N,0,4.372,-1.457,-0.786\C,0,5.179,-2.60
 3,-0.294\C,0,4.511,-3.89,-0.887\S,0,3.724,-4.232,0.72\O,0,2.303,-3.828
 ,0.756\O,0,4.086,-5.545,1.292\C,0,4.844,-2.878,1.208\C,0,6.671,-2.419,
 -0.635\C,0,7.657,-3.54,-0.251\C,0,7.65,-4.773,-1.135\C,0,7.867,-4.665,
 -2.516\C,0,7.894,-5.797,-3.328\C,0,7.706,-7.065,-2.772\C,0,7.492,-7.18
 8,-1.399\C,0,7.466,-6.05,-0.589\H,0,2.618,0.617,2.931\H,0,2.991,1.932,
 1.791\H,0,4.31,0.982,2.534\H,0,1.219,-0.534,1.333\H,0,1.89,-1.039,-0.2
 29\H,0,1.501,0.683,0.061\H,0,4.44,-1.343,-1.799\H,0,5.225,-4.678,-1.12
 2\H,0,3.808,-3.733,-1.703\H,0,5.679,-3.271,1.788\H,0,4.334,-2.073,1.73
 4\H,0,6.987,-1.495,-0.146\H,0,6.739,-2.239,-1.713\H,0,7.52,-3.841,0.79
 3\H,0,8.656,-3.09,-0.298\H,0,8.017,-3.684,-2.957\H,0,8.064,-5.691,-4.3
 95\H,0,7.726,-7.947,-3.404\H,0,7.344,-8.168,-0.955\H,0,7.294,-6.151,0.
 478\\Version=AM64L-G09RevD.01\State=1-A\HF=-1714.064261\RMSD=6.620e-09
 \Dipole=0.8225326,0.3084407,-0.772644\Quadrupole=-0.2220871,-10.978897
 7,11.2009848,-12.0903415,-1.2897961,13.1761326\PG=C01 [X(C13H20N2O4S2)
 ]\\@


 KEEP CLOSE TO NATURES HEART, YOURSELF;
 AND BREAK CLEAR AWAY, ONCE IN A WHILE, AND
 CLIMB A MOUNTAIN OR SPEND A WEEK IN THE
 WOODS.  WASH YOUR SPIRIT CLEAN...
                                         -- JOHN MUIR
 Job cpu time:       0 days  0 hours  5 minutes  9.0 seconds.
 File lengths (MBytes):  RWF=    222 Int=      0 D2E=      0 Chk=      7 Scr=      1
 Normal termination of Gaussian 09 at Fri Oct  2 02:13:25 2020.
