 Entering Gaussian System, Link 0=g09
 Initial command:
 /prod/apps/gaussian/g09d1/l1.exe "/tmp/ubafar01/1462860/Gau-186275.inp" -scrdir="/tmp/ubafar01/1462860/"
 Entering Link 1 = /prod/apps/gaussian/g09d1/l1.exe PID=    186278.
  
 Copyright (c) 1988,1990,1992,1993,1995,1998,2003,2009,2013,
            Gaussian, Inc.  All Rights Reserved.
  
 This is part of the Gaussian(R) 09 program.  It is based on
 the Gaussian(R) 03 system (copyright 2003, Gaussian, Inc.),
 the Gaussian(R) 98 system (copyright 1998, Gaussian, Inc.),
 the Gaussian(R) 94 system (copyright 1995, Gaussian, Inc.),
 the Gaussian 92(TM) system (copyright 1992, Gaussian, Inc.),
 the Gaussian 90(TM) system (copyright 1990, Gaussian, Inc.),
 the Gaussian 88(TM) system (copyright 1988, Gaussian, Inc.),
 the Gaussian 86(TM) system (copyright 1986, Carnegie Mellon
 University), and the Gaussian 82(TM) system (copyright 1983,
 Carnegie Mellon University). Gaussian is a federally registered
 trademark of Gaussian, Inc.
  
 This software contains proprietary and confidential information,
 including trade secrets, belonging to Gaussian, Inc.
  
 This software is provided under written license and may be
 used, copied, transmitted, or stored only in accord with that
 written license.
  
 The following legend is applicable only to US Government
 contracts under FAR:
  
                    RESTRICTED RIGHTS LEGEND
  
 Use, reproduction and disclosure by the US Government is
 subject to restrictions as set forth in subparagraphs (a)
 and (c) of the Commercial Computer Software - Restricted
 Rights clause in FAR 52.227-19.
  
 Gaussian, Inc.
 340 Quinnipiac St., Bldg. 40, Wallingford CT 06492
  
  
 ---------------------------------------------------------------
 Warning -- This program may not be used in any manner that
 competes with the business of Gaussian, Inc. or will provide
 assistance to any competitor of Gaussian, Inc.  The licensee
 of this program is prohibited from giving any competitor of
 Gaussian, Inc. access to this program.  By using this program,
 the user acknowledges that Gaussian, Inc. is engaged in the
 business of creating and licensing software in the field of
 computational chemistry and represents and warrants to the
 licensee that it is not a competitor of Gaussian, Inc. and that
 it will not use this program in any manner prohibited above.
 ---------------------------------------------------------------
  

 Cite this work as:
 Gaussian 09, Revision D.01,
 M. J. Frisch, G. W. Trucks, H. B. Schlegel, G. E. Scuseria, 
 M. A. Robb, J. R. Cheeseman, G. Scalmani, V. Barone, B. Mennucci, 
 G. A. Petersson, H. Nakatsuji, M. Caricato, X. Li, H. P. Hratchian, 
 A. F. Izmaylov, J. Bloino, G. Zheng, J. L. Sonnenberg, M. Hada, 
 M. Ehara, K. Toyota, R. Fukuda, J. Hasegawa, M. Ishida, T. Nakajima, 
 Y. Honda, O. Kitao, H. Nakai, T. Vreven, J. A. Montgomery, Jr., 
 J. E. Peralta, F. Ogliaro, M. Bearpark, J. J. Heyd, E. Brothers, 
 K. N. Kudin, V. N. Staroverov, T. Keith, R. Kobayashi, J. Normand, 
 K. Raghavachari, A. Rendell, J. C. Burant, S. S. Iyengar, J. Tomasi, 
 M. Cossi, N. Rega, J. M. Millam, M. Klene, J. E. Knox, J. B. Cross, 
 V. Bakken, C. Adamo, J. Jaramillo, R. Gomperts, R. E. Stratmann, 
 O. Yazyev, A. J. Austin, R. Cammi, C. Pomelli, J. W. Ochterski, 
 R. L. Martin, K. Morokuma, V. G. Zakrzewski, G. A. Voth, 
 P. Salvador, J. J. Dannenberg, S. Dapprich, A. D. Daniels, 
 O. Farkas, J. B. Foresman, J. V. Ortiz, J. Cioslowski, 
 and D. J. Fox, Gaussian, Inc., Wallingford CT, 2013.
 
 ******************************************
 Gaussian 09:  AM64L-G09RevD.01 24-Apr-2013
                 1-Oct-2020 
 ******************************************
 %nproc=1
 Will use up to    1 processors via shared memory.
 %Chk=SM40.n.18.pdb.xyz.mst.n.w.chk
 %mem=16GB
 -----------------
 #p b3lyp/6-31G(d)
 -----------------
 1/38=1/1;
 2/12=2,17=6,18=5,40=1/2;
 3/5=1,6=6,7=1,11=2,16=1,25=1,30=1,74=-5/1,2,3;
 4//1;
 5/5=2,38=5/2;
 6/7=2,8=2,9=2,10=2,28=1/1;
 99/5=1,9=1/99;
 Leave Link    1 at Thu Oct  1 22:28:47 2020, MaxMem=  2147483648 cpu:         0.0
 (Enter /prod/apps/gaussian/g09d1/l101.exe)
 -----------------
 SM40.n.18.pdb.xyz
 -----------------
 Symbolic Z-matrix:
 Charge =  0 Multiplicity = 1
 C                     1.753    -0.652     1.303 
 N                     2.833     0.167     0.728 
 C                     2.674     1.614     0.959 
 S                     4.376    -0.422     1.001 
 O                     5.307     0.599     0.499 
 O                     4.593    -0.92      2.371 
 N                     4.283    -1.774     0.011 
 C                     5.223    -2.908     0.187 
 C                     4.768    -3.983    -0.853 
 S                     3.85     -4.863     0.459 
 O                     2.41     -4.529     0.456 
 O                     4.231    -6.281     0.61 
 C                     4.831    -3.712     1.468 
 C                     6.692    -2.463     0.063 
 C                     7.792    -3.543     0.086 
 C                     8.115    -4.145     1.439 
 C                     8.031    -5.527     1.645 
 C                     8.354    -6.091     2.88 
 C                     8.77     -5.277     3.934 
 C                     8.861    -3.896     3.742 
 C                     8.538    -3.337     2.505 
 H                     0.816    -0.321     0.851 
 H                     1.685    -0.541     2.392 
 H                     1.917    -1.698     1.048 
 H                     1.726     1.908     0.505 
 H                     3.485     2.15      0.471 
 H                     2.65      1.867     2.025 
 H                     4.234    -1.46     -0.961 
 H                     5.582    -4.61     -1.214 
 H                     4.151    -3.634    -1.68 
 H                     5.669    -4.246     1.914 
 H                     4.27     -3.163     2.218 
 H                     6.889    -1.735     0.856 
 H                     6.77     -1.916    -0.882 
 H                     8.698    -3.063    -0.307 
 H                     7.555    -4.347    -0.617 
 H                     7.705    -6.164     0.828 
 H                     8.279    -7.165     3.018 
 H                     9.022    -5.713     4.895 
 H                     9.187    -3.255     4.554 
 H                     8.615    -2.263     2.365 
 
 NAtoms=     41 NQM=       41 NQMF=       0 NMMI=      0 NMMIF=      0
                NMic=       0 NMicF=      0.
                    Isotopes and Nuclear Properties:
 (Nuclear quadrupole moments (NQMom) in fm**2, nuclear magnetic moments (NMagM)
  in nuclear magnetons)

  Atom         1           2           3           4           5           6           7           8           9          10
 IAtWgt=          12          14          12          32          16          16          14          12          12          32
 AtmWgt=  12.0000000  14.0030740  12.0000000  31.9720718  15.9949146  15.9949146  14.0030740  12.0000000  12.0000000  31.9720718
 NucSpn=           0           2           0           0           0           0           2           0           0           0
 AtZEff=   0.0000000   0.0000000   0.0000000   0.0000000   0.0000000   0.0000000   0.0000000   0.0000000   0.0000000   0.0000000
 NQMom=    0.0000000   2.0440000   0.0000000   0.0000000   0.0000000   0.0000000   2.0440000   0.0000000   0.0000000   0.0000000
 NMagM=    0.0000000   0.4037610   0.0000000   0.0000000   0.0000000   0.0000000   0.4037610   0.0000000   0.0000000   0.0000000
 AtZNuc=   6.0000000   7.0000000   6.0000000  16.0000000   8.0000000   8.0000000   7.0000000   6.0000000   6.0000000  16.0000000

  Atom        11          12          13          14          15          16          17          18          19          20
 IAtWgt=          16          16          12          12          12          12          12          12          12          12
 AtmWgt=  15.9949146  15.9949146  12.0000000  12.0000000  12.0000000  12.0000000  12.0000000  12.0000000  12.0000000  12.0000000
 NucSpn=           0           0           0           0           0           0           0           0           0           0
 AtZEff=   0.0000000   0.0000000   0.0000000   0.0000000   0.0000000   0.0000000   0.0000000   0.0000000   0.0000000   0.0000000
 NQMom=    0.0000000   0.0000000   0.0000000   0.0000000   0.0000000   0.0000000   0.0000000   0.0000000   0.0000000   0.0000000
 NMagM=    0.0000000   0.0000000   0.0000000   0.0000000   0.0000000   0.0000000   0.0000000   0.0000000   0.0000000   0.0000000
 AtZNuc=   8.0000000   8.0000000   6.0000000   6.0000000   6.0000000   6.0000000   6.0000000   6.0000000   6.0000000   6.0000000

  Atom        21          22          23          24          25          26          27          28          29          30
 IAtWgt=          12           1           1           1           1           1           1           1           1           1
 AtmWgt=  12.0000000   1.0078250   1.0078250   1.0078250   1.0078250   1.0078250   1.0078250   1.0078250   1.0078250   1.0078250
 NucSpn=           0           1           1           1           1           1           1           1           1           1
 AtZEff=   0.0000000   0.0000000   0.0000000   0.0000000   0.0000000   0.0000000   0.0000000   0.0000000   0.0000000   0.0000000
 NQMom=    0.0000000   0.0000000   0.0000000   0.0000000   0.0000000   0.0000000   0.0000000   0.0000000   0.0000000   0.0000000
 NMagM=    0.0000000   2.7928460   2.7928460   2.7928460   2.7928460   2.7928460   2.7928460   2.7928460   2.7928460   2.7928460
 AtZNuc=   6.0000000   1.0000000   1.0000000   1.0000000   1.0000000   1.0000000   1.0000000   1.0000000   1.0000000   1.0000000

  Atom        31          32          33          34          35          36          37          38          39          40
 IAtWgt=           1           1           1           1           1           1           1           1           1           1
 AtmWgt=   1.0078250   1.0078250   1.0078250   1.0078250   1.0078250   1.0078250   1.0078250   1.0078250   1.0078250   1.0078250
 NucSpn=           1           1           1           1           1           1           1           1           1           1
 AtZEff=   0.0000000   0.0000000   0.0000000   0.0000000   0.0000000   0.0000000   0.0000000   0.0000000   0.0000000   0.0000000
 NQMom=    0.0000000   0.0000000   0.0000000   0.0000000   0.0000000   0.0000000   0.0000000   0.0000000   0.0000000   0.0000000
 NMagM=    2.7928460   2.7928460   2.7928460   2.7928460   2.7928460   2.7928460   2.7928460   2.7928460   2.7928460   2.7928460
 AtZNuc=   1.0000000   1.0000000   1.0000000   1.0000000   1.0000000   1.0000000   1.0000000   1.0000000   1.0000000   1.0000000

  Atom        41
 IAtWgt=           1
 AtmWgt=   1.0078250
 NucSpn=           1
 AtZEff=   0.0000000
 NQMom=    0.0000000
 NMagM=    2.7928460
 AtZNuc=   1.0000000
 Leave Link  101 at Thu Oct  1 22:28:47 2020, MaxMem=  2147483648 cpu:         0.1
 (Enter /prod/apps/gaussian/g09d1/l202.exe)
                          Input orientation:                          
 ---------------------------------------------------------------------
 Center     Atomic      Atomic             Coordinates (Angstroms)
 Number     Number       Type             X           Y           Z
 ---------------------------------------------------------------------
      1          6           0        1.753000   -0.652000    1.303000
      2          7           0        2.833000    0.167000    0.728000
      3          6           0        2.674000    1.614000    0.959000
      4         16           0        4.376000   -0.422000    1.001000
      5          8           0        5.307000    0.599000    0.499000
      6          8           0        4.593000   -0.920000    2.371000
      7          7           0        4.283000   -1.774000    0.011000
      8          6           0        5.223000   -2.908000    0.187000
      9          6           0        4.768000   -3.983000   -0.853000
     10         16           0        3.850000   -4.863000    0.459000
     11          8           0        2.410000   -4.529000    0.456000
     12          8           0        4.231000   -6.281000    0.610000
     13          6           0        4.831000   -3.712000    1.468000
     14          6           0        6.692000   -2.463000    0.063000
     15          6           0        7.792000   -3.543000    0.086000
     16          6           0        8.115000   -4.145000    1.439000
     17          6           0        8.031000   -5.527000    1.645000
     18          6           0        8.354000   -6.091000    2.880000
     19          6           0        8.770000   -5.277000    3.934000
     20          6           0        8.861000   -3.896000    3.742000
     21          6           0        8.538000   -3.337000    2.505000
     22          1           0        0.816000   -0.321000    0.851000
     23          1           0        1.685000   -0.541000    2.392000
     24          1           0        1.917000   -1.698000    1.048000
     25          1           0        1.726000    1.908000    0.505000
     26          1           0        3.485000    2.150000    0.471000
     27          1           0        2.650000    1.867000    2.025000
     28          1           0        4.234000   -1.460000   -0.961000
     29          1           0        5.582000   -4.610000   -1.214000
     30          1           0        4.151000   -3.634000   -1.680000
     31          1           0        5.669000   -4.246000    1.914000
     32          1           0        4.270000   -3.163000    2.218000
     33          1           0        6.889000   -1.735000    0.856000
     34          1           0        6.770000   -1.916000   -0.882000
     35          1           0        8.698000   -3.063000   -0.307000
     36          1           0        7.555000   -4.347000   -0.617000
     37          1           0        7.705000   -6.164000    0.828000
     38          1           0        8.279000   -7.165000    3.018000
     39          1           0        9.022000   -5.713000    4.895000
     40          1           0        9.187000   -3.255000    4.554000
     41          1           0        8.615000   -2.263000    2.365000
 ---------------------------------------------------------------------
                    Distance matrix (angstroms):
                    1          2          3          4          5
     1  C    0.000000
     2  N    1.472340   0.000000
     3  C    2.470088   1.473924   0.000000
     4  S    2.650327   1.674007   2.654028   0.000000
     5  O    3.852575   2.521853   2.859111   1.470104   0.000000
     6  O    3.045989   2.641707   3.478140   1.473768   2.514267
     7  N    3.054349   2.526672   3.868608   1.678289   2.630180
     8  C    4.286711   3.931972   5.248035   2.749582   3.521853
     9  C    4.983385   4.844201   6.244565   4.033820   4.807614
    10  S    4.779358   5.138828   6.601856   4.504766   5.653131
    11  O    4.022460   4.722852   6.169210   4.585807   5.889893
    12  O    6.189214   6.598866   8.054631   5.873822   6.964517
    13  C    4.343375   4.425635   5.768709   3.353985   4.444126
    14  C    5.404724   4.717097   5.793882   3.226357   3.388829
    15  C    6.805034   6.226391   7.317835   4.716664   4.847882
    16  C    7.259104   6.855537   7.937315   5.294591   5.592316
    17  C    7.955870   7.764131   8.953319   6.311480   6.801571
    18  C    8.697290   8.618301   9.763179   7.175840   7.727190
    19  C    8.806309   8.669691   9.669422   7.175009   7.636686
    20  C    8.185104   7.869495   8.739803   6.300554   6.584299
    21  C    7.395286   6.926960   7.828730   5.299197   5.473161
    22  H    1.091712   2.078837   2.684782   3.564590   4.597759
    23  H    1.096752   2.141977   2.770494   3.031588   4.242868
    24  H    1.089053   2.102304   3.398575   2.770752   4.131551
    25  H    2.681629   2.075153   1.091447   3.563343   3.812752
    26  H    3.397536   2.103198   1.087732   2.773079   2.392921
    27  H    2.769703   2.146089   1.095875   3.044203   3.316044
    28  H    3.454551   2.731785   3.945818   2.224197   2.742701
    29  H    6.054940   5.843637   7.205315   4.888763   5.490326
    30  H    4.851909   4.688623   6.057009   4.189908   4.899252
    31  H    5.350254   5.378109   6.649936   4.138646   5.060365
    32  H    3.671190   3.920965   5.191534   3.000901   4.264150
    33  H    5.267940   4.481643   5.384481   2.839043   2.842135
    34  H    5.616245   4.736133   5.712040   3.392486   3.220676
    35  H    7.525825   6.775127   7.730825   5.231198   5.055567
    36  H    7.141612   6.669521   7.863934   5.303734   5.546339
    37  H    8.126135   7.989239   9.264200   6.639483   7.183092
    38  H    9.378117   9.416010  10.617266   8.047965   8.686647
    39  H    9.557957   9.499579  10.462989   8.046318   8.542095
    40  H    8.521089   8.168334   8.891027   6.617811   6.808138
    41  H    7.128128   6.481990   7.232112   4.818599   4.755614
                    6          7          8          9         10
     6  O    0.000000
     7  N    2.528837   0.000000
     8  C    3.019752   1.483419   0.000000
     9  C    4.450480   2.421033   1.563410   0.000000
    10  S    4.444664   3.151208   2.404400   1.827148   0.000000
    11  O    4.632234   3.360979   3.257756   2.751683   1.478230
    12  O    5.654422   4.546928   3.541203   2.776606   1.476037
    13  C    2.944031   2.485759   1.562383   2.337617   1.818033
    14  C    3.480447   2.506134   1.539923   2.617486   3.740826
    15  C    4.725987   3.930403   2.648242   3.196857   4.173834
    16  C    4.865566   4.727055   3.385460   4.059793   4.434653
    17  C    5.794081   5.549997   4.107285   4.389887   4.396391
    18  C    6.414315   6.590955   5.214106   5.589128   5.258825
    19  C    6.234881   6.913328   5.677445   6.372269   6.037667
    20  C    5.380710   6.275454   5.181623   6.154205   6.068220
    21  C    4.628485   5.173783   4.067725   5.089831   5.337803
    22  H    4.115207   3.851869   5.153165   5.650855   5.476183
    23  H    2.932669   3.733504   4.793971   5.646439   5.206092
    24  H    3.084897   2.584396   3.624232   4.118644   3.755081
    25  H    4.438381   4.509923   5.960200   6.767703   7.096473
    26  H    3.776581   4.030655   5.355807   6.404120   7.022502
    27  H    3.415016   4.469873   5.727058   6.855021   7.013220
    28  H    3.394511   1.022634   2.095884   2.581153   3.707326
    29  H    5.238936   3.351257   2.233492   1.089057   2.421314
    30  H    4.896097   2.517242   2.271992   1.089229   2.485229
    31  H    3.525465   3.413677   2.229728   2.921859   2.409663
    32  H    2.271296   2.607746   2.257918   3.217366   2.482032
    33  H    2.868983   2.739851   2.144539   3.531689   4.379214
    34  H    4.038979   2.646277   2.126037   2.877731   4.359987
    35  H    5.349314   4.610300   3.513358   4.073011   5.227797
    36  H    5.426409   4.209596   2.855759   2.820560   3.892436
    37  H    6.290066   5.625804   4.144001   4.025977   4.085314
    38  H    7.280469   7.353431   5.956152   6.118569   5.609254
    39  H    6.997104   7.863034   6.668260   7.357236   6.866599
    40  H    5.596655   6.847001   5.907994   7.020911   6.916521
    41  H    4.240303   4.954459   4.082324   5.302201   5.753091
                   11         12         13         14         15
    11  O    0.000000
    12  O    2.531652   0.000000
    13  C    2.748249   2.774153   0.000000
    14  C    4.770569   4.575244   2.645250   0.000000
    15  C    5.484070   4.522382   3.272003   1.541729   0.000000
    16  C    5.801790   4.509456   3.312550   2.597581   1.515699
    17  C    5.831412   4.009955   3.683145   3.699154   2.534533
    18  C    6.606569   4.710428   4.479388   4.884682   3.822903
    19  C    7.287358   5.714850   4.903682   5.217406   4.332476
    20  C    7.267316   6.077380   4.630964   4.504785   3.825403
    21  C    6.570514   5.550532   3.867537   3.183545   2.539786
    22  H    4.517093   6.873275   5.291483   6.303688   7.722117
    23  H    4.491978   6.527269   4.561396   5.847083   7.185060
    24  H    2.933952   5.152701   3.567071   4.935187   6.232583
    25  H    6.473425   8.564215   6.492518   6.630397   8.166108
    26  H    6.764975   8.465081   6.096619   5.633035   7.149037
    27  H    6.590006   8.419720   6.016000   6.239880   7.711549
    28  H    3.841045   5.070512   3.365703   2.845408   4.253759
    29  H    3.585672   2.818584   2.926351   2.733576   2.777155
    30  H    2.897344   3.501015   3.221551   3.296357   4.047705
    31  H    3.581471   2.812381   1.089181   2.766192   2.888412
    32  H    2.903481   3.508434   1.085644   3.316641   4.134526
    33  H    5.294136   5.271774   2.918636   1.094368   2.162677
    34  H    5.256198   5.265530   3.536642   1.094677   2.151427
    35  H    6.501559   5.581263   4.304128   2.126249   1.098037
    36  H    5.258848   4.036689   3.488642   2.180969   1.093981
    37  H    5.554155   3.482799   3.831681   3.912646   2.725394
    38  H    6.925135   4.792309   5.120001   5.775760   4.685368
    39  H    8.051405   6.452715   5.771725   6.272131   5.417405
    40  H    8.021497   7.019526   5.357890   5.198208   4.689562
    41  H    6.876123   6.200307   4.150044   3.006182   2.740359
                   16         17         18         19         20
    16  C    0.000000
    17  C    1.399791   0.000000
    18  C    2.433211   1.395582   0.000000
    19  C    2.816997   2.418293   1.395195   0.000000
    20  C    2.433583   2.783248   2.412078   1.397249   0.000000
    21  C    1.402907   2.406813   2.785498   2.420633   1.395342
    22  H    8.261000   8.932474   9.707275   9.865746   9.266096
    23  H    7.432491   8.104932   8.690006   8.660525   8.035764
    24  H    6.675020   7.238691   8.005601   8.252384   7.765821
    25  H    8.850451   9.814879  10.656219  10.630155   9.750529
    26  H    7.874068   8.998929   9.870386   9.751099   8.726679
    27  H    8.145782   9.152639   9.828347   9.598720   8.645044
    28  H    5.294467   6.144016   7.292040   7.688030   7.032882
    29  H    3.697394   3.874580   5.161219   6.091809   5.985280
    30  H    5.069771   5.449172   6.670507   7.453295   7.186851
    31  H    2.493741   2.700438   3.398000   3.841818   3.694990
    32  H    4.044155   4.479056   5.068578   5.259625   4.892560
    33  H    2.766056   4.038063   5.021707   5.055493   4.109465
    34  H    3.487765   4.584231   5.838863   6.204045   5.447390
    35  H    2.135212   3.213485   4.409545   4.784669   4.137011
    36  H    2.140453   2.595307   3.988602   4.801325   4.572736
    37  H    2.148903   1.086064   2.153424   3.401210   3.869309
    38  H    3.411823   2.151668   1.085424   2.155152   3.398420
    39  H    3.901949   3.402819   2.156231   1.084952   2.157966
    40  H    3.412405   3.867894   3.396919   2.155637   1.084666
    41  H    2.156247   3.393104   3.871296   3.401468   2.150194
                   21         22         23         24         25
    21  C    0.000000
    22  H    8.453476   0.000000
    23  H    7.402297   1.782762   0.000000
    24  H    6.974727   1.774018   1.788521   0.000000
    25  H    8.826855   2.432336   3.091933   3.651653   0.000000
    26  H    7.731567   3.657021   3.764535   4.195075   1.775894
    27  H    7.872773   3.086936   2.619996   3.768427   1.779286
    28  H    5.836155   4.032789   4.310983   3.075909   4.447768
    29  H    4.918275   6.736060   6.689290   5.198905   7.765824
    30  H    6.070272   5.338928   5.677058   4.022541   6.431844
    31  H    3.067038   6.331446   5.461480   4.617333   7.443403
    32  H    4.281176   4.677154   3.686107   3.008610   5.926327
    33  H    2.829277   6.235443   5.555767   4.975843   6.328603
    34  H    4.076375   6.402924   6.202171   5.227240   6.479867
    35  H    2.829845   8.425286   7.926364   7.048490   8.601103
    36  H    3.425387   7.986102   7.615551   6.447982   8.623291
    37  H    3.390892   9.033244   8.384785   7.313993  10.050371
    38  H    3.870896  10.355317   9.367502   8.616498  11.470672
    39  H    3.404663  10.619135   9.319129   9.022231  11.427308
    40  H    2.150890   9.612190   8.265594   8.220048   9.935668
    41  H    1.085820   8.178506   7.140792   6.849593   8.265299
                   26         27         28         29         30
    26  H    0.000000
    27  H    1.786681   0.000000
    28  H    3.955215   4.742803   0.000000
    29  H    7.275592   7.812764   3.435639   0.000000
    30  H    6.206852   6.800076   2.291315   1.793737   0.000000
    31  H    6.910928   6.818757   4.252840   3.150309   3.949140
    32  H    5.647672   5.287963   3.606598   3.948896   3.928156
    33  H    5.179640   5.684196   3.228953   3.776079   4.187379
    34  H    5.399462   6.303661   2.577881   2.962972   3.232258
    35  H    7.413233   8.143797   4.787966   3.595179   4.783971
    36  H    7.743362   8.345836   4.413858   2.078054   3.636695
    37  H    9.330512   9.564664   6.113590   3.330437   5.032085
    38  H   10.781413  10.688719   8.046210   5.631311   7.181890
    39  H   10.585694  10.309980   8.677885   7.097189   8.442719
    40  H    8.854249   8.681192   7.626891   6.935551   8.022948
    41  H    7.026998   7.263176   5.558799   5.245640   6.178103
                   31         32         33         34         35
    31  H    0.000000
    32  H    1.795134   0.000000
    33  H    2.985446   3.279236   0.000000
    34  H    3.802462   4.173129   1.751447   0.000000
    35  H    3.937915   5.098314   2.527575   2.315905   0.000000
    36  H    3.158031   4.497811   3.071779   2.568309   1.746770
    37  H    3.000569   4.768367   4.503630   4.673738   3.448257
    38  H    4.068351   5.720847   6.007599   6.711116   5.296942
    39  H    4.720282   6.020825   6.057037   7.270656   5.847074
    40  H    4.508659   5.444470   4.611552   6.097943   4.889305
    41  H    3.579749   4.439666   2.352646   3.750659   2.790425
                   36         37         38         39         40
    36  H    0.000000
    37  H    2.326374   0.000000
    38  H    4.656020   2.475394   0.000000
    39  H    5.865167   4.298649   2.486661   0.000000
    40  H    5.531286   4.953956   4.297890   2.487020   0.000000
    41  H    3.789324   4.290486   4.956703   4.297563   2.470419
                   41
    41  H    0.000000
 Stoichiometry    C13H20N2O4S2
 Framework group  C1[X(C13H20N2O4S2)]
 Deg. of freedom   117
 Full point group                 C1      NOp   1
 Largest Abelian subgroup         C1      NOp   1
 Largest concise Abelian subgroup C1      NOp   1
                         Standard orientation:                         
 ---------------------------------------------------------------------
 Center     Atomic      Atomic             Coordinates (Angstroms)
 Number     Number       Type             X           Y           Z
 ---------------------------------------------------------------------
      1          6           0       -3.893225    0.610278   -1.291511
      2          7           0       -3.854128   -0.437588   -0.257957
      3          6           0       -4.934735   -1.433160   -0.374477
      4         16           0       -2.334936   -1.080653    0.026336
      5          8           0       -2.524517   -2.202617    0.957176
      6          8           0       -1.556655   -1.341563   -1.197672
      7          7           0       -1.647551    0.268414    0.750333
      8          6           0       -0.173768    0.416820    0.830777
      9          6           0        0.062242    1.814555    1.490237
     10         16           0        0.326765    2.548790   -0.161852
     11          8           0       -0.887577    3.212883   -0.681003
     12          8           0        1.615802    3.253293   -0.305878
     13          6           0        0.388227    0.780771   -0.580868
     14          6           0        0.485331   -0.767521    1.561726
     15          6           0        1.998505   -0.703637    1.850087
     16          6           0        2.918624   -0.951781    0.671466
     17          6           0        3.877603   -0.001851    0.300783
     18          6           0        4.746835   -0.235737   -0.765699
     19          6           0        4.671128   -1.431023   -1.481330
     20          6           0        3.720469   -2.389467   -1.120859
     21          6           0        2.854352   -2.151381   -0.053087
     22          1           0       -4.855441    1.118699   -1.205008
     23          1           0       -3.795174    0.197345   -2.302816
     24          1           0       -3.096729    1.329890   -1.107691
     25          1           0       -5.878757   -0.891249   -0.294409
     26          1           0       -4.861180   -2.145146    0.444563
     27          1           0       -4.911564   -1.965101   -1.332309
     28          1           0       -2.100708    0.415703    1.655173
     29          1           0        0.983405    1.872122    2.068329
     30          1           0       -0.771860    2.240953    2.046003
     31          1           0        1.425020    0.478449   -0.722209
     32          1           0       -0.226606    0.485417   -1.425480
     33          1           0        0.268121   -1.675583    0.990863
     34          1           0       -0.040233   -0.872092    2.516276
     35          1           0        2.195477   -1.468481    2.612912
     36          1           0        2.260486    0.251440    2.314833
     37          1           0        3.938134    0.931103    0.853474
     38          1           0        5.480974    0.516200   -1.037313
     39          1           0        5.345936   -1.615443   -2.310633
     40          1           0        3.656097   -3.323492   -1.668540
     41          1           0        2.121163   -2.903872    0.221133
 ---------------------------------------------------------------------
 Rotational constants (GHZ):      0.3926150      0.1829615      0.1461466
 Leave Link  202 at Thu Oct  1 22:28:47 2020, MaxMem=  2147483648 cpu:         0.0
 (Enter /prod/apps/gaussian/g09d1/l301.exe)
 Standard basis: 6-31G(d) (6D, 7F)
 Ernie: Thresh=  0.10000D-02 Tol=  0.10000D-05 Strict=F.
 There are   363 symmetry adapted cartesian basis functions of A   symmetry.
 There are   363 symmetry adapted basis functions of A   symmetry.
   363 basis functions,   716 primitive gaussians,   363 cartesian basis functions
    88 alpha electrons       88 beta electrons
       nuclear repulsion energy      2206.4707971167 Hartrees.
 IExCor=  402 DFT=T Ex+Corr=B3LYP ExCW=0 ScaHFX=  0.200000
 ScaDFX=  0.800000  0.720000  1.000000  0.810000 ScalE2=  1.000000  1.000000
 IRadAn=      0 IRanWt=     -1 IRanGd=            0 ICorTp=0 IEmpDi=  4
 NAtoms=   41 NActive=   41 NUniq=   41 SFac= 1.00D+00 NAtFMM=   60 NAOKFM=F Big=F
 Integral buffers will be    131072 words long.
 Raffenetti 2 integral format.
 Two-electron integral symmetry is turned on.
 Leave Link  301 at Thu Oct  1 22:28:47 2020, MaxMem=  2147483648 cpu:         0.0
 (Enter /prod/apps/gaussian/g09d1/l302.exe)
 NPDir=0 NMtPBC=     1 NCelOv=     1 NCel=       1 NClECP=     1 NCelD=      1
         NCelK=      1 NCelE2=     1 NClLst=     1 CellRange=     0.0.
 One-electron integrals computed using PRISM.
 NBasis=   363 RedAO= T EigKep=  4.68D-04  NBF=   363
 NBsUse=   363 1.00D-06 EigRej= -1.00D+00 NBFU=   363
 Precomputing XC quadrature grid using
 IXCGrd= 4 IRadAn=           0 IRanWt=          -1 IRanGd=           0 AccXCQ= 0.00D+00.
 Generated NRdTot=       0 NPtTot=           0 NUsed=           0 NTot=          32
 NSgBfM=   359   359   360   361   361 MxSgAt=    41 MxSgA2=    41.
 Leave Link  302 at Thu Oct  1 22:28:48 2020, MaxMem=  2147483648 cpu:         1.3
 (Enter /prod/apps/gaussian/g09d1/l303.exe)
 DipDrv:  MaxL=1.
 Leave Link  303 at Thu Oct  1 22:28:49 2020, MaxMem=  2147483648 cpu:         0.0
 (Enter /prod/apps/gaussian/g09d1/l401.exe)
 ExpMin= 1.17D-01 ExpMax= 2.19D+04 ExpMxC= 3.30D+03 IAcc=1 IRadAn=         1 AccDes= 0.00D+00
 Harris functional with IExCor=  402 and IRadAn=       1 diagonalized for initial guess.
 HarFok:  IExCor=  402 AccDes= 0.00D+00 IRadAn=         1 IDoV= 1 UseB2=F ITyADJ=14
 ICtDFT=  3500011 ScaDFX=  1.000000  1.000000  1.000000  1.000000
 FoFCou: FMM=F IPFlag=           0 FMFlag=      100000 FMFlg1=           0
         NFxFlg=           0 DoJE=T BraDBF=F KetDBF=T FulRan=T
         wScrn=  0.000000 ICntrl=     500 IOpCl=  0 I1Cent=   200000004 NGrid=           0
         NMat0=    1 NMatS0=      1 NMatT0=    0 NMatD0=    1 NMtDS0=    0 NMtDT0=    0
 Petite list used in FoFCou.
 Harris En= -1714.14651868799    
 JPrj=0 DoOrth=F DoCkMO=F.
 Leave Link  401 at Thu Oct  1 22:28:53 2020, MaxMem=  2147483648 cpu:         4.9
 (Enter /prod/apps/gaussian/g09d1/l502.exe)
 Closed shell SCF:
 Using DIIS extrapolation, IDIIS=  1040.
 Integral symmetry usage will be decided dynamically.
 IVT=      418784 IEndB=      418784 NGot=  2147483648 MDV=  2147213637
 LenX=  2147213637 LenY=  2147081427
 Requested convergence on RMS density matrix=1.00D-08 within 128 cycles.
 Requested convergence on MAX density matrix=1.00D-06.
 Requested convergence on             energy=1.00D-06.
 No special actions if energy rises.
 Fock matrices will be formed incrementally for  20 cycles.
 Integral accuracy reduced to 1.0D-05 until final iterations.

 Cycle   1  Pass 0  IDiag  1:
 FoFJK:  IHMeth= 1 ICntrl=       0 DoSepK=F KAlg= 0 I1Cent=   0 FoldK=F
 IRaf= 760000000 NMat=   1 IRICut=       1 DoRegI=T DoRafI=F ISym2E= 0.
 FoFCou: FMM=F IPFlag=           0 FMFlag=      100000 FMFlg1=           0
         NFxFlg=           0 DoJE=F BraDBF=F KetDBF=F FulRan=T
         wScrn=  0.000000 ICntrl=       0 IOpCl=  0 I1Cent=           0 NGrid=           0
         NMat0=    1 NMatS0=      1 NMatT0=    0 NMatD0=    1 NMtDS0=    0 NMtDT0=    0
 Symmetry not used in FoFCou.
 E= -1713.19464950339    
 DIIS: error= 2.79D-02 at cycle   1 NSaved=   1.
 NSaved= 1 IEnMin= 1 EnMin= -1713.19464950339     IErMin= 1 ErrMin= 2.79D-02
 ErrMax= 2.79D-02  0.00D+00 EMaxC= 1.00D-01 BMatC= 9.94D-01 BMatP= 9.94D-01
 IDIUse=3 WtCom= 7.21D-01 WtEn= 2.79D-01
 Coeff-Com:  0.100D+01
 Coeff-En:   0.100D+01
 Coeff:      0.100D+01
 Gap=     0.357 Goal=   None    Shift=    0.000
 GapD=    0.357 DampG=1.000 DampE=0.500 DampFc=0.5000 IDamp=-1.
 Damping current iteration by 5.00D-01
 RMSDP=7.10D-03 MaxDP=6.02D-01              OVMax= 2.45D-01

 Cycle   2  Pass 0  IDiag  1:
 RMSU=  3.55D-03    CP:  9.99D-01
 E= -1713.36800799173     Delta-E=       -0.173358488335 Rises=F Damp=T
 DIIS: error= 1.47D-02 at cycle   2 NSaved=   2.
 NSaved= 2 IEnMin= 2 EnMin= -1713.36800799173     IErMin= 2 ErrMin= 1.47D-02
 ErrMax= 1.47D-02  0.00D+00 EMaxC= 1.00D-01 BMatC= 1.73D-01 BMatP= 9.94D-01
 IDIUse=3 WtCom= 8.53D-01 WtEn= 1.47D-01
 Coeff-Com:  0.252D+00 0.748D+00
 Coeff-En:   0.398D+00 0.602D+00
 Coeff:      0.273D+00 0.727D+00
 Gap=     0.299 Goal=   None    Shift=    0.000
 RMSDP=2.08D-03 MaxDP=1.31D-01 DE=-1.73D-01 OVMax= 2.05D-01

 Cycle   3  Pass 0  IDiag  1:
 RMSU=  1.62D-03    CP:  9.90D-01  6.37D-01
 E= -1713.94779849067     Delta-E=       -0.579790498943 Rises=F Damp=F
 DIIS: error= 1.01D-02 at cycle   3 NSaved=   3.
 NSaved= 3 IEnMin= 3 EnMin= -1713.94779849067     IErMin= 3 ErrMin= 1.01D-02
 ErrMax= 1.01D-02  0.00D+00 EMaxC= 1.00D-01 BMatC= 9.92D-02 BMatP= 1.73D-01
 IDIUse=3 WtCom= 8.99D-01 WtEn= 1.01D-01
 Coeff-Com:  0.103D+00 0.439D+00 0.459D+00
 Coeff-En:   0.000D+00 0.000D+00 0.100D+01
 Coeff:      0.924D-01 0.394D+00 0.513D+00
 Gap=     0.241 Goal=   None    Shift=    0.000
 RMSDP=1.25D-03 MaxDP=4.58D-02 DE=-5.80D-01 OVMax= 7.50D-02

 Cycle   4  Pass 0  IDiag  1:
 RMSU=  7.41D-04    CP:  9.95D-01  7.18D-01  4.12D-01
 E= -1714.02738465558     Delta-E=       -0.079586164908 Rises=F Damp=F
 DIIS: error= 3.23D-03 at cycle   4 NSaved=   4.
 NSaved= 4 IEnMin= 4 EnMin= -1714.02738465558     IErMin= 4 ErrMin= 3.23D-03
 ErrMax= 3.23D-03  0.00D+00 EMaxC= 1.00D-01 BMatC= 1.35D-02 BMatP= 9.92D-02
 IDIUse=3 WtCom= 9.68D-01 WtEn= 3.23D-02
 Coeff-Com:  0.104D-01 0.780D-01 0.282D+00 0.629D+00
 Coeff-En:   0.000D+00 0.000D+00 0.119D+00 0.881D+00
 Coeff:      0.100D-01 0.754D-01 0.277D+00 0.637D+00
 Gap=     0.238 Goal=   None    Shift=    0.000
 RMSDP=3.85D-04 MaxDP=1.86D-02 DE=-7.96D-02 OVMax= 2.19D-02

 Cycle   5  Pass 0  IDiag  1:
 RMSU=  1.68D-04    CP:  9.95D-01  7.04D-01  5.55D-01  6.58D-01
 E= -1714.03862114533     Delta-E=       -0.011236489751 Rises=F Damp=F
 DIIS: error= 8.77D-04 at cycle   5 NSaved=   5.
 NSaved= 5 IEnMin= 5 EnMin= -1714.03862114533     IErMin= 5 ErrMin= 8.77D-04
 ErrMax= 8.77D-04  0.00D+00 EMaxC= 1.00D-01 BMatC= 8.85D-04 BMatP= 1.35D-02
 IDIUse=3 WtCom= 9.91D-01 WtEn= 8.77D-03
 Coeff-Com: -0.901D-03 0.160D-01 0.114D+00 0.333D+00 0.537D+00
 Coeff-En:   0.000D+00 0.000D+00 0.000D+00 0.000D+00 0.100D+01
 Coeff:     -0.894D-03 0.159D-01 0.113D+00 0.330D+00 0.541D+00
 Gap=     0.238 Goal=   None    Shift=    0.000
 RMSDP=1.03D-04 MaxDP=7.09D-03 DE=-1.12D-02 OVMax= 5.89D-03

 Cycle   6  Pass 0  IDiag  1:
 RMSU=  5.69D-05    CP:  9.94D-01  7.06D-01  5.50D-01  7.09D-01  5.53D-01
 E= -1714.03930776924     Delta-E=       -0.000686623907 Rises=F Damp=F
 DIIS: error= 4.86D-04 at cycle   6 NSaved=   6.
 NSaved= 6 IEnMin= 6 EnMin= -1714.03930776924     IErMin= 6 ErrMin= 4.86D-04
 ErrMax= 4.86D-04  0.00D+00 EMaxC= 1.00D-01 BMatC= 1.27D-04 BMatP= 8.85D-04
 IDIUse=3 WtCom= 9.95D-01 WtEn= 4.86D-03
 Coeff-Com: -0.135D-02 0.355D-02 0.451D-01 0.145D+00 0.331D+00 0.476D+00
 Coeff-En:   0.000D+00 0.000D+00 0.000D+00 0.000D+00 0.596D-01 0.940D+00
 Coeff:     -0.134D-02 0.353D-02 0.449D-01 0.144D+00 0.330D+00 0.479D+00
 Gap=     0.238 Goal=   None    Shift=    0.000
 RMSDP=3.71D-05 MaxDP=2.08D-03 DE=-6.87D-04 OVMax= 3.25D-03

 Cycle   7  Pass 0  IDiag  1:
 RMSU=  2.40D-05    CP:  9.94D-01  7.06D-01  5.51D-01  7.10D-01  6.07D-01
                    CP:  5.31D-01
 E= -1714.03939404717     Delta-E=       -0.000086277936 Rises=F Damp=F
 DIIS: error= 2.11D-04 at cycle   7 NSaved=   7.
 NSaved= 7 IEnMin= 7 EnMin= -1714.03939404717     IErMin= 7 ErrMin= 2.11D-04
 ErrMax= 2.11D-04  0.00D+00 EMaxC= 1.00D-01 BMatC= 2.03D-05 BMatP= 1.27D-04
 IDIUse=3 WtCom= 9.98D-01 WtEn= 2.11D-03
 Coeff-Com: -0.797D-03-0.167D-05 0.135D-01 0.480D-01 0.146D+00 0.324D+00
 Coeff-Com:  0.469D+00
 Coeff-En:   0.000D+00 0.000D+00 0.000D+00 0.000D+00 0.000D+00 0.131D+00
 Coeff-En:   0.869D+00
 Coeff:     -0.796D-03-0.167D-05 0.134D-01 0.479D-01 0.146D+00 0.323D+00
 Coeff:      0.470D+00
 Gap=     0.238 Goal=   None    Shift=    0.000
 RMSDP=1.28D-05 MaxDP=6.71D-04 DE=-8.63D-05 OVMax= 1.04D-03

 Cycle   8  Pass 0  IDiag  1:
 RMSU=  6.15D-06    CP:  9.94D-01  7.06D-01  5.51D-01  7.10D-01  6.11D-01
                    CP:  6.00D-01  5.66D-01
 E= -1714.03941041339     Delta-E=       -0.000016366222 Rises=F Damp=F
 DIIS: error= 3.07D-05 at cycle   8 NSaved=   8.
 NSaved= 8 IEnMin= 8 EnMin= -1714.03941041339     IErMin= 8 ErrMin= 3.07D-05
 ErrMax= 3.07D-05  0.00D+00 EMaxC= 1.00D-01 BMatC= 6.15D-07 BMatP= 2.03D-05
 IDIUse=1 WtCom= 1.00D+00 WtEn= 0.00D+00
 Coeff-Com: -0.241D-03-0.309D-03 0.177D-02 0.788D-02 0.371D-01 0.106D+00
 Coeff-Com:  0.216D+00 0.632D+00
 Coeff:     -0.241D-03-0.309D-03 0.177D-02 0.788D-02 0.371D-01 0.106D+00
 Coeff:      0.216D+00 0.632D+00
 Gap=     0.238 Goal=   None    Shift=    0.000
 RMSDP=3.11D-06 MaxDP=1.54D-04 DE=-1.64D-05 OVMax= 2.53D-04

 Initial convergence to 1.0D-05 achieved.  Increase integral accuracy.
 Cycle   9  Pass 1  IDiag  1:
 E= -1714.03935349598     Delta-E=        0.000056917415 Rises=F Damp=F
 DIIS: error= 6.42D-05 at cycle   1 NSaved=   1.
 NSaved= 1 IEnMin= 1 EnMin= -1714.03935349598     IErMin= 1 ErrMin= 6.42D-05
 ErrMax= 6.42D-05  0.00D+00 EMaxC= 1.00D-01 BMatC= 8.88D-07 BMatP= 8.88D-07
 IDIUse=1 WtCom= 1.00D+00 WtEn= 0.00D+00
 Coeff-Com:  0.100D+01
 Coeff:      0.100D+01
 Gap=     0.238 Goal=   None    Shift=    0.000
 RMSDP=3.11D-06 MaxDP=1.54D-04 DE= 5.69D-05 OVMax= 3.61D-04

 Cycle  10  Pass 1  IDiag  1:
 RMSU=  2.77D-05    CP:  1.00D+00
 E= -1714.03935409354     Delta-E=       -0.000000597564 Rises=F Damp=F
 DIIS: error= 3.76D-05 at cycle   2 NSaved=   2.
 NSaved= 2 IEnMin= 2 EnMin= -1714.03935409354     IErMin= 2 ErrMin= 3.76D-05
 ErrMax= 3.76D-05  0.00D+00 EMaxC= 1.00D-01 BMatC= 3.54D-07 BMatP= 8.88D-07
 IDIUse=1 WtCom= 1.00D+00 WtEn= 0.00D+00
 Coeff-Com:  0.331D+00 0.669D+00
 Coeff:      0.331D+00 0.669D+00
 Gap=     0.238 Goal=   None    Shift=    0.000
 RMSDP=3.50D-06 MaxDP=1.18D-04 DE=-5.98D-07 OVMax= 4.43D-04

 Cycle  11  Pass 1  IDiag  1:
 RMSU=  3.49D-06    CP:  1.00D+00  9.97D-01
 E= -1714.03935410048     Delta-E=       -0.000000006936 Rises=F Damp=F
 DIIS: error= 3.75D-05 at cycle   3 NSaved=   3.
 NSaved= 3 IEnMin= 3 EnMin= -1714.03935410048     IErMin= 3 ErrMin= 3.75D-05
 ErrMax= 3.75D-05  0.00D+00 EMaxC= 1.00D-01 BMatC= 3.52D-07 BMatP= 3.54D-07
 IDIUse=1 WtCom= 1.00D+00 WtEn= 0.00D+00
 Coeff-Com:  0.392D-03 0.499D+00 0.500D+00
 Coeff:      0.392D-03 0.499D+00 0.500D+00
 Gap=     0.238 Goal=   None    Shift=    0.000
 RMSDP=1.80D-06 MaxDP=6.45D-05 DE=-6.94D-09 OVMax= 2.24D-04

 Cycle  12  Pass 1  IDiag  1:
 RMSU=  5.19D-07    CP:  1.00D+00  1.01D+00  5.15D-01
 E= -1714.03935445784     Delta-E=       -0.000000357362 Rises=F Damp=F
 DIIS: error= 3.85D-06 at cycle   4 NSaved=   4.
 NSaved= 4 IEnMin= 4 EnMin= -1714.03935445784     IErMin= 4 ErrMin= 3.85D-06
 ErrMax= 3.85D-06  0.00D+00 EMaxC= 1.00D-01 BMatC= 8.96D-09 BMatP= 3.52D-07
 IDIUse=1 WtCom= 1.00D+00 WtEn= 0.00D+00
 Coeff-Com: -0.764D-02 0.283D+00 0.299D+00 0.426D+00
 Coeff:     -0.764D-02 0.283D+00 0.299D+00 0.426D+00
 Gap=     0.238 Goal=   None    Shift=    0.000
 RMSDP=2.95D-07 MaxDP=1.37D-05 DE=-3.57D-07 OVMax= 2.07D-05

 Cycle  13  Pass 1  IDiag  1:
 RMSU=  1.65D-07    CP:  1.00D+00  1.01D+00  5.20D-01  5.33D-01
 E= -1714.03935446505     Delta-E=       -0.000000007209 Rises=F Damp=F
 DIIS: error= 1.09D-06 at cycle   5 NSaved=   5.
 NSaved= 5 IEnMin= 5 EnMin= -1714.03935446505     IErMin= 5 ErrMin= 1.09D-06
 ErrMax= 1.09D-06  0.00D+00 EMaxC= 1.00D-01 BMatC= 6.25D-10 BMatP= 8.96D-09
 IDIUse=1 WtCom= 1.00D+00 WtEn= 0.00D+00
 Coeff-Com: -0.471D-02 0.140D+00 0.149D+00 0.262D+00 0.453D+00
 Coeff:     -0.471D-02 0.140D+00 0.149D+00 0.262D+00 0.453D+00
 Gap=     0.238 Goal=   None    Shift=    0.000
 RMSDP=7.96D-08 MaxDP=4.30D-06 DE=-7.21D-09 OVMax= 6.50D-06

 Cycle  14  Pass 1  IDiag  1:
 RMSU=  6.25D-08    CP:  1.00D+00  1.01D+00  5.21D-01  5.58D-01  7.16D-01
 E= -1714.03935446535     Delta-E=       -0.000000000300 Rises=F Damp=F
 DIIS: error= 2.93D-07 at cycle   6 NSaved=   6.
 NSaved= 6 IEnMin= 6 EnMin= -1714.03935446535     IErMin= 6 ErrMin= 2.93D-07
 ErrMax= 2.93D-07  0.00D+00 EMaxC= 1.00D-01 BMatC= 5.78D-11 BMatP= 6.25D-10
 IDIUse=1 WtCom= 1.00D+00 WtEn= 0.00D+00
 Coeff-Com: -0.137D-02 0.327D-01 0.353D-01 0.783D-01 0.261D+00 0.594D+00
 Coeff:     -0.137D-02 0.327D-01 0.353D-01 0.783D-01 0.261D+00 0.594D+00
 Gap=     0.238 Goal=   None    Shift=    0.000
 RMSDP=2.58D-08 MaxDP=1.22D-06 DE=-3.00D-10 OVMax= 1.72D-06

 Cycle  15  Pass 1  IDiag  1:
 RMSU=  1.86D-08    CP:  1.00D+00  1.01D+00  5.20D-01  5.62D-01  7.74D-01
                    CP:  7.69D-01
 E= -1714.03935446547     Delta-E=       -0.000000000121 Rises=F Damp=F
 DIIS: error= 6.50D-08 at cycle   7 NSaved=   7.
 NSaved= 7 IEnMin= 7 EnMin= -1714.03935446547     IErMin= 7 ErrMin= 6.50D-08
 ErrMax= 6.50D-08  0.00D+00 EMaxC= 1.00D-01 BMatC= 5.61D-12 BMatP= 5.78D-11
 IDIUse=1 WtCom= 1.00D+00 WtEn= 0.00D+00
 Coeff-Com: -0.177D-03 0.489D-03 0.708D-03 0.906D-02 0.790D-01 0.309D+00
 Coeff-Com:  0.602D+00
 Coeff:     -0.177D-03 0.489D-03 0.708D-03 0.906D-02 0.790D-01 0.309D+00
 Coeff:      0.602D+00
 Gap=     0.238 Goal=   None    Shift=    0.000
 RMSDP=8.33D-09 MaxDP=8.59D-07 DE=-1.21D-10 OVMax= 3.62D-07

 SCF Done:  E(RB3LYP) =  -1714.03935447     A.U. after   15 cycles
            NFock= 15  Conv=0.83D-08     -V/T= 2.0068
 KE= 1.702512829913D+03 PE=-8.439161586910D+03 EE= 2.816138605415D+03
 Leave Link  502 at Thu Oct  1 22:35:14 2020, MaxMem=  2147483648 cpu:       380.6
 (Enter /prod/apps/gaussian/g09d1/l601.exe)
 Copying SCF densities to generalized density rwf, IOpCl= 0 IROHF=0.

 **********************************************************************

            Population analysis using the SCF density.

 **********************************************************************

 Orbital symmetries:
       Occupied  (A) (A) (A) (A) (A) (A) (A) (A) (A) (A) (A) (A)
                 (A) (A) (A) (A) (A) (A) (A) (A) (A) (A) (A) (A)
                 (A) (A) (A) (A) (A) (A) (A) (A) (A) (A) (A) (A)
                 (A) (A) (A) (A) (A) (A) (A) (A) (A) (A) (A) (A)
                 (A) (A) (A) (A) (A) (A) (A) (A) (A) (A) (A) (A)
                 (A) (A) (A) (A) (A) (A) (A) (A) (A) (A) (A) (A)
                 (A) (A) (A) (A) (A) (A) (A) (A) (A) (A) (A) (A)
                 (A) (A) (A) (A)
       Virtual   (A) (A) (A) (A) (A) (A) (A) (A) (A) (A) (A) (A)
                 (A) (A) (A) (A) (A) (A) (A) (A) (A) (A) (A) (A)
                 (A) (A) (A) (A) (A) (A) (A) (A) (A) (A) (A) (A)
                 (A) (A) (A) (A) (A) (A) (A) (A) (A) (A) (A) (A)
                 (A) (A) (A) (A) (A) (A) (A) (A) (A) (A) (A) (A)
                 (A) (A) (A) (A) (A) (A) (A) (A) (A) (A) (A) (A)
                 (A) (A) (A) (A) (A) (A) (A) (A) (A) (A) (A) (A)
                 (A) (A) (A) (A) (A) (A) (A) (A) (A) (A) (A) (A)
                 (A) (A) (A) (A) (A) (A) (A) (A) (A) (A) (A) (A)
                 (A) (A) (A) (A) (A) (A) (A) (A) (A) (A) (A) (A)
                 (A) (A) (A) (A) (A) (A) (A) (A) (A) (A) (A) (A)
                 (A) (A) (A) (A) (A) (A) (A) (A) (A) (A) (A) (A)
                 (A) (A) (A) (A) (A) (A) (A) (A) (A) (A) (A) (A)
                 (A) (A) (A) (A) (A) (A) (A) (A) (A) (A) (A) (A)
                 (A) (A) (A) (A) (A) (A) (A) (A) (A) (A) (A) (A)
                 (A) (A) (A) (A) (A) (A) (A) (A) (A) (A) (A) (A)
                 (A) (A) (A) (A) (A) (A) (A) (A) (A) (A) (A) (A)
                 (A) (A) (A) (A) (A) (A) (A) (A) (A) (A) (A) (A)
                 (A) (A) (A) (A) (A) (A) (A) (A) (A) (A) (A) (A)
                 (A) (A) (A) (A) (A) (A) (A) (A) (A) (A) (A) (A)
                 (A) (A) (A) (A) (A) (A) (A) (A) (A) (A) (A) (A)
                 (A) (A) (A) (A) (A) (A) (A) (A) (A) (A) (A) (A)
                 (A) (A) (A) (A) (A) (A) (A) (A) (A) (A) (A)
 The electronic state is 1-A.
 Alpha  occ. eigenvalues --  -89.13710 -89.08804 -19.15133 -19.15035 -19.14079
 Alpha  occ. eigenvalues --  -19.13935 -14.38724 -14.38264 -10.28410 -10.23915
 Alpha  occ. eigenvalues --  -10.22899 -10.22403 -10.22222 -10.21120 -10.20872
 Alpha  occ. eigenvalues --  -10.20393 -10.19501 -10.19429 -10.19370 -10.19317
 Alpha  occ. eigenvalues --  -10.19303  -8.15956  -8.11842  -6.12441  -6.12387
 Alpha  occ. eigenvalues --   -6.12333  -6.08257  -6.08205  -6.08127  -1.12735
 Alpha  occ. eigenvalues --   -1.09211  -1.00577  -0.98745  -0.96047  -0.94468
 Alpha  occ. eigenvalues --   -0.86510  -0.85541  -0.80175  -0.75017  -0.74721
 Alpha  occ. eigenvalues --   -0.73257  -0.72833  -0.71928  -0.67560  -0.63109
 Alpha  occ. eigenvalues --   -0.61088  -0.60430  -0.58688  -0.57851  -0.55174
 Alpha  occ. eigenvalues --   -0.52902  -0.51900  -0.51428  -0.49906  -0.49048
 Alpha  occ. eigenvalues --   -0.48497  -0.47263  -0.46604  -0.45987  -0.45656
 Alpha  occ. eigenvalues --   -0.44942  -0.44336  -0.44101  -0.42704  -0.42438
 Alpha  occ. eigenvalues --   -0.42055  -0.41794  -0.41503  -0.41042  -0.40159
 Alpha  occ. eigenvalues --   -0.39250  -0.37832  -0.37126  -0.35883  -0.35089
 Alpha  occ. eigenvalues --   -0.34537  -0.34186  -0.33941  -0.33011  -0.31947
 Alpha  occ. eigenvalues --   -0.30860  -0.30608  -0.29239  -0.28672  -0.28423
 Alpha  occ. eigenvalues --   -0.26258  -0.25475  -0.24706
 Alpha virt. eigenvalues --   -0.00946  -0.00606   0.03054   0.03671   0.05683
 Alpha virt. eigenvalues --    0.05796   0.06895   0.07193   0.07322   0.08059
 Alpha virt. eigenvalues --    0.09181   0.09554   0.09796   0.10561   0.11490
 Alpha virt. eigenvalues --    0.12871   0.13028   0.14107   0.14650   0.14794
 Alpha virt. eigenvalues --    0.15455   0.15742   0.15964   0.16628   0.16849
 Alpha virt. eigenvalues --    0.17621   0.18176   0.18682   0.19084   0.19499
 Alpha virt. eigenvalues --    0.19882   0.20561   0.21326   0.21960   0.22949
 Alpha virt. eigenvalues --    0.24718   0.25478   0.25987   0.29109   0.30172
 Alpha virt. eigenvalues --    0.31873   0.33642   0.34844   0.35407   0.36187
 Alpha virt. eigenvalues --    0.36926   0.40049   0.42195   0.44058   0.44837
 Alpha virt. eigenvalues --    0.45220   0.47025   0.47370   0.49203   0.49518
 Alpha virt. eigenvalues --    0.50755   0.52457   0.52890   0.53272   0.54052
 Alpha virt. eigenvalues --    0.54414   0.55643   0.56048   0.57298   0.57782
 Alpha virt. eigenvalues --    0.58868   0.59111   0.60011   0.60193   0.60530
 Alpha virt. eigenvalues --    0.60961   0.61615   0.61949   0.63948   0.64696
 Alpha virt. eigenvalues --    0.66397   0.66821   0.67358   0.68964   0.70829
 Alpha virt. eigenvalues --    0.72435   0.73336   0.73807   0.73997   0.76284
 Alpha virt. eigenvalues --    0.76584   0.77967   0.78643   0.78761   0.80273
 Alpha virt. eigenvalues --    0.80858   0.82284   0.82348   0.83164   0.83407
 Alpha virt. eigenvalues --    0.83807   0.84515   0.84940   0.85118   0.87008
 Alpha virt. eigenvalues --    0.87110   0.87561   0.88081   0.88473   0.89443
 Alpha virt. eigenvalues --    0.90391   0.91441   0.91662   0.91942   0.93024
 Alpha virt. eigenvalues --    0.93253   0.94046   0.94718   0.95368   0.96131
 Alpha virt. eigenvalues --    0.96783   0.98163   0.98972   0.99063   1.00200
 Alpha virt. eigenvalues --    1.02513   1.03561   1.04943   1.05718   1.06651
 Alpha virt. eigenvalues --    1.07464   1.08991   1.10383   1.11599   1.12032
 Alpha virt. eigenvalues --    1.12190   1.13555   1.14713   1.16136   1.17047
 Alpha virt. eigenvalues --    1.17455   1.18718   1.19669   1.20799   1.21262
 Alpha virt. eigenvalues --    1.23006   1.24316   1.26157   1.26869   1.29751
 Alpha virt. eigenvalues --    1.31499   1.34543   1.36052   1.37926   1.40838
 Alpha virt. eigenvalues --    1.41602   1.43071   1.44419   1.44873   1.47091
 Alpha virt. eigenvalues --    1.47727   1.49033   1.50012   1.51012   1.52512
 Alpha virt. eigenvalues --    1.55844   1.56820   1.58909   1.63711   1.65342
 Alpha virt. eigenvalues --    1.70132   1.70932   1.71387   1.73029   1.75005
 Alpha virt. eigenvalues --    1.77244   1.78358   1.78723   1.80322   1.81006
 Alpha virt. eigenvalues --    1.81182   1.81520   1.81899   1.82539   1.82882
 Alpha virt. eigenvalues --    1.83462   1.84883   1.86812   1.88047   1.88573
 Alpha virt. eigenvalues --    1.89609   1.90970   1.91479   1.93283   1.93658
 Alpha virt. eigenvalues --    1.94910   1.95881   1.96534   1.97027   1.98216
 Alpha virt. eigenvalues --    2.00230   2.00415   2.01572   2.03754   2.04418
 Alpha virt. eigenvalues --    2.05872   2.08295   2.08793   2.08903   2.10325
 Alpha virt. eigenvalues --    2.11756   2.11971   2.13602   2.14193   2.14891
 Alpha virt. eigenvalues --    2.15223   2.16713   2.18258   2.19161   2.21128
 Alpha virt. eigenvalues --    2.22048   2.24042   2.24128   2.26964   2.28679
 Alpha virt. eigenvalues --    2.29254   2.30256   2.30965   2.33598   2.34764
 Alpha virt. eigenvalues --    2.35629   2.37912   2.40964   2.41767   2.43552
 Alpha virt. eigenvalues --    2.45050   2.47135   2.52029   2.54687   2.57791
 Alpha virt. eigenvalues --    2.58500   2.59374   2.64287   2.66026   2.70011
 Alpha virt. eigenvalues --    2.70924   2.71949   2.73516   2.73767   2.74813
 Alpha virt. eigenvalues --    2.75584   2.76907   2.79189   2.83129   2.83774
 Alpha virt. eigenvalues --    2.87593   2.90106   3.05355   3.40464   3.80160
 Alpha virt. eigenvalues --    3.80820   3.90249   3.95411   3.96508   4.01419
 Alpha virt. eigenvalues --    4.08995   4.09841   4.11088   4.12756   4.17479
 Alpha virt. eigenvalues --    4.20450   4.25069   4.25611   4.31923   4.32846
 Alpha virt. eigenvalues --    4.35017   4.43084   4.50187   4.69155   4.74459
          Condensed to atoms (all electrons):
               1          2          3          4          5          6
     1  C    5.021761   0.262614  -0.049131  -0.007226   0.001526   0.003091
     2  N    0.262614   7.209996   0.291621   0.141646  -0.056376  -0.054762
     3  C   -0.049131   0.291621   4.986625  -0.028954  -0.003413  -0.002194
     4  S   -0.007226   0.141646  -0.028954  13.633590   0.435115   0.406357
     5  O    0.001526  -0.056376  -0.003413   0.435115   8.251286  -0.047701
     6  O    0.003091  -0.054762  -0.002194   0.406357  -0.047701   8.285221
     7  N   -0.007958  -0.049618   0.002176   0.126608  -0.051474  -0.054659
     8  C   -0.000300   0.003728  -0.000042  -0.024316  -0.005433   0.007527
     9  C    0.000010  -0.000146   0.000002   0.000940  -0.000092   0.000141
    10  S   -0.000527   0.000027  -0.000001   0.000095   0.000003  -0.000261
    11  O   -0.001480   0.000009   0.000000  -0.000051   0.000000   0.000003
    12  O    0.000000   0.000000   0.000000  -0.000004   0.000000   0.000000
    13  C    0.000061  -0.000135  -0.000003  -0.004973  -0.000152  -0.006588
    14  C   -0.000004  -0.000233   0.000005   0.001198   0.004160  -0.005866
    15  C    0.000000   0.000000   0.000000   0.000059   0.000081  -0.000051
    16  C    0.000000   0.000000   0.000000  -0.000049   0.000000   0.000004
    17  C    0.000000   0.000000   0.000000   0.000002   0.000000   0.000000
    18  C    0.000000   0.000000   0.000000   0.000000   0.000000   0.000000
    19  C    0.000000   0.000000   0.000000   0.000000   0.000000   0.000000
    20  C    0.000000   0.000000   0.000000  -0.000001   0.000000  -0.000002
    21  C    0.000000   0.000000   0.000000  -0.000064  -0.000001   0.000009
    22  H    0.373022  -0.035200  -0.003850   0.002473  -0.000048   0.000056
    23  H    0.374436  -0.046227  -0.002078  -0.007337  -0.000042   0.004736
    24  H    0.367870  -0.029832   0.004110  -0.002383   0.000012  -0.001698
    25  H   -0.002567  -0.039842   0.378148   0.001596   0.000300  -0.000104
    26  H    0.004325  -0.030854   0.377846  -0.003570   0.011498  -0.000093
    27  H   -0.001658  -0.047285   0.372053  -0.002484  -0.000536   0.001931
    28  H    0.000105   0.002376  -0.000120  -0.003946  -0.000213   0.001742
    29  H    0.000000   0.000001   0.000000   0.000030   0.000001   0.000001
    30  H    0.000009  -0.000014   0.000000   0.000043  -0.000003   0.000004
    31  H   -0.000004  -0.000001   0.000000   0.000069   0.000002  -0.000077
    32  H    0.000405  -0.000285   0.000006   0.000865   0.000038   0.013553
    33  H   -0.000002   0.000035   0.000002   0.010864   0.000158   0.003131
    34  H    0.000001  -0.000005  -0.000001  -0.000555   0.000400   0.000075
    35  H    0.000000   0.000000   0.000000   0.000000   0.000001   0.000000
    36  H    0.000000   0.000000   0.000000   0.000011  -0.000001  -0.000001
    37  H    0.000000   0.000000   0.000000   0.000000   0.000000   0.000000
    38  H    0.000000   0.000000   0.000000   0.000000   0.000000   0.000000
    39  H    0.000000   0.000000   0.000000   0.000000   0.000000   0.000000
    40  H    0.000000   0.000000   0.000000   0.000000   0.000000   0.000000
    41  H    0.000000   0.000000   0.000000  -0.000016  -0.000003  -0.000004
               7          8          9         10         11         12
     1  C   -0.007958  -0.000300   0.000010  -0.000527  -0.001480   0.000000
     2  N   -0.049618   0.003728  -0.000146   0.000027   0.000009   0.000000
     3  C    0.002176  -0.000042   0.000002  -0.000001   0.000000   0.000000
     4  S    0.126608  -0.024316   0.000940   0.000095  -0.000051  -0.000004
     5  O   -0.051474  -0.005433  -0.000092   0.000003   0.000000   0.000000
     6  O   -0.054659   0.007527   0.000141  -0.000261   0.000003   0.000000
     7  N    7.391663   0.223473  -0.051977   0.005787   0.000258  -0.000045
     8  C    0.223473   4.898361   0.346377  -0.105630  -0.001221   0.002046
     9  C   -0.051977   0.346377   5.764688   0.109789  -0.042787  -0.045079
    10  S    0.005787  -0.105630   0.109789  13.902246   0.407783   0.429275
    11  O    0.000258  -0.001221  -0.042787   0.407783   8.243350  -0.046904
    12  O   -0.000045   0.002046  -0.045079   0.429275  -0.046904   8.219271
    13  C   -0.058524   0.352419  -0.193361   0.151760  -0.042778  -0.045075
    14  C   -0.059001   0.379788  -0.048920   0.002345  -0.000077  -0.000189
    15  C    0.004458  -0.031544  -0.006670  -0.000148  -0.000001   0.000042
    16  C   -0.000038  -0.003414  -0.000613   0.000095   0.000000  -0.000131
    17  C   -0.000004   0.000944  -0.000101   0.000957   0.000000  -0.000175
    18  C    0.000000   0.000003   0.000001  -0.000012   0.000000  -0.000017
    19  C    0.000000   0.000004   0.000000   0.000001   0.000000   0.000000
    20  C    0.000000  -0.000031   0.000001  -0.000009   0.000000   0.000000
    21  C   -0.000006  -0.001028   0.000014   0.000036   0.000000   0.000001
    22  H   -0.000050  -0.000010  -0.000001   0.000000   0.000009   0.000000
    23  H    0.000046   0.000080  -0.000001  -0.000003   0.000007   0.000000
    24  H    0.009472  -0.000874  -0.000004   0.002171   0.007841   0.000005
    25  H   -0.000080   0.000000   0.000000   0.000000   0.000000   0.000000
    26  H    0.000077  -0.000003   0.000000   0.000000   0.000000   0.000000
    27  H   -0.000064   0.000007   0.000000   0.000000   0.000000   0.000000
    28  H    0.285595  -0.024162  -0.007310  -0.000416   0.000025   0.000002
    29  H    0.003644  -0.027919   0.328558  -0.003016   0.001159   0.001118
    30  H   -0.006514  -0.021780   0.338547  -0.008118  -0.000106   0.000672
    31  H    0.003181  -0.026534   0.005114  -0.005862   0.001166   0.000604
    32  H   -0.005928  -0.019358   0.008546  -0.010708  -0.000503   0.000562
    33  H   -0.005305  -0.031253   0.004893  -0.000193   0.000001   0.000001
    34  H   -0.002188  -0.040507  -0.005974  -0.000059   0.000001   0.000002
    35  H   -0.000132   0.004571   0.000099   0.000027   0.000000   0.000000
    36  H    0.000048  -0.008256   0.001779  -0.000627   0.000001  -0.000056
    37  H    0.000000  -0.000015  -0.000141   0.000882   0.000001   0.001050
    38  H    0.000000   0.000001   0.000000  -0.000001   0.000000  -0.000002
    39  H    0.000000   0.000000   0.000000   0.000000   0.000000   0.000000
    40  H    0.000000   0.000000   0.000000   0.000000   0.000000   0.000000
    41  H    0.000002   0.000173   0.000001   0.000001   0.000000   0.000000
              13         14         15         16         17         18
     1  C    0.000061  -0.000004   0.000000   0.000000   0.000000   0.000000
     2  N   -0.000135  -0.000233   0.000000   0.000000   0.000000   0.000000
     3  C   -0.000003   0.000005   0.000000   0.000000   0.000000   0.000000
     4  S   -0.004973   0.001198   0.000059  -0.000049   0.000002   0.000000
     5  O   -0.000152   0.004160   0.000081   0.000000   0.000000   0.000000
     6  O   -0.006588  -0.005866  -0.000051   0.000004   0.000000   0.000000
     7  N   -0.058524  -0.059001   0.004458  -0.000038  -0.000004   0.000000
     8  C    0.352419   0.379788  -0.031544  -0.003414   0.000944   0.000003
     9  C   -0.193361  -0.048920  -0.006670  -0.000613  -0.000101   0.000001
    10  S    0.151760   0.002345  -0.000148   0.000095   0.000957  -0.000012
    11  O   -0.042778  -0.000077  -0.000001   0.000000   0.000000   0.000000
    12  O   -0.045075  -0.000189   0.000042  -0.000131  -0.000175  -0.000017
    13  C    5.710997  -0.043814  -0.002309  -0.003215  -0.005535  -0.000338
    14  C   -0.043814   5.133495   0.317539  -0.035054   0.000658  -0.000175
    15  C   -0.002309   0.317539   5.212365   0.349902  -0.051047   0.007148
    16  C   -0.003215  -0.035054   0.349902   4.673975   0.541890  -0.022798
    17  C   -0.005535   0.000658  -0.051047   0.541890   4.977296   0.520465
    18  C   -0.000338  -0.000175   0.007148  -0.022798   0.520465   4.861506
    19  C    0.000064   0.000003   0.000368  -0.035045  -0.036020   0.551137
    20  C    0.000195   0.000245   0.006087  -0.017999  -0.045948  -0.025764
    21  C   -0.000086  -0.004351  -0.067018   0.539852  -0.042790  -0.046805
    22  H    0.000001   0.000000   0.000000   0.000000   0.000000   0.000000
    23  H   -0.000034  -0.000001   0.000000   0.000000   0.000000   0.000000
    24  H   -0.000197   0.000027   0.000000   0.000000   0.000000   0.000000
    25  H    0.000000   0.000000   0.000000   0.000000   0.000000   0.000000
    26  H    0.000000   0.000000   0.000000   0.000000   0.000000   0.000000
    27  H    0.000000   0.000000   0.000000   0.000000   0.000000   0.000000
    28  H    0.005523  -0.001441  -0.000070   0.000005   0.000000   0.000000
    29  H    0.004316  -0.005642   0.001118   0.000111   0.000043   0.000000
    30  H    0.009357   0.001006   0.000109   0.000005   0.000000   0.000000
    31  H    0.323783  -0.006174  -0.001842   0.010107   0.008051   0.000920
    32  H    0.341069   0.000474   0.000064   0.000041   0.000069   0.000003
    33  H   -0.005065   0.369261  -0.035722  -0.006965   0.000157   0.000002
    34  H    0.005630   0.357814  -0.028329   0.004229  -0.000119   0.000002
    35  H   -0.000127  -0.033135   0.358781  -0.028029   0.001487  -0.000235
    36  H    0.000053  -0.039025   0.357702  -0.036239  -0.004678   0.000222
    37  H   -0.000155   0.000183  -0.011330  -0.045718   0.354764  -0.042603
    38  H   -0.000006   0.000001  -0.000180   0.003810  -0.038210   0.358172
    39  H    0.000000   0.000000   0.000007   0.000716   0.004733  -0.042764
    40  H    0.000000   0.000001  -0.000182   0.003615   0.000837   0.004564
    41  H   -0.000043   0.000847  -0.008745  -0.048654   0.005866   0.000360
              19         20         21         22         23         24
     1  C    0.000000   0.000000   0.000000   0.373022   0.374436   0.367870
     2  N    0.000000   0.000000   0.000000  -0.035200  -0.046227  -0.029832
     3  C    0.000000   0.000000   0.000000  -0.003850  -0.002078   0.004110
     4  S    0.000000  -0.000001  -0.000064   0.002473  -0.007337  -0.002383
     5  O    0.000000   0.000000  -0.000001  -0.000048  -0.000042   0.000012
     6  O    0.000000  -0.000002   0.000009   0.000056   0.004736  -0.001698
     7  N    0.000000   0.000000  -0.000006  -0.000050   0.000046   0.009472
     8  C    0.000004  -0.000031  -0.001028  -0.000010   0.000080  -0.000874
     9  C    0.000000   0.000001   0.000014  -0.000001  -0.000001  -0.000004
    10  S    0.000001  -0.000009   0.000036   0.000000  -0.000003   0.002171
    11  O    0.000000   0.000000   0.000000   0.000009   0.000007   0.007841
    12  O    0.000000   0.000000   0.000001   0.000000   0.000000   0.000005
    13  C    0.000064   0.000195  -0.000086   0.000001  -0.000034  -0.000197
    14  C    0.000003   0.000245  -0.004351   0.000000  -0.000001   0.000027
    15  C    0.000368   0.006087  -0.067018   0.000000   0.000000   0.000000
    16  C   -0.035045  -0.017999   0.539852   0.000000   0.000000   0.000000
    17  C   -0.036020  -0.045948  -0.042790   0.000000   0.000000   0.000000
    18  C    0.551137  -0.025764  -0.046805   0.000000   0.000000   0.000000
    19  C    4.856279   0.546090  -0.035496   0.000000   0.000000   0.000000
    20  C    0.546090   4.856740   0.529160   0.000000   0.000000   0.000000
    21  C   -0.035496   0.529160   4.973789   0.000000   0.000000   0.000000
    22  H    0.000000   0.000000   0.000000   0.550622  -0.037564  -0.020647
    23  H    0.000000   0.000000   0.000000  -0.037564   0.568145  -0.028016
    24  H    0.000000   0.000000   0.000000  -0.020647  -0.028016   0.473891
    25  H    0.000000   0.000000   0.000000   0.005323  -0.001845   0.000078
    26  H    0.000000   0.000000   0.000000   0.000007  -0.000169  -0.000171
    27  H    0.000000   0.000000   0.000000  -0.001406   0.008259  -0.000176
    28  H    0.000000   0.000000   0.000000  -0.000014   0.000002  -0.000227
    29  H    0.000000   0.000000   0.000002   0.000000   0.000000   0.000001
    30  H    0.000000   0.000000   0.000000   0.000000   0.000000  -0.000004
    31  H   -0.000089  -0.000383   0.000043   0.000000   0.000001   0.000019
    32  H   -0.000004  -0.000011   0.000010  -0.000002   0.000093   0.000116
    33  H    0.000000  -0.000079   0.004282   0.000000   0.000000  -0.000001
    34  H    0.000000   0.000001   0.000189   0.000000   0.000000   0.000000
    35  H    0.000037  -0.000033  -0.005021   0.000000   0.000000   0.000000
    36  H   -0.000005  -0.000158   0.004989   0.000000   0.000000   0.000000
    37  H    0.004791   0.000314   0.006291   0.000000   0.000000   0.000000
    38  H   -0.043077   0.004558   0.000798   0.000000   0.000000   0.000000
    39  H    0.359961  -0.042785   0.004721   0.000000   0.000000   0.000000
    40  H   -0.042736   0.358252  -0.039386   0.000000   0.000000   0.000000
    41  H    0.004698  -0.041431   0.356343   0.000000   0.000000   0.000000
              25         26         27         28         29         30
     1  C   -0.002567   0.004325  -0.001658   0.000105   0.000000   0.000009
     2  N   -0.039842  -0.030854  -0.047285   0.002376   0.000001  -0.000014
     3  C    0.378148   0.377846   0.372053  -0.000120   0.000000   0.000000
     4  S    0.001596  -0.003570  -0.002484  -0.003946   0.000030   0.000043
     5  O    0.000300   0.011498  -0.000536  -0.000213   0.000001  -0.000003
     6  O   -0.000104  -0.000093   0.001931   0.001742   0.000001   0.000004
     7  N   -0.000080   0.000077  -0.000064   0.285595   0.003644  -0.006514
     8  C    0.000000  -0.000003   0.000007  -0.024162  -0.027919  -0.021780
     9  C    0.000000   0.000000   0.000000  -0.007310   0.328558   0.338547
    10  S    0.000000   0.000000   0.000000  -0.000416  -0.003016  -0.008118
    11  O    0.000000   0.000000   0.000000   0.000025   0.001159  -0.000106
    12  O    0.000000   0.000000   0.000000   0.000002   0.001118   0.000672
    13  C    0.000000   0.000000   0.000000   0.005523   0.004316   0.009357
    14  C    0.000000   0.000000   0.000000  -0.001441  -0.005642   0.001006
    15  C    0.000000   0.000000   0.000000  -0.000070   0.001118   0.000109
    16  C    0.000000   0.000000   0.000000   0.000005   0.000111   0.000005
    17  C    0.000000   0.000000   0.000000   0.000000   0.000043   0.000000
    18  C    0.000000   0.000000   0.000000   0.000000   0.000000   0.000000
    19  C    0.000000   0.000000   0.000000   0.000000   0.000000   0.000000
    20  C    0.000000   0.000000   0.000000   0.000000   0.000000   0.000000
    21  C    0.000000   0.000000   0.000000   0.000000   0.000002   0.000000
    22  H    0.005323   0.000007  -0.001406  -0.000014   0.000000   0.000000
    23  H   -0.001845  -0.000169   0.008259   0.000002   0.000000   0.000000
    24  H    0.000078  -0.000171  -0.000176  -0.000227   0.000001  -0.000004
    25  H    0.553908  -0.020860  -0.042136   0.000002   0.000000   0.000000
    26  H   -0.020860   0.485044  -0.029600  -0.000010   0.000000   0.000000
    27  H   -0.042136  -0.029600   0.579016   0.000004   0.000000   0.000000
    28  H    0.000002  -0.000010   0.000004   0.381778   0.000050   0.005258
    29  H    0.000000   0.000000   0.000000   0.000050   0.498229  -0.019250
    30  H    0.000000   0.000000   0.000000   0.005258  -0.019250   0.497132
    31  H    0.000000   0.000000   0.000000  -0.000100   0.000146  -0.000236
    32  H    0.000000   0.000000   0.000000   0.000059  -0.000227  -0.000293
    33  H    0.000000   0.000001   0.000000  -0.000255   0.000182  -0.000077
    34  H    0.000000   0.000000   0.000000   0.003814   0.000418   0.000430
    35  H    0.000000   0.000000   0.000000   0.000000  -0.000150  -0.000004
    36  H    0.000000   0.000000   0.000000  -0.000004   0.008124  -0.000014
    37  H    0.000000   0.000000   0.000000   0.000000   0.000205   0.000003
    38  H    0.000000   0.000000   0.000000   0.000000   0.000000   0.000000
    39  H    0.000000   0.000000   0.000000   0.000000   0.000000   0.000000
    40  H    0.000000   0.000000   0.000000   0.000000   0.000000   0.000000
    41  H    0.000000   0.000000   0.000000   0.000000   0.000000   0.000000
              31         32         33         34         35         36
     1  C   -0.000004   0.000405  -0.000002   0.000001   0.000000   0.000000
     2  N   -0.000001  -0.000285   0.000035  -0.000005   0.000000   0.000000
     3  C    0.000000   0.000006   0.000002  -0.000001   0.000000   0.000000
     4  S    0.000069   0.000865   0.010864  -0.000555   0.000000   0.000011
     5  O    0.000002   0.000038   0.000158   0.000400   0.000001  -0.000001
     6  O   -0.000077   0.013553   0.003131   0.000075   0.000000  -0.000001
     7  N    0.003181  -0.005928  -0.005305  -0.002188  -0.000132   0.000048
     8  C   -0.026534  -0.019358  -0.031253  -0.040507   0.004571  -0.008256
     9  C    0.005114   0.008546   0.004893  -0.005974   0.000099   0.001779
    10  S   -0.005862  -0.010708  -0.000193  -0.000059   0.000027  -0.000627
    11  O    0.001166  -0.000503   0.000001   0.000001   0.000000   0.000001
    12  O    0.000604   0.000562   0.000001   0.000002   0.000000  -0.000056
    13  C    0.323783   0.341069  -0.005065   0.005630  -0.000127   0.000053
    14  C   -0.006174   0.000474   0.369261   0.357814  -0.033135  -0.039025
    15  C   -0.001842   0.000064  -0.035722  -0.028329   0.358781   0.357702
    16  C    0.010107   0.000041  -0.006965   0.004229  -0.028029  -0.036239
    17  C    0.008051   0.000069   0.000157  -0.000119   0.001487  -0.004678
    18  C    0.000920   0.000003   0.000002   0.000002  -0.000235   0.000222
    19  C   -0.000089  -0.000004   0.000000   0.000000   0.000037  -0.000005
    20  C   -0.000383  -0.000011  -0.000079   0.000001  -0.000033  -0.000158
    21  C    0.000043   0.000010   0.004282   0.000189  -0.005021   0.004989
    22  H    0.000000  -0.000002   0.000000   0.000000   0.000000   0.000000
    23  H    0.000001   0.000093   0.000000   0.000000   0.000000   0.000000
    24  H    0.000019   0.000116  -0.000001   0.000000   0.000000   0.000000
    25  H    0.000000   0.000000   0.000000   0.000000   0.000000   0.000000
    26  H    0.000000   0.000000   0.000001   0.000000   0.000000   0.000000
    27  H    0.000000   0.000000   0.000000   0.000000   0.000000   0.000000
    28  H   -0.000100   0.000059  -0.000255   0.003814   0.000000  -0.000004
    29  H    0.000146  -0.000227   0.000182   0.000418  -0.000150   0.008124
    30  H   -0.000236  -0.000293  -0.000077   0.000430  -0.000004  -0.000014
    31  H    0.473097  -0.013486   0.000382   0.000104   0.000136  -0.000013
    32  H   -0.013486   0.436016   0.000264  -0.000079   0.000001  -0.000005
    33  H    0.000382   0.000264   0.516316  -0.031532  -0.001466   0.004611
    34  H    0.000104  -0.000079  -0.031532   0.597781  -0.006072  -0.001218
    35  H    0.000136   0.000001  -0.001466  -0.006072   0.572171  -0.032770
    36  H   -0.000013  -0.000005   0.004611  -0.001218  -0.032770   0.593508
    37  H   -0.000066   0.000002   0.000007  -0.000010   0.000143   0.007299
    38  H    0.000020   0.000000   0.000000   0.000000   0.000003  -0.000010
    39  H   -0.000001   0.000000   0.000000   0.000000   0.000000   0.000000
    40  H    0.000001   0.000000   0.000007   0.000000  -0.000001   0.000003
    41  H    0.000046  -0.000001   0.004194  -0.000151   0.001948   0.000034
              37         38         39         40         41
     1  C    0.000000   0.000000   0.000000   0.000000   0.000000
     2  N    0.000000   0.000000   0.000000   0.000000   0.000000
     3  C    0.000000   0.000000   0.000000   0.000000   0.000000
     4  S    0.000000   0.000000   0.000000   0.000000  -0.000016
     5  O    0.000000   0.000000   0.000000   0.000000  -0.000003
     6  O    0.000000   0.000000   0.000000   0.000000  -0.000004
     7  N    0.000000   0.000000   0.000000   0.000000   0.000002
     8  C   -0.000015   0.000001   0.000000   0.000000   0.000173
     9  C   -0.000141   0.000000   0.000000   0.000000   0.000001
    10  S    0.000882  -0.000001   0.000000   0.000000   0.000001
    11  O    0.000001   0.000000   0.000000   0.000000   0.000000
    12  O    0.001050  -0.000002   0.000000   0.000000   0.000000
    13  C   -0.000155  -0.000006   0.000000   0.000000  -0.000043
    14  C    0.000183   0.000001   0.000000   0.000001   0.000847
    15  C   -0.011330  -0.000180   0.000007  -0.000182  -0.008745
    16  C   -0.045718   0.003810   0.000716   0.003615  -0.048654
    17  C    0.354764  -0.038210   0.004733   0.000837   0.005866
    18  C   -0.042603   0.358172  -0.042764   0.004564   0.000360
    19  C    0.004791  -0.043077   0.359961  -0.042736   0.004698
    20  C    0.000314   0.004558  -0.042785   0.358252  -0.041431
    21  C    0.006291   0.000798   0.004721  -0.039386   0.356343
    22  H    0.000000   0.000000   0.000000   0.000000   0.000000
    23  H    0.000000   0.000000   0.000000   0.000000   0.000000
    24  H    0.000000   0.000000   0.000000   0.000000   0.000000
    25  H    0.000000   0.000000   0.000000   0.000000   0.000000
    26  H    0.000000   0.000000   0.000000   0.000000   0.000000
    27  H    0.000000   0.000000   0.000000   0.000000   0.000000
    28  H    0.000000   0.000000   0.000000   0.000000   0.000000
    29  H    0.000205   0.000000   0.000000   0.000000   0.000000
    30  H    0.000003   0.000000   0.000000   0.000000   0.000000
    31  H   -0.000066   0.000020  -0.000001   0.000001   0.000046
    32  H    0.000002   0.000000   0.000000   0.000000  -0.000001
    33  H    0.000007   0.000000   0.000000   0.000007   0.004194
    34  H   -0.000010   0.000000   0.000000   0.000000  -0.000151
    35  H    0.000143   0.000003   0.000000  -0.000001   0.001948
    36  H    0.007299  -0.000010   0.000000   0.000003   0.000034
    37  H    0.592842  -0.005510  -0.000174   0.000017  -0.000174
    38  H   -0.005510   0.586631  -0.005505  -0.000184   0.000017
    39  H   -0.000174  -0.005505   0.592464  -0.005417  -0.000177
    40  H    0.000017  -0.000184  -0.005417   0.589953  -0.005462
    41  H   -0.000174   0.000017  -0.000177  -0.005462   0.594237
 Mulliken charges:
               1
     1  C   -0.338376
     2  N   -0.521239
     3  C   -0.322806
     4  S    1.324369
     5  O   -0.539092
     6  O   -0.553523
     7  N   -0.702924
     8  C    0.154129
     9  C   -0.506323
    10  S    1.122310
    11  O   -0.525702
    12  O   -0.516976
    13  C   -0.492714
    14  C   -0.285948
    15  C   -0.370643
    16  C    0.155604
    17  C   -0.193592
    18  C   -0.122996
    19  C   -0.130961
    20  C   -0.127008
    21  C   -0.178479
    22  H    0.167279
    23  H    0.167515
    24  H    0.218620
    25  H    0.168080
    26  H    0.206533
    27  H    0.164076
    28  H    0.351951
    29  H    0.208748
    30  H    0.203837
    31  H    0.227874
    32  H    0.248637
    33  H    0.199166
    34  H    0.145904
    35  H    0.167767
    36  H    0.144697
    37  H    0.137100
    38  H    0.138674
    39  H    0.134221
    40  H    0.136119
    41  H    0.136092
 Sum of Mulliken charges =   0.00000
 Mulliken charges with hydrogens summed into heavy atoms:
               1
     1  C    0.215037
     2  N   -0.521239
     3  C    0.215883
     4  S    1.324369
     5  O   -0.539092
     6  O   -0.553523
     7  N   -0.350973
     8  C    0.154129
     9  C   -0.093737
    10  S    1.122310
    11  O   -0.525702
    12  O   -0.516976
    13  C   -0.016203
    14  C    0.059122
    15  C   -0.058179
    16  C    0.155604
    17  C   -0.056492
    18  C    0.015678
    19  C    0.003260
    20  C    0.009111
    21  C   -0.042388
 Electronic spatial extent (au):  <R**2>=           7619.3255
 Charge=              0.0000 electrons
 Dipole moment (field-independent basis, Debye):
    X=             -1.4413    Y=             -2.0032    Z=              2.6879  Tot=              3.6490
 Quadrupole moment (field-independent basis, Debye-Ang):
   XX=           -120.6830   YY=           -160.9510   ZZ=           -130.9617
   XY=             -5.8972   XZ=              0.6584   YZ=              9.6237
 Traceless Quadrupole moment (field-independent basis, Debye-Ang):
   XX=             16.8489   YY=            -23.4191   ZZ=              6.5702
   XY=             -5.8972   XZ=              0.6584   YZ=              9.6237
 Octapole moment (field-independent basis, Debye-Ang**2):
  XXX=           -119.6218  YYY=            -59.1543  ZZZ=              6.9649  XYY=             -5.8155
  XXY=             -4.5309  XXZ=            -44.2808  XZZ=             -5.6748  YZZ=             13.4795
  YYZ=             12.7304  XYZ=              2.5903
 Hexadecapole moment (field-independent basis, Debye-Ang**3):
 XXXX=          -5976.0739 YYYY=          -2744.4253 ZZZZ=           -919.3386 XXXY=            162.6843
 XXXZ=            -44.5419 YYYX=            -36.0410 YYYZ=             92.1739 ZZZX=            -14.5820
 ZZZY=              3.9423 XXYY=          -1551.3332 XXZZ=          -1191.6099 YYZZ=           -557.0933
 XXYZ=             67.3024 YYXZ=             -8.8924 ZZXY=            -16.3933
 N-N= 2.206470797117D+03 E-N=-8.439161642668D+03  KE= 1.702512829913D+03
 No NMR shielding tensors so no spin-rotation constants.
 Leave Link  601 at Thu Oct  1 22:35:15 2020, MaxMem=  2147483648 cpu:         0.3
 (Enter /prod/apps/gaussian/g09d1/l9999.exe)
 1\1\GINC-PIRINEUS16\SP\RB3LYP\6-31G(d)\C13H20N2O4S2\UBAFAR01\01-Oct-20
 20\0\\#p b3lyp/6-31G(d)\\SM40.n.18.pdb.xyz\\0,1\C,0,1.753,-0.652,1.303
 \N,0,2.833,0.167,0.728\C,0,2.674,1.614,0.959\S,0,4.376,-0.422,1.001\O,
 0,5.307,0.599,0.499\O,0,4.593,-0.92,2.371\N,0,4.283,-1.774,0.011\C,0,5
 .223,-2.908,0.187\C,0,4.768,-3.983,-0.853\S,0,3.85,-4.863,0.459\O,0,2.
 41,-4.529,0.456\O,0,4.231,-6.281,0.61\C,0,4.831,-3.712,1.468\C,0,6.692
 ,-2.463,0.063\C,0,7.792,-3.543,0.086\C,0,8.115,-4.145,1.439\C,0,8.031,
 -5.527,1.645\C,0,8.354,-6.091,2.88\C,0,8.77,-5.277,3.934\C,0,8.861,-3.
 896,3.742\C,0,8.538,-3.337,2.505\H,0,0.816,-0.321,0.851\H,0,1.685,-0.5
 41,2.392\H,0,1.917,-1.698,1.048\H,0,1.726,1.908,0.505\H,0,3.485,2.15,0
 .471\H,0,2.65,1.867,2.025\H,0,4.234,-1.46,-0.961\H,0,5.582,-4.61,-1.21
 4\H,0,4.151,-3.634,-1.68\H,0,5.669,-4.246,1.914\H,0,4.27,-3.163,2.218\
 H,0,6.889,-1.735,0.856\H,0,6.77,-1.916,-0.882\H,0,8.698,-3.063,-0.307\
 H,0,7.555,-4.347,-0.617\H,0,7.705,-6.164,0.828\H,0,8.279,-7.165,3.018\
 H,0,9.022,-5.713,4.895\H,0,9.187,-3.255,4.554\H,0,8.615,-2.263,2.365\\
 Version=AM64L-G09RevD.01\State=1-A\HF=-1714.0393545\RMSD=8.331e-09\Dip
 ole=0.5156094,1.0666507,-0.8108069\Quadrupole=0.2706175,-7.7743091,7.5
 036916,-15.7607522,0.6904278,-2.3110489\PG=C01 [X(C13H20N2O4S2)]\\@


 EVERYTHING'S GOT A MORAL, IF ONLY YOU CAN FIND IT.

                                    -- LEWIS CARROL, ALICE IN WONDERLAND
 Job cpu time:       0 days  0 hours  6 minutes 27.5 seconds.
 File lengths (MBytes):  RWF=     73 Int=      0 D2E=      0 Chk=      6 Scr=      1
 Normal termination of Gaussian 09 at Thu Oct  1 22:35:15 2020.
 Initial command:
 /prod/apps/gaussian/g09d1/l1.exe "/tmp/ubafar01/1462860/Gau-186275.inp" -scrdir="/tmp/ubafar01/1462860/"
 Entering Link 1 = /prod/apps/gaussian/g09d1/l1.exe PID=    186417.
  
 Copyright (c) 1988,1990,1992,1993,1995,1998,2003,2009,2013,
            Gaussian, Inc.  All Rights Reserved.
  
 This is part of the Gaussian(R) 09 program.  It is based on
 the Gaussian(R) 03 system (copyright 2003, Gaussian, Inc.),
 the Gaussian(R) 98 system (copyright 1998, Gaussian, Inc.),
 the Gaussian(R) 94 system (copyright 1995, Gaussian, Inc.),
 the Gaussian 92(TM) system (copyright 1992, Gaussian, Inc.),
[...]
    10  S    0.153508   0.002666  -0.000148   0.000138   0.001010  -0.000014
    11  O   -0.042878  -0.000084  -0.000001   0.000000   0.000000   0.000000
    12  O   -0.044965  -0.000196   0.000043  -0.000124  -0.000167  -0.000018
    13  C    5.709388  -0.044134  -0.001915  -0.003561  -0.005673  -0.000357
    14  C   -0.044134   5.121018   0.320837  -0.034507   0.000625  -0.000186
    15  C   -0.001915   0.320837   5.199702   0.349329  -0.050465   0.007027
    16  C   -0.003561  -0.034507   0.349329   4.686024   0.540762  -0.024404
    17  C   -0.005673   0.000625  -0.050465   0.540762   4.998572   0.514320
    18  C   -0.000357  -0.000186   0.007027  -0.024404   0.514320   4.892358
    19  C    0.000066   0.000004   0.000332  -0.034988  -0.037926   0.547403
    20  C    0.000195   0.000229   0.005885  -0.019895  -0.045732  -0.028685
    21  C   -0.000120  -0.004458  -0.065500   0.536900  -0.044842  -0.046426
    22  H    0.000001   0.000000   0.000000   0.000000   0.000000   0.000000
    23  H   -0.000032  -0.000001   0.000000   0.000000   0.000000   0.000000
    24  H   -0.000218   0.000028   0.000000   0.000000   0.000000   0.000000
    25  H    0.000000   0.000000   0.000000   0.000000   0.000000   0.000000
    26  H    0.000000   0.000000   0.000000   0.000000   0.000000   0.000000
    27  H    0.000000   0.000000   0.000000   0.000000   0.000000   0.000000
    28  H    0.004581  -0.000947  -0.000057   0.000004   0.000000   0.000000
    29  H    0.004451  -0.005854   0.001767   0.000045   0.000063   0.000001
    30  H    0.008698   0.000742   0.000096   0.000003   0.000000   0.000000
    31  H    0.324131  -0.006178  -0.001844   0.010347   0.008616   0.000985
    32  H    0.340302   0.000633   0.000059   0.000040   0.000065   0.000003
    33  H   -0.005243   0.367108  -0.036184  -0.007505   0.000175   0.000003
    34  H    0.005360   0.364934  -0.026191   0.004050  -0.000108   0.000002
    35  H   -0.000128  -0.031033   0.361393  -0.028229   0.001460  -0.000234
    36  H   -0.000003  -0.037882   0.363835  -0.038291  -0.004237   0.000282
    37  H   -0.000164   0.000179  -0.010528  -0.044051   0.357400  -0.043536
    38  H   -0.000006   0.000001  -0.000171   0.003768  -0.038395   0.360946
    39  H    0.000000   0.000000   0.000007   0.000634   0.004641  -0.042078
    40  H    0.000000   0.000001  -0.000171   0.003575   0.000752   0.004532
    41  H   -0.000040   0.000730  -0.008207  -0.046965   0.005816   0.000302
              19         20         21         22         23         24
     1  C    0.000000   0.000000   0.000000   0.376800   0.376351   0.366368
     2  N    0.000000   0.000000   0.000000  -0.033689  -0.046018  -0.031290
     3  C    0.000000   0.000000   0.000000  -0.003582  -0.001911   0.004239
     4  S    0.000000  -0.000001  -0.000060   0.002567  -0.007767  -0.002127
     5  O    0.000000   0.000000  -0.000001  -0.000047  -0.000038   0.000018
     6  O    0.000000  -0.000002   0.000009   0.000050   0.004751  -0.001778
     7  N    0.000000   0.000000  -0.000007  -0.000029   0.000053   0.010095
     8  C    0.000004  -0.000031  -0.000993  -0.000008   0.000078  -0.000930
     9  C    0.000000   0.000001   0.000017  -0.000001  -0.000001  -0.000019
    10  S    0.000001  -0.000008   0.000035   0.000000  -0.000004   0.002104
    11  O    0.000000   0.000000   0.000000   0.000009   0.000006   0.007545
    12  O    0.000000   0.000000   0.000001   0.000000   0.000000   0.000005
    13  C    0.000066   0.000195  -0.000120   0.000001  -0.000032  -0.000218
    14  C    0.000004   0.000229  -0.004458   0.000000  -0.000001   0.000028
    15  C    0.000332   0.005885  -0.065500   0.000000   0.000000   0.000000
    16  C   -0.034988  -0.019895   0.536900   0.000000   0.000000   0.000000
    17  C   -0.037926  -0.045732  -0.044842   0.000000   0.000000   0.000000
    18  C    0.547403  -0.028685  -0.046426   0.000000   0.000000   0.000000
    19  C    4.882625   0.542289  -0.037709   0.000000   0.000000   0.000000
    20  C    0.542289   4.884698   0.525237   0.000000   0.000000   0.000000
    21  C   -0.037709   0.525237   4.994541   0.000000   0.000000   0.000000
    22  H    0.000000   0.000000   0.000000   0.522784  -0.034393  -0.020918
    23  H    0.000000   0.000000   0.000000  -0.034393   0.560505  -0.029569
    24  H    0.000000   0.000000   0.000000  -0.020918  -0.029569   0.496118
    25  H    0.000000   0.000000   0.000000   0.004811  -0.001709   0.000072
    26  H    0.000000   0.000000   0.000000   0.000012  -0.000163  -0.000184
    27  H    0.000000   0.000000   0.000000  -0.001296   0.007855  -0.000174
    28  H    0.000000   0.000000   0.000000  -0.000013   0.000002  -0.000134
    29  H    0.000000   0.000000   0.000001   0.000000   0.000000   0.000001
    30  H    0.000000   0.000000   0.000000   0.000000   0.000000  -0.000004
    31  H   -0.000101  -0.000383   0.000176   0.000000   0.000001   0.000019
    32  H   -0.000004  -0.000011   0.000011  -0.000003   0.000092   0.000151
    33  H   -0.000001  -0.000092   0.004518   0.000000   0.000000  -0.000001
    34  H    0.000000   0.000001   0.000165   0.000000   0.000000   0.000000
    35  H    0.000036  -0.000031  -0.005031   0.000000   0.000000   0.000000
    36  H   -0.000006  -0.000155   0.004835   0.000000   0.000000   0.000000
    37  H    0.004733   0.000257   0.006253   0.000000   0.000000   0.000000
    38  H   -0.042117   0.004531   0.000716   0.000000   0.000000   0.000000
    39  H    0.363369  -0.041870   0.004636   0.000000   0.000000   0.000000
    40  H   -0.041904   0.361507  -0.039030   0.000000   0.000000   0.000000
    41  H    0.004630  -0.041579   0.359174   0.000000   0.000000   0.000000
              25         26         27         28         29         30
     1  C   -0.002528   0.004349  -0.001617   0.000050   0.000000   0.000008
     2  N   -0.037821  -0.032297  -0.046461   0.001768   0.000001  -0.000016
     3  C    0.381212   0.377006   0.373715  -0.000080   0.000000   0.000000
     4  S    0.001833  -0.003575  -0.002832  -0.003105   0.000015   0.000123
     5  O    0.000280   0.011150  -0.000499  -0.000305   0.000001  -0.000003
     6  O   -0.000098  -0.000087   0.001875   0.001365   0.000001   0.000004
     7  N   -0.000083   0.000074  -0.000060   0.289236   0.003432  -0.005098
     8  C    0.000000  -0.000004   0.000007  -0.020382  -0.027561  -0.021590
     9  C    0.000000   0.000000   0.000000  -0.006310   0.333460   0.345010
    10  S    0.000000   0.000000   0.000000  -0.000382  -0.004826  -0.009635
    11  O    0.000000   0.000000   0.000000   0.000005   0.001122  -0.000232
    12  O    0.000000   0.000000   0.000000   0.000002   0.000950   0.000643
    13  C    0.000000   0.000000   0.000000   0.004581   0.004451   0.008698
    14  C    0.000000   0.000000   0.000000  -0.000947  -0.005854   0.000742
    15  C    0.000000   0.000000   0.000000  -0.000057   0.001767   0.000096
    16  C    0.000000   0.000000   0.000000   0.000004   0.000045   0.000003
    17  C    0.000000   0.000000   0.000000   0.000000   0.000063   0.000000
    18  C    0.000000   0.000000   0.000000   0.000000   0.000001   0.000000
    19  C    0.000000   0.000000   0.000000   0.000000   0.000000   0.000000
    20  C    0.000000   0.000000   0.000000   0.000000   0.000000   0.000000
    21  C    0.000000   0.000000   0.000000   0.000000   0.000001   0.000000
    22  H    0.004811   0.000012  -0.001296  -0.000013   0.000000   0.000000
    23  H   -0.001709  -0.000163   0.007855   0.000002   0.000000   0.000000
    24  H    0.000072  -0.000184  -0.000174  -0.000134   0.000001  -0.000004
    25  H    0.525177  -0.020380  -0.038503   0.000000   0.000000   0.000000
    26  H   -0.020380   0.496747  -0.030087  -0.000012   0.000000   0.000000
    27  H   -0.038503  -0.030087   0.566325   0.000003   0.000000   0.000000
    28  H    0.000000  -0.000012   0.000003   0.314710   0.000065   0.004019
    29  H    0.000000   0.000000   0.000000   0.000065   0.467906  -0.014141
    30  H    0.000000   0.000000   0.000000   0.004019  -0.014141   0.453153
    31  H    0.000000   0.000000   0.000000  -0.000080   0.000133  -0.000209
    32  H    0.000000   0.000000   0.000000   0.000055  -0.000216  -0.000282
    33  H    0.000000   0.000001   0.000000  -0.000242   0.000168  -0.000067
    34  H    0.000000   0.000000   0.000000   0.002995   0.000423   0.000367
    35  H    0.000000   0.000000   0.000000   0.000000  -0.000135  -0.000003
    36  H    0.000000   0.000000   0.000000  -0.000005   0.007433   0.000000
    37  H    0.000000   0.000000   0.000000   0.000000   0.000202   0.000002
    38  H    0.000000   0.000000   0.000000   0.000000   0.000000   0.000000
    39  H    0.000000   0.000000   0.000000   0.000000   0.000000   0.000000
    40  H    0.000000   0.000000   0.000000   0.000000   0.000000   0.000000
    41  H    0.000000   0.000000   0.000000   0.000000   0.000000   0.000000
              31         32         33         34         35         36
     1  C   -0.000004   0.000408  -0.000001   0.000000   0.000000   0.000000
     2  N   -0.000001  -0.000284   0.000035  -0.000006   0.000000   0.000000
     3  C    0.000000   0.000006   0.000002   0.000000   0.000000   0.000000
     4  S    0.000034   0.001042   0.012142  -0.000475  -0.000001   0.000017
     5  O    0.000003   0.000036   0.000172   0.000385   0.000001  -0.000001
     6  O   -0.000091   0.013299   0.002862   0.000077   0.000000  -0.000001
     7  N    0.003231  -0.006180  -0.005834  -0.001821  -0.000125   0.000044
     8  C   -0.026622  -0.019812  -0.034225  -0.038512   0.004406  -0.008008
     9  C    0.004735   0.008377   0.004899  -0.005971   0.000111   0.002028
    10  S   -0.005394  -0.010176  -0.000225  -0.000092   0.000025  -0.000609
    11  O    0.001144  -0.000595   0.000001   0.000001   0.000000   0.000001
    12  O    0.000420   0.000564   0.000001   0.000002   0.000000  -0.000054
    13  C    0.324131   0.340302  -0.005243   0.005360  -0.000128  -0.000003
    14  C   -0.006178   0.000633   0.367108   0.364934  -0.031033  -0.037882
    15  C   -0.001844   0.000059  -0.036184  -0.026191   0.361393   0.363835
    16  C    0.010347   0.000040  -0.007505   0.004050  -0.028229  -0.038291
    17  C    0.008616   0.000065   0.000175  -0.000108   0.001460  -0.004237
    18  C    0.000985   0.000003   0.000003   0.000002  -0.000234   0.000282
    19  C   -0.000101  -0.000004  -0.000001   0.000000   0.000036  -0.000006
    20  C   -0.000383  -0.000011  -0.000092   0.000001  -0.000031  -0.000155
    21  C    0.000176   0.000011   0.004518   0.000165  -0.005031   0.004835
    22  H    0.000000  -0.000003   0.000000   0.000000   0.000000   0.000000
    23  H    0.000001   0.000092   0.000000   0.000000   0.000000   0.000000
    24  H    0.000019   0.000151  -0.000001   0.000000   0.000000   0.000000
    25  H    0.000000   0.000000   0.000000   0.000000   0.000000   0.000000
    26  H    0.000000   0.000000   0.000001   0.000000   0.000000   0.000000
    27  H    0.000000   0.000000   0.000000   0.000000   0.000000   0.000000
    28  H   -0.000080   0.000055  -0.000242   0.002995   0.000000  -0.000005
    29  H    0.000133  -0.000216   0.000168   0.000423  -0.000135   0.007433
    30  H   -0.000209  -0.000282  -0.000067   0.000367  -0.000003   0.000000
    31  H    0.470856  -0.012757   0.000419   0.000102   0.000130   0.000010
    32  H   -0.012757   0.436396   0.000272  -0.000077   0.000001  -0.000005
    33  H    0.000419   0.000272   0.536274  -0.031456  -0.001347   0.004569
    34  H    0.000102  -0.000077  -0.031456   0.560619  -0.005902  -0.001328
    35  H    0.000130   0.000001  -0.001347  -0.005902   0.552780  -0.030038
    36  H    0.000010  -0.000005   0.004569  -0.001328  -0.030038   0.566925
    37  H   -0.000070   0.000001   0.000008  -0.000009   0.000133   0.006758
    38  H    0.000020   0.000000   0.000000   0.000000   0.000003  -0.000008
    39  H   -0.000001   0.000000   0.000000   0.000000   0.000000   0.000000
    40  H    0.000001   0.000000   0.000007   0.000000  -0.000001   0.000003
    41  H    0.000042  -0.000001   0.004147  -0.000140   0.001818   0.000031
              37         38         39         40         41
     1  C    0.000000   0.000000   0.000000   0.000000   0.000000
     2  N    0.000000   0.000000   0.000000   0.000000   0.000000
     3  C    0.000000   0.000000   0.000000   0.000000   0.000000
     4  S    0.000000   0.000000   0.000000   0.000000  -0.000016
     5  O    0.000000   0.000000   0.000000   0.000000  -0.000003
     6  O    0.000000   0.000000   0.000000   0.000000  -0.000003
     7  N    0.000000   0.000000   0.000000   0.000000   0.000002
     8  C   -0.000009   0.000001   0.000000   0.000000   0.000161
     9  C   -0.000140   0.000000   0.000000   0.000000   0.000001
    10  S    0.000854  -0.000001   0.000000   0.000000   0.000001
    11  O    0.000001   0.000000   0.000000   0.000000   0.000000
    12  O    0.000993  -0.000002   0.000000   0.000000   0.000000
    13  C   -0.000164  -0.000006   0.000000   0.000000  -0.000040
    14  C    0.000179   0.000001   0.000000   0.000001   0.000730
    15  C   -0.010528  -0.000171   0.000007  -0.000171  -0.008207
    16  C   -0.044051   0.003768   0.000634   0.003575  -0.046965
    17  C    0.357400  -0.038395   0.004641   0.000752   0.005816
    18  C   -0.043536   0.360946  -0.042078   0.004532   0.000302
    19  C    0.004733  -0.042117   0.363369  -0.041904   0.004630
    20  C    0.000257   0.004531  -0.041870   0.361507  -0.041579
    21  C    0.006253   0.000716   0.004636  -0.039030   0.359174
    22  H    0.000000   0.000000   0.000000   0.000000   0.000000
    23  H    0.000000   0.000000   0.000000   0.000000   0.000000
    24  H    0.000000   0.000000   0.000000   0.000000   0.000000
    25  H    0.000000   0.000000   0.000000   0.000000   0.000000
    26  H    0.000000   0.000000   0.000000   0.000000   0.000000
    27  H    0.000000   0.000000   0.000000   0.000000   0.000000
    28  H    0.000000   0.000000   0.000000   0.000000   0.000000
    29  H    0.000202   0.000000   0.000000   0.000000   0.000000
    30  H    0.000002   0.000000   0.000000   0.000000   0.000000
    31  H   -0.000070   0.000020  -0.000001   0.000001   0.000042
    32  H    0.000001   0.000000   0.000000   0.000000  -0.000001
    33  H    0.000008   0.000000   0.000000   0.000007   0.004147
    34  H   -0.000009   0.000000   0.000000   0.000000  -0.000140
    35  H    0.000133   0.000003   0.000000  -0.000001   0.001818
    36  H    0.006758  -0.000008   0.000000   0.000003   0.000031
    37  H    0.579035  -0.005263  -0.000164   0.000016  -0.000165
    38  H   -0.005263   0.569842  -0.005262  -0.000173   0.000016
    39  H   -0.000164  -0.005262   0.570955  -0.005164  -0.000166
    40  H    0.000016  -0.000173  -0.005164   0.569633  -0.005189
    41  H   -0.000165   0.000016  -0.000166  -0.005189   0.575714
 Mulliken charges:
               1
     1  C   -0.335364
     2  N   -0.527050
     3  C   -0.324635
     4  S    1.329773
     5  O   -0.571904
     6  O   -0.583799
     7  N   -0.721019
     8  C    0.152188
     9  C   -0.496828
    10  S    1.118890
    11  O   -0.566142
    12  O   -0.560636
    13  C   -0.488162
    14  C   -0.289246
    15  C   -0.374643
    16  C    0.150823
    17  C   -0.207554
    18  C   -0.142230
    19  C   -0.150737
    20  C   -0.146356
    21  C   -0.193047
    22  H    0.186946
    23  H    0.171911
    24  H    0.200583
    25  H    0.187736
    26  H    0.197451
    27  H    0.171750
    28  H    0.413193
    29  H    0.231092
    30  H    0.238411
    31  H    0.228179
    32  H    0.248589
    33  H    0.184639
    34  H    0.172606
    35  H    0.179942
    36  H    0.163862
    37  H    0.147273
    38  H    0.151556
    39  H    0.150464
    40  H    0.151607
    41  H    0.149890
 Sum of Mulliken charges =   0.00000
 Mulliken charges with hydrogens summed into heavy atoms:
               1
     1  C    0.224076
     2  N   -0.527050
     3  C    0.232302
     4  S    1.329773
     5  O   -0.571904
     6  O   -0.583799
     7  N   -0.307826
     8  C    0.152188
     9  C   -0.027325
    10  S    1.118890
    11  O   -0.566142
    12  O   -0.560636
    13  C   -0.011394
    14  C    0.068000
    15  C   -0.030840
    16  C    0.150823
    17  C   -0.060282
    18  C    0.009326
    19  C   -0.000274
    20  C    0.005250
    21  C   -0.043157
 Electronic spatial extent (au):  <R**2>=           7618.4375
 Charge=              0.0000 electrons
 Dipole moment (field-independent basis, Debye):
    X=             -2.2571    Y=             -2.1097    Z=              4.2018  Tot=              5.2155
 Quadrupole moment (field-independent basis, Debye-Ang):
   XX=           -118.0066   YY=           -165.3766   ZZ=           -128.0180
   XY=             -7.5060   XZ=              1.1571   YZ=             11.6995
 Traceless Quadrupole moment (field-independent basis, Debye-Ang):
   XX=             19.1271   YY=            -28.2429   ZZ=              9.1158
   XY=             -7.5060   XZ=              1.1571   YZ=             11.6995
 Octapole moment (field-independent basis, Debye-Ang**2):
  XXX=           -146.4452  YYY=            -71.3941  ZZZ=             15.5340  XYY=             -5.0024
  XXY=             -3.5181  XXZ=            -46.1462  XZZ=             -5.5039  YZZ=             15.0149
  YYZ=             17.9059  XYZ=              1.8336
 Hexadecapole moment (field-independent basis, Debye-Ang**3):
 XXXX=          -5838.3703 YYYY=          -2808.3833 ZZZZ=           -894.0662 XXXY=            164.0877
 XXXZ=            -27.9988 YYYX=            -56.1203 YYYZ=            113.3537 ZZZX=            -13.1968
 ZZZY=             10.9498 XXYY=          -1560.8096 XXZZ=          -1173.1550 YYZZ=           -553.7295
 XXYZ=             76.5713 YYXZ=             -7.5297 ZZXY=            -21.7878
 N-N= 2.206474392281D+03 E-N=-8.439499380796D+03  KE= 1.702527071408D+03
 No NMR shielding tensors so no spin-rotation constants.
 Leave Link  601 at Thu Oct  1 22:40:26 2020, MaxMem=  2147483648 cpu:         0.3
 (Enter /prod/apps/gaussian/g09d1/l9999.exe)
 1\1\GINC-PIRINEUS16\SP\RB3LYP\6-31G(d)\C13H20N2O4S2\UBAFAR01\01-Oct-20
 20\0\\#p b3lyp/6-31G(d) scrf=(iefpcm,read,solvent=Water) geom=allcheck
  guess=read\\SM40.n.18.pdb.xyz\\0,1\C,0,1.753,-0.652,1.303\N,0,2.833,0
 .167,0.728\C,0,2.674,1.614,0.959\S,0,4.376,-0.422,1.001\O,0,5.307,0.59
 9,0.499\O,0,4.593,-0.92,2.371\N,0,4.283,-1.774,0.011\C,0,5.223,-2.908,
 0.187\C,0,4.768,-3.983,-0.853\S,0,3.85,-4.863,0.459\O,0,2.41,-4.529,0.
 456\O,0,4.231,-6.281,0.61\C,0,4.831,-3.712,1.468\C,0,6.692,-2.463,0.06
 3\C,0,7.792,-3.543,0.086\C,0,8.115,-4.145,1.439\C,0,8.031,-5.527,1.645
 \C,0,8.354,-6.091,2.88\C,0,8.77,-5.277,3.934\C,0,8.861,-3.896,3.742\C,
 0,8.538,-3.337,2.505\H,0,0.816,-0.321,0.851\H,0,1.685,-0.541,2.392\H,0
 ,1.917,-1.698,1.048\H,0,1.726,1.908,0.505\H,0,3.485,2.15,0.471\H,0,2.6
 5,1.867,2.025\H,0,4.234,-1.46,-0.961\H,0,5.582,-4.61,-1.214\H,0,4.151,
 -3.634,-1.68\H,0,5.669,-4.246,1.914\H,0,4.27,-3.163,2.218\H,0,6.889,-1
 .735,0.856\H,0,6.77,-1.916,-0.882\H,0,8.698,-3.063,-0.307\H,0,7.555,-4
 .347,-0.617\H,0,7.705,-6.164,0.828\H,0,8.279,-7.165,3.018\H,0,9.022,-5
 .713,4.895\H,0,9.187,-3.255,4.554\H,0,8.615,-2.263,2.365\\Version=AM64
 L-G09RevD.01\State=1-A\HF=-1714.0649006\RMSD=6.043e-09\Dipole=0.554479
 4,1.3866949,-1.4071243\Quadrupole=0.4069922,-10.1468485,9.7398563,-18.
 6119844,0.3852358,-2.5547718\PG=C01 [X(C13H20N2O4S2)]\\@


 LET US PLACE AT THE END OF EVERY CHAPTER.....THE
 TWO LETTERS USED BY THE ROMAN JUDGES WHEN THEY DID
 NOT UNDERSTAND A PLEADING.
 N. L. -NON LIQUET- IT IS NOT CLEAR.
                                              -- VOLTAIRE
 Job cpu time:       0 days  0 hours  5 minutes 11.8 seconds.
 File lengths (MBytes):  RWF=    223 Int=      0 D2E=      0 Chk=      7 Scr=      1
 Normal termination of Gaussian 09 at Thu Oct  1 22:40:27 2020.
