 Entering Gaussian System, Link 0=g09
 Initial command:
 /prod/apps/gaussian/g09d1/l1.exe "/tmp/ubafar01/1462858/Gau-185772.inp" -scrdir="/tmp/ubafar01/1462858/"
 Entering Link 1 = /prod/apps/gaussian/g09d1/l1.exe PID=    185773.
  
 Copyright (c) 1988,1990,1992,1993,1995,1998,2003,2009,2013,
            Gaussian, Inc.  All Rights Reserved.
  
 This is part of the Gaussian(R) 09 program.  It is based on
 the Gaussian(R) 03 system (copyright 2003, Gaussian, Inc.),
 the Gaussian(R) 98 system (copyright 1998, Gaussian, Inc.),
 the Gaussian(R) 94 system (copyright 1995, Gaussian, Inc.),
 the Gaussian 92(TM) system (copyright 1992, Gaussian, Inc.),
 the Gaussian 90(TM) system (copyright 1990, Gaussian, Inc.),
 the Gaussian 88(TM) system (copyright 1988, Gaussian, Inc.),
 the Gaussian 86(TM) system (copyright 1986, Carnegie Mellon
 University), and the Gaussian 82(TM) system (copyright 1983,
 Carnegie Mellon University). Gaussian is a federally registered
 trademark of Gaussian, Inc.
  
 This software contains proprietary and confidential information,
 including trade secrets, belonging to Gaussian, Inc.
  
 This software is provided under written license and may be
 used, copied, transmitted, or stored only in accord with that
 written license.
  
 The following legend is applicable only to US Government
 contracts under FAR:
  
                    RESTRICTED RIGHTS LEGEND
  
 Use, reproduction and disclosure by the US Government is
 subject to restrictions as set forth in subparagraphs (a)
 and (c) of the Commercial Computer Software - Restricted
 Rights clause in FAR 52.227-19.
  
 Gaussian, Inc.
 340 Quinnipiac St., Bldg. 40, Wallingford CT 06492
  
  
 ---------------------------------------------------------------
 Warning -- This program may not be used in any manner that
 competes with the business of Gaussian, Inc. or will provide
 assistance to any competitor of Gaussian, Inc.  The licensee
 of this program is prohibited from giving any competitor of
 Gaussian, Inc. access to this program.  By using this program,
 the user acknowledges that Gaussian, Inc. is engaged in the
 business of creating and licensing software in the field of
 computational chemistry and represents and warrants to the
 licensee that it is not a competitor of Gaussian, Inc. and that
 it will not use this program in any manner prohibited above.
 ---------------------------------------------------------------
  

 Cite this work as:
 Gaussian 09, Revision D.01,
 M. J. Frisch, G. W. Trucks, H. B. Schlegel, G. E. Scuseria, 
 M. A. Robb, J. R. Cheeseman, G. Scalmani, V. Barone, B. Mennucci, 
 G. A. Petersson, H. Nakatsuji, M. Caricato, X. Li, H. P. Hratchian, 
 A. F. Izmaylov, J. Bloino, G. Zheng, J. L. Sonnenberg, M. Hada, 
 M. Ehara, K. Toyota, R. Fukuda, J. Hasegawa, M. Ishida, T. Nakajima, 
 Y. Honda, O. Kitao, H. Nakai, T. Vreven, J. A. Montgomery, Jr., 
 J. E. Peralta, F. Ogliaro, M. Bearpark, J. J. Heyd, E. Brothers, 
 K. N. Kudin, V. N. Staroverov, T. Keith, R. Kobayashi, J. Normand, 
 K. Raghavachari, A. Rendell, J. C. Burant, S. S. Iyengar, J. Tomasi, 
 M. Cossi, N. Rega, J. M. Millam, M. Klene, J. E. Knox, J. B. Cross, 
 V. Bakken, C. Adamo, J. Jaramillo, R. Gomperts, R. E. Stratmann, 
 O. Yazyev, A. J. Austin, R. Cammi, C. Pomelli, J. W. Ochterski, 
 R. L. Martin, K. Morokuma, V. G. Zakrzewski, G. A. Voth, 
 P. Salvador, J. J. Dannenberg, S. Dapprich, A. D. Daniels, 
 O. Farkas, J. B. Foresman, J. V. Ortiz, J. Cioslowski, 
 and D. J. Fox, Gaussian, Inc., Wallingford CT, 2013.
 
 ******************************************
 Gaussian 09:  AM64L-G09RevD.01 24-Apr-2013
                 1-Oct-2020 
 ******************************************
 %nproc=1
 Will use up to    1 processors via shared memory.
 %Chk=SM40.n.16.pdb.xyz.mst.n.w.chk
 %mem=16GB
 -----------------
 #p b3lyp/6-31G(d)
 -----------------
 1/38=1/1;
 2/12=2,17=6,18=5,40=1/2;
 3/5=1,6=6,7=1,11=2,16=1,25=1,30=1,74=-5/1,2,3;
 4//1;
 5/5=2,38=5/2;
 6/7=2,8=2,9=2,10=2,28=1/1;
 99/5=1,9=1/99;
 Leave Link    1 at Thu Oct  1 22:02:54 2020, MaxMem=  2147483648 cpu:         0.0
 (Enter /prod/apps/gaussian/g09d1/l101.exe)
 -----------------
 SM40.n.16.pdb.xyz
 -----------------
 Symbolic Z-matrix:
 Charge =  0 Multiplicity = 1
 C                     0.889    -1.159     0.68 
 N                     2.338    -0.943     0.51 
 C                     2.672     0.351    -0.106 
 S                     3.252    -1.316     1.869 
 O                     3.371    -0.195     2.814 
 O                     2.727    -2.598     2.363 
 N                     4.771    -1.463     1.19 
 C                     5.277    -2.698     0.574 
 C                     4.323    -3.299    -0.509 
 S                     4.561    -4.961     0.203 
 O                     3.311    -5.633     0.606 
 O                     5.559    -5.742    -0.558 
 C                     5.336    -3.959     1.512 
 C                     6.673    -2.388     0.011 
 C                     6.713    -1.26     -1.028 
 C                     8.109    -1.04     -1.567 
 C                     8.586    -1.783    -2.655 
 C                     9.885    -1.6      -3.132 
 C                     10.731   -0.668    -2.527 
 C                     10.266    0.08     -1.443 
 C                     8.966    -0.106    -0.97 
 H                     0.44     -1.112    -0.314 
 H                     0.424    -0.396     1.316 
 H                     0.717    -2.147     1.103 
 H                     2.203     0.374    -1.091 
 H                     3.752     0.423    -0.227 
 H                     2.308     1.198     0.486 
 H                     5.447    -1.03      1.82 
 H                     4.659    -3.218    -1.542 
 H                     3.286    -2.98     -0.414 
 H                     6.33     -4.303     1.8 
 H                     4.666    -3.892     2.367 
 H                     7.065    -3.311    -0.429 
 H                     7.334    -2.141     0.848 
 H                     6.342    -0.339    -0.569 
 H                     6.033    -1.501    -1.854 
 H                     7.933    -2.507    -3.135 
 H                     10.235   -2.182    -3.979 
 H                     11.739   -0.523    -2.899 
 H                     10.913    0.811    -0.968 
 H                     8.608     0.482    -0.13 
 
 NAtoms=     41 NQM=       41 NQMF=       0 NMMI=      0 NMMIF=      0
                NMic=       0 NMicF=      0.
                    Isotopes and Nuclear Properties:
 (Nuclear quadrupole moments (NQMom) in fm**2, nuclear magnetic moments (NMagM)
  in nuclear magnetons)

  Atom         1           2           3           4           5           6           7           8           9          10
 IAtWgt=          12          14          12          32          16          16          14          12          12          32
 AtmWgt=  12.0000000  14.0030740  12.0000000  31.9720718  15.9949146  15.9949146  14.0030740  12.0000000  12.0000000  31.9720718
 NucSpn=           0           2           0           0           0           0           2           0           0           0
 AtZEff=   0.0000000   0.0000000   0.0000000   0.0000000   0.0000000   0.0000000   0.0000000   0.0000000   0.0000000   0.0000000
 NQMom=    0.0000000   2.0440000   0.0000000   0.0000000   0.0000000   0.0000000   2.0440000   0.0000000   0.0000000   0.0000000
 NMagM=    0.0000000   0.4037610   0.0000000   0.0000000   0.0000000   0.0000000   0.4037610   0.0000000   0.0000000   0.0000000
 AtZNuc=   6.0000000   7.0000000   6.0000000  16.0000000   8.0000000   8.0000000   7.0000000   6.0000000   6.0000000  16.0000000

  Atom        11          12          13          14          15          16          17          18          19          20
 IAtWgt=          16          16          12          12          12          12          12          12          12          12
 AtmWgt=  15.9949146  15.9949146  12.0000000  12.0000000  12.0000000  12.0000000  12.0000000  12.0000000  12.0000000  12.0000000
 NucSpn=           0           0           0           0           0           0           0           0           0           0
 AtZEff=   0.0000000   0.0000000   0.0000000   0.0000000   0.0000000   0.0000000   0.0000000   0.0000000   0.0000000   0.0000000
 NQMom=    0.0000000   0.0000000   0.0000000   0.0000000   0.0000000   0.0000000   0.0000000   0.0000000   0.0000000   0.0000000
 NMagM=    0.0000000   0.0000000   0.0000000   0.0000000   0.0000000   0.0000000   0.0000000   0.0000000   0.0000000   0.0000000
 AtZNuc=   8.0000000   8.0000000   6.0000000   6.0000000   6.0000000   6.0000000   6.0000000   6.0000000   6.0000000   6.0000000

  Atom        21          22          23          24          25          26          27          28          29          30
 IAtWgt=          12           1           1           1           1           1           1           1           1           1
 AtmWgt=  12.0000000   1.0078250   1.0078250   1.0078250   1.0078250   1.0078250   1.0078250   1.0078250   1.0078250   1.0078250
 NucSpn=           0           1           1           1           1           1           1           1           1           1
 AtZEff=   0.0000000   0.0000000   0.0000000   0.0000000   0.0000000   0.0000000   0.0000000   0.0000000   0.0000000   0.0000000
 NQMom=    0.0000000   0.0000000   0.0000000   0.0000000   0.0000000   0.0000000   0.0000000   0.0000000   0.0000000   0.0000000
 NMagM=    0.0000000   2.7928460   2.7928460   2.7928460   2.7928460   2.7928460   2.7928460   2.7928460   2.7928460   2.7928460
 AtZNuc=   6.0000000   1.0000000   1.0000000   1.0000000   1.0000000   1.0000000   1.0000000   1.0000000   1.0000000   1.0000000

  Atom        31          32          33          34          35          36          37          38          39          40
 IAtWgt=           1           1           1           1           1           1           1           1           1           1
 AtmWgt=   1.0078250   1.0078250   1.0078250   1.0078250   1.0078250   1.0078250   1.0078250   1.0078250   1.0078250   1.0078250
 NucSpn=           1           1           1           1           1           1           1           1           1           1
 AtZEff=   0.0000000   0.0000000   0.0000000   0.0000000   0.0000000   0.0000000   0.0000000   0.0000000   0.0000000   0.0000000
 NQMom=    0.0000000   0.0000000   0.0000000   0.0000000   0.0000000   0.0000000   0.0000000   0.0000000   0.0000000   0.0000000
 NMagM=    2.7928460   2.7928460   2.7928460   2.7928460   2.7928460   2.7928460   2.7928460   2.7928460   2.7928460   2.7928460
 AtZNuc=   1.0000000   1.0000000   1.0000000   1.0000000   1.0000000   1.0000000   1.0000000   1.0000000   1.0000000   1.0000000

  Atom        41
 IAtWgt=           1
 AtmWgt=   1.0078250
 NucSpn=           1
 AtZEff=   0.0000000
 NQMom=    0.0000000
 NMagM=    2.7928460
 AtZNuc=   1.0000000
 Leave Link  101 at Thu Oct  1 22:02:54 2020, MaxMem=  2147483648 cpu:         0.2
 (Enter /prod/apps/gaussian/g09d1/l202.exe)
                          Input orientation:                          
 ---------------------------------------------------------------------
 Center     Atomic      Atomic             Coordinates (Angstroms)
 Number     Number       Type             X           Y           Z
 ---------------------------------------------------------------------
      1          6           0        0.889000   -1.159000    0.680000
      2          7           0        2.338000   -0.943000    0.510000
      3          6           0        2.672000    0.351000   -0.106000
      4         16           0        3.252000   -1.316000    1.869000
      5          8           0        3.371000   -0.195000    2.814000
      6          8           0        2.727000   -2.598000    2.363000
      7          7           0        4.771000   -1.463000    1.190000
      8          6           0        5.277000   -2.698000    0.574000
      9          6           0        4.323000   -3.299000   -0.509000
     10         16           0        4.561000   -4.961000    0.203000
     11          8           0        3.311000   -5.633000    0.606000
     12          8           0        5.559000   -5.742000   -0.558000
     13          6           0        5.336000   -3.959000    1.512000
     14          6           0        6.673000   -2.388000    0.011000
     15          6           0        6.713000   -1.260000   -1.028000
     16          6           0        8.109000   -1.040000   -1.567000
     17          6           0        8.586000   -1.783000   -2.655000
     18          6           0        9.885000   -1.600000   -3.132000
     19          6           0       10.731000   -0.668000   -2.527000
     20          6           0       10.266000    0.080000   -1.443000
     21          6           0        8.966000   -0.106000   -0.970000
     22          1           0        0.440000   -1.112000   -0.314000
     23          1           0        0.424000   -0.396000    1.316000
     24          1           0        0.717000   -2.147000    1.103000
     25          1           0        2.203000    0.374000   -1.091000
     26          1           0        3.752000    0.423000   -0.227000
     27          1           0        2.308000    1.198000    0.486000
     28          1           0        5.447000   -1.030000    1.820000
     29          1           0        4.659000   -3.218000   -1.542000
     30          1           0        3.286000   -2.980000   -0.414000
     31          1           0        6.330000   -4.303000    1.800000
     32          1           0        4.666000   -3.892000    2.367000
     33          1           0        7.065000   -3.311000   -0.429000
     34          1           0        7.334000   -2.141000    0.848000
     35          1           0        6.342000   -0.339000   -0.569000
     36          1           0        6.033000   -1.501000   -1.854000
     37          1           0        7.933000   -2.507000   -3.135000
     38          1           0       10.235000   -2.182000   -3.979000
     39          1           0       11.739000   -0.523000   -2.899000
     40          1           0       10.913000    0.811000   -0.968000
     41          1           0        8.608000    0.482000   -0.130000
 ---------------------------------------------------------------------
                    Distance matrix (angstroms):
                    1          2          3          4          5
     1  C    0.000000
     2  N    1.474841   0.000000
     3  C    2.465154   1.471546   0.000000
     4  S    2.649932   1.679704   2.648757   0.000000
     5  O    3.412268   2.633441   3.051740   1.470995   0.000000
     6  O    2.877752   2.514748   3.846503   1.470777   2.528348
     7  N    3.927141   2.579203   3.062028   1.670333   2.491024
     8  C    4.651269   3.423718   4.067533   2.772647   3.862052
     9  C    4.217307   3.244892   4.026253   3.276311   4.645799
    10  S    5.307195   4.602206   5.646339   4.216048   5.563109
    11  O    5.088048   4.790829   6.059993   4.498348   5.869473
    12  O    6.659237   5.877573   6.757494   5.549960   6.850324
    13  C    5.320529   4.369012   5.318921   3.384665   4.441185
    14  C    5.950854   4.596657   4.850135   4.037894   4.854818
    15  C    6.070127   4.648285   4.446919   4.513786   5.202322
    16  C    7.562511   6.134149   5.799170   5.955898   6.508136
    17  C    8.411624   7.054100   6.784302   7.009723   7.721912
    18  C    9.780278   8.405535   8.061665   8.311880   8.930909
    19  C   10.362958   8.929806   8.476266   8.699435   9.106021
    20  C    9.693832   8.228847   7.715559   7.881266   8.107940
    21  C    8.310790   6.842613   6.369441   6.494137   6.755043
    22  H    1.091717   2.076040   2.676837   3.565733   4.383610
    23  H    1.096763   2.147613   2.762896   3.024862   3.311980
    24  H    1.088419   2.104497   3.394659   2.775526   3.712350
    25  H    2.685726   2.077478   1.091199   3.566245   4.115460
    26  H    3.394428   2.099648   1.089140   2.768996   3.126462
    27  H    2.758015   2.141345   1.095614   3.020599   2.913761
    28  H    4.700171   3.374841   3.649282   2.214096   2.448476
    29  H    4.836286   3.843614   4.329899   4.151165   5.456392
    30  H    3.202887   2.429372   3.401091   2.825268   4.264204
    31  H    6.383073   5.374920   6.218803   4.289640   5.163288
    32  H    4.957922   4.191018   5.300454   2.980466   3.942670
    33  H    6.633548   5.369700   5.728265   4.878504   5.819978
    34  H    6.521547   5.148734   5.371631   4.287865   4.832954
    35  H    5.653991   4.190593   3.762894   4.055425   4.504694
    36  H    5.744463   4.421864   4.216839   4.650690   5.530109
    37  H    8.123378   6.858290   6.709778   6.954873   7.845240
    38  H   10.492880   9.167816   8.866521   9.149391   9.859387
    39  H   11.442737  10.008820   9.527603   9.766875  10.137523
    40  H   10.347820   8.876465   8.298718   8.441778   8.496901
    41  H    7.932966   6.461666   5.937494   5.992958   6.045795
                    6          7          8          9         10
     6  O    0.000000
     7  N    2.615739   0.000000
     8  C    3.116572   1.469938   0.000000
     9  C    3.359613   2.541299   1.563396   0.000000
    10  S    3.689570   3.640642   2.402388   1.823686   0.000000
    11  O    3.555184   4.456631   3.532762   2.777575   1.475294
    12  O    5.141712   4.688954   3.259890   2.738311   1.478204
    13  C    3.063234   2.579326   1.572719   2.355039   1.821568
    14  C    4.598578   2.421419   1.536843   2.573484   3.334327
    15  C    5.401604   2.955012   2.587730   3.184177   4.454645
    16  C    6.843843   4.349968   3.918299   4.533899   5.576329
    17  C    7.757089   5.425924   4.713083   5.007668   5.870986
    18  C    9.078986   6.697122   6.014458   6.379857   7.124852
    19  C    9.576065   7.068926   6.594181   7.215050   7.996977
    20  C    8.859675   6.285584   6.056046   6.899945   7.788968
    21  C    7.499605   4.909692   4.765619   5.653779   6.659653
    22  H    3.821635   4.598128   5.167254   4.460794   5.662573
    23  H    3.353926   4.477809   5.422304   5.192325   6.260412
    24  H    2.414767   4.112219   4.623531   4.114473   4.848189
    25  H    4.586663   3.895145   4.653911   4.280660   5.974682
    26  H    4.109156   2.569678   3.564810   3.776089   5.461395
    27  H    4.255386   3.693630   4.899135   5.027252   6.564250
    28  H    3.186200   1.020473   2.088933   3.440346   4.341940
    29  H    4.400687   3.249060   2.264902   1.089287   2.468335
    30  H    2.858345   2.660701   2.240480   1.089107   2.435298
    31  H    4.025618   3.296692   2.277698   3.219867   2.472394
    32  H    2.331131   2.701184   2.239153   2.956463   2.415923
    33  H    5.207867   3.361354   2.139795   2.743193   3.064627
    34  H    4.871193   2.673129   2.148621   3.499791   4.007238
    35  H    5.173773   2.612565   2.829409   3.583512   5.013066
    36  H    5.469564   3.295455   2.810610   2.822398   4.285981
    37  H    7.572234   5.458370   4.565906   4.533789   5.341792
    38  H    9.836874   7.555847   6.751135   6.945526   7.576691
    39  H   10.640038   8.133667   7.651784   8.271356   8.991214
    40  H    9.472457   6.895811   6.815816   7.780159   8.662282
    41  H    7.091376   4.499777   4.658710   5.727201   6.790828
                   11         12         13         14         15
    11  O    0.000000
    12  O    2.533827   0.000000
    13  C    2.779161   2.741116   0.000000
    14  C    4.710318   3.579675   2.551198   0.000000
    15  C    5.776391   4.651982   3.953774   1.534114   0.000000
    16  C    6.988446   5.443288   5.068563   2.523744   1.512527
    17  C    7.299469   5.406831   5.715012   3.336638   2.535505
    18  C    8.570601   6.518889   6.915563   4.562492   3.821518
    19  C    9.461676   7.508130   7.500015   5.085982   4.329179
    20  C    9.230861   7.538883   7.024987   4.595083   3.819900
    21  C    8.062911   6.598628   5.846609   3.380493   2.532013
    22  H    5.434012   6.906562   5.950672   6.370564   6.315238
    23  H    6.022046   7.645902   6.071337   6.687383   6.767005
    24  H    4.373562   6.255231   4.978533   6.060073   6.424947
    25  H    6.339678   6.996591   5.946948   5.368794   4.797294
    26  H    6.128907   6.432887   4.973440   4.060863   3.498801
    27  H    6.905286   7.734503   6.067628   5.669060   5.266686
    28  H    5.217653   5.279240   2.947240   2.572882   3.125182
    29  H    3.501890   2.854616   3.214705   2.675239   2.883899
    30  H    2.842435   3.579931   2.978325   3.464514   3.883262
    31  H    3.508404   2.867983   1.090558   2.642990   4.171825
    32  H    2.822805   3.574293   1.088308   3.441046   4.758535
    33  H    4.533809   2.862593   2.678960   1.095077   2.165481
    34  H    5.332650   4.253782   2.781730   1.094760   2.163603
    35  H    6.212409   5.459452   4.294997   2.155078   1.093875
    36  H    5.525786   4.459862   4.225817   2.162081   1.096703
    37  H    6.717875   4.768860   5.517909   3.391029   2.735481
    38  H    8.992964   6.800134   7.570272   5.352605   4.686467
    39  H   10.460799   8.420846   8.500672   6.132755   5.413362
    40  H   10.089252   8.472026   7.746369   5.400893   4.683230
    41  H    8.123616   6.943901   5.755400   3.464247   2.726168
                   16         17         18         19         20
    16  C    0.000000
    17  C    1.401186   0.000000
    18  C    2.432489   1.395858   0.000000
    19  C    2.816890   2.420875   1.396555   0.000000
    20  C    2.433603   2.786057   2.412526   1.396705   0.000000
    21  C    1.401147   2.407479   2.784033   2.419776   1.395824
    22  H    7.771020   8.502225   9.868500  10.535615   9.962218
    23  H    8.233204   9.182094  10.523537  11.003494  10.232479
    24  H    7.937003   8.727899  10.113687  10.753815  10.130402
    25  H    6.091536   6.916750   8.189962   8.710605   8.076033
    26  H    4.787423   5.842018   7.081331   7.428777   6.635398
    27  H    6.547905   7.626633   8.850404   9.138219   8.264426
    28  H    4.307913   5.517785   6.674058   6.851869   5.924697
    29  H    4.080050   4.326583   5.697113   6.658972   6.505771
    30  H    5.324879   5.877490   7.269025   8.077013   7.690438
    31  H    5.014848   5.593475   6.653485   7.162748   6.724569
    32  H    5.955209   6.710795   7.920242   8.433839   7.851935
    33  H    2.746347   3.098919   4.264520   4.982631   4.772157
    34  H    2.764969   3.737202   4.758223   5.009986   4.333376
    35  H    2.147020   3.387044   4.551037   4.817191   4.041932
    36  H    2.145849   2.690527   4.059678   4.818508   4.537265
    37  H    2.154458   1.086731   2.152432   3.402997   3.872767
    38  H    3.412006   2.152064   1.085649   2.155578   3.398367
    39  H    3.901078   3.404195   2.156742   1.084192   2.157145
    40  H    3.412831   3.871658   3.398912   2.156628   1.085631
    41  H    2.151849   3.392099   3.870072   3.402240   2.152797
                   21         22         23         24         25
    21  C    0.000000
    22  H    8.610171   0.000000
    23  H    8.847353   1.780397   0.000000
    24  H    8.746943   1.776469   1.788077   0.000000
    25  H    6.781092   2.433124   3.090532   3.657495   0.000000
    26  H    5.293174   3.651457   3.758616   4.193450   1.774344
    27  H    6.938971   3.076609   2.603688   3.755129   1.782394
    28  H    4.584892   5.443412   5.087878   4.912706   4.579156
    29  H    5.344341   4.872698   5.836701   4.866460   4.374677
    30  H    6.389946   3.405751   4.226228   3.097570   3.588946
    31  H    5.677694   7.024498   7.097869   6.053091   6.874906
    32  H    6.630186   5.724966   5.596533   4.498591   6.018545
    33  H    3.765436   6.981365   7.459566   6.633176   6.136490
    34  H    3.179587   7.066564   7.142279   6.621914   6.034245
    35  H    2.664670   5.957865   6.211216   6.140446   4.232278
    36  H    3.366002   5.814170   6.536880   6.117272   4.332054
    37  H    3.393982   8.127061   8.980691   8.376210   6.731344
    38  H    3.869653  10.512809  11.290817  10.789823   8.909922
    39  H    3.403595  11.605884  12.075247  11.837984   9.747244
    40  H    2.152139  10.668148  10.802436  10.816525   8.721823
    41  H    1.086052   8.324117   8.357012   8.408318   6.477593
                   26         27         28         29         30
    26  H    0.000000
    27  H    1.787213   0.000000
    28  H    3.028934   4.073925   0.000000
    29  H    3.976023   5.398244   4.087950   0.000000
    30  H    3.439845   4.384309   3.669220   1.792807   0.000000
    31  H    5.752381   6.940035   3.390076   3.890814   3.989744
    32  H    5.116977   5.916623   3.016656   3.966687   3.235754
    33  H    4.995951   6.617957   3.588716   2.652594   3.793498
    34  H    4.534363   6.044886   2.395803   3.745351   4.322368
    35  H    2.721343   4.443934   2.643072   3.473882   4.042034
    36  H    3.398804   5.160991   3.750135   2.221105   3.436139
    37  H    5.875553   7.647175   5.737051   3.709750   5.405754
    38  H    7.930499   9.705563   7.607920   6.172847   7.850773
    39  H    8.475062  10.166800   7.881324   7.696160   9.146873
    40  H    7.209684   8.735554   6.406199   7.461557   8.535205
    41  H    4.857327   6.370409   4.010058   5.592705   6.355296
                   31         32         33         34         35
    31  H    0.000000
    32  H    1.805355   0.000000
    33  H    2.548084   3.729662   0.000000
    34  H    2.566820   3.534344   1.752709   0.000000
    35  H    4.617965   4.904374   3.061881   2.497830   0.000000
    36  H    4.614231   5.040080   2.524232   3.066432   1.759815
    37  H    5.490851   6.547024   2.953350   4.044385   3.716969
    38  H    7.290028   8.614498   4.891425   5.631821   5.493651
    39  H    8.101005   9.439716   5.976631   6.005161   5.881357
    40  H    7.403966   8.500908   5.664672   4.982108   4.730300
    41  H    5.640072   6.395799   4.105740   3.075661   2.449800
                   36         37         38         39         40
    36  H    0.000000
    37  H    2.502598   0.000000
    38  H    4.757751   2.473290   0.000000
    39  H    5.882767   4.298557   2.486101   0.000000
    40  H    5.472179   4.958368   4.299285   2.488090   0.000000
    41  H    3.679007   4.291826   4.955686   4.298901   2.474573
                   41
    41  H    0.000000
 Stoichiometry    C13H20N2O4S2
 Framework group  C1[X(C13H20N2O4S2)]
 Deg. of freedom   117
 Full point group                 C1      NOp   1
 Largest Abelian subgroup         C1      NOp   1
 Largest concise Abelian subgroup C1      NOp   1
                         Standard orientation:                         
 ---------------------------------------------------------------------
 Center     Atomic      Atomic             Coordinates (Angstroms)
 Number     Number       Type             X           Y           Z
 ---------------------------------------------------------------------
      1          6           0       -4.034452   -1.544453    1.503516
      2          7           0       -2.643509   -1.571199    1.013904
      3          6           0       -1.876510   -2.736032    1.483290
      4         16           0       -2.487813   -1.259881   -0.629338
      5          8           0       -2.622029   -2.464061   -1.463462
      6          8           0       -3.368589   -0.114294   -0.903292
      7          7           0       -0.868381   -0.860149   -0.716880
      8          6           0       -0.342728    0.489056   -0.463796
      9          6           0       -0.806362    1.101029    0.898092
     10         16           0       -1.166294    2.682991    0.065219
     11          8           0       -2.554118    3.154634    0.232522
     12          8           0       -0.070867    3.658038    0.250716
     13          6           0       -0.897740    1.628166   -1.395374
     14          6           0        1.188113    0.410182   -0.574191
     15          6           0        1.854325   -0.574410    0.395471
     16          6           0        3.360643   -0.567368    0.258752
     17          6           0        4.144002    0.349297    0.972472
     18          6           0        5.531520    0.374352    0.822188
     19          6           0        6.160490   -0.519713   -0.046956
     20          6           0        5.390286   -1.439459   -0.762245
     21          6           0        4.003168   -1.461194   -0.608111
     22          1           0       -3.989133   -1.524269    2.594105
     23          1           0       -4.606033   -2.425805    1.188232
     24          1           0       -4.525840   -0.639939    1.149893
     25          1           0       -1.856576   -2.695539    2.573556
     26          1           0       -0.856134   -2.668871    1.108392
     27          1           0       -2.326320   -3.683430    1.166309
     28          1           0       -0.478536   -1.284513   -1.559081
     29          1           0       -0.043682    1.182300    1.671565
     30          1           0       -1.716420    0.656246    1.298239
     31          1           0       -0.197452    2.047205   -2.118781
     32          1           0       -1.855095    1.383768   -1.851616
     33          1           0        1.584286    1.417702   -0.409435
     34          1           0        1.445032    0.142973   -1.604284
     35          1           0        1.468108   -1.579806    0.204212
     36          1           0        1.576699   -0.316603    1.424653
     37          1           0        3.663506    1.045499    1.654683
     38          1           0        6.121908    1.089053    1.387233
     39          1           0        7.238458   -0.503005   -0.161755
     40          1           0        5.868750   -2.142658   -1.436913
     41          1           0        3.409698   -2.181899   -1.162985
 ---------------------------------------------------------------------
 Rotational constants (GHZ):      0.3743793      0.1552039      0.1234582
 Leave Link  202 at Thu Oct  1 22:02:54 2020, MaxMem=  2147483648 cpu:         0.0
 (Enter /prod/apps/gaussian/g09d1/l301.exe)
 Standard basis: 6-31G(d) (6D, 7F)
 Ernie: Thresh=  0.10000D-02 Tol=  0.10000D-05 Strict=F.
 There are   363 symmetry adapted cartesian basis functions of A   symmetry.
 There are   363 symmetry adapted basis functions of A   symmetry.
   363 basis functions,   716 primitive gaussians,   363 cartesian basis functions
    88 alpha electrons       88 beta electrons
       nuclear repulsion energy      2158.8270945528 Hartrees.
 IExCor=  402 DFT=T Ex+Corr=B3LYP ExCW=0 ScaHFX=  0.200000
 ScaDFX=  0.800000  0.720000  1.000000  0.810000 ScalE2=  1.000000  1.000000
 IRadAn=      0 IRanWt=     -1 IRanGd=            0 ICorTp=0 IEmpDi=  4
 NAtoms=   41 NActive=   41 NUniq=   41 SFac= 1.00D+00 NAtFMM=   60 NAOKFM=F Big=F
 Integral buffers will be    131072 words long.
 Raffenetti 2 integral format.
 Two-electron integral symmetry is turned on.
 Leave Link  301 at Thu Oct  1 22:02:54 2020, MaxMem=  2147483648 cpu:         0.0
 (Enter /prod/apps/gaussian/g09d1/l302.exe)
 NPDir=0 NMtPBC=     1 NCelOv=     1 NCel=       1 NClECP=     1 NCelD=      1
         NCelK=      1 NCelE2=     1 NClLst=     1 CellRange=     0.0.
 One-electron integrals computed using PRISM.
 NBasis=   363 RedAO= T EigKep=  4.67D-04  NBF=   363
 NBsUse=   363 1.00D-06 EigRej= -1.00D+00 NBFU=   363
 Precomputing XC quadrature grid using
 IXCGrd= 4 IRadAn=           0 IRanWt=          -1 IRanGd=           0 AccXCQ= 0.00D+00.
 Generated NRdTot=       0 NPtTot=           0 NUsed=           0 NTot=          32
 NSgBfM=   358   358   358   358   358 MxSgAt=    41 MxSgA2=    41.
 Leave Link  302 at Thu Oct  1 22:02:56 2020, MaxMem=  2147483648 cpu:         1.3
 (Enter /prod/apps/gaussian/g09d1/l303.exe)
 DipDrv:  MaxL=1.
 Leave Link  303 at Thu Oct  1 22:02:56 2020, MaxMem=  2147483648 cpu:         0.0
 (Enter /prod/apps/gaussian/g09d1/l401.exe)
 ExpMin= 1.17D-01 ExpMax= 2.19D+04 ExpMxC= 3.30D+03 IAcc=1 IRadAn=         1 AccDes= 0.00D+00
 Harris functional with IExCor=  402 and IRadAn=       1 diagonalized for initial guess.
 HarFok:  IExCor=  402 AccDes= 0.00D+00 IRadAn=         1 IDoV= 1 UseB2=F ITyADJ=14
 ICtDFT=  3500011 ScaDFX=  1.000000  1.000000  1.000000  1.000000
 FoFCou: FMM=F IPFlag=           0 FMFlag=      100000 FMFlg1=           0
         NFxFlg=           0 DoJE=T BraDBF=F KetDBF=T FulRan=T
         wScrn=  0.000000 ICntrl=     500 IOpCl=  0 I1Cent=   200000004 NGrid=           0
         NMat0=    1 NMatS0=      1 NMatT0=    0 NMatD0=    1 NMtDS0=    0 NMtDT0=    0
 Petite list used in FoFCou.
 Harris En= -1714.15242862243    
 JPrj=0 DoOrth=F DoCkMO=F.
 Leave Link  401 at Thu Oct  1 22:03:00 2020, MaxMem=  2147483648 cpu:         4.7
 (Enter /prod/apps/gaussian/g09d1/l502.exe)
 Closed shell SCF:
 Using DIIS extrapolation, IDIIS=  1040.
 Integral symmetry usage will be decided dynamically.
 IVT=      418784 IEndB=      418784 NGot=  2147483648 MDV=  2147213637
 LenX=  2147213637 LenY=  2147081427
 Requested convergence on RMS density matrix=1.00D-08 within 128 cycles.
 Requested convergence on MAX density matrix=1.00D-06.
 Requested convergence on             energy=1.00D-06.
 No special actions if energy rises.
 Fock matrices will be formed incrementally for  20 cycles.
 Integral accuracy reduced to 1.0D-05 until final iterations.

 Cycle   1  Pass 0  IDiag  1:
 FoFJK:  IHMeth= 1 ICntrl=       0 DoSepK=F KAlg= 0 I1Cent=   0 FoldK=F
 IRaf= 740000000 NMat=   1 IRICut=       1 DoRegI=T DoRafI=F ISym2E= 0.
 FoFCou: FMM=F IPFlag=           0 FMFlag=      100000 FMFlg1=           0
         NFxFlg=           0 DoJE=F BraDBF=F KetDBF=F FulRan=T
         wScrn=  0.000000 ICntrl=       0 IOpCl=  0 I1Cent=           0 NGrid=           0
         NMat0=    1 NMatS0=      1 NMatT0=    0 NMatD0=    1 NMtDS0=    0 NMtDT0=    0
 Symmetry not used in FoFCou.
 E= -1713.19112489328    
 DIIS: error= 3.53D-02 at cycle   1 NSaved=   1.
 NSaved= 1 IEnMin= 1 EnMin= -1713.19112489328     IErMin= 1 ErrMin= 3.53D-02
 ErrMax= 3.53D-02  0.00D+00 EMaxC= 1.00D-01 BMatC= 9.99D-01 BMatP= 9.99D-01
 IDIUse=3 WtCom= 6.47D-01 WtEn= 3.53D-01
 Coeff-Com:  0.100D+01
 Coeff-En:   0.100D+01
 Coeff:      0.100D+01
 Gap=     0.365 Goal=   None    Shift=    0.000
 GapD=    0.365 DampG=1.000 DampE=0.500 DampFc=0.5000 IDamp=-1.
 Damping current iteration by 5.00D-01
 RMSDP=7.11D-03 MaxDP=6.07D-01              OVMax= 2.44D-01

 Cycle   2  Pass 0  IDiag  1:
 RMSU=  3.56D-03    CP:  9.99D-01
 E= -1713.35893470620     Delta-E=       -0.167809812919 Rises=F Damp=T
 DIIS: error= 1.79D-02 at cycle   2 NSaved=   2.
 NSaved= 2 IEnMin= 2 EnMin= -1713.35893470620     IErMin= 2 ErrMin= 1.79D-02
 ErrMax= 1.79D-02  0.00D+00 EMaxC= 1.00D-01 BMatC= 1.80D-01 BMatP= 9.99D-01
 IDIUse=3 WtCom= 8.21D-01 WtEn= 1.79D-01
 Coeff-Com:  0.256D+00 0.744D+00
 Coeff-En:   0.403D+00 0.597D+00
 Coeff:      0.282D+00 0.718D+00
 Gap=     0.294 Goal=   None    Shift=    0.000
 RMSDP=2.12D-03 MaxDP=1.30D-01 DE=-1.68D-01 OVMax= 1.96D-01

 Cycle   3  Pass 0  IDiag  1:
 RMSU=  1.67D-03    CP:  9.90D-01  6.36D-01
 E= -1713.94315412229     Delta-E=       -0.584219416088 Rises=F Damp=F
 DIIS: error= 1.08D-02 at cycle   3 NSaved=   3.
 NSaved= 3 IEnMin= 3 EnMin= -1713.94315412229     IErMin= 3 ErrMin= 1.08D-02
 ErrMax= 1.08D-02  0.00D+00 EMaxC= 1.00D-01 BMatC= 1.04D-01 BMatP= 1.80D-01
 IDIUse=3 WtCom= 8.92D-01 WtEn= 1.08D-01
 Coeff-Com:  0.109D+00 0.437D+00 0.454D+00
 Coeff-En:   0.000D+00 0.000D+00 0.100D+01
 Coeff:      0.969D-01 0.390D+00 0.513D+00
 Gap=     0.243 Goal=   None    Shift=    0.000
 RMSDP=1.33D-03 MaxDP=3.85D-02 DE=-5.84D-01 OVMax= 8.05D-02

 Cycle   4  Pass 0  IDiag  1:
 RMSU=  7.61D-04    CP:  9.95D-01  7.21D-01  3.77D-01
 E= -1714.02775201912     Delta-E=       -0.084597896830 Rises=F Damp=F
 DIIS: error= 3.84D-03 at cycle   4 NSaved=   4.
 NSaved= 4 IEnMin= 4 EnMin= -1714.02775201912     IErMin= 4 ErrMin= 3.84D-03
 ErrMax= 3.84D-03  0.00D+00 EMaxC= 1.00D-01 BMatC= 1.48D-02 BMatP= 1.04D-01
 IDIUse=3 WtCom= 9.62D-01 WtEn= 3.84D-02
 Coeff-Com:  0.131D-01 0.758D-01 0.284D+00 0.627D+00
 Coeff-En:   0.000D+00 0.000D+00 0.126D+00 0.874D+00
 Coeff:      0.126D-01 0.729D-01 0.278D+00 0.636D+00
 Gap=     0.241 Goal=   None    Shift=    0.000
 RMSDP=4.26D-04 MaxDP=1.62D-02 DE=-8.46D-02 OVMax= 2.56D-02

 Cycle   5  Pass 0  IDiag  1:
 RMSU=  1.83D-04    CP:  9.95D-01  7.01D-01  5.36D-01  6.47D-01
 E= -1714.04008479487     Delta-E=       -0.012332775752 Rises=F Damp=F
 DIIS: error= 9.51D-04 at cycle   5 NSaved=   5.
 NSaved= 5 IEnMin= 5 EnMin= -1714.04008479487     IErMin= 5 ErrMin= 9.51D-04
 ErrMax= 9.51D-04  0.00D+00 EMaxC= 1.00D-01 BMatC= 1.08D-03 BMatP= 1.48D-02
 IDIUse=3 WtCom= 9.90D-01 WtEn= 9.51D-03
 Coeff-Com: -0.209D-04 0.145D-01 0.119D+00 0.346D+00 0.521D+00
 Coeff-En:   0.000D+00 0.000D+00 0.000D+00 0.000D+00 0.100D+01
 Coeff:     -0.207D-04 0.144D-01 0.118D+00 0.342D+00 0.525D+00
 Gap=     0.241 Goal=   None    Shift=    0.000
 RMSDP=1.15D-04 MaxDP=6.75D-03 DE=-1.23D-02 OVMax= 5.61D-03

 Cycle   6  Pass 0  IDiag  1:
 RMSU=  5.69D-05    CP:  9.94D-01  7.05D-01  5.28D-01  7.07D-01  5.26D-01
 E= -1714.04096558781     Delta-E=       -0.000880792940 Rises=F Damp=F
 DIIS: error= 5.55D-04 at cycle   6 NSaved=   6.
 NSaved= 6 IEnMin= 6 EnMin= -1714.04096558781     IErMin= 6 ErrMin= 5.55D-04
 ErrMax= 5.55D-04  0.00D+00 EMaxC= 1.00D-01 BMatC= 1.20D-04 BMatP= 1.08D-03
 IDIUse=3 WtCom= 9.94D-01 WtEn= 5.55D-03
 Coeff-Com: -0.964D-03 0.282D-02 0.456D-01 0.145D+00 0.310D+00 0.498D+00
 Coeff-En:   0.000D+00 0.000D+00 0.000D+00 0.000D+00 0.180D-01 0.982D+00
 Coeff:     -0.958D-03 0.280D-02 0.454D-01 0.144D+00 0.308D+00 0.500D+00
 Gap=     0.241 Goal=   None    Shift=    0.000
 RMSDP=3.65D-05 MaxDP=2.21D-03 DE=-8.81D-04 OVMax= 3.06D-03

 Cycle   7  Pass 0  IDiag  1:
 RMSU=  2.46D-05    CP:  9.94D-01  7.05D-01  5.29D-01  7.07D-01  5.81D-01
                    CP:  5.62D-01
 E= -1714.04104498317     Delta-E=       -0.000079395360 Rises=F Damp=F
 DIIS: error= 2.36D-04 at cycle   7 NSaved=   7.
 NSaved= 7 IEnMin= 7 EnMin= -1714.04104498317     IErMin= 7 ErrMin= 2.36D-04
 ErrMax= 2.36D-04  0.00D+00 EMaxC= 1.00D-01 BMatC= 2.19D-05 BMatP= 1.20D-04
 IDIUse=3 WtCom= 9.98D-01 WtEn= 2.36D-03
 Coeff-Com: -0.649D-03-0.290D-03 0.131D-01 0.462D-01 0.134D+00 0.337D+00
 Coeff-Com:  0.471D+00
 Coeff-En:   0.000D+00 0.000D+00 0.000D+00 0.000D+00 0.000D+00 0.149D+00
 Coeff-En:   0.851D+00
 Coeff:     -0.647D-03-0.290D-03 0.131D-01 0.461D-01 0.134D+00 0.337D+00
 Coeff:      0.471D+00
 Gap=     0.241 Goal=   None    Shift=    0.000
 RMSDP=1.35D-05 MaxDP=7.62D-04 DE=-7.94D-05 OVMax= 1.12D-03

 Cycle   8  Pass 0  IDiag  1:
 RMSU=  6.16D-06    CP:  9.94D-01  7.05D-01  5.30D-01  7.06D-01  5.86D-01
                    CP:  6.35D-01  5.50D-01
 E= -1714.04106225157     Delta-E=       -0.000017268397 Rises=F Damp=F
 DIIS: error= 3.76D-05 at cycle   8 NSaved=   8.
 NSaved= 8 IEnMin= 8 EnMin= -1714.04106225157     IErMin= 8 ErrMin= 3.76D-05
 ErrMax= 3.76D-05  0.00D+00 EMaxC= 1.00D-01 BMatC= 7.75D-07 BMatP= 2.19D-05
 IDIUse=1 WtCom= 1.00D+00 WtEn= 0.00D+00
 Coeff-Com: -0.233D-03-0.384D-03 0.206D-02 0.878D-02 0.382D-01 0.120D+00
 Coeff-Com:  0.231D+00 0.600D+00
 Coeff:     -0.233D-03-0.384D-03 0.206D-02 0.878D-02 0.382D-01 0.120D+00
 Coeff:      0.231D+00 0.600D+00
 Gap=     0.241 Goal=   None    Shift=    0.000
 RMSDP=3.38D-06 MaxDP=1.63D-04 DE=-1.73D-05 OVMax= 2.14D-04

 Initial convergence to 1.0D-05 achieved.  Increase integral accuracy.
 Cycle   9  Pass 1  IDiag  1:
 E= -1714.04077973578     Delta-E=        0.000282515783 Rises=F Damp=F
 DIIS: error= 7.49D-05 at cycle   1 NSaved=   1.
 NSaved= 1 IEnMin= 1 EnMin= -1714.04077973578     IErMin= 1 ErrMin= 7.49D-05
 ErrMax= 7.49D-05  0.00D+00 EMaxC= 1.00D-01 BMatC= 9.03D-07 BMatP= 9.03D-07
 IDIUse=1 WtCom= 1.00D+00 WtEn= 0.00D+00
 Coeff-Com:  0.100D+01
 Coeff:      0.100D+01
 Gap=     0.241 Goal=   None    Shift=    0.000
 RMSDP=3.38D-06 MaxDP=1.63D-04 DE= 2.83D-04 OVMax= 1.98D-04

 Cycle  10  Pass 1  IDiag  1:
 RMSU=  3.07D-05    CP:  1.00D+00
 E= -1714.04078010495     Delta-E=       -0.000000369163 Rises=F Damp=F
 DIIS: error= 4.45D-05 at cycle   2 NSaved=   2.
 NSaved= 2 IEnMin= 2 EnMin= -1714.04078010495     IErMin= 2 ErrMin= 4.45D-05
 ErrMax= 4.45D-05  0.00D+00 EMaxC= 1.00D-01 BMatC= 6.69D-07 BMatP= 9.03D-07
 IDIUse=1 WtCom= 1.00D+00 WtEn= 0.00D+00
 Coeff-Com:  0.446D+00 0.554D+00
 Coeff:      0.446D+00 0.554D+00
 Gap=     0.241 Goal=   None    Shift=    0.000
 RMSDP=3.74D-06 MaxDP=1.93D-04 DE=-3.69D-07 OVMax= 2.31D-04

 Cycle  11  Pass 1  IDiag  1:
 RMSU=  3.74D-06    CP:  1.00D+00  9.95D-01
 E= -1714.04078033399     Delta-E=       -0.000000229046 Rises=F Damp=F
 DIIS: error= 3.83D-05 at cycle   3 NSaved=   3.
 NSaved= 3 IEnMin= 3 EnMin= -1714.04078033399     IErMin= 3 ErrMin= 3.83D-05
 ErrMax= 3.83D-05  0.00D+00 EMaxC= 1.00D-01 BMatC= 4.06D-07 BMatP= 6.69D-07
 IDIUse=1 WtCom= 1.00D+00 WtEn= 0.00D+00
 Coeff-Com:  0.562D-02 0.436D+00 0.558D+00
 Coeff:      0.562D-02 0.436D+00 0.558D+00
 Gap=     0.241 Goal=   None    Shift=    0.000
 RMSDP=1.69D-06 MaxDP=9.13D-05 DE=-2.29D-07 OVMax= 1.23D-04

 Cycle  12  Pass 1  IDiag  1:
 RMSU=  5.68D-07    CP:  1.00D+00  1.01D+00  5.83D-01
 E= -1714.04078064981     Delta-E=       -0.000000315821 Rises=F Damp=F
 DIIS: error= 4.42D-06 at cycle   4 NSaved=   4.
 NSaved= 4 IEnMin= 4 EnMin= -1714.04078064981     IErMin= 4 ErrMin= 4.42D-06
 ErrMax= 4.42D-06  0.00D+00 EMaxC= 1.00D-01 BMatC= 1.12D-08 BMatP= 4.06D-07
 IDIUse=1 WtCom= 1.00D+00 WtEn= 0.00D+00
 Coeff-Com: -0.585D-02 0.256D+00 0.342D+00 0.408D+00
 Coeff:     -0.585D-02 0.256D+00 0.342D+00 0.408D+00
 Gap=     0.241 Goal=   None    Shift=    0.000
 RMSDP=3.37D-07 MaxDP=1.67D-05 DE=-3.16D-07 OVMax= 2.12D-05

 Cycle  13  Pass 1  IDiag  1:
 RMSU=  1.77D-07    CP:  1.00D+00  1.01D+00  5.81D-01  4.96D-01
 E= -1714.04078065939     Delta-E=       -0.000000009575 Rises=F Damp=F
 DIIS: error= 1.28D-06 at cycle   5 NSaved=   5.
 NSaved= 5 IEnMin= 5 EnMin= -1714.04078065939     IErMin= 5 ErrMin= 1.28D-06
 ErrMax= 1.28D-06  0.00D+00 EMaxC= 1.00D-01 BMatC= 6.93D-10 BMatP= 1.12D-08
 IDIUse=1 WtCom= 1.00D+00 WtEn= 0.00D+00
 Coeff-Com: -0.388D-02 0.121D+00 0.163D+00 0.246D+00 0.473D+00
 Coeff:     -0.388D-02 0.121D+00 0.163D+00 0.246D+00 0.473D+00
 Gap=     0.241 Goal=   None    Shift=    0.000
 RMSDP=8.35D-08 MaxDP=4.48D-06 DE=-9.58D-09 OVMax= 5.32D-06

 Cycle  14  Pass 1  IDiag  1:
 RMSU=  6.09D-08    CP:  1.00D+00  1.01D+00  5.82D-01  5.31D-01  6.97D-01
 E= -1714.04078065995     Delta-E=       -0.000000000562 Rises=F Damp=F
 DIIS: error= 3.07D-07 at cycle   6 NSaved=   6.
 NSaved= 6 IEnMin= 6 EnMin= -1714.04078065995     IErMin= 6 ErrMin= 3.07D-07
 ErrMax= 3.07D-07  0.00D+00 EMaxC= 1.00D-01 BMatC= 4.39D-11 BMatP= 6.93D-10
 IDIUse=1 WtCom= 1.00D+00 WtEn= 0.00D+00
 Coeff-Com: -0.122D-02 0.289D-01 0.393D-01 0.730D-01 0.243D+00 0.617D+00
 Coeff:     -0.122D-02 0.289D-01 0.393D-01 0.730D-01 0.243D+00 0.617D+00
 Gap=     0.241 Goal=   None    Shift=    0.000
 RMSDP=2.22D-08 MaxDP=1.59D-06 DE=-5.62D-10 OVMax= 1.14D-06

 Cycle  15  Pass 1  IDiag  1:
 RMSU=  1.76D-08    CP:  1.00D+00  1.01D+00  5.81D-01  5.32D-01  7.44D-01
                    CP:  8.25D-01
 E= -1714.04078065995     Delta-E=       -0.000000000001 Rises=F Damp=F
 DIIS: error= 8.22D-08 at cycle   7 NSaved=   7.
 NSaved= 7 IEnMin= 7 EnMin= -1714.04078065995     IErMin= 7 ErrMin= 8.22D-08
 ErrMax= 8.22D-08  0.00D+00 EMaxC= 1.00D-01 BMatC= 5.03D-12 BMatP= 4.39D-11
 IDIUse=1 WtCom= 1.00D+00 WtEn= 0.00D+00
 Coeff-Com: -0.271D-03 0.326D-02 0.461D-02 0.140D-01 0.793D-01 0.322D+00
 Coeff-Com:  0.578D+00
 Coeff:     -0.271D-03 0.326D-02 0.461D-02 0.140D-01 0.793D-01 0.322D+00
 Coeff:      0.578D+00
 Gap=     0.241 Goal=   None    Shift=    0.000
 RMSDP=8.73D-09 MaxDP=5.06D-07 DE=-9.09D-13 OVMax= 3.79D-07

 SCF Done:  E(RB3LYP) =  -1714.04078066     A.U. after   15 cycles
            NFock= 15  Conv=0.87D-08     -V/T= 2.0068
 KE= 1.702511787932D+03 PE=-8.343176666294D+03 EE= 2.767797003150D+03
 Leave Link  502 at Thu Oct  1 22:09:01 2020, MaxMem=  2147483648 cpu:       358.2
 (Enter /prod/apps/gaussian/g09d1/l601.exe)
 Copying SCF densities to generalized density rwf, IOpCl= 0 IROHF=0.

 **********************************************************************

            Population analysis using the SCF density.

 **********************************************************************

 Orbital symmetries:
       Occupied  (A) (A) (A) (A) (A) (A) (A) (A) (A) (A) (A) (A)
                 (A) (A) (A) (A) (A) (A) (A) (A) (A) (A) (A) (A)
                 (A) (A) (A) (A) (A) (A) (A) (A) (A) (A) (A) (A)
                 (A) (A) (A) (A) (A) (A) (A) (A) (A) (A) (A) (A)
                 (A) (A) (A) (A) (A) (A) (A) (A) (A) (A) (A) (A)
                 (A) (A) (A) (A) (A) (A) (A) (A) (A) (A) (A) (A)
                 (A) (A) (A) (A) (A) (A) (A) (A) (A) (A) (A) (A)
                 (A) (A) (A) (A)
       Virtual   (A) (A) (A) (A) (A) (A) (A) (A) (A) (A) (A) (A)
                 (A) (A) (A) (A) (A) (A) (A) (A) (A) (A) (A) (A)
                 (A) (A) (A) (A) (A) (A) (A) (A) (A) (A) (A) (A)
                 (A) (A) (A) (A) (A) (A) (A) (A) (A) (A) (A) (A)
                 (A) (A) (A) (A) (A) (A) (A) (A) (A) (A) (A) (A)
                 (A) (A) (A) (A) (A) (A) (A) (A) (A) (A) (A) (A)
                 (A) (A) (A) (A) (A) (A) (A) (A) (A) (A) (A) (A)
                 (A) (A) (A) (A) (A) (A) (A) (A) (A) (A) (A) (A)
                 (A) (A) (A) (A) (A) (A) (A) (A) (A) (A) (A) (A)
                 (A) (A) (A) (A) (A) (A) (A) (A) (A) (A) (A) (A)
                 (A) (A) (A) (A) (A) (A) (A) (A) (A) (A) (A) (A)
                 (A) (A) (A) (A) (A) (A) (A) (A) (A) (A) (A) (A)
                 (A) (A) (A) (A) (A) (A) (A) (A) (A) (A) (A) (A)
                 (A) (A) (A) (A) (A) (A) (A) (A) (A) (A) (A) (A)
                 (A) (A) (A) (A) (A) (A) (A) (A) (A) (A) (A) (A)
                 (A) (A) (A) (A) (A) (A) (A) (A) (A) (A) (A) (A)
                 (A) (A) (A) (A) (A) (A) (A) (A) (A) (A) (A) (A)
                 (A) (A) (A) (A) (A) (A) (A) (A) (A) (A) (A) (A)
                 (A) (A) (A) (A) (A) (A) (A) (A) (A) (A) (A) (A)
                 (A) (A) (A) (A) (A) (A) (A) (A) (A) (A) (A) (A)
                 (A) (A) (A) (A) (A) (A) (A) (A) (A) (A) (A) (A)
                 (A) (A) (A) (A) (A) (A) (A) (A) (A) (A) (A) (A)
                 (A) (A) (A) (A) (A) (A) (A) (A) (A) (A) (A)
 The electronic state is 1-A.
 Alpha  occ. eigenvalues --  -89.14425 -89.08745 -19.15803 -19.15713 -19.13838
 Alpha  occ. eigenvalues --  -19.13827 -14.39438 -14.39144 -10.28620 -10.23789
 Alpha  occ. eigenvalues --  -10.23480 -10.23209 -10.22773 -10.21750 -10.20891
 Alpha  occ. eigenvalues --  -10.20684 -10.19845 -10.19786 -10.19771 -10.19690
 Alpha  occ. eigenvalues --  -10.19641  -8.16671  -8.11776  -6.13166  -6.13099
 Alpha  occ. eigenvalues --   -6.13042  -6.08187  -6.08135  -6.08076  -1.13486
 Alpha  occ. eigenvalues --   -1.09083  -1.01372  -0.98604  -0.96544  -0.95281
 Alpha  occ. eigenvalues --   -0.86748  -0.86013  -0.80636  -0.75373  -0.75149
 Alpha  occ. eigenvalues --   -0.74134  -0.73086  -0.72123  -0.68190  -0.63596
 Alpha  occ. eigenvalues --   -0.61450  -0.61157  -0.59028  -0.57920  -0.55348
 Alpha  occ. eigenvalues --   -0.53552  -0.52301  -0.51892  -0.50428  -0.49378
 Alpha  occ. eigenvalues --   -0.48808  -0.48332  -0.47230  -0.46735  -0.45609
 Alpha  occ. eigenvalues --   -0.45118  -0.44697  -0.43873  -0.43576  -0.42959
 Alpha  occ. eigenvalues --   -0.42711  -0.42472  -0.42125  -0.41418  -0.40372
 Alpha  occ. eigenvalues --   -0.39246  -0.38951  -0.37109  -0.36085  -0.35537
 Alpha  occ. eigenvalues --   -0.35170  -0.34667  -0.34383  -0.33159  -0.31858
 Alpha  occ. eigenvalues --   -0.31478  -0.30645  -0.30309  -0.28966  -0.27901
 Alpha  occ. eigenvalues --   -0.27023  -0.25770  -0.25085
 Alpha virt. eigenvalues --   -0.01009  -0.00923   0.02540   0.04354   0.04972
 Alpha virt. eigenvalues --    0.05589   0.05990   0.06761   0.06899   0.07544
 Alpha virt. eigenvalues --    0.08291   0.09169   0.09355   0.09682   0.11044
 Alpha virt. eigenvalues --    0.12095   0.12826   0.13261   0.13960   0.14265
 Alpha virt. eigenvalues --    0.14579   0.14968   0.15441   0.15959   0.17103
 Alpha virt. eigenvalues --    0.17639   0.17866   0.18018   0.18519   0.18706
 Alpha virt. eigenvalues --    0.19010   0.19973   0.20562   0.21196   0.23980
 Alpha virt. eigenvalues --    0.24388   0.25851   0.27095   0.28709   0.29793
 Alpha virt. eigenvalues --    0.31535   0.32819   0.33564   0.34589   0.36316
 Alpha virt. eigenvalues --    0.36823   0.38341   0.41520   0.43720   0.43865
 Alpha virt. eigenvalues --    0.44593   0.46145   0.47188   0.47962   0.48302
 Alpha virt. eigenvalues --    0.50067   0.51607   0.52332   0.52995   0.53626
 Alpha virt. eigenvalues --    0.54444   0.55080   0.56225   0.56922   0.57017
 Alpha virt. eigenvalues --    0.58543   0.58784   0.59367   0.59605   0.59863
 Alpha virt. eigenvalues --    0.60625   0.61446   0.61464   0.62216   0.63494
 Alpha virt. eigenvalues --    0.65831   0.66148   0.67267   0.67874   0.68104
 Alpha virt. eigenvalues --    0.70795   0.72020   0.72801   0.73987   0.75517
 Alpha virt. eigenvalues --    0.76456   0.77018   0.79604   0.79819   0.80218
 Alpha virt. eigenvalues --    0.81532   0.81805   0.82184   0.82637   0.83337
 Alpha virt. eigenvalues --    0.83854   0.84695   0.84851   0.84959   0.85889
 Alpha virt. eigenvalues --    0.86771   0.86978   0.87218   0.88333   0.88977
 Alpha virt. eigenvalues --    0.89411   0.90418   0.90992   0.91471   0.91978
 Alpha virt. eigenvalues --    0.92319   0.92824   0.94318   0.95011   0.95186
 Alpha virt. eigenvalues --    0.96552   0.97510   0.99157   0.99238   0.99861
 Alpha virt. eigenvalues --    1.01882   1.02595   1.04924   1.05149   1.05862
 Alpha virt. eigenvalues --    1.06778   1.07016   1.07269   1.10016   1.10775
 Alpha virt. eigenvalues --    1.11350   1.11633   1.14220   1.15800   1.16343
 Alpha virt. eigenvalues --    1.16965   1.17667   1.18711   1.19645   1.22465
 Alpha virt. eigenvalues --    1.23829   1.24109   1.25281   1.28658   1.29042
 Alpha virt. eigenvalues --    1.30634   1.33998   1.35373   1.38181   1.41151
 Alpha virt. eigenvalues --    1.41844   1.42364   1.43351   1.45423   1.47549
 Alpha virt. eigenvalues --    1.47912   1.48411   1.49950   1.50596   1.50746
 Alpha virt. eigenvalues --    1.53383   1.55475   1.60061   1.65658   1.66404
 Alpha virt. eigenvalues --    1.68694   1.69420   1.72349   1.72684   1.75369
 Alpha virt. eigenvalues --    1.76535   1.78591   1.79350   1.79930   1.80185
 Alpha virt. eigenvalues --    1.80635   1.81239   1.81555   1.81836   1.82466
 Alpha virt. eigenvalues --    1.82959   1.85222   1.86090   1.87383   1.87849
 Alpha virt. eigenvalues --    1.88195   1.90891   1.91340   1.92535   1.93003
 Alpha virt. eigenvalues --    1.94165   1.96527   1.96689   1.97131   1.98085
 Alpha virt. eigenvalues --    2.01019   2.02221   2.03173   2.04014   2.04185
 Alpha virt. eigenvalues --    2.05083   2.06193   2.07091   2.07980   2.09376
 Alpha virt. eigenvalues --    2.12055   2.12510   2.13107   2.13269   2.14372
 Alpha virt. eigenvalues --    2.15538   2.16367   2.17741   2.19029   2.20050
 Alpha virt. eigenvalues --    2.21362   2.23975   2.24992   2.25545   2.26980
 Alpha virt. eigenvalues --    2.28436   2.29928   2.30404   2.34796   2.35743
 Alpha virt. eigenvalues --    2.37725   2.38252   2.40332   2.40971   2.41588
 Alpha virt. eigenvalues --    2.45290   2.48276   2.49131   2.54766   2.56435
 Alpha virt. eigenvalues --    2.57232   2.59783   2.65360   2.68146   2.69710
 Alpha virt. eigenvalues --    2.70791   2.71378   2.72922   2.73494   2.73761
 Alpha virt. eigenvalues --    2.75967   2.76700   2.78905   2.82738   2.83449
 Alpha virt. eigenvalues --    2.85305   2.93557   3.04102   3.40161   3.78071
 Alpha virt. eigenvalues --    3.81227   3.91372   3.95704   3.99875   4.04736
 Alpha virt. eigenvalues --    4.08028   4.08331   4.10653   4.11549   4.14399
 Alpha virt. eigenvalues --    4.20519   4.23468   4.25861   4.32128   4.33329
 Alpha virt. eigenvalues --    4.34807   4.40500   4.51931   4.69521   4.73800
          Condensed to atoms (all electrons):
               1          2          3          4          5          6
     1  C    4.997106   0.287024  -0.049616  -0.027861  -0.002348  -0.003828
     2  N    0.287024   7.231453   0.269141   0.119575  -0.056009  -0.054393
     3  C   -0.049616   0.269141   4.998859  -0.010239   0.001956   0.001734
     4  S   -0.027861   0.119575  -0.010239  13.638169   0.447964   0.406440
     5  O   -0.002348  -0.056009   0.001956   0.447964   8.225898  -0.045867
     6  O   -0.003828  -0.054393   0.001734   0.406440  -0.045867   8.272672
     7  N    0.002339  -0.042572  -0.009122   0.121477  -0.057225  -0.053842
     8  C    0.000029  -0.005189   0.000597   0.005218   0.002102   0.004791
     9  C    0.000044  -0.005252   0.000226  -0.008470  -0.000079  -0.003176
    10  S   -0.000014  -0.000045   0.000017   0.001051   0.000011   0.003084
    11  O   -0.000003   0.000000   0.000000  -0.000011   0.000000  -0.000172
    12  O    0.000000   0.000000   0.000000   0.000002   0.000000   0.000000
    13  C    0.000018  -0.000344  -0.000013  -0.005431  -0.000027  -0.008304
    14  C    0.000001  -0.000242   0.000061   0.001003  -0.000095   0.000090
    15  C    0.000000   0.000004  -0.000232  -0.000139  -0.000001   0.000000
    16  C    0.000000  -0.000001   0.000005  -0.000001   0.000000   0.000000
    17  C    0.000000   0.000000   0.000000   0.000000   0.000000   0.000000
    18  C    0.000000   0.000000   0.000000   0.000000   0.000000   0.000000
    19  C    0.000000   0.000000   0.000000   0.000000   0.000000   0.000000
    20  C    0.000000   0.000000   0.000000   0.000000   0.000000   0.000000
    21  C    0.000000   0.000000   0.000000  -0.000001   0.000000   0.000000
    22  H    0.377935  -0.038959  -0.003037   0.002106  -0.000105   0.000222
    23  H    0.373142  -0.046548  -0.002502  -0.003108   0.002450  -0.000515
    24  H    0.378505  -0.030123   0.004435  -0.004493  -0.000179   0.011423
    25  H   -0.003631  -0.035633   0.374537   0.003152   0.000031  -0.000051
    26  H    0.004596  -0.032566   0.375863  -0.003651  -0.001582   0.000017
    27  H   -0.001902  -0.044669   0.374035  -0.007329   0.005095  -0.000042
    28  H   -0.000057   0.002644  -0.000189  -0.018627   0.005694  -0.000218
    29  H   -0.000003   0.000082  -0.000007   0.000026   0.000001   0.000059
    30  H   -0.000489   0.012215  -0.000461   0.006063   0.000025   0.000930
    31  H    0.000000   0.000000   0.000000   0.000281   0.000000   0.000200
    32  H    0.000011   0.000033  -0.000005   0.000942  -0.000233   0.015098
    33  H    0.000000   0.000000  -0.000002   0.000073   0.000000   0.000002
    34  H    0.000000   0.000002   0.000001  -0.000275  -0.000004   0.000001
    35  H    0.000000  -0.000060  -0.000282   0.000333  -0.000004   0.000002
    36  H    0.000000   0.000002   0.000005  -0.000100   0.000000   0.000000
    37  H    0.000000   0.000000   0.000000   0.000000   0.000000   0.000000
    38  H    0.000000   0.000000   0.000000   0.000000   0.000000   0.000000
    39  H    0.000000   0.000000   0.000000   0.000000   0.000000   0.000000
    40  H    0.000000   0.000000   0.000000   0.000000   0.000000   0.000000
    41  H    0.000000   0.000000   0.000000   0.000000   0.000000   0.000000
               7          8          9         10         11         12
     1  C    0.002339   0.000029   0.000044  -0.000014  -0.000003   0.000000
     2  N   -0.042572  -0.005189  -0.005252  -0.000045   0.000000   0.000000
     3  C   -0.009122   0.000597   0.000226   0.000017   0.000000   0.000000
     4  S    0.121477   0.005218  -0.008470   0.001051  -0.000011   0.000002
     5  O   -0.057225   0.002102  -0.000079   0.000011   0.000000   0.000000
     6  O   -0.053842   0.004791  -0.003176   0.003084  -0.000172   0.000000
     7  N    7.385184   0.221002  -0.036863   0.000975  -0.000103  -0.000037
     8  C    0.221002   4.872004   0.343842  -0.094754   0.001544   0.000399
     9  C   -0.036863   0.343842   5.737061   0.133720  -0.045155  -0.046116
    10  S    0.000975  -0.094754   0.133720  13.871773   0.437548   0.413585
    11  O   -0.000103   0.001544  -0.045155   0.437548   8.199530  -0.046817
    12  O   -0.000037   0.000399  -0.046116   0.413585  -0.046817   8.250852
    13  C   -0.051798   0.360828  -0.196543   0.133055  -0.043957  -0.045525
    14  C   -0.053033   0.330782  -0.047243   0.004278  -0.000053  -0.002420
    15  C   -0.005429  -0.034385  -0.007620  -0.000376   0.000000   0.000027
    16  C    0.000298   0.003634   0.000035  -0.000004   0.000000   0.000000
    17  C   -0.000005   0.000102   0.000009  -0.000017   0.000000  -0.000002
    18  C    0.000000   0.000003   0.000000   0.000000   0.000000   0.000000
    19  C    0.000000   0.000000   0.000000   0.000000   0.000000   0.000000
    20  C    0.000000   0.000002   0.000000   0.000000   0.000000   0.000000
    21  C   -0.000009   0.000079  -0.000003   0.000000   0.000000   0.000000
    22  H   -0.000080   0.000002   0.000085  -0.000002   0.000000   0.000000
    23  H   -0.000076  -0.000008  -0.000012   0.000000   0.000000   0.000000
    24  H    0.000109   0.000022   0.000015   0.000078   0.000012   0.000000
    25  H   -0.000027   0.000005   0.000122  -0.000001   0.000000   0.000000
    26  H    0.011325  -0.000169   0.000028   0.000006   0.000000   0.000000
    27  H   -0.000135  -0.000029  -0.000014   0.000000   0.000000   0.000000
    28  H    0.302743  -0.028377   0.005066  -0.000191   0.000002   0.000001
    29  H    0.001557  -0.027477   0.341638  -0.011031   0.000726   0.000291
    30  H   -0.006514  -0.021059   0.326315  -0.001902   0.000496   0.001010
    31  H    0.001893  -0.030115   0.009897  -0.010938   0.000739  -0.000298
    32  H   -0.004722  -0.020886   0.003804  -0.002327  -0.000300   0.001018
    33  H    0.004254  -0.029393  -0.005988   0.007749   0.000020   0.005830
    34  H   -0.005895  -0.032345   0.005541  -0.000090   0.000001   0.000059
    35  H    0.008145  -0.008206  -0.000334  -0.000019   0.000000  -0.000001
    36  H   -0.000043  -0.004504   0.003206   0.000102   0.000000   0.000000
    37  H    0.000000  -0.000063  -0.000015   0.000002   0.000000   0.000003
    38  H    0.000000   0.000000   0.000000   0.000000   0.000000   0.000000
    39  H    0.000000   0.000000   0.000000   0.000000   0.000000   0.000000
    40  H    0.000000   0.000000   0.000000   0.000000   0.000000   0.000000
    41  H   -0.000005  -0.000057   0.000000   0.000000   0.000000   0.000000
              13         14         15         16         17         18
     1  C    0.000018   0.000001   0.000000   0.000000   0.000000   0.000000
     2  N   -0.000344  -0.000242   0.000004  -0.000001   0.000000   0.000000
     3  C   -0.000013   0.000061  -0.000232   0.000005   0.000000   0.000000
     4  S   -0.005431   0.001003  -0.000139  -0.000001   0.000000   0.000000
     5  O   -0.000027  -0.000095  -0.000001   0.000000   0.000000   0.000000
     6  O   -0.008304   0.000090   0.000000   0.000000   0.000000   0.000000
     7  N   -0.051798  -0.053033  -0.005429   0.000298  -0.000005   0.000000
     8  C    0.360828   0.330782  -0.034385   0.003634   0.000102   0.000003
     9  C   -0.196543  -0.047243  -0.007620   0.000035   0.000009   0.000000
    10  S    0.133055   0.004278  -0.000376  -0.000004  -0.000017   0.000000
    11  O   -0.043957  -0.000053   0.000000   0.000000   0.000000   0.000000
    12  O   -0.045525  -0.002420   0.000027   0.000000  -0.000002   0.000000
    13  C    5.742396  -0.051401   0.004149  -0.000070  -0.000006   0.000000
    14  C   -0.051401   5.193207   0.342503  -0.039790  -0.003941  -0.000032
    15  C    0.004149   0.342503   5.187536   0.345125  -0.058346   0.006470
    16  C   -0.000070  -0.039790   0.345125   4.645732   0.545871  -0.019151
    17  C   -0.000006  -0.003941  -0.058346   0.545871   4.958357   0.525970
    18  C    0.000000  -0.000032   0.006470  -0.019151   0.525970   4.861512
    19  C    0.000000   0.000018   0.000401  -0.034366  -0.036035   0.549868
    20  C    0.000000  -0.000079   0.006822  -0.019640  -0.047121  -0.025906
    21  C   -0.000003  -0.004040  -0.056133   0.549568  -0.037821  -0.046702
    22  H    0.000000   0.000000   0.000000   0.000000   0.000000   0.000000
    23  H    0.000000   0.000000   0.000000   0.000000   0.000000   0.000000
    24  H   -0.000003   0.000000   0.000000   0.000000   0.000000   0.000000
    25  H    0.000001   0.000000  -0.000001   0.000000   0.000000   0.000000
    26  H    0.000026  -0.000221   0.000542   0.000018   0.000000   0.000000
    27  H    0.000000  -0.000001   0.000003   0.000000   0.000000   0.000000
    28  H   -0.000700  -0.005168  -0.000223  -0.000107   0.000001   0.000000
    29  H    0.009726  -0.006977   0.000988  -0.000088   0.000005   0.000000
    30  H    0.003422   0.003425   0.000027   0.000000   0.000000   0.000000
    31  H    0.340969  -0.004256   0.000173  -0.000013   0.000000   0.000000
    32  H    0.326946   0.003052  -0.000097   0.000001   0.000000   0.000000
    33  H   -0.003359   0.365150  -0.033709  -0.001622   0.003763  -0.000125
    34  H   -0.006021   0.358279  -0.040521  -0.000974   0.000001  -0.000014
    35  H    0.000131  -0.036681   0.361467  -0.030396   0.003829  -0.000192
    36  H    0.000090  -0.041973   0.358719  -0.027737  -0.004390   0.000083
    37  H    0.000002   0.000275  -0.009064  -0.047990   0.356028  -0.043555
    38  H    0.000000  -0.000001  -0.000182   0.003669  -0.038868   0.357303
    39  H    0.000000   0.000000   0.000007   0.000736   0.004663  -0.042548
    40  H    0.000000  -0.000001  -0.000184   0.003762   0.000857   0.004531
    41  H    0.000001   0.000251  -0.009959  -0.048560   0.006221   0.000343
              19         20         21         22         23         24
     1  C    0.000000   0.000000   0.000000   0.377935   0.373142   0.378505
     2  N    0.000000   0.000000   0.000000  -0.038959  -0.046548  -0.030123
     3  C    0.000000   0.000000   0.000000  -0.003037  -0.002502   0.004435
     4  S    0.000000   0.000000  -0.000001   0.002106  -0.003108  -0.004493
     5  O    0.000000   0.000000   0.000000  -0.000105   0.002450  -0.000179
     6  O    0.000000   0.000000   0.000000   0.000222  -0.000515   0.011423
     7  N    0.000000   0.000000  -0.000009  -0.000080  -0.000076   0.000109
     8  C    0.000000   0.000002   0.000079   0.000002  -0.000008   0.000022
     9  C    0.000000   0.000000  -0.000003   0.000085  -0.000012   0.000015
    10  S    0.000000   0.000000   0.000000  -0.000002   0.000000   0.000078
    11  O    0.000000   0.000000   0.000000   0.000000   0.000000   0.000012
    12  O    0.000000   0.000000   0.000000   0.000000   0.000000   0.000000
    13  C    0.000000   0.000000  -0.000003   0.000000   0.000000  -0.000003
    14  C    0.000018  -0.000079  -0.004040   0.000000   0.000000   0.000000
    15  C    0.000401   0.006822  -0.056133   0.000000   0.000000   0.000000
    16  C   -0.034366  -0.019640   0.549568   0.000000   0.000000   0.000000
    17  C   -0.036035  -0.047121  -0.037821   0.000000   0.000000   0.000000
    18  C    0.549868  -0.025906  -0.046702   0.000000   0.000000   0.000000
    19  C    4.851280   0.550467  -0.036174   0.000000   0.000000   0.000000
    20  C    0.550467   4.864872   0.524601   0.000000   0.000000   0.000000
    21  C   -0.036174   0.524601   4.959384   0.000000   0.000000   0.000000
    22  H    0.000000   0.000000   0.000000   0.549117  -0.040571  -0.020312
    23  H    0.000000   0.000000   0.000000  -0.040571   0.571258  -0.028827
    24  H    0.000000   0.000000   0.000000  -0.020312  -0.028827   0.472427
    25  H    0.000000   0.000000   0.000000   0.005339  -0.001418   0.000007
    26  H    0.000000   0.000000  -0.000004   0.000065  -0.000185  -0.000183
    27  H    0.000000   0.000000   0.000000  -0.001791   0.008491  -0.000180
    28  H    0.000000   0.000000   0.000006   0.000001   0.000007  -0.000004
    29  H    0.000000   0.000000   0.000001   0.000000   0.000000   0.000000
    30  H    0.000000   0.000000   0.000000  -0.000320   0.000094   0.000080
    31  H    0.000000   0.000000   0.000000   0.000000   0.000000   0.000000
    32  H    0.000000   0.000000   0.000000   0.000000   0.000000   0.000000
    33  H   -0.000004  -0.000012   0.000035   0.000000   0.000000   0.000000
    34  H   -0.000006  -0.000118   0.003458   0.000000   0.000000   0.000000
    35  H    0.000009   0.000125  -0.004189   0.000000   0.000000   0.000000
    36  H    0.000013  -0.000208   0.003591   0.000000   0.000000   0.000000
    37  H    0.004783   0.000376   0.005951   0.000000   0.000000   0.000000
    38  H   -0.042746   0.004518   0.000882   0.000000   0.000000   0.000000
    39  H    0.359661  -0.042804   0.004658   0.000000   0.000000   0.000000
    40  H   -0.042693   0.356858  -0.039478   0.000000   0.000000   0.000000
    41  H    0.004910  -0.045149   0.354268   0.000000   0.000000   0.000000
              25         26         27         28         29         30
     1  C   -0.003631   0.004596  -0.001902  -0.000057  -0.000003  -0.000489
     2  N   -0.035633  -0.032566  -0.044669   0.002644   0.000082   0.012215
     3  C    0.374537   0.375863   0.374035  -0.000189  -0.000007  -0.000461
     4  S    0.003152  -0.003651  -0.007329  -0.018627   0.000026   0.006063
     5  O    0.000031  -0.001582   0.005095   0.005694   0.000001   0.000025
     6  O   -0.000051   0.000017  -0.000042  -0.000218   0.000059   0.000930
     7  N   -0.000027   0.011325  -0.000135   0.302743   0.001557  -0.006514
     8  C    0.000005  -0.000169  -0.000029  -0.028377  -0.027477  -0.021059
     9  C    0.000122   0.000028  -0.000014   0.005066   0.341638   0.326315
    10  S   -0.000001   0.000006   0.000000  -0.000191  -0.011031  -0.001902
    11  O    0.000000   0.000000   0.000000   0.000002   0.000726   0.000496
    12  O    0.000000   0.000000   0.000000   0.000001   0.000291   0.001010
    13  C    0.000001   0.000026   0.000000  -0.000700   0.009726   0.003422
    14  C    0.000000  -0.000221  -0.000001  -0.005168  -0.006977   0.003425
    15  C   -0.000001   0.000542   0.000003  -0.000223   0.000988   0.000027
    16  C    0.000000   0.000018   0.000000  -0.000107  -0.000088   0.000000
    17  C    0.000000   0.000000   0.000000   0.000001   0.000005   0.000000
    18  C    0.000000   0.000000   0.000000   0.000000   0.000000   0.000000
    19  C    0.000000   0.000000   0.000000   0.000000   0.000000   0.000000
    20  C    0.000000   0.000000   0.000000   0.000000   0.000000   0.000000
    21  C    0.000000  -0.000004   0.000000   0.000006   0.000001   0.000000
    22  H    0.005339   0.000065  -0.001791   0.000001   0.000000  -0.000320
    23  H   -0.001418  -0.000185   0.008491   0.000007   0.000000   0.000094
    24  H    0.000007  -0.000183  -0.000180  -0.000004   0.000000   0.000080
    25  H    0.548537  -0.023417  -0.036789  -0.000001   0.000002  -0.000249
    26  H   -0.023417   0.507265  -0.029817  -0.000547   0.000008  -0.000162
    27  H   -0.036789  -0.029817   0.560349   0.000078   0.000001   0.000074
    28  H   -0.000001  -0.000547   0.000078   0.370345  -0.000050   0.000081
    29  H    0.000002   0.000008   0.000001  -0.000050   0.496987  -0.018082
    30  H   -0.000249  -0.000162   0.000074   0.000081  -0.018082   0.454712
    31  H    0.000000   0.000000   0.000000   0.000334  -0.000273  -0.000237
    32  H    0.000000   0.000000   0.000000  -0.000024  -0.000253  -0.000086
    33  H    0.000000   0.000003   0.000000  -0.000014   0.000028   0.000091
    34  H    0.000000   0.000001   0.000000   0.006155   0.000209  -0.000124
    35  H   -0.000002   0.002444  -0.000005   0.000193   0.000022  -0.000034
    36  H    0.000006   0.000216   0.000000   0.000114   0.006281  -0.000234
    37  H    0.000000   0.000000   0.000000   0.000000   0.000181   0.000000
    38  H    0.000000   0.000000   0.000000   0.000000   0.000000   0.000000
    39  H    0.000000   0.000000   0.000000   0.000000   0.000000   0.000000
    40  H    0.000000   0.000000   0.000000   0.000000   0.000000   0.000000
    41  H    0.000000   0.000000   0.000000   0.000043   0.000000   0.000000
              31         32         33         34         35         36
     1  C    0.000000   0.000011   0.000000   0.000000   0.000000   0.000000
     2  N    0.000000   0.000033   0.000000   0.000002  -0.000060   0.000002
     3  C    0.000000  -0.000005  -0.000002   0.000001  -0.000282   0.000005
     4  S    0.000281   0.000942   0.000073  -0.000275   0.000333  -0.000100
     5  O    0.000000  -0.000233   0.000000  -0.000004  -0.000004   0.000000
     6  O    0.000200   0.015098   0.000002   0.000001   0.000002   0.000000
     7  N    0.001893  -0.004722   0.004254  -0.005895   0.008145  -0.000043
     8  C   -0.030115  -0.020886  -0.029393  -0.032345  -0.008206  -0.004504
     9  C    0.009897   0.003804  -0.005988   0.005541  -0.000334   0.003206
    10  S   -0.010938  -0.002327   0.007749  -0.000090  -0.000019   0.000102
    11  O    0.000739  -0.000300   0.000020   0.000001   0.000000   0.000000
    12  O   -0.000298   0.001018   0.005830   0.000059  -0.000001   0.000000
    13  C    0.340969   0.326946  -0.003359  -0.006021   0.000131   0.000090
    14  C   -0.004256   0.003052   0.365150   0.358279  -0.036681  -0.041973
    15  C    0.000173  -0.000097  -0.033709  -0.040521   0.361467   0.358719
    16  C   -0.000013   0.000001  -0.001622  -0.000974  -0.030396  -0.027737
    17  C    0.000000   0.000000   0.003763   0.000001   0.003829  -0.004390
    18  C    0.000000   0.000000  -0.000125  -0.000014  -0.000192   0.000083
    19  C    0.000000   0.000000  -0.000004  -0.000006   0.000009   0.000013
    20  C    0.000000   0.000000  -0.000012  -0.000118   0.000125  -0.000208
    21  C    0.000000   0.000000   0.000035   0.003458  -0.004189   0.003591
    22  H    0.000000   0.000000   0.000000   0.000000   0.000000   0.000000
    23  H    0.000000   0.000000   0.000000   0.000000   0.000000   0.000000
    24  H    0.000000   0.000000   0.000000   0.000000   0.000000   0.000000
    25  H    0.000000   0.000000   0.000000   0.000000  -0.000002   0.000006
    26  H    0.000000   0.000000   0.000003   0.000001   0.002444   0.000216
    27  H    0.000000   0.000000   0.000000   0.000000  -0.000005   0.000000
    28  H    0.000334  -0.000024  -0.000014   0.006155   0.000193   0.000114
    29  H   -0.000273  -0.000253   0.000028   0.000209   0.000022   0.006281
    30  H   -0.000237  -0.000086   0.000091  -0.000124  -0.000034  -0.000234
    31  H    0.501147  -0.018019  -0.000156   0.003553  -0.000003   0.000009
    32  H   -0.018019   0.448305   0.000173   0.000041   0.000003   0.000000
    33  H   -0.000156   0.000173   0.524320  -0.028652   0.004997  -0.003807
    34  H    0.003553   0.000041  -0.028652   0.587349  -0.004688   0.005697
    35  H   -0.000003   0.000003   0.004997  -0.004688   0.574316  -0.033594
    36  H    0.000009   0.000000  -0.003807   0.005697  -0.033594   0.585889
    37  H    0.000000   0.000000   0.000821   0.000039   0.000054   0.004831
    38  H    0.000000   0.000000   0.000004   0.000000   0.000003  -0.000006
    39  H    0.000000   0.000000   0.000000   0.000000   0.000000   0.000000
    40  H    0.000000   0.000000   0.000000   0.000003  -0.000007   0.000003
    41  H    0.000000   0.000000   0.000036   0.000618   0.005869   0.000079
              37         38         39         40         41
     1  C    0.000000   0.000000   0.000000   0.000000   0.000000
     2  N    0.000000   0.000000   0.000000   0.000000   0.000000
     3  C    0.000000   0.000000   0.000000   0.000000   0.000000
     4  S    0.000000   0.000000   0.000000   0.000000   0.000000
     5  O    0.000000   0.000000   0.000000   0.000000   0.000000
     6  O    0.000000   0.000000   0.000000   0.000000   0.000000
     7  N    0.000000   0.000000   0.000000   0.000000  -0.000005
     8  C   -0.000063   0.000000   0.000000   0.000000  -0.000057
     9  C   -0.000015   0.000000   0.000000   0.000000   0.000000
    10  S    0.000002   0.000000   0.000000   0.000000   0.000000
    11  O    0.000000   0.000000   0.000000   0.000000   0.000000
    12  O    0.000003   0.000000   0.000000   0.000000   0.000000
    13  C    0.000002   0.000000   0.000000   0.000000   0.000001
    14  C    0.000275  -0.000001   0.000000  -0.000001   0.000251
    15  C   -0.009064  -0.000182   0.000007  -0.000184  -0.009959
    16  C   -0.047990   0.003669   0.000736   0.003762  -0.048560
    17  C    0.356028  -0.038868   0.004663   0.000857   0.006221
    18  C   -0.043555   0.357303  -0.042548   0.004531   0.000343
    19  C    0.004783  -0.042746   0.359661  -0.042693   0.004910
    20  C    0.000376   0.004518  -0.042804   0.356858  -0.045149
    21  C    0.005951   0.000882   0.004658  -0.039478   0.354268
    22  H    0.000000   0.000000   0.000000   0.000000   0.000000
    23  H    0.000000   0.000000   0.000000   0.000000   0.000000
    24  H    0.000000   0.000000   0.000000   0.000000   0.000000
    25  H    0.000000   0.000000   0.000000   0.000000   0.000000
    26  H    0.000000   0.000000   0.000000   0.000000   0.000000
    27  H    0.000000   0.000000   0.000000   0.000000   0.000000
    28  H    0.000000   0.000000   0.000000   0.000000   0.000043
    29  H    0.000181   0.000000   0.000000   0.000000   0.000000
    30  H    0.000000   0.000000   0.000000   0.000000   0.000000
    31  H    0.000000   0.000000   0.000000   0.000000   0.000000
    32  H    0.000000   0.000000   0.000000   0.000000   0.000000
    33  H    0.000821   0.000004   0.000000   0.000000   0.000036
    34  H    0.000039   0.000000   0.000000   0.000003   0.000618
    35  H    0.000054   0.000003   0.000000  -0.000007   0.005869
    36  H    0.004831  -0.000006   0.000000   0.000003   0.000079
    37  H    0.604279  -0.005545  -0.000180   0.000018  -0.000183
    38  H   -0.005545   0.591410  -0.005444  -0.000188   0.000018
    39  H   -0.000180  -0.005444   0.593388  -0.005454  -0.000183
    40  H    0.000018  -0.000188  -0.005454   0.594991  -0.005692
    41  H   -0.000183   0.000018  -0.000183  -0.005692   0.617746
 Mulliken charges:
               1
     1  C   -0.330997
     2  N   -0.529570
     3  C   -0.325766
     4  S    1.335863
     5  O   -0.527470
     6  O   -0.546358
     7  N   -0.733770
     8  C    0.190030
     9  C   -0.507770
    10  S    1.114679
    11  O   -0.504048
    12  O   -0.531862
    13  C   -0.508254
    14  C   -0.304729
    15  C   -0.358357
    16  C    0.172056
    17  C   -0.179123
    18  C   -0.127858
    19  C   -0.129384
    20  C   -0.127605
    21  C   -0.181924
    22  H    0.170306
    23  H    0.168329
    24  H    0.217190
    25  H    0.169480
    26  H    0.190080
    27  H    0.174576
    28  H    0.360990
    29  H    0.205422
    30  H    0.240894
    31  H    0.205112
    32  H    0.247524
    33  H    0.189495
    34  H    0.148720
    35  H    0.156753
    36  H    0.147656
    37  H    0.128953
    38  H    0.135173
    39  H    0.133501
    40  H    0.132675
    41  H    0.119385
 Sum of Mulliken charges =   0.00000
 Mulliken charges with hydrogens summed into heavy atoms:
               1
     1  C    0.224828
     2  N   -0.529570
     3  C    0.208371
     4  S    1.335863
     5  O   -0.527470
     6  O   -0.546358
     7  N   -0.372781
     8  C    0.190030
     9  C   -0.061454
    10  S    1.114679
    11  O   -0.504048
    12  O   -0.531862
    13  C   -0.055617
    14  C    0.033486
    15  C   -0.053948
    16  C    0.172056
    17  C   -0.050171
    18  C    0.007316
    19  C    0.004117
    20  C    0.005071
    21  C   -0.062539
 Electronic spatial extent (au):  <R**2>=           8696.1574
 Charge=              0.0000 electrons
 Dipole moment (field-independent basis, Debye):
    X=              3.4970    Y=             -5.2176    Z=              1.6904  Tot=              6.5046
 Quadrupole moment (field-independent basis, Debye-Ang):
   XX=           -141.2560   YY=           -160.2891   ZZ=           -130.7646
   XY=              8.3189   XZ=            -12.2217   YZ=             -7.8225
 Traceless Quadrupole moment (field-independent basis, Debye-Ang):
   XX=              2.8472   YY=            -16.1859   ZZ=             13.3386
   XY=              8.3189   XZ=            -12.2217   YZ=             -7.8225
 Octapole moment (field-independent basis, Debye-Ang**2):
  XXX=             36.1291  YYY=            -82.2866  ZZZ=             -0.5417  XYY=             13.4824
  XXY=            -26.6569  XXZ=             37.8085  XZZ=            -21.4290  YZZ=             11.4877
  YYZ=              1.5999  XYZ=             45.1881
 Hexadecapole moment (field-independent basis, Debye-Ang**3):
 XXXX=          -7291.2653 YYYY=          -3092.7025 ZZZZ=           -797.4894 XXXY=            142.7539
 XXXZ=           -165.7780 YYYX=             87.0159 YYYZ=            -76.1318 ZZZX=            -19.7810
 ZZZY=             -7.2194 XXYY=          -1843.2118 XXZZ=          -1454.1264 YYZZ=           -570.2293
 XXYZ=             14.9217 YYXZ=            -57.8035 ZZXY=             -1.4207
 N-N= 2.158827094553D+03 E-N=-8.343176699894D+03  KE= 1.702511787932D+03
 No NMR shielding tensors so no spin-rotation constants.
 Leave Link  601 at Thu Oct  1 22:09:01 2020, MaxMem=  2147483648 cpu:         0.3
 (Enter /prod/apps/gaussian/g09d1/l9999.exe)
 1\1\GINC-PIRINEUS16\SP\RB3LYP\6-31G(d)\C13H20N2O4S2\UBAFAR01\01-Oct-20
 20\0\\#p b3lyp/6-31G(d)\\SM40.n.16.pdb.xyz\\0,1\C,0,0.889,-1.159,0.68\
 N,0,2.338,-0.943,0.51\C,0,2.672,0.351,-0.106\S,0,3.252,-1.316,1.869\O,
 0,3.371,-0.195,2.814\O,0,2.727,-2.598,2.363\N,0,4.771,-1.463,1.19\C,0,
 5.277,-2.698,0.574\C,0,4.323,-3.299,-0.509\S,0,4.561,-4.961,0.203\O,0,
 3.311,-5.633,0.606\O,0,5.559,-5.742,-0.558\C,0,5.336,-3.959,1.512\C,0,
 6.673,-2.388,0.011\C,0,6.713,-1.26,-1.028\C,0,8.109,-1.04,-1.567\C,0,8
 .586,-1.783,-2.655\C,0,9.885,-1.6,-3.132\C,0,10.731,-0.668,-2.527\C,0,
 10.266,0.08,-1.443\C,0,8.966,-0.106,-0.97\H,0,0.44,-1.112,-0.314\H,0,0
 .424,-0.396,1.316\H,0,0.717,-2.147,1.103\H,0,2.203,0.374,-1.091\H,0,3.
 752,0.423,-0.227\H,0,2.308,1.198,0.486\H,0,5.447,-1.03,1.82\H,0,4.659,
 -3.218,-1.542\H,0,3.286,-2.98,-0.414\H,0,6.33,-4.303,1.8\H,0,4.666,-3.
 892,2.367\H,0,7.065,-3.311,-0.429\H,0,7.334,-2.141,0.848\H,0,6.342,-0.
 339,-0.569\H,0,6.033,-1.501,-1.854\H,0,7.933,-2.507,-3.135\H,0,10.235,
 -2.182,-3.979\H,0,11.739,-0.523,-2.899\H,0,10.913,0.811,-0.968\H,0,8.6
 08,0.482,-0.13\\Version=AM64L-G09RevD.01\State=1-A\HF=-1714.0407807\RM
 SD=8.728e-09\Dipole=0.6830578,2.2752687,-0.9516872\Quadrupole=12.62104
 3,-13.0494088,0.4283658,-6.3087703,8.0205506,-3.0744544\PG=C01 [X(C13H
 20N2O4S2)]\\@


 WOMEN HOLD UP HALF THE SKY. -- MAO TSE TUNG
 Job cpu time:       0 days  0 hours  6 minutes  5.0 seconds.
 File lengths (MBytes):  RWF=     73 Int=      0 D2E=      0 Chk=      6 Scr=      1
 Normal termination of Gaussian 09 at Thu Oct  1 22:09:01 2020.
 Initial command:
 /prod/apps/gaussian/g09d1/l1.exe "/tmp/ubafar01/1462858/Gau-185772.inp" -scrdir="/tmp/ubafar01/1462858/"
 Entering Link 1 = /prod/apps/gaussian/g09d1/l1.exe PID=    185865.
  
 Copyright (c) 1988,1990,1992,1993,1995,1998,2003,2009,2013,
            Gaussian, Inc.  All Rights Reserved.
  
 This is part of the Gaussian(R) 09 program.  It is based on
 the Gaussian(R) 03 system (copyright 2003, Gaussian, Inc.),
 the Gaussian(R) 98 system (copyright 1998, Gaussian, Inc.),
 the Gaussian(R) 94 system (copyright 1995, Gaussian, Inc.),
 the Gaussian 92(TM) system (copyright 1992, Gaussian, Inc.),
 the Gaussian 90(TM) system (copyright 1990, Gaussian, Inc.),
[...]
     9  C   -0.186981  -0.048599  -0.007262   0.000019   0.000011   0.000000
    10  S    0.149359   0.005865  -0.000442  -0.000007  -0.000016   0.000000
    11  O   -0.044198  -0.000058   0.000000   0.000000   0.000000   0.000000
    12  O   -0.045474  -0.002199   0.000024   0.000000  -0.000002   0.000000
    13  C    5.706999  -0.051545   0.004171  -0.000067  -0.000005   0.000000
    14  C   -0.051545   5.173495   0.343235  -0.038380  -0.004048  -0.000039
    15  C    0.004171   0.343235   5.180796   0.348598  -0.058439   0.006426
    16  C   -0.000067  -0.038380   0.348598   4.657067   0.542078  -0.021345
    17  C   -0.000005  -0.004048  -0.058439   0.542078   4.984895   0.520648
    18  C    0.000000  -0.000039   0.006426  -0.021345   0.520648   4.894989
    19  C    0.000000   0.000019   0.000354  -0.034225  -0.038502   0.545081
    20  C    0.000000  -0.000086   0.006748  -0.022342  -0.047016  -0.028833
    21  C   -0.000003  -0.003862  -0.055793   0.548146  -0.039795  -0.046647
    22  H    0.000000   0.000000   0.000000   0.000000   0.000000   0.000000
    23  H    0.000000   0.000000   0.000000   0.000000   0.000000   0.000000
    24  H   -0.000003   0.000000   0.000000   0.000000   0.000000   0.000000
    25  H    0.000001  -0.000001  -0.000001   0.000000   0.000000   0.000000
    26  H    0.000025  -0.000205   0.000579   0.000017   0.000000   0.000000
    27  H    0.000000  -0.000001   0.000002   0.000000   0.000000   0.000000
    28  H   -0.000674  -0.004430  -0.000251  -0.000088   0.000001   0.000000
    29  H    0.009172  -0.006580   0.001434  -0.000110   0.000009   0.000000
    30  H    0.003436   0.003397  -0.000006   0.000000   0.000000   0.000000
    31  H    0.345067  -0.003855   0.000148  -0.000012   0.000000   0.000000
    32  H    0.327616   0.003046  -0.000094   0.000001   0.000000   0.000000
    33  H   -0.003634   0.363966  -0.035802  -0.001643   0.003822  -0.000133
    34  H   -0.005821   0.364800  -0.038473  -0.001192   0.000031  -0.000011
    35  H    0.000120  -0.034849   0.364494  -0.029592   0.003791  -0.000190
    36  H    0.000072  -0.040681   0.361719  -0.028198  -0.004120   0.000105
    37  H    0.000002   0.000277  -0.008575  -0.046316   0.359815  -0.043657
    38  H    0.000000  -0.000001  -0.000173   0.003636  -0.038512   0.360686
    39  H    0.000000   0.000000   0.000006   0.000631   0.004614  -0.042019
    40  H    0.000000  -0.000001  -0.000175   0.003684   0.000765   0.004484
    41  H    0.000001   0.000274  -0.009291  -0.045104   0.006079   0.000268
              19         20         21         22         23         24
     1  C    0.000000   0.000000   0.000000   0.380975   0.374180   0.377020
     2  N    0.000000   0.000000   0.000000  -0.036788  -0.046142  -0.031983
     3  C    0.000000   0.000000   0.000000  -0.002790  -0.002138   0.004455
     4  S    0.000000   0.000000  -0.000001   0.002270  -0.003587  -0.004361
     5  O    0.000000   0.000000   0.000000  -0.000101   0.002426  -0.000172
     6  O    0.000000   0.000000   0.000000   0.000207  -0.000482   0.011156
     7  N    0.000000   0.000000  -0.000006  -0.000086  -0.000075   0.000107
     8  C    0.000000   0.000002   0.000073   0.000003  -0.000008   0.000022
     9  C    0.000000   0.000000  -0.000003   0.000077  -0.000011   0.000011
    10  S    0.000000   0.000000   0.000000  -0.000002   0.000000   0.000081
    11  O    0.000000   0.000000   0.000000   0.000000   0.000000   0.000011
    12  O    0.000000   0.000000   0.000000   0.000000   0.000000   0.000000
    13  C    0.000000   0.000000  -0.000003   0.000000   0.000000  -0.000003
    14  C    0.000019  -0.000086  -0.003862   0.000000   0.000000   0.000000
    15  C    0.000354   0.006748  -0.055793   0.000000   0.000000   0.000000
    16  C   -0.034225  -0.022342   0.548146   0.000000   0.000000   0.000000
    17  C   -0.038502  -0.047016  -0.039795   0.000000   0.000000   0.000000
    18  C    0.545081  -0.028833  -0.046647   0.000000   0.000000   0.000000
    19  C    4.883231   0.545197  -0.038525   0.000000   0.000000   0.000000
    20  C    0.545197   4.897840   0.519139   0.000000   0.000000   0.000000
    21  C   -0.038525   0.519139   4.980159   0.000000   0.000000   0.000000
    22  H    0.000000   0.000000   0.000000   0.520758  -0.037351  -0.020241
    23  H    0.000000   0.000000   0.000000  -0.037351   0.563717  -0.030147
    24  H    0.000000   0.000000   0.000000  -0.020241  -0.030147   0.494748
    25  H    0.000000   0.000000   0.000000   0.004867  -0.001317   0.000013
    26  H    0.000000   0.000000  -0.000003   0.000057  -0.000173  -0.000189
    27  H    0.000000   0.000000   0.000000  -0.001676   0.008145  -0.000171
    28  H    0.000000   0.000000   0.000005   0.000001   0.000007  -0.000004
    29  H    0.000000   0.000000   0.000001   0.000000   0.000000   0.000000
    30  H    0.000000   0.000000   0.000000  -0.000318   0.000096   0.000073
    31  H    0.000000   0.000000   0.000000   0.000000   0.000000   0.000000
    32  H    0.000000   0.000000   0.000000   0.000000   0.000000   0.000000
    33  H   -0.000005  -0.000010   0.000053   0.000000   0.000000   0.000000
    34  H   -0.000005  -0.000111   0.003290   0.000000   0.000000   0.000000
    35  H    0.000009   0.000138  -0.004030   0.000000   0.000000   0.000000
    36  H    0.000012  -0.000205   0.003486   0.000000   0.000000   0.000000
    37  H    0.004735   0.000286   0.005903   0.000000   0.000000   0.000000
    38  H   -0.042193   0.004497   0.000768   0.000000   0.000000   0.000000
    39  H    0.363229  -0.042105   0.004598   0.000000   0.000000   0.000000
    40  H   -0.042212   0.360572  -0.038474   0.000000   0.000000   0.000000
    41  H    0.004754  -0.044380   0.359385   0.000000   0.000000   0.000000
              25         26         27         28         29         30
     1  C   -0.003556   0.004486  -0.001977  -0.000044  -0.000003  -0.000576
     2  N   -0.033741  -0.032768  -0.045025   0.002172   0.000072   0.012807
     3  C    0.378017   0.375705   0.375224  -0.000225  -0.000012  -0.000508
     4  S    0.003145  -0.002770  -0.008078  -0.015792   0.000027   0.006559
     5  O    0.000025  -0.001589   0.005114   0.004585   0.000001   0.000027
     6  O   -0.000050   0.000019  -0.000040  -0.000272   0.000056   0.000875
     7  N   -0.000014   0.010617  -0.000148   0.302410   0.001498  -0.006817
     8  C    0.000006  -0.000174  -0.000028  -0.024495  -0.027236  -0.021891
     9  C    0.000114   0.000040  -0.000015   0.004287   0.345773   0.327390
    10  S   -0.000001   0.000006   0.000000  -0.000205  -0.011237  -0.002515
    11  O    0.000000   0.000000   0.000000   0.000002   0.000703   0.000452
    12  O    0.000000   0.000000   0.000000   0.000001   0.000106   0.000995
    13  C    0.000001   0.000025   0.000000  -0.000674   0.009172   0.003436
    14  C   -0.000001  -0.000205  -0.000001  -0.004430  -0.006580   0.003397
    15  C   -0.000001   0.000579   0.000002  -0.000251   0.001434  -0.000006
    16  C    0.000000   0.000017   0.000000  -0.000088  -0.000110   0.000000
    17  C    0.000000   0.000000   0.000000   0.000001   0.000009   0.000000
    18  C    0.000000   0.000000   0.000000   0.000000   0.000000   0.000000
    19  C    0.000000   0.000000   0.000000   0.000000   0.000000   0.000000
    20  C    0.000000   0.000000   0.000000   0.000000   0.000000   0.000000
    21  C    0.000000  -0.000003   0.000000   0.000005   0.000001   0.000000
    22  H    0.004867   0.000057  -0.001676   0.000001   0.000000  -0.000318
    23  H   -0.001317  -0.000173   0.008145   0.000007   0.000000   0.000096
    24  H    0.000013  -0.000189  -0.000171  -0.000004   0.000000   0.000073
    25  H    0.519763  -0.021794  -0.034192  -0.000001   0.000002  -0.000247
    26  H   -0.021794   0.497133  -0.029785  -0.000458   0.000005  -0.000171
    27  H   -0.034192  -0.029785   0.558415   0.000072   0.000001   0.000076
    28  H   -0.000001  -0.000458   0.000072   0.314418  -0.000037   0.000074
    29  H    0.000002   0.000005   0.000001  -0.000037   0.463052  -0.014597
    30  H   -0.000247  -0.000171   0.000076   0.000074  -0.014597   0.444713
    31  H    0.000000   0.000000   0.000000   0.000260  -0.000255  -0.000220
    32  H    0.000000   0.000000   0.000000  -0.000012  -0.000238  -0.000128
    33  H    0.000000   0.000003   0.000000   0.000021   0.000086   0.000079
    34  H    0.000000   0.000001   0.000000   0.004707   0.000198  -0.000114
    35  H   -0.000003   0.002246  -0.000004   0.000243   0.000011  -0.000029
    36  H    0.000006   0.000193   0.000000   0.000083   0.005714  -0.000216
    37  H    0.000000   0.000000   0.000000   0.000000   0.000166   0.000000
    38  H    0.000000   0.000000   0.000000   0.000000   0.000000   0.000000
    39  H    0.000000   0.000000   0.000000   0.000000   0.000000   0.000000
    40  H    0.000000   0.000000   0.000000   0.000000   0.000000   0.000000
    41  H    0.000000   0.000000   0.000000   0.000032   0.000000   0.000000
              31         32         33         34         35         36
     1  C    0.000000   0.000010   0.000000   0.000000   0.000000   0.000000
     2  N    0.000000   0.000025   0.000000   0.000002  -0.000056   0.000002
     3  C    0.000000  -0.000004  -0.000002   0.000001  -0.000228   0.000010
     4  S    0.000256   0.001041   0.000052  -0.000209   0.000281  -0.000097
     5  O    0.000000  -0.000224   0.000000  -0.000004  -0.000004   0.000000
     6  O    0.000185   0.015251   0.000002   0.000000   0.000002   0.000000
     7  N    0.001706  -0.005073   0.004317  -0.005107   0.007413  -0.000074
     8  C   -0.028144  -0.021324  -0.030488  -0.029487  -0.008165  -0.004494
     9  C    0.009192   0.004076  -0.006195   0.005232  -0.000300   0.003251
    10  S   -0.011591  -0.003739   0.007528  -0.000193  -0.000010   0.000052
    11  O    0.000724  -0.000235   0.000017   0.000001   0.000000   0.000000
    12  O   -0.000407   0.001061   0.005102   0.000051  -0.000001   0.000000
    13  C    0.345067   0.327616  -0.003634  -0.005821   0.000120   0.000072
    14  C   -0.003855   0.003046   0.363966   0.364800  -0.034849  -0.040681
    15  C    0.000148  -0.000094  -0.035802  -0.038473   0.364494   0.361719
    16  C   -0.000012   0.000001  -0.001643  -0.001192  -0.029592  -0.028198
    17  C    0.000000   0.000000   0.003822   0.000031   0.003791  -0.004120
    18  C    0.000000   0.000000  -0.000133  -0.000011  -0.000190   0.000105
    19  C    0.000000   0.000000  -0.000005  -0.000005   0.000009   0.000012
    20  C    0.000000   0.000000  -0.000010  -0.000111   0.000138  -0.000205
    21  C    0.000000   0.000000   0.000053   0.003290  -0.004030   0.003486
    22  H    0.000000   0.000000   0.000000   0.000000   0.000000   0.000000
    23  H    0.000000   0.000000   0.000000   0.000000   0.000000   0.000000
    24  H    0.000000   0.000000   0.000000   0.000000   0.000000   0.000000
    25  H    0.000000   0.000000   0.000000   0.000000  -0.000003   0.000006
    26  H    0.000000   0.000000   0.000003   0.000001   0.002246   0.000193
    27  H    0.000000   0.000000   0.000000   0.000000  -0.000004   0.000000
    28  H    0.000260  -0.000012   0.000021   0.004707   0.000243   0.000083
    29  H   -0.000255  -0.000238   0.000086   0.000198   0.000011   0.005714
    30  H   -0.000220  -0.000128   0.000079  -0.000114  -0.000029  -0.000216
    31  H    0.467978  -0.014714  -0.000076   0.003210  -0.000003   0.000010
    32  H   -0.014714   0.451024   0.000168   0.000030   0.000003   0.000000
    33  H   -0.000076   0.000168   0.543155  -0.028519   0.004973  -0.003805
    34  H    0.003210   0.000030  -0.028519   0.549792  -0.004431   0.005244
    35  H   -0.000003   0.000003   0.004973  -0.004431   0.551160  -0.032165
    36  H    0.000010   0.000000  -0.003805   0.005244  -0.032165   0.568056
    37  H    0.000000   0.000000   0.000827   0.000037   0.000058   0.004461
    38  H    0.000000   0.000000   0.000004   0.000000   0.000003  -0.000005
    39  H    0.000000   0.000000   0.000000   0.000000   0.000000   0.000000
    40  H    0.000000   0.000000   0.000000   0.000003  -0.000007   0.000003
    41  H    0.000000   0.000000   0.000033   0.000536   0.005335   0.000077
              37         38         39         40         41
     1  C    0.000000   0.000000   0.000000   0.000000   0.000000
     2  N    0.000000   0.000000   0.000000   0.000000   0.000000
     3  C    0.000000   0.000000   0.000000   0.000000   0.000000
     4  S    0.000000   0.000000   0.000000   0.000000   0.000000
     5  O    0.000000   0.000000   0.000000   0.000000   0.000000
     6  O    0.000000   0.000000   0.000000   0.000000   0.000000
     7  N    0.000000   0.000000   0.000000   0.000000  -0.000003
     8  C   -0.000063   0.000000   0.000000   0.000000  -0.000053
     9  C   -0.000011   0.000000   0.000000   0.000000   0.000000
    10  S    0.000001   0.000000   0.000000   0.000000   0.000000
    11  O    0.000000   0.000000   0.000000   0.000000   0.000000
    12  O    0.000002   0.000000   0.000000   0.000000   0.000000
    13  C    0.000002   0.000000   0.000000   0.000000   0.000001
    14  C    0.000277  -0.000001   0.000000  -0.000001   0.000274
    15  C   -0.008575  -0.000173   0.000006  -0.000175  -0.009291
    16  C   -0.046316   0.003636   0.000631   0.003684  -0.045104
    17  C    0.359815  -0.038512   0.004614   0.000765   0.006079
    18  C   -0.043657   0.360686  -0.042019   0.004484   0.000268
    19  C    0.004735  -0.042193   0.363229  -0.042212   0.004754
    20  C    0.000286   0.004497  -0.042105   0.360572  -0.044380
    21  C    0.005903   0.000768   0.004598  -0.038474   0.359385
    22  H    0.000000   0.000000   0.000000   0.000000   0.000000
    23  H    0.000000   0.000000   0.000000   0.000000   0.000000
    24  H    0.000000   0.000000   0.000000   0.000000   0.000000
    25  H    0.000000   0.000000   0.000000   0.000000   0.000000
    26  H    0.000000   0.000000   0.000000   0.000000   0.000000
    27  H    0.000000   0.000000   0.000000   0.000000   0.000000
    28  H    0.000000   0.000000   0.000000   0.000000   0.000032
    29  H    0.000166   0.000000   0.000000   0.000000   0.000000
    30  H    0.000000   0.000000   0.000000   0.000000   0.000000
    31  H    0.000000   0.000000   0.000000   0.000000   0.000000
    32  H    0.000000   0.000000   0.000000   0.000000   0.000000
    33  H    0.000827   0.000004   0.000000   0.000000   0.000033
    34  H    0.000037   0.000000   0.000000   0.000003   0.000536
    35  H    0.000058   0.000003   0.000000  -0.000007   0.005335
    36  H    0.004461  -0.000005   0.000000   0.000003   0.000077
    37  H    0.583268  -0.005287  -0.000168   0.000017  -0.000167
    38  H   -0.005287   0.572356  -0.005217  -0.000176   0.000017
    39  H   -0.000168  -0.005217   0.572908  -0.005202  -0.000167
    40  H    0.000017  -0.000176  -0.005202   0.572468  -0.005279
    41  H   -0.000167   0.000017  -0.000167  -0.005279   0.583353
 Mulliken charges:
               1
     1  C   -0.328185
     2  N   -0.529255
     3  C   -0.331156
     4  S    1.338347
     5  O   -0.564028
     6  O   -0.581577
     7  N   -0.737727
     8  C    0.188447
     9  C   -0.504696
    10  S    1.108251
    11  O   -0.557992
    12  O   -0.573726
    13  C   -0.489958
    14  C   -0.304758
    15  C   -0.363995
    16  C    0.160867
    17  C   -0.196187
    18  C   -0.149813
    19  C   -0.150953
    20  C   -0.149331
    21  C   -0.197863
    22  H    0.190139
    23  H    0.172863
    24  H    0.199573
    25  H    0.188960
    26  H    0.198946
    27  H    0.174091
    28  H    0.413609
    29  H    0.232218
    30  H    0.247303
    31  H    0.230542
    32  H    0.242432
    33  H    0.176102
    34  H    0.176512
    35  H    0.173786
    36  H    0.161503
    37  H    0.144388
    38  H    0.149599
    39  H    0.148892
    40  H    0.149530
    41  H    0.144300
 Sum of Mulliken charges =   0.00000
 Mulliken charges with hydrogens summed into heavy atoms:
               1
     1  C    0.234390
     2  N   -0.529255
     3  C    0.230841
     4  S    1.338347
     5  O   -0.564028
     6  O   -0.581577
     7  N   -0.324118
     8  C    0.188447
     9  C   -0.025175
    10  S    1.108251
    11  O   -0.557992
    12  O   -0.573726
    13  C   -0.016984
    14  C    0.047857
    15  C   -0.028706
    16  C    0.160867
    17  C   -0.051799
    18  C   -0.000214
    19  C   -0.002060
    20  C    0.000199
    21  C   -0.053563
 Electronic spatial extent (au):  <R**2>=           8701.6397
 Charge=              0.0000 electrons
 Dipole moment (field-independent basis, Debye):
    X=              4.4205    Y=             -6.7801    Z=              1.8460  Tot=              8.3017
 Quadrupole moment (field-independent basis, Debye-Ang):
   XX=           -147.0459   YY=           -164.4865   ZZ=           -128.1513
   XY=             10.0239   XZ=            -14.7649   YZ=             -9.4821
 Traceless Quadrupole moment (field-independent basis, Debye-Ang):
   XX=             -0.4847   YY=            -17.9252   ZZ=             18.4099
   XY=             10.0239   XZ=            -14.7649   YZ=             -9.4821
 Octapole moment (field-independent basis, Debye-Ang**2):
  XXX=             45.2801  YYY=           -105.5091  ZZZ=              1.4728  XYY=             23.1377
  XXY=            -33.2392  XXZ=             43.7478  XZZ=            -21.5009  YZZ=             10.1976
  YYZ=              2.7675  XYZ=             51.9742
 Hexadecapole moment (field-independent basis, Debye-Ang**3):
 XXXX=          -7355.5272 YYYY=          -3173.9009 ZZZZ=           -777.9808 XXXY=            161.4936
 XXXZ=           -202.3808 YYYX=            108.9522 YYYZ=            -94.6486 ZZZX=            -33.7617
 ZZZY=            -17.5817 XXYY=          -1862.4532 XXZZ=          -1446.2851 YYZZ=           -564.0094
 XXYZ=              7.8645 YYXZ=            -69.7613 ZZXY=              1.5487
 N-N= 2.158830738420D+03 E-N=-8.343197317916D+03  KE= 1.702532084493D+03
 No NMR shielding tensors so no spin-rotation constants.
 Leave Link  601 at Thu Oct  1 22:14:01 2020, MaxMem=  2147483648 cpu:         0.3
 (Enter /prod/apps/gaussian/g09d1/l9999.exe)
 1\1\GINC-PIRINEUS16\SP\RB3LYP\6-31G(d)\C13H20N2O4S2\UBAFAR01\01-Oct-20
 20\0\\#p b3lyp/6-31G(d) scrf=(iefpcm,read,solvent=Water) geom=allcheck
  guess=read\\SM40.n.16.pdb.xyz\\0,1\C,0,0.889,-1.159,0.68\N,0,2.338,-0
 .943,0.51\C,0,2.672,0.351,-0.106\S,0,3.252,-1.316,1.869\O,0,3.371,-0.1
 95,2.814\O,0,2.727,-2.598,2.363\N,0,4.771,-1.463,1.19\C,0,5.277,-2.698
 ,0.574\C,0,4.323,-3.299,-0.509\S,0,4.561,-4.961,0.203\O,0,3.311,-5.633
 ,0.606\O,0,5.559,-5.742,-0.558\C,0,5.336,-3.959,1.512\C,0,6.673,-2.388
 ,0.011\C,0,6.713,-1.26,-1.028\C,0,8.109,-1.04,-1.567\C,0,8.586,-1.783,
 -2.655\C,0,9.885,-1.6,-3.132\C,0,10.731,-0.668,-2.527\C,0,10.266,0.08,
 -1.443\C,0,8.966,-0.106,-0.97\H,0,0.44,-1.112,-0.314\H,0,0.424,-0.396,
 1.316\H,0,0.717,-2.147,1.103\H,0,2.203,0.374,-1.091\H,0,3.752,0.423,-0
 .227\H,0,2.308,1.198,0.486\H,0,5.447,-1.03,1.82\H,0,4.659,-3.218,-1.54
 2\H,0,3.286,-2.98,-0.414\H,0,6.33,-4.303,1.8\H,0,4.666,-3.892,2.367\H,
 0,7.065,-3.311,-0.429\H,0,7.334,-2.141,0.848\H,0,6.342,-0.339,-0.569\H
 ,0,6.033,-1.501,-1.854\H,0,7.933,-2.507,-3.135\H,0,10.235,-2.182,-3.97
 9\H,0,11.739,-0.523,-2.899\H,0,10.913,0.811,-0.968\H,0,8.608,0.482,-0.
 13\\Version=AM64L-G09RevD.01\State=1-A\HF=-1714.0682241\RMSD=7.580e-09
 \Dipole=0.9066483,2.9414758,-1.0924409\Quadrupole=13.3213807,-14.64390
 49,1.3225242,-8.1967611,11.494274,-3.4855862\PG=C01 [X(C13H20N2O4S2)]\
 \@


 Discoveries are often made by not following instructions,
 by going off the main road, by trying the untried.
 -- Frank Tyger
 Job cpu time:       0 days  0 hours  4 minutes 57.8 seconds.
 File lengths (MBytes):  RWF=    233 Int=      0 D2E=      0 Chk=      7 Scr=      1
 Normal termination of Gaussian 09 at Thu Oct  1 22:14:01 2020.
