 Entering Gaussian System, Link 0=g09
 Initial command:
 /prod/apps/gaussian/g09d1/l1.exe "/tmp/ubafar01/1462867/Gau-60887.inp" -scrdir="/tmp/ubafar01/1462867/"
 Entering Link 1 = /prod/apps/gaussian/g09d1/l1.exe PID=     60888.
  
 Copyright (c) 1988,1990,1992,1993,1995,1998,2003,2009,2013,
            Gaussian, Inc.  All Rights Reserved.
  
 This is part of the Gaussian(R) 09 program.  It is based on
 the Gaussian(R) 03 system (copyright 2003, Gaussian, Inc.),
 the Gaussian(R) 98 system (copyright 1998, Gaussian, Inc.),
 the Gaussian(R) 94 system (copyright 1995, Gaussian, Inc.),
 the Gaussian 92(TM) system (copyright 1992, Gaussian, Inc.),
 the Gaussian 90(TM) system (copyright 1990, Gaussian, Inc.),
 the Gaussian 88(TM) system (copyright 1988, Gaussian, Inc.),
 the Gaussian 86(TM) system (copyright 1986, Carnegie Mellon
 University), and the Gaussian 82(TM) system (copyright 1983,
 Carnegie Mellon University). Gaussian is a federally registered
 trademark of Gaussian, Inc.
  
 This software contains proprietary and confidential information,
 including trade secrets, belonging to Gaussian, Inc.
  
 This software is provided under written license and may be
 used, copied, transmitted, or stored only in accord with that
 written license.
  
 The following legend is applicable only to US Government
 contracts under FAR:
  
                    RESTRICTED RIGHTS LEGEND
  
 Use, reproduction and disclosure by the US Government is
 subject to restrictions as set forth in subparagraphs (a)
 and (c) of the Commercial Computer Software - Restricted
 Rights clause in FAR 52.227-19.
  
 Gaussian, Inc.
 340 Quinnipiac St., Bldg. 40, Wallingford CT 06492
  
  
 ---------------------------------------------------------------
 Warning -- This program may not be used in any manner that
 competes with the business of Gaussian, Inc. or will provide
 assistance to any competitor of Gaussian, Inc.  The licensee
 of this program is prohibited from giving any competitor of
 Gaussian, Inc. access to this program.  By using this program,
 the user acknowledges that Gaussian, Inc. is engaged in the
 business of creating and licensing software in the field of
 computational chemistry and represents and warrants to the
 licensee that it is not a competitor of Gaussian, Inc. and that
 it will not use this program in any manner prohibited above.
 ---------------------------------------------------------------
  

 Cite this work as:
 Gaussian 09, Revision D.01,
 M. J. Frisch, G. W. Trucks, H. B. Schlegel, G. E. Scuseria, 
 M. A. Robb, J. R. Cheeseman, G. Scalmani, V. Barone, B. Mennucci, 
 G. A. Petersson, H. Nakatsuji, M. Caricato, X. Li, H. P. Hratchian, 
 A. F. Izmaylov, J. Bloino, G. Zheng, J. L. Sonnenberg, M. Hada, 
 M. Ehara, K. Toyota, R. Fukuda, J. Hasegawa, M. Ishida, T. Nakajima, 
 Y. Honda, O. Kitao, H. Nakai, T. Vreven, J. A. Montgomery, Jr., 
 J. E. Peralta, F. Ogliaro, M. Bearpark, J. J. Heyd, E. Brothers, 
 K. N. Kudin, V. N. Staroverov, T. Keith, R. Kobayashi, J. Normand, 
 K. Raghavachari, A. Rendell, J. C. Burant, S. S. Iyengar, J. Tomasi, 
 M. Cossi, N. Rega, J. M. Millam, M. Klene, J. E. Knox, J. B. Cross, 
 V. Bakken, C. Adamo, J. Jaramillo, R. Gomperts, R. E. Stratmann, 
 O. Yazyev, A. J. Austin, R. Cammi, C. Pomelli, J. W. Ochterski, 
 R. L. Martin, K. Morokuma, V. G. Zakrzewski, G. A. Voth, 
 P. Salvador, J. J. Dannenberg, S. Dapprich, A. D. Daniels, 
 O. Farkas, J. B. Foresman, J. V. Ortiz, J. Cioslowski, 
 and D. J. Fox, Gaussian, Inc., Wallingford CT, 2013.
 
 ******************************************
 Gaussian 09:  AM64L-G09RevD.01 24-Apr-2013
                 1-Oct-2020 
 ******************************************
 %nproc=1
 Will use up to    1 processors via shared memory.
 %Chk=SM40.n.6.pdb.xyz.mst.n.w.chk
 %mem=16GB
 -----------------
 #p b3lyp/6-31G(d)
 -----------------
 1/38=1/1;
 2/12=2,17=6,18=5,40=1/2;
 3/5=1,6=6,7=1,11=2,16=1,25=1,30=1,74=-5/1,2,3;
 4//1;
 5/5=2,38=5/2;
 6/7=2,8=2,9=2,10=2,28=1/1;
 99/5=1,9=1/99;
 Leave Link    1 at Thu Oct  1 21:32:22 2020, MaxMem=  2147483648 cpu:         0.0
 (Enter /prod/apps/gaussian/g09d1/l101.exe)
 ----------------
 SM40.n.6.pdb.xyz
 ----------------
 Symbolic Z-matrix:
 Charge =  0 Multiplicity = 1
 C                     6.105     0.762    -0.405 
 N                     5.707     0.063     0.827 
 C                     5.95      0.855     2.048 
 S                     4.175    -0.643     0.748 
 O                     3.874    -1.095     2.11 
 O                     3.215     0.228     0.055 
 N                     4.299    -1.976    -0.241 
 C                     5.175    -3.156    -0.037 
 C                     4.557    -4.283    -0.928 
 S                     3.714    -4.981     0.532 
 O                     2.306    -4.547     0.629 
 O                     4.019    -6.405     0.776 
 C                     4.866    -3.823     1.346 
 C                     6.649    -2.842    -0.357 
 C                     7.678    -3.977    -0.192 
 C                     8.172    -4.227     1.219 
 C                     8.143    -5.516     1.769 
 C                     8.626    -5.762     3.056 
 C                     9.151    -4.716     3.817 
 C                     9.188    -3.426     3.281 
 C                     8.704    -3.186     1.995 
 H                     7.171     0.981    -0.326 
 H                     5.553     1.697    -0.55 
 H                     5.953     0.116    -1.27 
 H                     7.018     1.081     2.072 
 H                     5.688     0.263     2.922 
 H                     5.388     1.797     2.056 
 H                     4.209    -1.698    -1.219 
 H                     5.295    -4.996    -1.295 
 H                     3.892    -3.965    -1.729 
 H                     5.709    -4.384     1.75 
 H                     4.412    -3.181     2.096 
 H                     6.949    -1.986     0.251 
 H                     6.671    -2.507    -1.4 
 H                     8.539    -3.709    -0.818 
 H                     7.295    -4.914    -0.609 
 H                     7.733    -6.331     1.179 
 H                     8.591    -6.768     3.461 
 H                     9.527    -4.902     4.818 
 H                     9.595    -2.607     3.864 
 H                     8.739    -2.18      1.588 
 
 NAtoms=     41 NQM=       41 NQMF=       0 NMMI=      0 NMMIF=      0
                NMic=       0 NMicF=      0.
                    Isotopes and Nuclear Properties:
 (Nuclear quadrupole moments (NQMom) in fm**2, nuclear magnetic moments (NMagM)
  in nuclear magnetons)

  Atom         1           2           3           4           5           6           7           8           9          10
 IAtWgt=          12          14          12          32          16          16          14          12          12          32
 AtmWgt=  12.0000000  14.0030740  12.0000000  31.9720718  15.9949146  15.9949146  14.0030740  12.0000000  12.0000000  31.9720718
 NucSpn=           0           2           0           0           0           0           2           0           0           0
 AtZEff=   0.0000000   0.0000000   0.0000000   0.0000000   0.0000000   0.0000000   0.0000000   0.0000000   0.0000000   0.0000000
 NQMom=    0.0000000   2.0440000   0.0000000   0.0000000   0.0000000   0.0000000   2.0440000   0.0000000   0.0000000   0.0000000
 NMagM=    0.0000000   0.4037610   0.0000000   0.0000000   0.0000000   0.0000000   0.4037610   0.0000000   0.0000000   0.0000000
 AtZNuc=   6.0000000   7.0000000   6.0000000  16.0000000   8.0000000   8.0000000   7.0000000   6.0000000   6.0000000  16.0000000

  Atom        11          12          13          14          15          16          17          18          19          20
 IAtWgt=          16          16          12          12          12          12          12          12          12          12
 AtmWgt=  15.9949146  15.9949146  12.0000000  12.0000000  12.0000000  12.0000000  12.0000000  12.0000000  12.0000000  12.0000000
 NucSpn=           0           0           0           0           0           0           0           0           0           0
 AtZEff=   0.0000000   0.0000000   0.0000000   0.0000000   0.0000000   0.0000000   0.0000000   0.0000000   0.0000000   0.0000000
 NQMom=    0.0000000   0.0000000   0.0000000   0.0000000   0.0000000   0.0000000   0.0000000   0.0000000   0.0000000   0.0000000
 NMagM=    0.0000000   0.0000000   0.0000000   0.0000000   0.0000000   0.0000000   0.0000000   0.0000000   0.0000000   0.0000000
 AtZNuc=   8.0000000   8.0000000   6.0000000   6.0000000   6.0000000   6.0000000   6.0000000   6.0000000   6.0000000   6.0000000

  Atom        21          22          23          24          25          26          27          28          29          30
 IAtWgt=          12           1           1           1           1           1           1           1           1           1
 AtmWgt=  12.0000000   1.0078250   1.0078250   1.0078250   1.0078250   1.0078250   1.0078250   1.0078250   1.0078250   1.0078250
 NucSpn=           0           1           1           1           1           1           1           1           1           1
 AtZEff=   0.0000000   0.0000000   0.0000000   0.0000000   0.0000000   0.0000000   0.0000000   0.0000000   0.0000000   0.0000000
 NQMom=    0.0000000   0.0000000   0.0000000   0.0000000   0.0000000   0.0000000   0.0000000   0.0000000   0.0000000   0.0000000
 NMagM=    0.0000000   2.7928460   2.7928460   2.7928460   2.7928460   2.7928460   2.7928460   2.7928460   2.7928460   2.7928460
 AtZNuc=   6.0000000   1.0000000   1.0000000   1.0000000   1.0000000   1.0000000   1.0000000   1.0000000   1.0000000   1.0000000

  Atom        31          32          33          34          35          36          37          38          39          40
 IAtWgt=           1           1           1           1           1           1           1           1           1           1
 AtmWgt=   1.0078250   1.0078250   1.0078250   1.0078250   1.0078250   1.0078250   1.0078250   1.0078250   1.0078250   1.0078250
 NucSpn=           1           1           1           1           1           1           1           1           1           1
 AtZEff=   0.0000000   0.0000000   0.0000000   0.0000000   0.0000000   0.0000000   0.0000000   0.0000000   0.0000000   0.0000000
 NQMom=    0.0000000   0.0000000   0.0000000   0.0000000   0.0000000   0.0000000   0.0000000   0.0000000   0.0000000   0.0000000
 NMagM=    2.7928460   2.7928460   2.7928460   2.7928460   2.7928460   2.7928460   2.7928460   2.7928460   2.7928460   2.7928460
 AtZNuc=   1.0000000   1.0000000   1.0000000   1.0000000   1.0000000   1.0000000   1.0000000   1.0000000   1.0000000   1.0000000

  Atom        41
 IAtWgt=           1
 AtmWgt=   1.0078250
 NucSpn=           1
 AtZEff=   0.0000000
 NQMom=    0.0000000
 NMagM=    2.7928460
 AtZNuc=   1.0000000
 Leave Link  101 at Thu Oct  1 21:32:23 2020, MaxMem=  2147483648 cpu:         0.1
 (Enter /prod/apps/gaussian/g09d1/l202.exe)
                          Input orientation:                          
 ---------------------------------------------------------------------
 Center     Atomic      Atomic             Coordinates (Angstroms)
 Number     Number       Type             X           Y           Z
 ---------------------------------------------------------------------
      1          6           0        6.105000    0.762000   -0.405000
      2          7           0        5.707000    0.063000    0.827000
      3          6           0        5.950000    0.855000    2.048000
      4         16           0        4.175000   -0.643000    0.748000
      5          8           0        3.874000   -1.095000    2.110000
      6          8           0        3.215000    0.228000    0.055000
      7          7           0        4.299000   -1.976000   -0.241000
      8          6           0        5.175000   -3.156000   -0.037000
      9          6           0        4.557000   -4.283000   -0.928000
     10         16           0        3.714000   -4.981000    0.532000
     11          8           0        2.306000   -4.547000    0.629000
     12          8           0        4.019000   -6.405000    0.776000
     13          6           0        4.866000   -3.823000    1.346000
     14          6           0        6.649000   -2.842000   -0.357000
     15          6           0        7.678000   -3.977000   -0.192000
     16          6           0        8.172000   -4.227000    1.219000
     17          6           0        8.143000   -5.516000    1.769000
     18          6           0        8.626000   -5.762000    3.056000
     19          6           0        9.151000   -4.716000    3.817000
     20          6           0        9.188000   -3.426000    3.281000
     21          6           0        8.704000   -3.186000    1.995000
     22          1           0        7.171000    0.981000   -0.326000
     23          1           0        5.553000    1.697000   -0.550000
     24          1           0        5.953000    0.116000   -1.270000
     25          1           0        7.018000    1.081000    2.072000
     26          1           0        5.688000    0.263000    2.922000
     27          1           0        5.388000    1.797000    2.056000
     28          1           0        4.209000   -1.698000   -1.219000
     29          1           0        5.295000   -4.996000   -1.295000
     30          1           0        3.892000   -3.965000   -1.729000
     31          1           0        5.709000   -4.384000    1.750000
     32          1           0        4.412000   -3.181000    2.096000
     33          1           0        6.949000   -1.986000    0.251000
     34          1           0        6.671000   -2.507000   -1.400000
     35          1           0        8.539000   -3.709000   -0.818000
     36          1           0        7.295000   -4.914000   -0.609000
     37          1           0        7.733000   -6.331000    1.179000
     38          1           0        8.591000   -6.768000    3.461000
     39          1           0        9.527000   -4.902000    4.818000
     40          1           0        9.595000   -2.607000    3.864000
     41          1           0        8.739000   -2.180000    1.588000
 ---------------------------------------------------------------------
                    Distance matrix (angstroms):
                    1          2          3          4          5
     1  C    0.000000
     2  N    1.471336   0.000000
     3  C    2.459651   1.475518   0.000000
     4  S    2.651101   1.688698   2.661697   0.000000
     5  O    3.840708   2.519314   2.848880   1.466270   0.000000
     6  O    2.974703   2.614053   3.441715   1.469861   2.531331
     7  N    3.284079   2.698260   3.997485   1.664448   2.546367
     8  C    4.043643   3.375127   4.586499   2.816273   3.248066
     9  C    5.303005   4.825996   6.098858   4.025481   4.456375
    10  S    6.291017   5.431483   6.430929   4.367771   4.197223
    11  O    6.609617   5.732199   6.668876   4.329958   4.070416
    12  O    7.557251   6.684831   7.619340   5.764179   5.476923
    13  C    5.061951   4.009693   4.852993   3.308698   3.001624
    14  C    3.645141   3.275400   4.465471   3.489599   4.103501
    15  C    4.997781   4.609208   5.599269   4.926476   5.298636
    16  C    5.639148   4.963264   5.608141   5.389147   5.392227
    17  C    6.949317   6.160089   6.743644   6.366600   6.155151
    18  C    7.803623   6.886191   7.208448   7.165363   6.727355
    19  C    7.557241   6.606064   6.664218   7.125213   6.623611
    20  C    6.374232   5.505688   5.507440   6.268281   5.919746
    21  C    5.301085   4.571896   4.890502   5.341694   5.264447
    22  H    1.091127   2.077361   2.672563   3.573075   4.595006
    23  H    1.095424   2.142382   2.759742   3.009865   4.205937
    24  H    1.090250   2.112045   3.399302   2.794582   4.148875
    25  H    2.659109   2.074866   1.091914   3.578799   3.823762
    26  H    3.389959   2.104611   1.087651   2.799336   2.407095
    27  H    2.764387   2.149176   1.096938   3.022554   3.264778
    28  H    3.210765   3.087271   4.496908   2.232324   3.399717
    29  H    5.882411   5.501464   6.770441   4.937293   5.369457
    30  H    5.384689   5.104130   6.460147   4.153469   4.793240
    31  H    5.593045   4.541777   5.253000   4.165602   3.783430
    32  H    4.966739   3.716305   4.319380   2.883525   2.154306
    33  H    2.948589   2.464293   3.506920   3.121816   3.702079
    34  H    3.463631   3.534646   4.869455   3.783968   4.705003
    35  H    5.107325   4.995421   5.978877   5.558526   6.096590
    36  H    5.802990   5.417967   6.492306   5.460521   5.803530
    37  H    7.447824   6.716533   7.454720   6.722981   6.570718
    38  H    8.821964   7.868797   8.190334   8.023531   7.500548
    39  H    8.430345   7.427766   7.321945   7.959138   7.333684
    40  H    6.461782   5.609707   5.345028   6.553102   6.171912
    41  H    4.423276   3.847492   4.147451   4.888565   5.011780
                    6          7          8          9         10
     6  O    0.000000
     7  N    2.473922   0.000000
     8  C    3.911716   1.483709   0.000000
     9  C    4.807949   2.420905   1.563948   0.000000
    10  S    5.254542   3.157496   2.406015   1.824679   0.000000
    11  O    4.894526   3.367342   3.257238   2.749717   1.476560
    12  O    6.720338   4.552882   3.543064   2.774156   1.476596
    13  C    4.561040   2.500293   1.566224   2.340546   1.825011
    14  C    4.624608   2.507172   1.540673   2.603649   3.738966
    15  C    6.136889   3.927346   2.638764   3.221176   4.152769
    16  C    6.765632   4.711553   3.421489   4.204875   4.573210
    17  C    7.759930   5.598932   4.200031   4.653331   4.629518
    18  C    8.611912   6.627740   5.316699   5.883575   5.577480
    19  C    8.592548   6.893248   5.752868   6.618712   6.357863
    20  C    7.709444   6.197524   5.214038   6.316351   6.319787
    21  C    6.748935   5.086042   4.072317   5.190852   5.501136
    22  H    4.045010   4.123040   4.602424   5.908053   6.944959
    23  H    2.826699   3.893447   4.894656   6.074150   7.010587
    24  H    3.043816   2.858500   3.582116   4.627848   5.851473
    25  H    4.388474   4.699806   5.079045   6.620349   7.073603
    26  H    3.786376   4.116675   4.550650   6.063644   6.091659
    27  H    3.344801   4.549468   5.381285   6.823578   7.146057
    28  H    2.514078   1.020719   2.110934   2.624502   3.753547
    29  H    5.782653   3.350124   2.232166   1.089817   2.416136
    30  H    4.606760   2.517124   2.272319   1.088554   2.485168
    31  H    5.510318   3.427921   2.233049   2.917017   2.412459
    32  H    4.149671   2.631798   2.265498   3.221802   2.484613
    33  H    4.345454   2.695304   2.144509   3.519647   4.417489
    34  H    4.641248   2.692884   2.125320   2.801063   4.312441
    35  H    6.678853   4.616689   3.497466   4.024661   5.169246
    36  H    6.597534   4.212278   2.812854   2.827820   3.758980
    37  H    8.043394   5.724926   4.254720   4.326746   4.288761
    38  H    9.457602   7.422219   6.078783   6.458460   5.963014
    39  H    9.425731   7.841361   6.749774   7.622373   7.222673
    40  H    7.952994   6.730290   5.920777   7.152180   7.164095
    41  H    6.217968   4.806293   4.036743   5.314319   5.849048
                   11         12         13         14         15
    11  O    0.000000
    12  O    2.531431   0.000000
    13  C    2.755334   2.776515   0.000000
    14  C    4.768739   4.571166   2.653612   0.000000
    15  C    5.464186   4.496720   3.208817   1.540873   0.000000
    16  C    5.904274   4.710344   3.333014   2.592591   1.515736
    17  C    6.025706   4.334022   3.712668   3.728564   2.535797
    18  C    6.878150   5.180376   4.563050   4.907494   3.825498
    19  C    7.552876   6.199825   5.026382   5.214802   4.334505
    20  C    7.460005   6.470551   4.752001   4.474664   3.826935
    21  C    6.682266   5.813531   3.944263   3.142175   2.541914
    22  H    7.425566   8.105708   5.584534   3.858597   4.985656
    23  H    7.135866   8.351876   5.876835   4.673434   6.069437
    24  H    6.216943   7.102810   4.851881   3.172972   4.570597
    25  H    7.480613   8.167852   5.404387   4.628837   5.580740
    26  H    6.311250   7.200910   4.455879   4.616967   5.624473
    27  H    7.195929   8.413404   5.688672   5.378941   6.605807
    28  H    3.892726   5.115855   3.395070   2.829378   4.275808
    29  H    3.582945   2.811138   2.921447   2.711619   2.816675
    30  H    2.900739   3.499250   3.228694   3.277890   4.086112
    31  H    3.586589   2.808775   1.090223   2.775034   2.795349
    32  H    2.907453   3.505856   1.086637   3.337109   4.066364
    33  H    5.315925   5.328047   2.985378   1.091971   2.166050
    34  H    5.227970   5.192541   3.539830   1.095700   2.152722
    35  H    6.453398   5.499059   4.264601   2.129861   1.097734
    36  H    5.153392   3.856615   3.303384   2.184949   1.094782
    37  H    5.739119   3.736533   3.812826   3.963265   2.724699
    38  H    7.242533   5.314525   5.198257   5.810505   4.686967
    39  H    8.355632   6.995344   5.911340   6.269538   5.419827
    40  H    8.207213   7.419725   5.493853   5.152765   4.690728
    41  H    6.921406   6.386577   4.214041   2.930763   2.742869
                   16         17         18         19         20
    16  C    0.000000
    17  C    1.401735   0.000000
    18  C    2.436578   1.396486   0.000000
    19  C    2.819072   2.418753   1.396016   0.000000
    20  C    2.434276   2.783212   2.413165   1.397414   0.000000
    21  C    1.403168   2.407218   2.787038   2.420825   1.394866
    22  H    5.523793   6.895275   7.682643   7.317148   6.041555
    23  H    6.714335   8.007074   8.836472   8.552360   7.357643
    24  H    5.475466   6.763952   7.772393   7.710577   6.612306
    25  H    5.498562   6.699093   7.097927   6.418717   5.146225
    26  H    5.406530   6.383829   6.704508   6.130566   5.097804
    27  H    6.688782   7.819998   8.283908   7.725313   6.574219
    28  H    5.295758   6.243527   7.368963   7.674176   6.930110
    29  H    3.897266   4.215400   5.532948   6.409343   6.209680
    30  H    5.203628   5.719494   6.966792   7.679792   7.310146
    31  H    2.524476   2.684426   3.480432   4.028657   3.919843
    32  H    4.000106   4.413560   5.033980   5.270312   4.926908
    33  H    2.730354   4.023787   4.993849   5.001806   4.033314
    34  H    3.474271   4.611228   5.854313   6.184430   5.393664
    35  H    2.133631   3.180351   4.385231   4.782449   4.159698
    36  H    2.140720   2.595456   3.990350   4.803480   4.574898
    37  H    2.149683   1.086474   2.155073   3.402645   3.869684
    38  H    3.414499   2.151993   1.085028   2.156627   3.399672
    39  H    3.904414   3.404240   2.157787   1.085345   2.157746
    40  H    3.412529   3.867766   3.397918   2.155743   1.084573
    41  H    2.155889   3.393652   3.872792   3.401394   2.149504
                   21         22         23         24         25
    21  C    0.000000
    22  H    5.010092   0.000000
    23  H    6.344251   1.783467   0.000000
    24  H    5.397354   1.767169   1.782684   0.000000
    25  H    4.588661   2.404956   3.066034   3.637913   0.000000
    26  H    4.674525   3.642021   3.758905   4.202939   1.777786
    27  H    5.985805   3.085266   2.613132   3.769252   1.780397
    28  H    5.722671   4.092424   3.712132   2.516890   5.142373
    29  H    5.071635   6.338996   6.739276   5.154234   7.157887
    30  H    6.134359   6.097800   6.017242   4.594884   7.048517
    31  H    3.235004   5.935524   6.503299   5.424936   5.628800
    32  H    4.293191   5.549812   5.665517   4.957302   4.995644
    33  H    2.749829   3.030726   4.019317   2.779184   3.567533
    34  H    4.014991   3.683697   4.432385   2.722600   5.004891
    35  H    2.865959   4.910152   6.181655   4.639216   5.797382
    36  H    3.428131   5.903092   6.836912   5.247741   6.573014
    37  H    3.391124   7.486402   8.496507   7.122486   7.499761
    38  H    3.872034   8.740982   9.847527   8.759615   8.124682
    39  H    3.404602   8.162179   9.389084   8.661267   7.044990
    40  H    2.149950   6.025415   7.371945   6.858342   4.842885
    41  H    1.085776   4.014217   5.454610   4.604517   3.718900
                   26         27         28         29         30
    26  H    0.000000
    27  H    1.786928   0.000000
    28  H    4.814649   4.932615   0.000000
    29  H    6.752379   7.575137   3.473036   0.000000
    30  H    6.537079   7.054423   2.345182   1.794359   0.000000
    31  H    4.792560   6.196889   4.275460   3.133363   3.947213
    32  H    3.764517   5.072934   3.637269   3.946238   3.938995
    33  H    3.712461   4.472788   3.122730   3.766422   4.145128
    34  H    5.226746   5.666960   2.597823   2.845966   3.155447
    35  H    6.155695   6.964533   4.791015   3.522419   4.742369
    36  H    6.469292   7.468360   4.498683   2.115968   3.706131
    37  H    7.120457   8.504854   6.295528   3.721121   5.367281
    38  H    7.625804   9.251619   8.173691   6.051705   7.541453
    39  H    6.708946   8.344853   8.659798   7.435552   8.688752
    40  H    4.938513   6.353183   7.461378   7.128296   8.102470
    41  H    4.129940   5.221566   5.350932   5.301196   6.138577
                   31         32         33         34         35
    31  H    0.000000
    32  H    1.802535   0.000000
    33  H    3.087880   3.356847   0.000000
    34  H    3.790920   4.216559   1.753433   0.000000
    35  H    3.880612   5.079597   2.576740   2.296291   0.000000
    36  H    2.891570   4.316480   3.071238   2.609350   1.744489
    37  H    2.865908   4.668236   4.511637   4.733082   3.393012
    38  H    4.113016   5.673961   5.988972   6.743281   5.260231
    39  H    4.925248   6.044365   6.000552   7.249571   5.844988
    40  H    4.767360   5.506250   4.521142   6.022414   4.924496
    41  H    3.750301   4.470234   2.242611   3.648520   2.857740
                   36         37         38         39         40
    36  H    0.000000
    37  H    2.323075   0.000000
    38  H    4.656375   2.476824   0.000000
    39  H    5.868074   4.301488   2.489880   0.000000
    40  H    5.533532   4.954235   4.299343   2.486316   0.000000
    41  H    3.792980   4.290701   4.957800   4.296874   2.468854
                   41
    41  H    0.000000
 Stoichiometry    C13H20N2O4S2
 Framework group  C1[X(C13H20N2O4S2)]
 Deg. of freedom   117
 Full point group                 C1      NOp   1
 Largest Abelian subgroup         C1      NOp   1
 Largest concise Abelian subgroup C1      NOp   1
                         Standard orientation:                         
 ---------------------------------------------------------------------
 Center     Atomic      Atomic             Coordinates (Angstroms)
 Number     Number       Type             X           Y           Z
 ---------------------------------------------------------------------
      1          6           0       -2.825695   -2.354332    1.331451
      2          7           0       -2.198734   -1.952354    0.062529
      3          6           0       -2.300287   -2.984047   -0.987448
      4         16           0       -2.619151   -0.397705   -0.445423
      5          8           0       -2.081431   -0.263149   -1.802884
      6          8           0       -4.043130   -0.120012   -0.209497
      7          7           0       -1.827254    0.675274    0.550569
      8          6           0       -0.360671    0.796074    0.740139
      9          6           0       -0.142983    2.220009    1.349198
     10         16           0        0.278530    2.867388   -0.303884
     11          8           0       -0.868197    3.529180   -0.957549
     12          8           0        1.593625    3.535778   -0.368034
     13          6           0        0.338526    1.073419   -0.633638
     14          6           0        0.205232   -0.347697    1.603396
     15          6           0        1.719674   -0.352281    1.887536
     16          6           0        2.600442   -0.917346    0.790993
     17          6           0        3.699019   -0.191208    0.310667
     18          6           0        4.535363   -0.717157   -0.676288
     19          6           0        4.285476   -1.986870   -1.199973
     20          6           0        3.194911   -2.723081   -0.729411
     21          6           0        2.362721   -2.192722    0.256403
     22          1           0       -2.323285   -3.261606    1.670564
     23          1           0       -3.897294   -2.553269    1.221664
     24          1           0       -2.678225   -1.580940    2.085614
     25          1           0       -1.817328   -3.882220   -0.597179
     26          1           0       -1.771510   -2.649060   -1.876921
     27          1           0       -3.340211   -3.222827   -1.242034
     28          1           0       -2.363470    0.822098    1.406596
     29          1           0        0.731602    2.283157    1.996358
     30          1           0       -1.006551    2.690559    1.815871
     31          1           0        1.379464    0.750289   -0.658554
     32          1           0       -0.204127    0.754938   -1.519570
     33          1           0       -0.081683   -1.292736    1.137582
     34          1           0       -0.324129   -0.298624    2.561481
     35          1           0        1.863904   -0.955753    2.793096
     36          1           0        2.070509    0.651653    2.147494
     37          1           0        3.893978    0.797945    0.715629
     38          1           0        5.378476   -0.135182   -1.033713
     39          1           0        4.932188   -2.399720   -1.967626
     40          1           0        2.993193   -3.710884   -1.129227
     41          1           0        1.519047   -2.774145    0.615667
 ---------------------------------------------------------------------
 Rotational constants (GHZ):      0.3144222      0.2217910      0.1551972
 Leave Link  202 at Thu Oct  1 21:32:23 2020, MaxMem=  2147483648 cpu:         0.0
 (Enter /prod/apps/gaussian/g09d1/l301.exe)
 Standard basis: 6-31G(d) (6D, 7F)
 Ernie: Thresh=  0.10000D-02 Tol=  0.10000D-05 Strict=F.
 There are   363 symmetry adapted cartesian basis functions of A   symmetry.
 There are   363 symmetry adapted basis functions of A   symmetry.
   363 basis functions,   716 primitive gaussians,   363 cartesian basis functions
    88 alpha electrons       88 beta electrons
       nuclear repulsion energy      2215.6921877531 Hartrees.
 IExCor=  402 DFT=T Ex+Corr=B3LYP ExCW=0 ScaHFX=  0.200000
 ScaDFX=  0.800000  0.720000  1.000000  0.810000 ScalE2=  1.000000  1.000000
 IRadAn=      0 IRanWt=     -1 IRanGd=            0 ICorTp=0 IEmpDi=  4
 NAtoms=   41 NActive=   41 NUniq=   41 SFac= 1.00D+00 NAtFMM=   60 NAOKFM=F Big=F
 Integral buffers will be    131072 words long.
 Raffenetti 2 integral format.
 Two-electron integral symmetry is turned on.
 Leave Link  301 at Thu Oct  1 21:32:23 2020, MaxMem=  2147483648 cpu:         0.0
 (Enter /prod/apps/gaussian/g09d1/l302.exe)
 NPDir=0 NMtPBC=     1 NCelOv=     1 NCel=       1 NClECP=     1 NCelD=      1
         NCelK=      1 NCelE2=     1 NClLst=     1 CellRange=     0.0.
 One-electron integrals computed using PRISM.
 NBasis=   363 RedAO= T EigKep=  4.69D-04  NBF=   363
 NBsUse=   363 1.00D-06 EigRej= -1.00D+00 NBFU=   363
 Precomputing XC quadrature grid using
 IXCGrd= 4 IRadAn=           0 IRanWt=          -1 IRanGd=           0 AccXCQ= 0.00D+00.
 Generated NRdTot=       0 NPtTot=           0 NUsed=           0 NTot=          32
 NSgBfM=   359   359   359   359   359 MxSgAt=    41 MxSgA2=    41.
 Leave Link  302 at Thu Oct  1 21:32:24 2020, MaxMem=  2147483648 cpu:         1.4
 (Enter /prod/apps/gaussian/g09d1/l303.exe)
 DipDrv:  MaxL=1.
 Leave Link  303 at Thu Oct  1 21:32:24 2020, MaxMem=  2147483648 cpu:         0.1
 (Enter /prod/apps/gaussian/g09d1/l401.exe)
 ExpMin= 1.17D-01 ExpMax= 2.19D+04 ExpMxC= 3.30D+03 IAcc=1 IRadAn=         1 AccDes= 0.00D+00
 Harris functional with IExCor=  402 and IRadAn=       1 diagonalized for initial guess.
 HarFok:  IExCor=  402 AccDes= 0.00D+00 IRadAn=         1 IDoV= 1 UseB2=F ITyADJ=14
 ICtDFT=  3500011 ScaDFX=  1.000000  1.000000  1.000000  1.000000
 FoFCou: FMM=F IPFlag=           0 FMFlag=      100000 FMFlg1=           0
         NFxFlg=           0 DoJE=T BraDBF=F KetDBF=T FulRan=T
         wScrn=  0.000000 ICntrl=     500 IOpCl=  0 I1Cent=   200000004 NGrid=           0
         NMat0=    1 NMatS0=      1 NMatT0=    0 NMatD0=    1 NMtDS0=    0 NMtDT0=    0
 Petite list used in FoFCou.
 Harris En= -1714.14445874362    
 JPrj=0 DoOrth=F DoCkMO=F.
 Leave Link  401 at Thu Oct  1 21:32:30 2020, MaxMem=  2147483648 cpu:         5.3
 (Enter /prod/apps/gaussian/g09d1/l502.exe)
 Closed shell SCF:
 Using DIIS extrapolation, IDIIS=  1040.
 Integral symmetry usage will be decided dynamically.
 IVT=      418784 IEndB=      418784 NGot=  2147483648 MDV=  2147213637
 LenX=  2147213637 LenY=  2147081427
 Requested convergence on RMS density matrix=1.00D-08 within 128 cycles.
 Requested convergence on MAX density matrix=1.00D-06.
 Requested convergence on             energy=1.00D-06.
 No special actions if energy rises.
 Fock matrices will be formed incrementally for  20 cycles.
 Integral accuracy reduced to 1.0D-05 until final iterations.

 Cycle   1  Pass 0  IDiag  1:
 FoFJK:  IHMeth= 1 ICntrl=       0 DoSepK=F KAlg= 0 I1Cent=   0 FoldK=F
 IRaf= 790000000 NMat=   1 IRICut=       1 DoRegI=T DoRafI=F ISym2E= 0.
 FoFCou: FMM=F IPFlag=           0 FMFlag=      100000 FMFlg1=           0
         NFxFlg=           0 DoJE=F BraDBF=F KetDBF=F FulRan=T
         wScrn=  0.000000 ICntrl=       0 IOpCl=  0 I1Cent=           0 NGrid=           0
         NMat0=    1 NMatS0=      1 NMatT0=    0 NMatD0=    1 NMtDS0=    0 NMtDT0=    0
 Symmetry not used in FoFCou.
 E= -1713.18070314655    
 DIIS: error= 3.21D-02 at cycle   1 NSaved=   1.
 NSaved= 1 IEnMin= 1 EnMin= -1713.18070314655     IErMin= 1 ErrMin= 3.21D-02
 ErrMax= 3.21D-02  0.00D+00 EMaxC= 1.00D-01 BMatC= 9.97D-01 BMatP= 9.97D-01
 IDIUse=3 WtCom= 6.79D-01 WtEn= 3.21D-01
 Coeff-Com:  0.100D+01
 Coeff-En:   0.100D+01
 Coeff:      0.100D+01
 Gap=     0.352 Goal=   None    Shift=    0.000
 GapD=    0.352 DampG=1.000 DampE=0.500 DampFc=0.5000 IDamp=-1.
 Damping current iteration by 5.00D-01
 RMSDP=7.23D-03 MaxDP=6.10D-01              OVMax= 2.60D-01

 Cycle   2  Pass 0  IDiag  1:
 RMSU=  3.62D-03    CP:  1.00D+00
 E= -1713.34111299641     Delta-E=       -0.160409849857 Rises=F Damp=T
 DIIS: error= 2.09D-02 at cycle   2 NSaved=   2.
 NSaved= 2 IEnMin= 2 EnMin= -1713.34111299641     IErMin= 2 ErrMin= 2.09D-02
 ErrMax= 2.09D-02  0.00D+00 EMaxC= 1.00D-01 BMatC= 1.84D-01 BMatP= 9.97D-01
 IDIUse=3 WtCom= 7.91D-01 WtEn= 2.09D-01
 Coeff-Com:  0.259D+00 0.741D+00
 Coeff-En:   0.408D+00 0.592D+00
 Coeff:      0.290D+00 0.710D+00
 Gap=     0.292 Goal=   None    Shift=    0.000
 RMSDP=2.13D-03 MaxDP=1.33D-01 DE=-1.60D-01 OVMax= 2.14D-01

 Cycle   3  Pass 0  IDiag  1:
 RMSU=  1.67D-03    CP:  9.90D-01  6.39D-01
 E= -1713.93566918375     Delta-E=       -0.594556187342 Rises=F Damp=F
 DIIS: error= 1.16D-02 at cycle   3 NSaved=   3.
 NSaved= 3 IEnMin= 3 EnMin= -1713.93566918375     IErMin= 3 ErrMin= 1.16D-02
 ErrMax= 1.16D-02  0.00D+00 EMaxC= 1.00D-01 BMatC= 9.98D-02 BMatP= 1.84D-01
 IDIUse=3 WtCom= 8.84D-01 WtEn= 1.16D-01
 Coeff-Com:  0.112D+00 0.428D+00 0.459D+00
 Coeff-En:   0.000D+00 0.000D+00 0.100D+01
 Coeff:      0.993D-01 0.379D+00 0.522D+00
 Gap=     0.241 Goal=   None    Shift=    0.000
 RMSDP=1.31D-03 MaxDP=3.86D-02 DE=-5.95D-01 OVMax= 8.01D-02

 Cycle   4  Pass 0  IDiag  1:
 RMSU=  7.74D-04    CP:  9.96D-01  7.12D-01  3.92D-01
 E= -1714.01609906495     Delta-E=       -0.080429881198 Rises=F Damp=F
 DIIS: error= 4.50D-03 at cycle   4 NSaved=   4.
 NSaved= 4 IEnMin= 4 EnMin= -1714.01609906495     IErMin= 4 ErrMin= 4.50D-03
 ErrMax= 4.50D-03  0.00D+00 EMaxC= 1.00D-01 BMatC= 1.50D-02 BMatP= 9.98D-02
 IDIUse=3 WtCom= 9.55D-01 WtEn= 4.50D-02
 Coeff-Com:  0.142D-01 0.715D-01 0.289D+00 0.625D+00
 Coeff-En:   0.000D+00 0.000D+00 0.134D+00 0.866D+00
 Coeff:      0.135D-01 0.683D-01 0.282D+00 0.636D+00
 Gap=     0.237 Goal=   None    Shift=    0.000
 RMSDP=4.34D-04 MaxDP=1.55D-02 DE=-8.04D-02 OVMax= 2.65D-02

 Cycle   5  Pass 0  IDiag  1:
 RMSU=  1.80D-04    CP:  9.95D-01  6.95D-01  5.52D-01  6.32D-01
 E= -1714.02878987125     Delta-E=       -0.012690806298 Rises=F Damp=F
 DIIS: error= 1.15D-03 at cycle   5 NSaved=   5.
 NSaved= 5 IEnMin= 5 EnMin= -1714.02878987125     IErMin= 5 ErrMin= 1.15D-03
 ErrMax= 1.15D-03  0.00D+00 EMaxC= 1.00D-01 BMatC= 1.03D-03 BMatP= 1.50D-02
 IDIUse=3 WtCom= 9.89D-01 WtEn= 1.15D-02
 Coeff-Com:  0.595D-03 0.145D-01 0.121D+00 0.342D+00 0.523D+00
 Coeff-En:   0.000D+00 0.000D+00 0.000D+00 0.000D+00 0.100D+01
 Coeff:      0.588D-03 0.143D-01 0.119D+00 0.338D+00 0.528D+00
 Gap=     0.237 Goal=   None    Shift=    0.000
 RMSDP=1.16D-04 MaxDP=6.88D-03 DE=-1.27D-02 OVMax= 8.38D-03

 Cycle   6  Pass 0  IDiag  1:
 RMSU=  5.79D-05    CP:  9.95D-01  6.98D-01  5.42D-01  6.99D-01  5.31D-01
 E= -1714.02963597424     Delta-E=       -0.000846102996 Rises=F Damp=F
 DIIS: error= 4.66D-04 at cycle   6 NSaved=   6.
 NSaved= 6 IEnMin= 6 EnMin= -1714.02963597424     IErMin= 6 ErrMin= 4.66D-04
 ErrMax= 4.66D-04  0.00D+00 EMaxC= 1.00D-01 BMatC= 1.29D-04 BMatP= 1.03D-03
 IDIUse=3 WtCom= 9.95D-01 WtEn= 4.66D-03
 Coeff-Com: -0.809D-03 0.235D-02 0.446D-01 0.141D+00 0.317D+00 0.496D+00
 Coeff-En:   0.000D+00 0.000D+00 0.000D+00 0.000D+00 0.573D-01 0.943D+00
 Coeff:     -0.805D-03 0.234D-02 0.444D-01 0.140D+00 0.316D+00 0.498D+00
 Gap=     0.237 Goal=   None    Shift=    0.000
 RMSDP=3.75D-05 MaxDP=1.91D-03 DE=-8.46D-04 OVMax= 3.14D-03

 Cycle   7  Pass 0  IDiag  1:
 RMSU=  2.37D-05    CP:  9.95D-01  6.98D-01  5.44D-01  6.94D-01  5.99D-01
                    CP:  5.50D-01
 E= -1714.02973455247     Delta-E=       -0.000098578230 Rises=F Damp=F
 DIIS: error= 1.58D-04 at cycle   7 NSaved=   7.
 NSaved= 7 IEnMin= 7 EnMin= -1714.02973455247     IErMin= 7 ErrMin= 1.58D-04
 ErrMax= 1.58D-04  0.00D+00 EMaxC= 1.00D-01 BMatC= 1.67D-05 BMatP= 1.29D-04
 IDIUse=3 WtCom= 9.98D-01 WtEn= 1.58D-03
 Coeff-Com: -0.598D-03-0.379D-03 0.127D-01 0.448D-01 0.136D+00 0.317D+00
 Coeff-Com:  0.491D+00
 Coeff-En:   0.000D+00 0.000D+00 0.000D+00 0.000D+00 0.000D+00 0.826D-01
 Coeff-En:   0.917D+00
 Coeff:     -0.597D-03-0.378D-03 0.127D-01 0.447D-01 0.136D+00 0.316D+00
 Coeff:      0.491D+00
 Gap=     0.237 Goal=   None    Shift=    0.000
 RMSDP=1.24D-05 MaxDP=5.44D-04 DE=-9.86D-05 OVMax= 8.02D-04

 Cycle   8  Pass 0  IDiag  1:
 RMSU=  5.90D-06    CP:  9.95D-01  6.98D-01  5.44D-01  6.95D-01  6.00D-01
                    CP:  6.15D-01  5.69D-01
 E= -1714.02974879845     Delta-E=       -0.000014245977 Rises=F Damp=F
 DIIS: error= 2.60D-05 at cycle   8 NSaved=   8.
 NSaved= 8 IEnMin= 8 EnMin= -1714.02974879845     IErMin= 8 ErrMin= 2.60D-05
 ErrMax= 2.60D-05  0.00D+00 EMaxC= 1.00D-01 BMatC= 6.05D-07 BMatP= 1.67D-05
 IDIUse=1 WtCom= 1.00D+00 WtEn= 0.00D+00
 Coeff-Com: -0.207D-03-0.365D-03 0.173D-02 0.763D-02 0.355D-01 0.103D+00
 Coeff-Com:  0.228D+00 0.625D+00
 Coeff:     -0.207D-03-0.365D-03 0.173D-02 0.763D-02 0.355D-01 0.103D+00
 Coeff:      0.228D+00 0.625D+00
 Gap=     0.237 Goal=   None    Shift=    0.000
 RMSDP=3.17D-06 MaxDP=1.45D-04 DE=-1.42D-05 OVMax= 2.08D-04

 Initial convergence to 1.0D-05 achieved.  Increase integral accuracy.
 Cycle   9  Pass 1  IDiag  1:
 E= -1714.02985055072     Delta-E=       -0.000101752268 Rises=F Damp=F
 DIIS: error= 8.23D-05 at cycle   1 NSaved=   1.
 NSaved= 1 IEnMin= 1 EnMin= -1714.02985055072     IErMin= 1 ErrMin= 8.23D-05
 ErrMax= 8.23D-05  0.00D+00 EMaxC= 1.00D-01 BMatC= 1.15D-06 BMatP= 1.15D-06
 IDIUse=1 WtCom= 1.00D+00 WtEn= 0.00D+00
 Coeff-Com:  0.100D+01
 Coeff:      0.100D+01
 Gap=     0.237 Goal=   None    Shift=    0.000
 RMSDP=3.17D-06 MaxDP=1.45D-04 DE=-1.02D-04 OVMax= 3.62D-04

 Cycle  10  Pass 1  IDiag  1:
 RMSU=  3.85D-05    CP:  1.00D+00
 E= -1714.02985127868     Delta-E=       -0.000000727959 Rises=F Damp=F
 DIIS: error= 3.14D-05 at cycle   2 NSaved=   2.
 NSaved= 2 IEnMin= 2 EnMin= -1714.02985127868     IErMin= 2 ErrMin= 3.14D-05
 ErrMax= 3.14D-05  0.00D+00 EMaxC= 1.00D-01 BMatC= 6.20D-07 BMatP= 1.15D-06
 IDIUse=1 WtCom= 1.00D+00 WtEn= 0.00D+00
 Coeff-Com:  0.386D+00 0.614D+00
 Coeff:      0.386D+00 0.614D+00
 Gap=     0.237 Goal=   None    Shift=    0.000
 RMSDP=4.19D-06 MaxDP=1.61D-04 DE=-7.28D-07 OVMax= 4.23D-04

 Cycle  11  Pass 1  IDiag  1:
 RMSU=  4.19D-06    CP:  1.00D+00  9.99D-01
 E= -1714.02985136217     Delta-E=       -0.000000083493 Rises=F Damp=F
 DIIS: error= 3.28D-05 at cycle   3 NSaved=   3.
 NSaved= 3 IEnMin= 3 EnMin= -1714.02985136217     IErMin= 2 ErrMin= 3.14D-05
 ErrMax= 3.28D-05  0.00D+00 EMaxC= 1.00D-01 BMatC= 5.55D-07 BMatP= 6.20D-07
 IDIUse=1 WtCom= 1.00D+00 WtEn= 0.00D+00
 Coeff-Com:  0.229D-02 0.485D+00 0.512D+00
 Coeff:      0.229D-02 0.485D+00 0.512D+00
 Gap=     0.237 Goal=   None    Shift=    0.000
 RMSDP=2.08D-06 MaxDP=9.60D-05 DE=-8.35D-08 OVMax= 1.74D-04

 Cycle  12  Pass 1  IDiag  1:
 RMSU=  6.63D-07    CP:  1.00D+00  1.01D+00  5.37D-01
 E= -1714.02985184916     Delta-E=       -0.000000486986 Rises=F Damp=F
 DIIS: error= 5.59D-06 at cycle   4 NSaved=   4.
 NSaved= 4 IEnMin= 4 EnMin= -1714.02985184916     IErMin= 4 ErrMin= 5.59D-06
 ErrMax= 5.59D-06  0.00D+00 EMaxC= 1.00D-01 BMatC= 1.65D-08 BMatP= 5.55D-07
 IDIUse=1 WtCom= 1.00D+00 WtEn= 0.00D+00
 Coeff-Com: -0.849D-02 0.284D+00 0.316D+00 0.408D+00
 Coeff:     -0.849D-02 0.284D+00 0.316D+00 0.408D+00
 Gap=     0.237 Goal=   None    Shift=    0.000
 RMSDP=3.95D-07 MaxDP=1.81D-05 DE=-4.87D-07 OVMax= 3.01D-05

 Cycle  13  Pass 1  IDiag  1:
 RMSU=  2.28D-07    CP:  1.00D+00  1.01D+00  5.33D-01  5.15D-01
 E= -1714.02985186254     Delta-E=       -0.000000013380 Rises=F Damp=F
 DIIS: error= 1.33D-06 at cycle   5 NSaved=   5.
 NSaved= 5 IEnMin= 5 EnMin= -1714.02985186254     IErMin= 5 ErrMin= 1.33D-06
 ErrMax= 1.33D-06  0.00D+00 EMaxC= 1.00D-01 BMatC= 8.37D-10 BMatP= 1.65D-08
 IDIUse=1 WtCom= 1.00D+00 WtEn= 0.00D+00
 Coeff-Com: -0.510D-02 0.140D+00 0.157D+00 0.246D+00 0.462D+00
 Coeff:     -0.510D-02 0.140D+00 0.157D+00 0.246D+00 0.462D+00
 Gap=     0.237 Goal=   None    Shift=    0.000
 RMSDP=1.02D-07 MaxDP=4.02D-06 DE=-1.34D-08 OVMax= 1.07D-05

 Cycle  14  Pass 1  IDiag  1:
 RMSU=  8.10D-08    CP:  1.00D+00  1.01D+00  5.36D-01  5.41D-01  7.47D-01
 E= -1714.02985186327     Delta-E=       -0.000000000739 Rises=F Damp=F
 DIIS: error= 2.77D-07 at cycle   6 NSaved=   6.
 NSaved= 6 IEnMin= 6 EnMin= -1714.02985186327     IErMin= 6 ErrMin= 2.77D-07
 ErrMax= 2.77D-07  0.00D+00 EMaxC= 1.00D-01 BMatC= 4.38D-11 BMatP= 8.37D-10
 IDIUse=1 WtCom= 1.00D+00 WtEn= 0.00D+00
 Coeff-Com: -0.106D-02 0.211D-01 0.242D-01 0.514D-01 0.214D+00 0.690D+00
 Coeff:     -0.106D-02 0.211D-01 0.242D-01 0.514D-01 0.214D+00 0.690D+00
 Gap=     0.237 Goal=   None    Shift=    0.000
 RMSDP=2.54D-08 MaxDP=1.23D-06 DE=-7.39D-10 OVMax= 2.07D-06

 Cycle  15  Pass 1  IDiag  1:
 RMSU=  1.80D-08    CP:  1.00D+00  1.01D+00  5.36D-01  5.44D-01  8.03D-01
                    CP:  8.52D-01
 E= -1714.02985186325     Delta-E=        0.000000000022 Rises=F Damp=F
 DIIS: error= 1.16D-07 at cycle   7 NSaved=   7.
 NSaved= 7 IEnMin= 6 EnMin= -1714.02985186327     IErMin= 7 ErrMin= 1.16D-07
 ErrMax= 1.16D-07  0.00D+00 EMaxC= 1.00D-01 BMatC= 7.47D-12 BMatP= 4.38D-11
 IDIUse=1 WtCom= 1.00D+00 WtEn= 0.00D+00
 Coeff-Com: -0.106D-03-0.125D-02-0.115D-02 0.563D-02 0.750D-01 0.381D+00
 Coeff-Com:  0.541D+00
 Coeff:     -0.106D-03-0.125D-02-0.115D-02 0.563D-02 0.750D-01 0.381D+00
 Coeff:      0.541D+00
 Gap=     0.237 Goal=   None    Shift=    0.000
 RMSDP=9.26D-09 MaxDP=7.99D-07 DE= 2.18D-11 OVMax= 4.88D-07

 SCF Done:  E(RB3LYP) =  -1714.02985186     A.U. after   15 cycles
            NFock= 15  Conv=0.93D-08     -V/T= 2.0068
 KE= 1.702465517165D+03 PE=-8.457024577154D+03 EE= 2.824837020372D+03
 Leave Link  502 at Thu Oct  1 21:39:09 2020, MaxMem=  2147483648 cpu:       399.1
 (Enter /prod/apps/gaussian/g09d1/l601.exe)
 Copying SCF densities to generalized density rwf, IOpCl= 0 IROHF=0.

 **********************************************************************

            Population analysis using the SCF density.

 **********************************************************************

 Orbital symmetries:
       Occupied  (A) (A) (A) (A) (A) (A) (A) (A) (A) (A) (A) (A)
                 (A) (A) (A) (A) (A) (A) (A) (A) (A) (A) (A) (A)
                 (A) (A) (A) (A) (A) (A) (A) (A) (A) (A) (A) (A)
                 (A) (A) (A) (A) (A) (A) (A) (A) (A) (A) (A) (A)
                 (A) (A) (A) (A) (A) (A) (A) (A) (A) (A) (A) (A)
                 (A) (A) (A) (A) (A) (A) (A) (A) (A) (A) (A) (A)
                 (A) (A) (A) (A) (A) (A) (A) (A) (A) (A) (A) (A)
                 (A) (A) (A) (A)
       Virtual   (A) (A) (A) (A) (A) (A) (A) (A) (A) (A) (A) (A)
                 (A) (A) (A) (A) (A) (A) (A) (A) (A) (A) (A) (A)
                 (A) (A) (A) (A) (A) (A) (A) (A) (A) (A) (A) (A)
                 (A) (A) (A) (A) (A) (A) (A) (A) (A) (A) (A) (A)
                 (A) (A) (A) (A) (A) (A) (A) (A) (A) (A) (A) (A)
                 (A) (A) (A) (A) (A) (A) (A) (A) (A) (A) (A) (A)
                 (A) (A) (A) (A) (A) (A) (A) (A) (A) (A) (A) (A)
                 (A) (A) (A) (A) (A) (A) (A) (A) (A) (A) (A) (A)
                 (A) (A) (A) (A) (A) (A) (A) (A) (A) (A) (A) (A)
                 (A) (A) (A) (A) (A) (A) (A) (A) (A) (A) (A) (A)
                 (A) (A) (A) (A) (A) (A) (A) (A) (A) (A) (A) (A)
                 (A) (A) (A) (A) (A) (A) (A) (A) (A) (A) (A) (A)
                 (A) (A) (A) (A) (A) (A) (A) (A) (A) (A) (A) (A)
                 (A) (A) (A) (A) (A) (A) (A) (A) (A) (A) (A) (A)
                 (A) (A) (A) (A) (A) (A) (A) (A) (A) (A) (A) (A)
                 (A) (A) (A) (A) (A) (A) (A) (A) (A) (A) (A) (A)
                 (A) (A) (A) (A) (A) (A) (A) (A) (A) (A) (A) (A)
                 (A) (A) (A) (A) (A) (A) (A) (A) (A) (A) (A) (A)
                 (A) (A) (A) (A) (A) (A) (A) (A) (A) (A) (A) (A)
                 (A) (A) (A) (A) (A) (A) (A) (A) (A) (A) (A) (A)
                 (A) (A) (A) (A) (A) (A) (A) (A) (A) (A) (A) (A)
                 (A) (A) (A) (A) (A) (A) (A) (A) (A) (A) (A) (A)
                 (A) (A) (A) (A) (A) (A) (A) (A) (A) (A) (A)
 The electronic state is 1-A.
 Alpha  occ. eigenvalues --  -89.13996 -89.08426 -19.15236 -19.15010 -19.13700
 Alpha  occ. eigenvalues --  -19.13272 -14.39025 -14.38865 -10.28631 -10.24380
 Alpha  occ. eigenvalues --  -10.23697 -10.23503 -10.22185 -10.21633 -10.21442
 Alpha  occ. eigenvalues --  -10.21064 -10.20194 -10.20099 -10.20041 -10.19930
 Alpha  occ. eigenvalues --  -10.19906  -8.16185  -8.11445  -6.12677  -6.12619
 Alpha  occ. eigenvalues --   -6.12570  -6.07854  -6.07808  -6.07741  -1.12948
 Alpha  occ. eigenvalues --   -1.08728  -1.00902  -0.98228  -0.95931  -0.95022
 Alpha  occ. eigenvalues --   -0.86983  -0.85633  -0.80654  -0.75545  -0.75159
 Alpha  occ. eigenvalues --   -0.74354  -0.72839  -0.72101  -0.68660  -0.63762
 Alpha  occ. eigenvalues --   -0.61676  -0.60740  -0.59030  -0.58071  -0.56104
 Alpha  occ. eigenvalues --   -0.53471  -0.52582  -0.51334  -0.49906  -0.49266
 Alpha  occ. eigenvalues --   -0.49074  -0.48065  -0.47021  -0.46352  -0.46000
 Alpha  occ. eigenvalues --   -0.45248  -0.44679  -0.43810  -0.43720  -0.43128
 Alpha  occ. eigenvalues --   -0.42683  -0.42497  -0.42065  -0.41225  -0.40622
 Alpha  occ. eigenvalues --   -0.40361  -0.38066  -0.37328  -0.36427  -0.34973
 Alpha  occ. eigenvalues --   -0.34926  -0.34724  -0.33507  -0.32396  -0.31872
 Alpha  occ. eigenvalues --   -0.31042  -0.30284  -0.29567  -0.28568  -0.28280
 Alpha  occ. eigenvalues --   -0.26562  -0.26112  -0.25260
 Alpha virt. eigenvalues --   -0.01583  -0.01284   0.02451   0.03530   0.05025
 Alpha virt. eigenvalues --    0.05503   0.06009   0.07071   0.07188   0.07815
 Alpha virt. eigenvalues --    0.08602   0.08967   0.09268   0.10198   0.11040
 Alpha virt. eigenvalues --    0.12447   0.12881   0.13806   0.13998   0.14327
 Alpha virt. eigenvalues --    0.14875   0.15140   0.15494   0.16087   0.16498
 Alpha virt. eigenvalues --    0.16910   0.17099   0.18052   0.18262   0.19526
 Alpha virt. eigenvalues --    0.19699   0.20287   0.21271   0.21552   0.22516
 Alpha virt. eigenvalues --    0.24293   0.25003   0.26209   0.28640   0.29542
 Alpha virt. eigenvalues --    0.31440   0.33048   0.33920   0.34776   0.36118
 Alpha virt. eigenvalues --    0.36635   0.37447   0.41652   0.43534   0.44928
 Alpha virt. eigenvalues --    0.45286   0.46326   0.47543   0.48068   0.48364
 Alpha virt. eigenvalues --    0.50240   0.51614   0.52111   0.52600   0.53523
 Alpha virt. eigenvalues --    0.54139   0.55329   0.55770   0.56508   0.56755
 Alpha virt. eigenvalues --    0.58279   0.59088   0.59615   0.60170   0.60385
 Alpha virt. eigenvalues --    0.60624   0.60798   0.61774   0.63449   0.63956
 Alpha virt. eigenvalues --    0.64798   0.66608   0.67358   0.68467   0.70103
 Alpha virt. eigenvalues --    0.71929   0.73020   0.73894   0.75061   0.75259
 Alpha virt. eigenvalues --    0.76970   0.77665   0.77830   0.78870   0.79589
 Alpha virt. eigenvalues --    0.80574   0.81221   0.82161   0.82779   0.83046
 Alpha virt. eigenvalues --    0.83470   0.83847   0.84620   0.85450   0.86091
 Alpha virt. eigenvalues --    0.86644   0.87497   0.87802   0.88537   0.89385
 Alpha virt. eigenvalues --    0.90038   0.90724   0.91506   0.92419   0.92892
 Alpha virt. eigenvalues --    0.93509   0.94070   0.95363   0.96566   0.96851
 Alpha virt. eigenvalues --    0.97713   0.98527   0.99001   0.99726   1.01449
 Alpha virt. eigenvalues --    1.02709   1.03069   1.04394   1.05271   1.05470
 Alpha virt. eigenvalues --    1.06113   1.08540   1.09210   1.09995   1.10832
 Alpha virt. eigenvalues --    1.11405   1.12917   1.14331   1.15127   1.16678
 Alpha virt. eigenvalues --    1.17312   1.18092   1.18334   1.19408   1.21339
 Alpha virt. eigenvalues --    1.22869   1.24263   1.26184   1.27163   1.28991
 Alpha virt. eigenvalues --    1.31093   1.33240   1.35980   1.37918   1.40928
 Alpha virt. eigenvalues --    1.42181   1.42765   1.43480   1.44801   1.46576
 Alpha virt. eigenvalues --    1.47554   1.49202   1.49595   1.50441   1.51881
 Alpha virt. eigenvalues --    1.53492   1.57322   1.59940   1.63336   1.64152
 Alpha virt. eigenvalues --    1.68723   1.71157   1.71384   1.72096   1.74271
 Alpha virt. eigenvalues --    1.77059   1.78093   1.79606   1.79864   1.80863
 Alpha virt. eigenvalues --    1.81187   1.81670   1.82065   1.82372   1.82705
 Alpha virt. eigenvalues --    1.83430   1.83967   1.86191   1.86991   1.87280
 Alpha virt. eigenvalues --    1.88849   1.90224   1.90874   1.92663   1.93744
 Alpha virt. eigenvalues --    1.94531   1.95208   1.96139   1.97216   1.97447
 Alpha virt. eigenvalues --    1.98700   2.00950   2.02104   2.02992   2.04054
 Alpha virt. eigenvalues --    2.05446   2.07426   2.08235   2.08881   2.09013
 Alpha virt. eigenvalues --    2.11651   2.11811   2.12063   2.13454   2.13748
 Alpha virt. eigenvalues --    2.14917   2.16822   2.16939   2.18670   2.19197
 Alpha virt. eigenvalues --    2.20809   2.22203   2.24442   2.26391   2.28585
 Alpha virt. eigenvalues --    2.29157   2.29990   2.30379   2.31792   2.33005
 Alpha virt. eigenvalues --    2.35426   2.37400   2.40741   2.41234   2.43244
 Alpha virt. eigenvalues --    2.44480   2.47423   2.51568   2.55266   2.57313
 Alpha virt. eigenvalues --    2.57777   2.59340   2.63208   2.64792   2.69369
 Alpha virt. eigenvalues --    2.70655   2.71335   2.72553   2.73577   2.73943
 Alpha virt. eigenvalues --    2.75254   2.77617   2.78730   2.81655   2.83404
 Alpha virt. eigenvalues --    2.87747   2.92860   3.04905   3.39668   3.77476
 Alpha virt. eigenvalues --    3.80802   3.91457   3.96406   3.98367   4.01223
 Alpha virt. eigenvalues --    4.03587   4.08086   4.08850   4.11343   4.17614
 Alpha virt. eigenvalues --    4.19680   4.23466   4.24559   4.30627   4.33224
 Alpha virt. eigenvalues --    4.35416   4.42683   4.49861   4.68482   4.75429
          Condensed to atoms (all electrons):
               1          2          3          4          5          6
     1  C    4.990142   0.265135  -0.050950  -0.007025   0.001858   0.003914
     2  N    0.265135   7.233147   0.286638   0.127546  -0.054389  -0.056404
     3  C   -0.050950   0.286638   4.987588  -0.023333  -0.002612  -0.002378
     4  S   -0.007025   0.127546  -0.023333  13.576985   0.426680   0.447507
     5  O    0.001858  -0.054389  -0.002612   0.426680   8.249727  -0.045704
     6  O    0.003914  -0.056404  -0.002378   0.447507  -0.045704   8.226249
     7  N   -0.004999  -0.053140   0.002118   0.154218  -0.050993  -0.059363
     8  C    0.000038   0.002260  -0.000146  -0.000593  -0.003305   0.002593
     9  C   -0.000018  -0.000031   0.000001  -0.000249  -0.000067  -0.000097
    10  S    0.000000   0.000017   0.000001   0.000952  -0.000266  -0.000025
    11  O    0.000000   0.000000   0.000000   0.000927  -0.000025  -0.000001
    12  O    0.000000   0.000000   0.000000   0.000002   0.000000   0.000000
    13  C    0.000001  -0.001062   0.000027  -0.002653  -0.009392  -0.000144
    14  C    0.000330  -0.007714   0.000178  -0.008101  -0.000517  -0.000098
    15  C   -0.000032   0.000198   0.000002   0.000173  -0.000003   0.000000
    16  C    0.000001   0.000016  -0.000001  -0.000006  -0.000001   0.000000
    17  C    0.000000   0.000000   0.000000   0.000000   0.000000   0.000000
    18  C    0.000000   0.000000   0.000000   0.000000   0.000000   0.000000
    19  C    0.000000   0.000000   0.000000   0.000000   0.000000   0.000000
    20  C    0.000000  -0.000006   0.000000   0.000000   0.000000   0.000000
    21  C   -0.000007  -0.000148  -0.000003   0.000000   0.000000   0.000000
    22  H    0.374322  -0.035621  -0.004136   0.002442  -0.000050   0.000129
    23  H    0.375978  -0.043281  -0.002141  -0.007038  -0.000046   0.006009
    24  H    0.371428  -0.037144   0.005082   0.001234   0.000000  -0.002381
    25  H   -0.002846  -0.039834   0.374393   0.001635   0.000348  -0.000111
    26  H    0.004537  -0.030490   0.378882  -0.004039   0.011239  -0.000080
    27  H   -0.002756  -0.046845   0.371662  -0.002349  -0.000670   0.002287
    28  H   -0.000192   0.000113  -0.000029  -0.005887   0.001617   0.002309
    29  H    0.000000   0.000002   0.000000  -0.000012   0.000000   0.000000
    30  H   -0.000001   0.000002   0.000000  -0.000055   0.000003  -0.000015
    31  H    0.000001  -0.000013   0.000000   0.000034   0.000191   0.000000
    32  H   -0.000005  -0.000153  -0.000023  -0.000138   0.020781   0.000005
    33  H   -0.002237   0.013256  -0.000153   0.001904  -0.000151   0.000004
    34  H   -0.000314   0.000073   0.000001  -0.000522   0.000006  -0.000003
    35  H    0.000005   0.000001   0.000000  -0.000007   0.000000   0.000000
    36  H    0.000000  -0.000004   0.000000   0.000003   0.000000   0.000000
    37  H    0.000000   0.000000   0.000000   0.000000   0.000000   0.000000
    38  H    0.000000   0.000000   0.000000   0.000000   0.000000   0.000000
    39  H    0.000000   0.000000   0.000000   0.000000   0.000000   0.000000
    40  H    0.000000   0.000000   0.000000   0.000000   0.000000   0.000000
    41  H    0.000004   0.000282   0.000092   0.000031  -0.000001   0.000000
               7          8          9         10         11         12
     1  C   -0.004999   0.000038  -0.000018   0.000000   0.000000   0.000000
     2  N   -0.053140   0.002260  -0.000031   0.000017   0.000000   0.000000
     3  C    0.002118  -0.000146   0.000001   0.000001   0.000000   0.000000
     4  S    0.154218  -0.000593  -0.000249   0.000952   0.000927   0.000002
     5  O   -0.050993  -0.003305  -0.000067  -0.000266  -0.000025   0.000000
     6  O   -0.059363   0.002593  -0.000097  -0.000025  -0.000001   0.000000
     7  N    7.380062   0.178792  -0.047937   0.003209   0.000210  -0.000042
     8  C    0.178792   4.909736   0.347919  -0.104371  -0.001028   0.002098
     9  C   -0.047937   0.347919   5.760852   0.108661  -0.043779  -0.045754
    10  S    0.003209  -0.104371   0.108661  13.894751   0.427818   0.430119
    11  O    0.000210  -0.001028  -0.043779   0.427818   8.211095  -0.048095
    12  O   -0.000042   0.002098  -0.045754   0.430119  -0.048095   8.223898
    13  C   -0.048505   0.350334  -0.196941   0.146637  -0.044112  -0.046548
    14  C   -0.056090   0.391646  -0.046621   0.002260  -0.000073  -0.000191
    15  C    0.004191  -0.031430  -0.005858  -0.000161  -0.000001   0.000013
    16  C   -0.000058  -0.003293  -0.000337   0.000191   0.000000  -0.000051
    17  C   -0.000003   0.000685  -0.000033   0.000316   0.000000  -0.000139
    18  C    0.000000   0.000003   0.000000  -0.000010   0.000000   0.000000
    19  C    0.000000   0.000004   0.000000   0.000001   0.000000   0.000000
    20  C    0.000000  -0.000037   0.000000  -0.000004   0.000000   0.000000
    21  C   -0.000009  -0.000896   0.000002   0.000047   0.000000   0.000000
    22  H   -0.000146   0.000026  -0.000001   0.000000   0.000000   0.000000
    23  H   -0.000205  -0.000011   0.000000   0.000000   0.000000   0.000000
    24  H    0.007359  -0.000996   0.000018   0.000002   0.000000   0.000000
    25  H   -0.000072   0.000011   0.000000   0.000000   0.000000   0.000000
    26  H    0.000122   0.000002   0.000000   0.000001   0.000000   0.000000
    27  H   -0.000100   0.000001   0.000000   0.000000   0.000000   0.000000
    28  H    0.289598  -0.025104  -0.007189  -0.000098   0.000013   0.000002
    29  H    0.003687  -0.029031   0.326948  -0.003540   0.001179   0.000960
    30  H   -0.004872  -0.021822   0.339761  -0.007931  -0.000190   0.000640
    31  H    0.003196  -0.027961   0.004969  -0.004706   0.001162   0.000949
    32  H   -0.004669  -0.018781   0.008198  -0.009062  -0.000233   0.000464
    33  H   -0.004873  -0.031225   0.004897  -0.000159   0.000001   0.000001
    34  H   -0.001333  -0.040588  -0.007687   0.000021   0.000001   0.000002
    35  H   -0.000132   0.004333   0.000086   0.000020   0.000000   0.000000
    36  H    0.000073  -0.007047   0.001609  -0.000288   0.000002   0.000016
    37  H    0.000000   0.000001  -0.000065   0.000615   0.000000   0.000514
    38  H    0.000000   0.000000   0.000000  -0.000001   0.000000   0.000000
    39  H    0.000000   0.000000   0.000000   0.000000   0.000000   0.000000
    40  H    0.000000   0.000000   0.000000   0.000000   0.000000   0.000000
    41  H    0.000000   0.000196   0.000001   0.000001   0.000000   0.000000
              13         14         15         16         17         18
     1  C    0.000001   0.000330  -0.000032   0.000001   0.000000   0.000000
     2  N   -0.001062  -0.007714   0.000198   0.000016   0.000000   0.000000
     3  C    0.000027   0.000178   0.000002  -0.000001   0.000000   0.000000
     4  S   -0.002653  -0.008101   0.000173  -0.000006   0.000000   0.000000
     5  O   -0.009392  -0.000517  -0.000003  -0.000001   0.000000   0.000000
     6  O   -0.000144  -0.000098   0.000000   0.000000   0.000000   0.000000
     7  N   -0.048505  -0.056090   0.004191  -0.000058  -0.000003   0.000000
     8  C    0.350334   0.391646  -0.031430  -0.003293   0.000685   0.000003
     9  C   -0.196941  -0.046621  -0.005858  -0.000337  -0.000033   0.000000
    10  S    0.146637   0.002260  -0.000161   0.000191   0.000316  -0.000010
    11  O   -0.044112  -0.000073  -0.000001   0.000000   0.000000   0.000000
    12  O   -0.046548  -0.000191   0.000013  -0.000051  -0.000139   0.000000
    13  C    5.746999  -0.042446  -0.002326  -0.003179  -0.005300  -0.000304
    14  C   -0.042446   5.128052   0.323868  -0.033194   0.001324  -0.000177
    15  C   -0.002326   0.323868   5.204382   0.349707  -0.052161   0.007173
    16  C   -0.003179  -0.033194   0.349707   4.661142   0.542111  -0.022667
    17  C   -0.005300   0.001324  -0.052161   0.542111   4.980070   0.518681
    18  C   -0.000304  -0.000177   0.007173  -0.022667   0.518681   4.862867
    19  C    0.000045  -0.000003   0.000350  -0.034702  -0.035594   0.550884
    20  C    0.000168   0.000310   0.006224  -0.017091  -0.046196  -0.025889
    21  C    0.000517  -0.004843  -0.067516   0.542721  -0.041381  -0.046857
    22  H    0.000001   0.000291  -0.000015   0.000001   0.000000   0.000000
    23  H   -0.000001  -0.000029   0.000000   0.000000   0.000000   0.000000
    24  H    0.000029   0.001398   0.000033  -0.000001   0.000000   0.000000
    25  H   -0.000002   0.000070  -0.000004   0.000001   0.000000   0.000000
    26  H   -0.000009   0.000021  -0.000001   0.000001   0.000000   0.000000
    27  H   -0.000001  -0.000013   0.000000   0.000000   0.000000   0.000000
    28  H    0.005233  -0.001248  -0.000057   0.000003   0.000000   0.000000
    29  H    0.004623  -0.005263   0.000584   0.000151  -0.000032   0.000000
    30  H    0.009349   0.000898   0.000112  -0.000001   0.000000   0.000000
    31  H    0.319251  -0.007458  -0.001157   0.008494   0.009471   0.000728
    32  H    0.335843   0.000818   0.000036  -0.000033   0.000034   0.000001
    33  H   -0.004335   0.368607  -0.037025  -0.007071   0.000229  -0.000003
    34  H    0.005591   0.353578  -0.028331   0.004064  -0.000123   0.000002
    35  H   -0.000057  -0.033018   0.357696  -0.027605   0.000924  -0.000239
    36  H   -0.000009  -0.041021   0.361456  -0.035987  -0.004258   0.000216
    37  H   -0.000211   0.000178  -0.011377  -0.044414   0.355157  -0.042765
    38  H   -0.000004   0.000001  -0.000180   0.003703  -0.038089   0.358365
    39  H    0.000000   0.000000   0.000007   0.000724   0.004665  -0.042299
    40  H    0.000000   0.000002  -0.000184   0.003649   0.000834   0.004585
    41  H   -0.000042   0.000517  -0.009414  -0.048602   0.006105   0.000345
              19         20         21         22         23         24
     1  C    0.000000   0.000000  -0.000007   0.374322   0.375978   0.371428
     2  N    0.000000  -0.000006  -0.000148  -0.035621  -0.043281  -0.037144
     3  C    0.000000   0.000000  -0.000003  -0.004136  -0.002141   0.005082
     4  S    0.000000   0.000000   0.000000   0.002442  -0.007038   0.001234
     5  O    0.000000   0.000000   0.000000  -0.000050  -0.000046   0.000000
     6  O    0.000000   0.000000   0.000000   0.000129   0.006009  -0.002381
     7  N    0.000000   0.000000  -0.000009  -0.000146  -0.000205   0.007359
     8  C    0.000004  -0.000037  -0.000896   0.000026  -0.000011  -0.000996
     9  C    0.000000   0.000000   0.000002  -0.000001   0.000000   0.000018
    10  S    0.000001  -0.000004   0.000047   0.000000   0.000000   0.000002
    11  O    0.000000   0.000000   0.000000   0.000000   0.000000   0.000000
    12  O    0.000000   0.000000   0.000000   0.000000   0.000000   0.000000
    13  C    0.000045   0.000168   0.000517   0.000001  -0.000001   0.000029
    14  C   -0.000003   0.000310  -0.004843   0.000291  -0.000029   0.001398
    15  C    0.000350   0.006224  -0.067516  -0.000015   0.000000   0.000033
    16  C   -0.034702  -0.017091   0.542721   0.000001   0.000000  -0.000001
    17  C   -0.035594  -0.046196  -0.041381   0.000000   0.000000   0.000000
    18  C    0.550884  -0.025889  -0.046857   0.000000   0.000000   0.000000
    19  C    4.852436   0.547174  -0.035095   0.000000   0.000000   0.000000
    20  C    0.547174   4.858942   0.527332   0.000000   0.000000   0.000000
    21  C   -0.035095   0.527332   4.977155  -0.000003   0.000000   0.000002
    22  H    0.000000   0.000000  -0.000003   0.552523  -0.035492  -0.026643
    23  H    0.000000   0.000000   0.000000  -0.035492   0.548930  -0.032441
    24  H    0.000000   0.000000   0.000002  -0.026643  -0.032441   0.553627
    25  H    0.000000   0.000001  -0.000003   0.005424  -0.001733   0.000074
    26  H    0.000000   0.000003   0.000019   0.000011  -0.000187  -0.000187
    27  H    0.000000   0.000000   0.000000  -0.001376   0.008510  -0.000256
    28  H    0.000000   0.000000   0.000000   0.000010   0.000027   0.001574
    29  H    0.000000   0.000000   0.000001   0.000000   0.000000  -0.000002
    30  H    0.000000   0.000000   0.000000   0.000000   0.000000  -0.000008
    31  H   -0.000094  -0.000416  -0.000384   0.000000   0.000000   0.000000
    32  H   -0.000002  -0.000002   0.000003   0.000001   0.000000   0.000001
    33  H   -0.000001  -0.000072   0.003961  -0.000450   0.000260  -0.000989
    34  H    0.000000   0.000000   0.000256   0.000011   0.000009   0.002063
    35  H    0.000041  -0.000078  -0.004748   0.000001   0.000000  -0.000011
    36  H   -0.000004  -0.000146   0.004867   0.000000   0.000000   0.000001
    37  H    0.004675   0.000346   0.006260   0.000000   0.000000   0.000000
    38  H   -0.042474   0.004516   0.000820   0.000000   0.000000   0.000000
    39  H    0.360061  -0.042618   0.004704   0.000000   0.000000   0.000000
    40  H   -0.042181   0.357763  -0.040708   0.000000   0.000000   0.000000
    41  H    0.004821  -0.043559   0.352767   0.000047   0.000000  -0.000005
              25         26         27         28         29         30
     1  C   -0.002846   0.004537  -0.002756  -0.000192   0.000000  -0.000001
     2  N   -0.039834  -0.030490  -0.046845   0.000113   0.000002   0.000002
     3  C    0.374393   0.378882   0.371662  -0.000029   0.000000   0.000000
     4  S    0.001635  -0.004039  -0.002349  -0.005887  -0.000012  -0.000055
     5  O    0.000348   0.011239  -0.000670   0.001617   0.000000   0.000003
     6  O   -0.000111  -0.000080   0.002287   0.002309   0.000000  -0.000015
     7  N   -0.000072   0.000122  -0.000100   0.289598   0.003687  -0.004872
     8  C    0.000011   0.000002   0.000001  -0.025104  -0.029031  -0.021822
     9  C    0.000000   0.000000   0.000000  -0.007189   0.326948   0.339761
    10  S    0.000000   0.000001   0.000000  -0.000098  -0.003540  -0.007931
    11  O    0.000000   0.000000   0.000000   0.000013   0.001179  -0.000190
    12  O    0.000000   0.000000   0.000000   0.000002   0.000960   0.000640
    13  C   -0.000002  -0.000009  -0.000001   0.005233   0.004623   0.009349
    14  C    0.000070   0.000021  -0.000013  -0.001248  -0.005263   0.000898
    15  C   -0.000004  -0.000001   0.000000  -0.000057   0.000584   0.000112
    16  C    0.000001   0.000001   0.000000   0.000003   0.000151  -0.000001
    17  C    0.000000   0.000000   0.000000   0.000000  -0.000032   0.000000
    18  C    0.000000   0.000000   0.000000   0.000000   0.000000   0.000000
    19  C    0.000000   0.000000   0.000000   0.000000   0.000000   0.000000
    20  C    0.000001   0.000003   0.000000   0.000000   0.000000   0.000000
    21  C   -0.000003   0.000019   0.000000   0.000000   0.000001   0.000000
    22  H    0.005424   0.000011  -0.001376   0.000010   0.000000   0.000000
    23  H   -0.001733  -0.000187   0.008510   0.000027   0.000000   0.000000
    24  H    0.000074  -0.000187  -0.000256   0.001574  -0.000002  -0.000008
    25  H    0.563877  -0.021169  -0.041560  -0.000002   0.000000   0.000000
    26  H   -0.021169   0.480417  -0.029398  -0.000006   0.000000   0.000000
    27  H   -0.041560  -0.029398   0.575347   0.000003   0.000000   0.000000
    28  H   -0.000002  -0.000006   0.000003   0.377271   0.000044   0.004541
    29  H    0.000000   0.000000   0.000000   0.000044   0.506155  -0.019515
    30  H    0.000000   0.000000   0.000000   0.004541  -0.019515   0.491706
    31  H    0.000000   0.000000   0.000000  -0.000086   0.000117  -0.000230
    32  H    0.000000   0.000088  -0.000002   0.000016  -0.000224  -0.000258
    33  H   -0.000285  -0.000065   0.000065  -0.000415   0.000213  -0.000081
    34  H   -0.000002  -0.000001   0.000000   0.003840   0.000426   0.000573
    35  H    0.000000   0.000000   0.000000   0.000000  -0.000182  -0.000003
    36  H    0.000000   0.000000   0.000000   0.000000   0.007558  -0.000010
    37  H    0.000000   0.000000   0.000000   0.000000   0.000038   0.000001
    38  H    0.000000   0.000000   0.000000   0.000000   0.000000   0.000000
    39  H    0.000000   0.000000   0.000000   0.000000   0.000000   0.000000
    40  H    0.000000   0.000001   0.000000   0.000000   0.000000   0.000000
    41  H    0.000120  -0.000005   0.000001   0.000000   0.000000   0.000000
              31         32         33         34         35         36
     1  C    0.000001  -0.000005  -0.002237  -0.000314   0.000005   0.000000
     2  N   -0.000013  -0.000153   0.013256   0.000073   0.000001  -0.000004
     3  C    0.000000  -0.000023  -0.000153   0.000001   0.000000   0.000000
     4  S    0.000034  -0.000138   0.001904  -0.000522  -0.000007   0.000003
     5  O    0.000191   0.020781  -0.000151   0.000006   0.000000   0.000000
     6  O    0.000000   0.000005   0.000004  -0.000003   0.000000   0.000000
     7  N    0.003196  -0.004669  -0.004873  -0.001333  -0.000132   0.000073
     8  C   -0.027961  -0.018781  -0.031225  -0.040588   0.004333  -0.007047
     9  C    0.004969   0.008198   0.004897  -0.007687   0.000086   0.001609
    10  S   -0.004706  -0.009062  -0.000159   0.000021   0.000020  -0.000288
    11  O    0.001162  -0.000233   0.000001   0.000001   0.000000   0.000002
    12  O    0.000949   0.000464   0.000001   0.000002   0.000000   0.000016
    13  C    0.319251   0.335843  -0.004335   0.005591  -0.000057  -0.000009
    14  C   -0.007458   0.000818   0.368607   0.353578  -0.033018  -0.041021
    15  C   -0.001157   0.000036  -0.037025  -0.028331   0.357696   0.361456
    16  C    0.008494  -0.000033  -0.007071   0.004064  -0.027605  -0.035987
    17  C    0.009471   0.000034   0.000229  -0.000123   0.000924  -0.004258
    18  C    0.000728   0.000001  -0.000003   0.000002  -0.000239   0.000216
    19  C   -0.000094  -0.000002  -0.000001   0.000000   0.000041  -0.000004
    20  C   -0.000416  -0.000002  -0.000072   0.000000  -0.000078  -0.000146
    21  C   -0.000384   0.000003   0.003961   0.000256  -0.004748   0.004867
    22  H    0.000000   0.000001  -0.000450   0.000011   0.000001   0.000000
    23  H    0.000000   0.000000   0.000260   0.000009   0.000000   0.000000
    24  H    0.000000   0.000001  -0.000989   0.002063  -0.000011   0.000001
    25  H    0.000000   0.000000  -0.000285  -0.000002   0.000000   0.000000
    26  H    0.000000   0.000088  -0.000065  -0.000001   0.000000   0.000000
    27  H    0.000000  -0.000002   0.000065   0.000000   0.000000   0.000000
    28  H   -0.000086   0.000016  -0.000415   0.003840   0.000000   0.000000
    29  H    0.000117  -0.000224   0.000213   0.000426  -0.000182   0.007558
    30  H   -0.000230  -0.000258  -0.000081   0.000573  -0.000003  -0.000010
    31  H    0.486472  -0.013149   0.000317   0.000108   0.000182  -0.000027
    32  H   -0.013149   0.411787   0.000261  -0.000084   0.000000   0.000002
    33  H    0.000317   0.000261   0.528043  -0.034982  -0.000346   0.004409
    34  H    0.000108  -0.000084  -0.034982   0.621610  -0.006671  -0.000569
    35  H    0.000182   0.000000  -0.000346  -0.006671   0.576188  -0.032986
    36  H   -0.000027   0.000002   0.004409  -0.000569  -0.032986   0.583427
    37  H    0.000105   0.000003   0.000009  -0.000008   0.000175   0.007686
    38  H    0.000017   0.000000   0.000000   0.000000   0.000003  -0.000010
    39  H   -0.000001   0.000000   0.000000   0.000000   0.000000   0.000000
    40  H    0.000000   0.000000   0.000008   0.000000  -0.000001   0.000003
    41  H    0.000043  -0.000004   0.005380  -0.000178   0.001615   0.000012
              37         38         39         40         41
     1  C    0.000000   0.000000   0.000000   0.000000   0.000004
     2  N    0.000000   0.000000   0.000000   0.000000   0.000282
     3  C    0.000000   0.000000   0.000000   0.000000   0.000092
     4  S    0.000000   0.000000   0.000000   0.000000   0.000031
     5  O    0.000000   0.000000   0.000000   0.000000  -0.000001
     6  O    0.000000   0.000000   0.000000   0.000000   0.000000
     7  N    0.000000   0.000000   0.000000   0.000000   0.000000
     8  C    0.000001   0.000000   0.000000   0.000000   0.000196
     9  C   -0.000065   0.000000   0.000000   0.000000   0.000001
    10  S    0.000615  -0.000001   0.000000   0.000000   0.000001
    11  O    0.000000   0.000000   0.000000   0.000000   0.000000
    12  O    0.000514   0.000000   0.000000   0.000000   0.000000
    13  C   -0.000211  -0.000004   0.000000   0.000000  -0.000042
    14  C    0.000178   0.000001   0.000000   0.000002   0.000517
    15  C   -0.011377  -0.000180   0.000007  -0.000184  -0.009414
    16  C   -0.044414   0.003703   0.000724   0.003649  -0.048602
    17  C    0.355157  -0.038089   0.004665   0.000834   0.006105
    18  C   -0.042765   0.358365  -0.042299   0.004585   0.000345
    19  C    0.004675  -0.042474   0.360061  -0.042181   0.004821
    20  C    0.000346   0.004516  -0.042618   0.357763  -0.043559
    21  C    0.006260   0.000820   0.004704  -0.040708   0.352767
    22  H    0.000000   0.000000   0.000000   0.000000   0.000047
    23  H    0.000000   0.000000   0.000000   0.000000   0.000000
    24  H    0.000000   0.000000   0.000000   0.000000  -0.000005
    25  H    0.000000   0.000000   0.000000   0.000000   0.000120
    26  H    0.000000   0.000000   0.000000   0.000001  -0.000005
    27  H    0.000000   0.000000   0.000000   0.000000   0.000001
    28  H    0.000000   0.000000   0.000000   0.000000   0.000000
    29  H    0.000038   0.000000   0.000000   0.000000   0.000000
    30  H    0.000001   0.000000   0.000000   0.000000   0.000000
    31  H    0.000105   0.000017  -0.000001   0.000000   0.000043
    32  H    0.000003   0.000000   0.000000   0.000000  -0.000004
    33  H    0.000009   0.000000   0.000000   0.000008   0.005380
    34  H   -0.000008   0.000000   0.000000   0.000000  -0.000178
    35  H    0.000175   0.000003   0.000000  -0.000001   0.001615
    36  H    0.007686  -0.000010   0.000000   0.000003   0.000012
    37  H    0.586494  -0.005336  -0.000171   0.000017  -0.000179
    38  H   -0.005336   0.583295  -0.005396  -0.000184   0.000017
    39  H   -0.000171  -0.005396   0.589858  -0.005436  -0.000181
    40  H    0.000017  -0.000184  -0.005436   0.594682  -0.005653
    41  H   -0.000179   0.000017  -0.000181  -0.005653   0.611762
 Mulliken charges:
               1
     1  C   -0.316312
     2  N   -0.522406
     3  C   -0.320761
     4  S    1.319736
     5  O   -0.544259
     6  O   -0.524201
     7  N   -0.689294
     8  C    0.156990
     9  C   -0.501259
    10  S    1.114982
    11  O   -0.504869
    12  O   -0.518859
    13  C   -0.517066
    14  C   -0.286228
    15  C   -0.368974
    16  C    0.161614
    17  C   -0.197297
    18  C   -0.122640
    19  C   -0.130342
    20  C   -0.126664
    21  C   -0.178833
    22  H    0.168693
    23  H    0.182881
    24  H    0.157142
    25  H    0.161669
    26  H    0.210293
    27  H    0.167451
    28  H    0.354101
    29  H    0.205114
    30  H    0.207407
    31  H    0.219875
    32  H    0.268481
    33  H    0.193092
    34  H    0.129160
    35  H    0.164814
    36  H    0.151028
    37  H    0.142251
    38  H    0.140939
    39  H    0.136083
    40  H    0.132803
    41  H    0.123663
 Sum of Mulliken charges =   0.00000
 Mulliken charges with hydrogens summed into heavy atoms:
               1
     1  C    0.192405
     2  N   -0.522406
     3  C    0.218652
     4  S    1.319736
     5  O   -0.544259
     6  O   -0.524201
     7  N   -0.335192
     8  C    0.156990
     9  C   -0.088738
    10  S    1.114982
    11  O   -0.504869
    12  O   -0.518859
    13  C   -0.028709
    14  C    0.036024
    15  C   -0.053132
    16  C    0.161614
    17  C   -0.055046
    18  C    0.018299
    19  C    0.005740
    20  C    0.006139
    21  C   -0.055169
 Electronic spatial extent (au):  <R**2>=           7217.6368
 Charge=              0.0000 electrons
 Dipole moment (field-independent basis, Debye):
    X=              1.8023    Y=             -7.3484    Z=              5.7812  Tot=              9.5221
 Quadrupole moment (field-independent basis, Debye-Ang):
   XX=           -147.9660   YY=           -147.4944   ZZ=           -133.0094
   XY=              5.4368   XZ=            -12.2284   YZ=             12.0832
 Traceless Quadrupole moment (field-independent basis, Debye-Ang):
   XX=             -5.1427   YY=             -4.6712   ZZ=              9.8139
   XY=              5.4368   XZ=            -12.2284   YZ=             12.0832
 Octapole moment (field-independent basis, Debye-Ang**2):
  XXX=             43.1151  YYY=           -108.8896  ZZZ=              7.2538  XYY=            -45.7858
  XXY=            -25.5423  XXZ=             -0.0310  XZZ=             -9.3754  YZZ=              5.4433
  YYZ=             21.4790  XYZ=              5.5378
 Hexadecapole moment (field-independent basis, Debye-Ang**3):
 XXXX=          -5245.2555 YYYY=          -3543.2764 ZZZZ=           -978.0858 XXXY=            111.2585
 XXXZ=           -167.7361 YYYX=             28.2039 YYYZ=            133.3691 ZZZX=            -20.1311
 ZZZY=              1.6907 XXYY=          -1396.0315 XXZZ=           -977.4864 YYZZ=           -689.1588
 XXYZ=             66.5839 YYXZ=            -35.1878 ZZXY=             11.0287
 N-N= 2.215692187753D+03 E-N=-8.457024622901D+03  KE= 1.702465517165D+03
 No NMR shielding tensors so no spin-rotation constants.
 Leave Link  601 at Thu Oct  1 21:39:09 2020, MaxMem=  2147483648 cpu:         0.4
 (Enter /prod/apps/gaussian/g09d1/l9999.exe)
 1\1\GINC-PIRINEUS36\SP\RB3LYP\6-31G(d)\C13H20N2O4S2\UBAFAR01\01-Oct-20
 20\0\\#p b3lyp/6-31G(d)\\SM40.n.6.pdb.xyz\\0,1\C,0,6.105,0.762,-0.405\
 N,0,5.707,0.063,0.827\C,0,5.95,0.855,2.048\S,0,4.175,-0.643,0.748\O,0,
 3.874,-1.095,2.11\O,0,3.215,0.228,0.055\N,0,4.299,-1.976,-0.241\C,0,5.
 175,-3.156,-0.037\C,0,4.557,-4.283,-0.928\S,0,3.714,-4.981,0.532\O,0,2
 .306,-4.547,0.629\O,0,4.019,-6.405,0.776\C,0,4.866,-3.823,1.346\C,0,6.
 649,-2.842,-0.357\C,0,7.678,-3.977,-0.192\C,0,8.172,-4.227,1.219\C,0,8
 .143,-5.516,1.769\C,0,8.626,-5.762,3.056\C,0,9.151,-4.716,3.817\C,0,9.
 188,-3.426,3.281\C,0,8.704,-3.186,1.995\H,0,7.171,0.981,-0.326\H,0,5.5
 53,1.697,-0.55\H,0,5.953,0.116,-1.27\H,0,7.018,1.081,2.072\H,0,5.688,0
 .263,2.922\H,0,5.388,1.797,2.056\H,0,4.209,-1.698,-1.219\H,0,5.295,-4.
 996,-1.295\H,0,3.892,-3.965,-1.729\H,0,5.709,-4.384,1.75\H,0,4.412,-3.
 181,2.096\H,0,6.949,-1.986,0.251\H,0,6.671,-2.507,-1.4\H,0,8.539,-3.70
 9,-0.818\H,0,7.295,-4.914,-0.609\H,0,7.733,-6.331,1.179\H,0,8.591,-6.7
 68,3.461\H,0,9.527,-4.902,4.818\H,0,9.595,-2.607,3.864\H,0,8.739,-2.18
 ,1.588\\Version=AM64L-G09RevD.01\State=1-A\HF=-1714.0298519\RMSD=9.264
 e-09\Dipole=3.3265333,1.3292589,-1.0962929\Quadrupole=-14.5271076,0.30
 70023,14.2201053,1.1580345,3.4083311,-0.1674519\PG=C01 [X(C13H20N2O4S2
 )]\\@


  THE LARGE PRINT GIVETH,
  AND THE SMALL PRINT TAKETH AWAY.

                     -- TOM WAITS
 Job cpu time:       0 days  0 hours  6 minutes 46.7 seconds.
 File lengths (MBytes):  RWF=     73 Int=      0 D2E=      0 Chk=      6 Scr=      1
 Normal termination of Gaussian 09 at Thu Oct  1 21:39:09 2020.
 Initial command:
 /prod/apps/gaussian/g09d1/l1.exe "/tmp/ubafar01/1462867/Gau-60887.inp" -scrdir="/tmp/ubafar01/1462867/"
 Entering Link 1 = /prod/apps/gaussian/g09d1/l1.exe PID=     61162.
  
 Copyright (c) 1988,1990,1992,1993,1995,1998,2003,2009,2013,
            Gaussian, Inc.  All Rights Reserved.
  
 This is part of the Gaussian(R) 09 program.  It is based on
 the Gaussian(R) 03 system (copyright 2003, Gaussian, Inc.),
 the Gaussian(R) 98 system (copyright 1998, Gaussian, Inc.),
 the Gaussian(R) 94 system (copyright 1995, Gaussian, Inc.),
 the Gaussian 92(TM) system (copyright 1992, Gaussian, Inc.),
 the Gaussian 90(TM) system (copyright 1990, Gaussian, Inc.),
[...]
     9  C   -0.187228  -0.043619  -0.005967  -0.000326  -0.000043   0.000000
    10  S    0.152236   0.002643  -0.000042   0.000219   0.000365  -0.000013
    11  O   -0.044280  -0.000081  -0.000001   0.000000   0.000000   0.000000
    12  O   -0.046143  -0.000194   0.000017  -0.000048  -0.000132   0.000000
    13  C    5.737403  -0.041786  -0.002426  -0.003516  -0.005551  -0.000322
    14  C   -0.041786   5.106566   0.327515  -0.033089   0.001334  -0.000185
    15  C   -0.002426   0.327515   5.190635   0.349322  -0.052004   0.007041
    16  C   -0.003516  -0.033089   0.349322   4.679449   0.539732  -0.024254
    17  C   -0.005551   0.001334  -0.052004   0.539732   5.001224   0.513572
    18  C   -0.000322  -0.000185   0.007041  -0.024254   0.513572   4.893936
    19  C    0.000048  -0.000002   0.000323  -0.034628  -0.037824   0.546843
    20  C    0.000176   0.000308   0.005967  -0.019796  -0.045648  -0.028771
    21  C    0.000497  -0.004784  -0.066104   0.539737  -0.043537  -0.046486
    22  H    0.000001   0.000251  -0.000014   0.000001   0.000000   0.000000
    23  H   -0.000001  -0.000028   0.000000   0.000000   0.000000   0.000000
    24  H    0.000025   0.001475   0.000026  -0.000001   0.000000   0.000000
    25  H   -0.000002   0.000063  -0.000004   0.000001   0.000000   0.000000
    26  H   -0.000008   0.000022  -0.000001   0.000001   0.000000   0.000000
    27  H   -0.000001  -0.000012   0.000000   0.000000   0.000000   0.000000
    28  H    0.004376  -0.000755  -0.000043   0.000002   0.000000   0.000000
    29  H    0.004608  -0.005472   0.001281   0.000094  -0.000024   0.000000
    30  H    0.008704   0.000695   0.000095  -0.000001   0.000000   0.000000
    31  H    0.321358  -0.007222  -0.001106   0.009090   0.010633   0.000811
    32  H    0.334402   0.000901   0.000032  -0.000033   0.000030   0.000002
    33  H   -0.004292   0.369492  -0.036434  -0.007777   0.000216   0.000000
    34  H    0.005268   0.364945  -0.026604   0.003849  -0.000112   0.000002
    35  H   -0.000063  -0.030603   0.362024  -0.027298   0.001012  -0.000235
    36  H   -0.000049  -0.040683   0.364592  -0.038474  -0.004229   0.000275
    37  H   -0.000232   0.000166  -0.010765  -0.043962   0.357419  -0.043750
    38  H   -0.000004   0.000001  -0.000169   0.003714  -0.038339   0.361046
    39  H    0.000000   0.000000   0.000007   0.000638   0.004607  -0.042038
    40  H    0.000000   0.000002  -0.000172   0.003569   0.000757   0.004516
    41  H   -0.000039   0.000498  -0.008560  -0.045989   0.005857   0.000304
              19         20         21         22         23         24
     1  C    0.000000   0.000000  -0.000007   0.378350   0.376390   0.374166
     2  N    0.000000  -0.000005  -0.000136  -0.033323  -0.043785  -0.035972
     3  C    0.000000   0.000000  -0.000002  -0.004087  -0.002292   0.004759
     4  S    0.000000   0.000000   0.000000   0.002368  -0.008485   0.002116
     5  O    0.000000   0.000000   0.000000  -0.000049  -0.000046   0.000001
     6  O    0.000000   0.000000   0.000000   0.000110   0.005994  -0.002319
     7  N    0.000000   0.000000  -0.000011  -0.000134  -0.000223   0.006532
     8  C    0.000003  -0.000038  -0.000918   0.000026  -0.000005  -0.000972
     9  C    0.000000   0.000001   0.000007  -0.000001   0.000000   0.000016
    10  S    0.000001  -0.000004   0.000046   0.000000   0.000000   0.000001
    11  O    0.000000   0.000000   0.000000   0.000000   0.000000   0.000000
    12  O    0.000000   0.000000   0.000000   0.000000   0.000000   0.000000
    13  C    0.000048   0.000176   0.000497   0.000001  -0.000001   0.000025
    14  C   -0.000002   0.000308  -0.004784   0.000251  -0.000028   0.001475
    15  C    0.000323   0.005967  -0.066104  -0.000014   0.000000   0.000026
    16  C   -0.034628  -0.019796   0.539737   0.000001   0.000000  -0.000001
    17  C   -0.037824  -0.045648  -0.043537   0.000000   0.000000   0.000000
    18  C    0.546843  -0.028771  -0.046486   0.000000   0.000000   0.000000
    19  C    4.882637   0.542576  -0.037499   0.000000   0.000000   0.000000
    20  C    0.542576   4.886135   0.523959   0.000000   0.000000   0.000000
    21  C   -0.037499   0.523959   4.994576  -0.000003   0.000000   0.000001
    22  H    0.000000   0.000000  -0.000003   0.518304  -0.032811  -0.023822
    23  H    0.000000   0.000000   0.000000  -0.032811   0.551376  -0.031436
    24  H    0.000000   0.000000   0.000001  -0.023822  -0.031436   0.521062
    25  H    0.000000   0.000001  -0.000002   0.004912  -0.001612   0.000067
    26  H    0.000000   0.000003   0.000019   0.000026  -0.000174  -0.000186
    27  H    0.000000   0.000000   0.000000  -0.001258   0.008146  -0.000225
    28  H    0.000000   0.000000   0.000000   0.000004   0.000030   0.001167
    29  H    0.000000   0.000000   0.000002   0.000000   0.000000  -0.000002
    30  H    0.000000   0.000000   0.000000   0.000000   0.000000  -0.000006
    31  H   -0.000117  -0.000433  -0.000275   0.000000   0.000000   0.000000
    32  H   -0.000002  -0.000002   0.000001   0.000001  -0.000001   0.000001
    33  H   -0.000002  -0.000062   0.004577  -0.000397   0.000240  -0.000909
    34  H    0.000000   0.000001   0.000232   0.000007   0.000009   0.001706
    35  H    0.000039  -0.000073  -0.004862   0.000001   0.000000  -0.000009
    36  H   -0.000006  -0.000146   0.004868   0.000000   0.000000   0.000001
    37  H    0.004697   0.000266   0.006285   0.000000   0.000000   0.000000
    38  H   -0.041963   0.004513   0.000710   0.000000   0.000000   0.000000
    39  H    0.363287  -0.041812   0.004642   0.000000   0.000000   0.000000
    40  H   -0.041728   0.361501  -0.039213   0.000000   0.000000   0.000000
    41  H    0.004634  -0.042001   0.357490   0.000042   0.000000  -0.000004
              25         26         27         28         29         30
     1  C   -0.002505   0.004473  -0.002295  -0.000102   0.000000  -0.000001
     2  N   -0.037284  -0.031937  -0.046498  -0.000007   0.000002   0.000001
     3  C    0.378958   0.377888   0.372153  -0.000018   0.000000   0.000000
     4  S    0.001642  -0.004460  -0.003058  -0.005124  -0.000009   0.000046
     5  O    0.000309   0.010482  -0.000625   0.001272   0.000000   0.000003
     6  O   -0.000108  -0.000078   0.002243   0.001595   0.000000  -0.000014
     7  N   -0.000075   0.000125  -0.000100   0.291340   0.003488  -0.003638
     8  C    0.000009  -0.000003   0.000001  -0.020420  -0.028052  -0.021752
     9  C    0.000000   0.000000   0.000000  -0.006274   0.333251   0.344908
    10  S    0.000000   0.000001   0.000000  -0.000173  -0.005493  -0.009427
    11  O    0.000000   0.000000   0.000000  -0.000005   0.001135  -0.000274
    12  O    0.000000   0.000000   0.000000   0.000001   0.000751   0.000633
    13  C   -0.000002  -0.000008  -0.000001   0.004376   0.004608   0.008704
    14  C    0.000063   0.000022  -0.000012  -0.000755  -0.005472   0.000695
    15  C   -0.000004  -0.000001   0.000000  -0.000043   0.001281   0.000095
    16  C    0.000001   0.000001   0.000000   0.000002   0.000094  -0.000001
    17  C    0.000000   0.000000   0.000000   0.000000  -0.000024   0.000000
    18  C    0.000000   0.000000   0.000000   0.000000   0.000000   0.000000
    19  C    0.000000   0.000000   0.000000   0.000000   0.000000   0.000000
    20  C    0.000001   0.000003   0.000000   0.000000   0.000000   0.000000
    21  C   -0.000002   0.000019   0.000000   0.000000   0.000002   0.000000
    22  H    0.004912   0.000026  -0.001258   0.000004   0.000000   0.000000
    23  H   -0.001612  -0.000174   0.008146   0.000030   0.000000   0.000000
    24  H    0.000067  -0.000186  -0.000225   0.001167  -0.000002  -0.000006
    25  H    0.528086  -0.020477  -0.037916  -0.000001   0.000000   0.000000
    26  H   -0.020477   0.496887  -0.030686  -0.000005   0.000000   0.000000
    27  H   -0.037916  -0.030686   0.569178   0.000002   0.000000   0.000000
    28  H   -0.000001  -0.000005   0.000002   0.310758   0.000061   0.003526
    29  H    0.000000   0.000000   0.000000   0.000061   0.469917  -0.013994
    30  H    0.000000   0.000000   0.000000   0.003526  -0.013994   0.451907
    31  H    0.000000   0.000000   0.000000  -0.000066   0.000103  -0.000200
    32  H    0.000000   0.000089  -0.000002   0.000028  -0.000212  -0.000264
    33  H   -0.000251  -0.000063   0.000058  -0.000365   0.000186  -0.000064
    34  H   -0.000002   0.000000   0.000000   0.002898   0.000389   0.000460
    35  H    0.000000   0.000000   0.000000   0.000000  -0.000173  -0.000002
    36  H    0.000000   0.000000   0.000000  -0.000002   0.007175   0.000009
    37  H    0.000000   0.000000   0.000000   0.000000   0.000039   0.000001
    38  H    0.000000   0.000000   0.000000   0.000000   0.000000   0.000000
    39  H    0.000000   0.000000   0.000000   0.000000   0.000000   0.000000
    40  H    0.000000   0.000001   0.000000   0.000000   0.000000   0.000000
    41  H    0.000107  -0.000004   0.000001   0.000000   0.000000   0.000000
              31         32         33         34         35         36
     1  C    0.000001  -0.000004  -0.002438  -0.000176   0.000004   0.000000
     2  N   -0.000014  -0.000195   0.011796   0.000061   0.000001  -0.000004
     3  C    0.000000  -0.000020  -0.000170   0.000001   0.000000   0.000000
     4  S    0.000048   0.000004   0.002144  -0.000500  -0.000007   0.000002
     5  O    0.000183   0.021074  -0.000153   0.000006   0.000000   0.000000
     6  O    0.000000   0.000001   0.000003  -0.000002   0.000000   0.000000
     7  N    0.003125  -0.005111  -0.005165  -0.001360  -0.000124   0.000064
     8  C   -0.027332  -0.019944  -0.033001  -0.038365   0.004188  -0.007343
     9  C    0.004475   0.008305   0.004818  -0.007388   0.000097   0.001919
    10  S   -0.004737  -0.008995  -0.000193  -0.000034   0.000017  -0.000304
    11  O    0.001128  -0.000195   0.000001   0.000001   0.000000   0.000002
    12  O    0.000725   0.000505   0.000001   0.000002   0.000000   0.000005
    13  C    0.321358   0.334402  -0.004292   0.005268  -0.000063  -0.000049
    14  C   -0.007222   0.000901   0.369492   0.364945  -0.030603  -0.040683
    15  C   -0.001106   0.000032  -0.036434  -0.026604   0.362024   0.364592
    16  C    0.009090  -0.000033  -0.007777   0.003849  -0.027298  -0.038474
    17  C    0.010633   0.000030   0.000216  -0.000112   0.001012  -0.004229
    18  C    0.000811   0.000002   0.000000   0.000002  -0.000235   0.000275
    19  C   -0.000117  -0.000002  -0.000002   0.000000   0.000039  -0.000006
    20  C   -0.000433  -0.000002  -0.000062   0.000001  -0.000073  -0.000146
    21  C   -0.000275   0.000001   0.004577   0.000232  -0.004862   0.004868
    22  H    0.000000   0.000001  -0.000397   0.000007   0.000001   0.000000
    23  H    0.000000  -0.000001   0.000240   0.000009   0.000000   0.000000
    24  H    0.000000   0.000001  -0.000909   0.001706  -0.000009   0.000001
    25  H    0.000000   0.000000  -0.000251  -0.000002   0.000000   0.000000
    26  H    0.000000   0.000089  -0.000063   0.000000   0.000000   0.000000
    27  H    0.000000  -0.000002   0.000058   0.000000   0.000000   0.000000
    28  H   -0.000066   0.000028  -0.000365   0.002898   0.000000  -0.000002
    29  H    0.000103  -0.000212   0.000186   0.000389  -0.000173   0.007175
    30  H   -0.000200  -0.000264  -0.000064   0.000460  -0.000002   0.000009
    31  H    0.473974  -0.011688   0.000312   0.000103   0.000165   0.000026
    32  H   -0.011688   0.421526   0.000271  -0.000078   0.000000   0.000003
    33  H    0.000312   0.000271   0.525296  -0.031890  -0.000324   0.004352
    34  H    0.000103  -0.000078  -0.031890   0.566526  -0.006412  -0.000597
    35  H    0.000165   0.000000  -0.000324  -0.006412   0.550434  -0.030570
    36  H    0.000026   0.000003   0.004352  -0.000597  -0.030570   0.571516
    37  H    0.000150   0.000003   0.000010  -0.000008   0.000165   0.007269
    38  H    0.000017   0.000000   0.000000   0.000000   0.000003  -0.000009
    39  H   -0.000001   0.000000   0.000000   0.000000   0.000000   0.000000
    40  H    0.000000   0.000000   0.000009   0.000000   0.000000   0.000003
    41  H    0.000039  -0.000004   0.005107  -0.000154   0.001457   0.000012
              37         38         39         40         41
     1  C    0.000000   0.000000   0.000000   0.000000   0.000006
     2  N    0.000000   0.000000   0.000000   0.000000   0.000267
     3  C    0.000000   0.000000   0.000000   0.000000   0.000094
     4  S    0.000000   0.000000   0.000000   0.000000   0.000033
     5  O    0.000000   0.000000   0.000000   0.000000  -0.000001
     6  O    0.000000   0.000000   0.000000   0.000000   0.000000
     7  N    0.000000   0.000000   0.000000   0.000000   0.000000
     8  C    0.000007   0.000000   0.000000   0.000000   0.000164
     9  C   -0.000070   0.000000   0.000000   0.000000   0.000001
    10  S    0.000593  -0.000001   0.000000   0.000000   0.000000
    11  O    0.000000   0.000000   0.000000   0.000000   0.000000
    12  O    0.000478   0.000000   0.000000   0.000000   0.000000
    13  C   -0.000232  -0.000004   0.000000   0.000000  -0.000039
    14  C    0.000166   0.000001   0.000000   0.000002   0.000498
    15  C   -0.010765  -0.000169   0.000007  -0.000172  -0.008560
    16  C   -0.043962   0.003714   0.000638   0.003569  -0.045989
    17  C    0.357419  -0.038339   0.004607   0.000757   0.005857
    18  C   -0.043750   0.361046  -0.042038   0.004516   0.000304
    19  C    0.004697  -0.041963   0.363287  -0.041728   0.004634
    20  C    0.000266   0.004513  -0.041812   0.361501  -0.042001
    21  C    0.006285   0.000710   0.004642  -0.039213   0.357490
    22  H    0.000000   0.000000   0.000000   0.000000   0.000042
    23  H    0.000000   0.000000   0.000000   0.000000   0.000000
    24  H    0.000000   0.000000   0.000000   0.000000  -0.000004
    25  H    0.000000   0.000000   0.000000   0.000000   0.000107
    26  H    0.000000   0.000000   0.000000   0.000001  -0.000004
    27  H    0.000000   0.000000   0.000000   0.000000   0.000001
    28  H    0.000000   0.000000   0.000000   0.000000   0.000000
    29  H    0.000039   0.000000   0.000000   0.000000   0.000000
    30  H    0.000001   0.000000   0.000000   0.000000   0.000000
    31  H    0.000150   0.000017  -0.000001   0.000000   0.000039
    32  H    0.000003   0.000000   0.000000   0.000000  -0.000004
    33  H    0.000010   0.000000   0.000000   0.000009   0.005107
    34  H   -0.000008   0.000000   0.000000   0.000000  -0.000154
    35  H    0.000165   0.000003   0.000000   0.000000   0.001457
    36  H    0.007269  -0.000009   0.000000   0.000003   0.000012
    37  H    0.578897  -0.005215  -0.000163   0.000016  -0.000167
    38  H   -0.005215   0.569112  -0.005206  -0.000172   0.000016
    39  H   -0.000163  -0.005206   0.570933  -0.005167  -0.000167
    40  H    0.000016  -0.000172  -0.005167   0.569927  -0.005223
    41  H   -0.000167   0.000016  -0.000167  -0.005223   0.577755
 Mulliken charges:
               1
     1  C   -0.329129
     2  N   -0.522058
     3  C   -0.322540
     4  S    1.308140
     5  O   -0.576260
     6  O   -0.564318
     7  N   -0.716888
     8  C    0.155289
     9  C   -0.490205
    10  S    1.107367
    11  O   -0.561909
    12  O   -0.560975
    13  C   -0.507929
    14  C   -0.290180
    15  C   -0.371500
    16  C    0.153142
    17  C   -0.210012
    18  C   -0.142296
    19  C   -0.151318
    20  C   -0.146615
    21  C   -0.193810
    22  H    0.191496
    23  H    0.178713
    24  H    0.182741
    25  H    0.186083
    26  H    0.198067
    27  H    0.170892
    28  H    0.416299
    29  H    0.230947
    30  H    0.238650
    31  H    0.226730
    32  H    0.259573
    33  H    0.195062
    34  H    0.167219
    35  H    0.181147
    36  H    0.160322
    37  H    0.147873
    38  H    0.151947
    39  H    0.150439
    40  H    0.151377
    41  H    0.148429
 Sum of Mulliken charges =   0.00000
 Mulliken charges with hydrogens summed into heavy atoms:
               1
     1  C    0.223820
     2  N   -0.522058
     3  C    0.232502
     4  S    1.308140
     5  O   -0.576260
     6  O   -0.564318
     7  N   -0.300589
     8  C    0.155289
     9  C   -0.020608
    10  S    1.107367
    11  O   -0.561909
    12  O   -0.560975
    13  C   -0.021627
    14  C    0.072101
    15  C   -0.030031
    16  C    0.153142
    17  C   -0.062140
    18  C    0.009651
    19  C   -0.000879
    20  C    0.004762
    21  C   -0.045380
 Electronic spatial extent (au):  <R**2>=           7219.8449
 Charge=              0.0000 electrons
 Dipole moment (field-independent basis, Debye):
    X=              1.8761    Y=             -9.0896    Z=              8.3869  Tot=             12.5092
 Quadrupole moment (field-independent basis, Debye-Ang):
   XX=           -152.1654   YY=           -148.8135   ZZ=           -130.4609
   XY=              6.5643   XZ=            -14.9715   YZ=             14.2232
 Traceless Quadrupole moment (field-independent basis, Debye-Ang):
   XX=             -8.3521   YY=             -5.0003   ZZ=             13.3524
   XY=              6.5643   XZ=            -14.9715   YZ=             14.2232
 Octapole moment (field-independent basis, Debye-Ang**2):
  XXX=             50.8417  YYY=           -141.8462  ZZZ=             21.1358  XYY=            -51.3351
  XXY=            -30.6367  XXZ=              9.1991  XZZ=             -8.7204  YZZ=              3.9800
  YYZ=             32.5867  XYZ=              6.0628
 Hexadecapole moment (field-independent basis, Debye-Ang**3):
 XXXX=          -5328.1586 YYYY=          -3577.4425 ZZZZ=           -955.2885 XXXY=            122.9899
 XXXZ=           -194.2238 YYYX=             36.1163 YYYZ=            162.3609 ZZZX=            -31.2058
 ZZZY=              6.7466 XXYY=          -1394.8051 XXZZ=           -971.0843 YYZZ=           -681.7249
 XXYZ=             70.6832 YYXZ=            -44.1865 ZZXY=             11.9076
 N-N= 2.215695738641D+03 E-N=-8.457343357705D+03  KE= 1.702488538746D+03
 No NMR shielding tensors so no spin-rotation constants.
 Leave Link  601 at Thu Oct  1 21:44:21 2020, MaxMem=  2147483648 cpu:         0.4
 (Enter /prod/apps/gaussian/g09d1/l9999.exe)
 1\1\GINC-PIRINEUS36\SP\RB3LYP\6-31G(d)\C13H20N2O4S2\UBAFAR01\01-Oct-20
 20\0\\#p b3lyp/6-31G(d) scrf=(iefpcm,read,solvent=Water) geom=allcheck
  guess=read\\SM40.n.6.pdb.xyz\\0,1\C,0,6.105,0.762,-0.405\N,0,5.707,0.
 063,0.827\C,0,5.95,0.855,2.048\S,0,4.175,-0.643,0.748\O,0,3.874,-1.095
 ,2.11\O,0,3.215,0.228,0.055\N,0,4.299,-1.976,-0.241\C,0,5.175,-3.156,-
 0.037\C,0,4.557,-4.283,-0.928\S,0,3.714,-4.981,0.532\O,0,2.306,-4.547,
 0.629\O,0,4.019,-6.405,0.776\C,0,4.866,-3.823,1.346\C,0,6.649,-2.842,-
 0.357\C,0,7.678,-3.977,-0.192\C,0,8.172,-4.227,1.219\C,0,8.143,-5.516,
 1.769\C,0,8.626,-5.762,3.056\C,0,9.151,-4.716,3.817\C,0,9.188,-3.426,3
 .281\C,0,8.704,-3.186,1.995\H,0,7.171,0.981,-0.326\H,0,5.553,1.697,-0.
 55\H,0,5.953,0.116,-1.27\H,0,7.018,1.081,2.072\H,0,5.688,0.263,2.922\H
 ,0,5.388,1.797,2.056\H,0,4.209,-1.698,-1.219\H,0,5.295,-4.996,-1.295\H
 ,0,3.892,-3.965,-1.729\H,0,5.709,-4.384,1.75\H,0,4.412,-3.181,2.096\H,
 0,6.949,-1.986,0.251\H,0,6.671,-2.507,-1.4\H,0,8.539,-3.709,-0.818\H,0
 ,7.295,-4.914,-0.609\H,0,7.733,-6.331,1.179\H,0,8.591,-6.768,3.461\H,0
 ,9.527,-4.902,4.818\H,0,9.595,-2.607,3.864\H,0,8.739,-2.18,1.588\\Vers
 ion=AM64L-G09RevD.01\State=1-A\HF=-1714.0610188\RMSD=7.645e-09\Dipole=
 4.2214689,1.734074,-1.8421223\Quadrupole=-17.644617,-0.3216986,17.9663
 155,2.4362824,3.4574617,-0.0251638\PG=C01 [X(C13H20N2O4S2)]\\@


 Until you make peace with who you are,
 you'll never be content with what you have.
                           -- Doris Mortman
 Job cpu time:       0 days  0 hours  5 minutes 10.2 seconds.
 File lengths (MBytes):  RWF=    234 Int=      0 D2E=      0 Chk=      8 Scr=      1
 Normal termination of Gaussian 09 at Thu Oct  1 21:44:21 2020.
