 Entering Gaussian System, Link 0=g09
 Initial command:
 /prod/apps/gaussian/g09d1/l1.exe "/tmp/ubafar01/1462943/Gau-2838.inp" -scrdir="/tmp/ubafar01/1462943/"
 Entering Link 1 = /prod/apps/gaussian/g09d1/l1.exe PID=      2842.
  
 Copyright (c) 1988,1990,1992,1993,1995,1998,2003,2009,2013,
            Gaussian, Inc.  All Rights Reserved.
  
 This is part of the Gaussian(R) 09 program.  It is based on
 the Gaussian(R) 03 system (copyright 2003, Gaussian, Inc.),
 the Gaussian(R) 98 system (copyright 1998, Gaussian, Inc.),
 the Gaussian(R) 94 system (copyright 1995, Gaussian, Inc.),
 the Gaussian 92(TM) system (copyright 1992, Gaussian, Inc.),
 the Gaussian 90(TM) system (copyright 1990, Gaussian, Inc.),
 the Gaussian 88(TM) system (copyright 1988, Gaussian, Inc.),
 the Gaussian 86(TM) system (copyright 1986, Carnegie Mellon
 University), and the Gaussian 82(TM) system (copyright 1983,
 Carnegie Mellon University). Gaussian is a federally registered
 trademark of Gaussian, Inc.
  
 This software contains proprietary and confidential information,
 including trade secrets, belonging to Gaussian, Inc.
  
 This software is provided under written license and may be
 used, copied, transmitted, or stored only in accord with that
 written license.
  
 The following legend is applicable only to US Government
 contracts under FAR:
  
                    RESTRICTED RIGHTS LEGEND
  
 Use, reproduction and disclosure by the US Government is
 subject to restrictions as set forth in subparagraphs (a)
 and (c) of the Commercial Computer Software - Restricted
 Rights clause in FAR 52.227-19.
  
 Gaussian, Inc.
 340 Quinnipiac St., Bldg. 40, Wallingford CT 06492
  
  
 ---------------------------------------------------------------
 Warning -- This program may not be used in any manner that
 competes with the business of Gaussian, Inc. or will provide
 assistance to any competitor of Gaussian, Inc.  The licensee
 of this program is prohibited from giving any competitor of
 Gaussian, Inc. access to this program.  By using this program,
 the user acknowledges that Gaussian, Inc. is engaged in the
 business of creating and licensing software in the field of
 computational chemistry and represents and warrants to the
 licensee that it is not a competitor of Gaussian, Inc. and that
 it will not use this program in any manner prohibited above.
 ---------------------------------------------------------------
  

 Cite this work as:
 Gaussian 09, Revision D.01,
 M. J. Frisch, G. W. Trucks, H. B. Schlegel, G. E. Scuseria, 
 M. A. Robb, J. R. Cheeseman, G. Scalmani, V. Barone, B. Mennucci, 
 G. A. Petersson, H. Nakatsuji, M. Caricato, X. Li, H. P. Hratchian, 
 A. F. Izmaylov, J. Bloino, G. Zheng, J. L. Sonnenberg, M. Hada, 
 M. Ehara, K. Toyota, R. Fukuda, J. Hasegawa, M. Ishida, T. Nakajima, 
 Y. Honda, O. Kitao, H. Nakai, T. Vreven, J. A. Montgomery, Jr., 
 J. E. Peralta, F. Ogliaro, M. Bearpark, J. J. Heyd, E. Brothers, 
 K. N. Kudin, V. N. Staroverov, T. Keith, R. Kobayashi, J. Normand, 
 K. Raghavachari, A. Rendell, J. C. Burant, S. S. Iyengar, J. Tomasi, 
 M. Cossi, N. Rega, J. M. Millam, M. Klene, J. E. Knox, J. B. Cross, 
 V. Bakken, C. Adamo, J. Jaramillo, R. Gomperts, R. E. Stratmann, 
 O. Yazyev, A. J. Austin, R. Cammi, C. Pomelli, J. W. Ochterski, 
 R. L. Martin, K. Morokuma, V. G. Zakrzewski, G. A. Voth, 
 P. Salvador, J. J. Dannenberg, S. Dapprich, A. D. Daniels, 
 O. Farkas, J. B. Foresman, J. V. Ortiz, J. Cioslowski, 
 and D. J. Fox, Gaussian, Inc., Wallingford CT, 2013.
 
 ******************************************
 Gaussian 09:  AM64L-G09RevD.01 24-Apr-2013
                 2-Oct-2020 
 ******************************************
 %nproc=1
 Will use up to    1 processors via shared memory.
 %Chk=SM40.n.27.pdb.xyz.mst.n.o.chk
 %mem=16GB
 -----------------
 #p b3lyp/6-31G(d)
 -----------------
 1/38=1/1;
 2/12=2,17=6,18=5,40=1/2;
 3/5=1,6=6,7=1,11=2,16=1,25=1,30=1,74=-5/1,2,3;
 4//1;
 5/5=2,38=5/2;
 6/7=2,8=2,9=2,10=2,28=1/1;
 99/5=1,9=1/99;
 Leave Link    1 at Fri Oct  2 06:12:39 2020, MaxMem=  2147483648 cpu:         0.0
 (Enter /prod/apps/gaussian/g09d1/l101.exe)
 -----------------
 SM40.n.27.pdb.xyz
 -----------------
 Symbolic Z-matrix:
 Charge =  0 Multiplicity = 1
 C                     1.023    -1.225     0.741 
 N                     2.463    -1.183     0.433 
 C                     2.806    -0.307    -0.697 
 S                     3.446    -0.975     1.784 
 O                     3.703     0.436     2.094 
 O                     2.889    -1.849     2.822 
 N                     4.906    -1.533     1.185 
 C                     5.319    -2.949     1.095 
 C                     4.342    -3.792     0.213 
 S                     4.199    -5.048     1.534 
 O                     2.828    -5.225     2.038 
 O                     5.008    -6.25      1.245 
 C                     5.176    -3.784     2.42 
 C                     6.772    -2.884     0.585 
 C                     7.463    -4.204     0.179 
 C                     7.26     -4.62     -1.266 
 C                     7.783    -3.842    -2.309 
 C                     7.623    -4.226    -3.639 
 C                     6.937    -5.4      -3.953 
 C                     6.415    -6.186    -2.925 
 C                     6.577    -5.799    -1.593 
 H                     0.513    -1.592    -0.152 
 H                     0.621    -0.237     0.998 
 H                     0.852    -1.917     1.562 
 H                     2.277    -0.68     -1.575 
 H                     3.879    -0.364    -0.879 
 H                     2.519     0.735    -0.516 
 H                     5.64     -0.919     1.534 
 H                     4.758    -4.19     -0.711 
 H                     3.386    -3.296     0.044 
 H                     6.101    -4.18      2.841 
 H                     4.563    -3.294     3.174 
 H                     7.36     -2.417     1.383 
 H                     6.797    -2.194    -0.264 
 H                     7.165    -5.023     0.842 
 H                     8.534    -4.053     0.346 
 H                     8.329    -2.931    -2.078 
 H                     8.038    -3.611    -4.431 
 H                     6.814    -5.7      -4.988 
 H                     5.882    -7.102    -3.157 
 H                     6.161    -6.403    -0.792 
 
 NAtoms=     41 NQM=       41 NQMF=       0 NMMI=      0 NMMIF=      0
                NMic=       0 NMicF=      0.
                    Isotopes and Nuclear Properties:
 (Nuclear quadrupole moments (NQMom) in fm**2, nuclear magnetic moments (NMagM)
  in nuclear magnetons)

  Atom         1           2           3           4           5           6           7           8           9          10
 IAtWgt=          12          14          12          32          16          16          14          12          12          32
 AtmWgt=  12.0000000  14.0030740  12.0000000  31.9720718  15.9949146  15.9949146  14.0030740  12.0000000  12.0000000  31.9720718
 NucSpn=           0           2           0           0           0           0           2           0           0           0
 AtZEff=   0.0000000   0.0000000   0.0000000   0.0000000   0.0000000   0.0000000   0.0000000   0.0000000   0.0000000   0.0000000
 NQMom=    0.0000000   2.0440000   0.0000000   0.0000000   0.0000000   0.0000000   2.0440000   0.0000000   0.0000000   0.0000000
 NMagM=    0.0000000   0.4037610   0.0000000   0.0000000   0.0000000   0.0000000   0.4037610   0.0000000   0.0000000   0.0000000
 AtZNuc=   6.0000000   7.0000000   6.0000000  16.0000000   8.0000000   8.0000000   7.0000000   6.0000000   6.0000000  16.0000000

  Atom        11          12          13          14          15          16          17          18          19          20
 IAtWgt=          16          16          12          12          12          12          12          12          12          12
 AtmWgt=  15.9949146  15.9949146  12.0000000  12.0000000  12.0000000  12.0000000  12.0000000  12.0000000  12.0000000  12.0000000
 NucSpn=           0           0           0           0           0           0           0           0           0           0
 AtZEff=   0.0000000   0.0000000   0.0000000   0.0000000   0.0000000   0.0000000   0.0000000   0.0000000   0.0000000   0.0000000
 NQMom=    0.0000000   0.0000000   0.0000000   0.0000000   0.0000000   0.0000000   0.0000000   0.0000000   0.0000000   0.0000000
 NMagM=    0.0000000   0.0000000   0.0000000   0.0000000   0.0000000   0.0000000   0.0000000   0.0000000   0.0000000   0.0000000
 AtZNuc=   8.0000000   8.0000000   6.0000000   6.0000000   6.0000000   6.0000000   6.0000000   6.0000000   6.0000000   6.0000000

  Atom        21          22          23          24          25          26          27          28          29          30
 IAtWgt=          12           1           1           1           1           1           1           1           1           1
 AtmWgt=  12.0000000   1.0078250   1.0078250   1.0078250   1.0078250   1.0078250   1.0078250   1.0078250   1.0078250   1.0078250
 NucSpn=           0           1           1           1           1           1           1           1           1           1
 AtZEff=   0.0000000   0.0000000   0.0000000   0.0000000   0.0000000   0.0000000   0.0000000   0.0000000   0.0000000   0.0000000
 NQMom=    0.0000000   0.0000000   0.0000000   0.0000000   0.0000000   0.0000000   0.0000000   0.0000000   0.0000000   0.0000000
 NMagM=    0.0000000   2.7928460   2.7928460   2.7928460   2.7928460   2.7928460   2.7928460   2.7928460   2.7928460   2.7928460
 AtZNuc=   6.0000000   1.0000000   1.0000000   1.0000000   1.0000000   1.0000000   1.0000000   1.0000000   1.0000000   1.0000000

  Atom        31          32          33          34          35          36          37          38          39          40
 IAtWgt=           1           1           1           1           1           1           1           1           1           1
 AtmWgt=   1.0078250   1.0078250   1.0078250   1.0078250   1.0078250   1.0078250   1.0078250   1.0078250   1.0078250   1.0078250
 NucSpn=           1           1           1           1           1           1           1           1           1           1
 AtZEff=   0.0000000   0.0000000   0.0000000   0.0000000   0.0000000   0.0000000   0.0000000   0.0000000   0.0000000   0.0000000
 NQMom=    0.0000000   0.0000000   0.0000000   0.0000000   0.0000000   0.0000000   0.0000000   0.0000000   0.0000000   0.0000000
 NMagM=    2.7928460   2.7928460   2.7928460   2.7928460   2.7928460   2.7928460   2.7928460   2.7928460   2.7928460   2.7928460
 AtZNuc=   1.0000000   1.0000000   1.0000000   1.0000000   1.0000000   1.0000000   1.0000000   1.0000000   1.0000000   1.0000000

  Atom        41
 IAtWgt=           1
 AtmWgt=   1.0078250
 NucSpn=           1
 AtZEff=   0.0000000
 NQMom=    0.0000000
 NMagM=    2.7928460
 AtZNuc=   1.0000000
 Leave Link  101 at Fri Oct  2 06:12:39 2020, MaxMem=  2147483648 cpu:         0.1
 (Enter /prod/apps/gaussian/g09d1/l202.exe)
                          Input orientation:                          
 ---------------------------------------------------------------------
 Center     Atomic      Atomic             Coordinates (Angstroms)
 Number     Number       Type             X           Y           Z
 ---------------------------------------------------------------------
      1          6           0        1.023000   -1.225000    0.741000
      2          7           0        2.463000   -1.183000    0.433000
      3          6           0        2.806000   -0.307000   -0.697000
      4         16           0        3.446000   -0.975000    1.784000
      5          8           0        3.703000    0.436000    2.094000
      6          8           0        2.889000   -1.849000    2.822000
      7          7           0        4.906000   -1.533000    1.185000
      8          6           0        5.319000   -2.949000    1.095000
      9          6           0        4.342000   -3.792000    0.213000
     10         16           0        4.199000   -5.048000    1.534000
     11          8           0        2.828000   -5.225000    2.038000
     12          8           0        5.008000   -6.250000    1.245000
     13          6           0        5.176000   -3.784000    2.420000
     14          6           0        6.772000   -2.884000    0.585000
     15          6           0        7.463000   -4.204000    0.179000
     16          6           0        7.260000   -4.620000   -1.266000
     17          6           0        7.783000   -3.842000   -2.309000
     18          6           0        7.623000   -4.226000   -3.639000
     19          6           0        6.937000   -5.400000   -3.953000
     20          6           0        6.415000   -6.186000   -2.925000
     21          6           0        6.577000   -5.799000   -1.593000
     22          1           0        0.513000   -1.592000   -0.152000
     23          1           0        0.621000   -0.237000    0.998000
     24          1           0        0.852000   -1.917000    1.562000
     25          1           0        2.277000   -0.680000   -1.575000
     26          1           0        3.879000   -0.364000   -0.879000
     27          1           0        2.519000    0.735000   -0.516000
     28          1           0        5.640000   -0.919000    1.534000
     29          1           0        4.758000   -4.190000   -0.711000
     30          1           0        3.386000   -3.296000    0.044000
     31          1           0        6.101000   -4.180000    2.841000
     32          1           0        4.563000   -3.294000    3.174000
     33          1           0        7.360000   -2.417000    1.383000
     34          1           0        6.797000   -2.194000   -0.264000
     35          1           0        7.165000   -5.023000    0.842000
     36          1           0        8.534000   -4.053000    0.346000
     37          1           0        8.329000   -2.931000   -2.078000
     38          1           0        8.038000   -3.611000   -4.431000
     39          1           0        6.814000   -5.700000   -4.988000
     40          1           0        5.882000   -7.102000   -3.157000
     41          1           0        6.161000   -6.403000   -0.792000
 ---------------------------------------------------------------------
                    Distance matrix (angstroms):
                    1          2          3          4          5
     1  C    0.000000
     2  N    1.473169   0.000000
     3  C    2.467723   1.470349   0.000000
     4  S    2.649769   1.683673   2.647864   0.000000
     5  O    3.431025   2.630149   3.024291   1.467334   0.000000
     6  O    2.863895   2.516417   3.842917   1.466823   2.532549
     7  N    3.920419   2.579972   3.074898   1.673847   2.480010
     8  C    4.642532   3.422534   4.062831   2.807049   3.881711
     9  C    4.228952   3.222720   3.915689   3.347588   4.671452
    10  S    5.033006   4.377685   5.421706   4.149559   5.534787
    11  O    4.576050   4.364288   5.627382   4.302202   5.728497
    12  O    6.433107   5.728076   6.628681   5.527747   6.864869
    13  C    5.158966   4.251322   5.236613   3.359744   4.481563
    14  C    5.985618   4.635082   4.900368   4.017979   4.766366
    15  C    7.117857   5.847303   6.135278   5.398033   6.271716
    16  C    7.379312   6.140910   6.226062   6.093859   7.035978
    17  C    7.864400   6.549141   6.313897   6.616790   7.371166
    18  C    8.470561   7.243385   6.871493   7.577946   8.364684
    19  C    8.627842   7.552269   7.321567   8.042442   9.004658
    20  C    8.192969   7.205864   7.249242   7.625232   8.740491
    21  C    7.564122   6.506699   6.722003   6.669203   7.792886
    22  H    1.091897   2.076537   2.684418   3.568091   4.396976
    23  H    1.097177   2.146417   2.766252   3.023750   3.339591
    24  H    1.087265   2.099695   3.393125   2.768661   3.734680
    25  H    2.689498   2.078381   1.090804   3.568819   4.091515
    26  H    3.394474   2.096941   1.089817   2.766293   3.083781
    27  H    2.767610   2.140668   1.095853   3.012213   2.881555
    28  H    4.694590   3.372718   3.658341   2.208907   2.429320
    29  H    4.984953   3.951937   4.346054   4.275815   5.511890
    30  H    3.218481   2.338380   3.133624   2.901421   4.269756
    31  H    6.239239   5.292969   6.194723   4.293984   5.255080
    32  H    4.767793   4.047147   5.195561   2.925329   3.977298
    33  H    6.480015   5.138664   5.432993   4.190413   4.692417
    34  H    5.940376   4.504607   4.435802   4.112112   4.695732
    35  H    7.222131   6.084545   6.603791   5.577152   6.584347
    36  H    8.035467   6.715766   6.923175   6.117979   6.822403
    37  H    8.014664   6.615934   6.268657   6.525693   7.081112
    38  H    9.036194   7.786803   7.227240   8.164630   8.817373
    39  H    9.294232   8.289857   7.972527   8.917905   9.873375
    40  H    8.564077   7.720895   7.854005   8.239400   9.441530
    41  H    7.453913   6.513388   6.958898   6.593192   7.819379
                    6          7          8          9         10
     6  O    0.000000
     7  N    2.616852   0.000000
     8  C    3.177645   1.477743   0.000000
     9  C    3.562771   2.523086   1.563043   0.000000
    10  S    3.688990   3.602343   2.419281   1.828394   0.000000
    11  O    3.466375   4.321638   3.503499   2.770615   1.471389
    12  O    5.132825   4.718484   3.319009   2.747789   1.477432
    13  C    3.022614   2.581691   1.572673   2.359337   1.826806
    14  C    4.599248   2.380579   1.541277   2.620639   3.493397
    15  C    5.783853   3.832039   2.647795   3.148260   3.633463
    16  C    6.595137   4.591109   3.483395   3.374574   4.170480
    17  C    7.365490   5.081008   4.296040   4.266552   5.391488
    18  C    8.354963   6.156729   5.417555   5.078506   6.257746
    19  C    8.654278   6.743715   5.840174   5.164808   6.142289
    20  C    8.016873   6.389021   5.276342   4.458207   5.107679
    21  C    6.978257   5.358011   4.114658   3.504984   3.999627
    22  H    3.815246   4.592330   5.147241   4.431080   5.326643
    23  H    3.327062   4.480604   5.425455   5.205775   6.019560
    24  H    2.396162   4.089560   4.608384   4.185155   4.583269
    25  H    4.590720   3.906002   4.640154   4.140738   5.695559
    26  H    4.108859   2.584838   3.557035   3.627398   5.278714
    27  H    4.237476   3.706075   4.899712   4.934420   6.361446
    28  H    3.176766   1.018603   2.101586   3.418183   4.373228
    29  H    4.632012   3.267471   2.261954   1.088685   2.467523
    30  H    3.171451   2.592383   2.227442   1.090189   2.439380
    31  H    3.968736   3.343198   2.274951   3.186065   2.465619
    32  H    2.239242   2.678599   2.238929   3.010709   2.428706
    33  H    4.731087   2.615870   2.128767   3.516795   4.115444
    34  H    4.991481   2.472327   2.145085   2.967854   4.257666
    35  H    5.681448   4.171430   2.788046   3.143299   3.045759
    36  H    6.546313   4.496299   3.480811   4.202223   4.603650
    37  H    7.400968   4.931379   4.373597   4.678266   5.880913
    38  H    9.067682   6.757734   6.194181   5.938006   7.237687
    39  H    9.551541   7.688321   6.841485   6.066436   7.056898
    40  H    8.502970   7.128766   5.970250   4.968360   5.390444
    41  H    6.671274   5.403744   4.024904   3.337081   3.331028
                   11         12         13         14         15
    11  O    0.000000
    12  O    2.536114   0.000000
    13  C    2.781278   2.736787   0.000000
    14  C    4.811094   3.857104   2.593153   0.000000
    15  C    5.097210   3.368901   3.229373   1.544253   0.000000
    16  C    5.561031   3.746135   4.316080   2.584191   1.517330
    17  C    6.735067   5.111752   5.400301   3.211716   2.534480
    18  C    7.497890   5.898157   6.549401   4.513019   3.821414
    19  C    7.266814   5.609166   6.806446   5.191428   4.333649
    20  C    6.198505   4.401437   5.989470   4.832262   3.829027
    21  C    5.250585   3.274050   4.703955   3.644027   2.543424
    22  H    4.832599   6.622205   5.758786   6.433313   7.431999
    23  H    5.552710   7.447345   5.945697   6.709097   7.951152
    24  H    3.882527   6.012297   4.787361   6.077501   7.130805
    25  H    5.832186   6.814372   5.830870   5.452361   6.510736
    26  H    5.765658   6.358539   4.925648   4.106476   5.358173
    27  H    6.491533   7.621448   6.008420   5.691869   7.022812
    28  H    5.167494   5.376105   3.034554   2.458302   3.993818
    29  H    3.514701   2.851672   3.184764   2.727902   2.847687
    30  H    2.829919   3.577625   3.014568   3.453610   4.179069
    31  H    3.528365   2.833155   1.090725   2.686893   2.990295
    32  H    2.833634   3.557668   1.088295   3.427930   4.267098
    33  H    5.371491   4.499204   2.777393   1.095736   2.157219
    34  H    5.499011   4.682813   3.515622   1.094315   2.163309
    35  H    4.503420   2.514078   2.825124   2.189936   1.095050
    36  H    6.065879   4.250610   3.956008   2.127986   1.094409
    37  H    7.243265   5.752141   5.558869   3.085130   2.732130
    38  H    8.461504   6.954293   7.426788   5.224131   4.683415
    39  H    8.091878   6.512636   7.825124   6.244193   5.418220
    40  H    6.311741   4.568083   6.527671   5.708431   4.693278
    41  H    4.528297   2.345674   4.259851   3.827899   2.733797
                   16         17         18         19         20
    16  C    0.000000
    17  C    1.402377   0.000000
    18  C    2.432722   1.393541   0.000000
    19  C    2.816505   2.417812   1.395517   0.000000
    20  C    2.432830   2.783023   2.410531   1.395372   0.000000
    21  C    1.401235   2.407684   2.784701   2.420413   1.396509
    22  H    7.478756   7.909997   8.345611   8.379513   7.976714
    23  H    8.271197   8.673322   9.297413   9.542580   9.184278
    24  H    7.507746   8.168784   8.844678   8.920411   8.324932
    25  H    6.359982   6.391638   6.738986   7.046196   7.018659
    26  H    5.449263   5.420572   6.045674   6.645460   6.671814
    27  H    7.191356   7.202324   7.772739   8.304813   8.299538
    28  H    4.915465   5.282521   6.452013   7.201995   6.944393
    29  H    2.598640   3.438798   4.096670   4.089340   3.410493
    30  H    4.298483   5.016805   5.690480   5.745644   5.132436
    31  H    4.290027   5.428247   6.656501   6.953110   6.113051
    32  H    5.361500   6.382162   7.526566   7.801618   6.999383
    33  H    3.446797   3.980002   5.344355   6.127815   5.801487
    34  H    2.665305   2.805374   4.025161   4.889454   4.812786
    35  H    2.148278   3.421328   4.574312   4.815199   4.013148
    36  H    2.131457   2.767227   4.091464   4.779772   4.442892
    37  H    2.157505   1.086921   2.147599   3.398419   3.869862
    38  H    3.411831   2.149714   1.085225   2.154346   3.395996
    39  H    3.901102   3.401201   2.155680   1.084599   2.156703
    40  H    3.411025   3.867881   3.396289   2.154865   1.084882
    41  H    2.147456   3.389822   3.870682   3.405893   2.159003
                   21         22         23         24         25
    21  C    0.000000
    22  H    7.519802   0.000000
    23  H    8.551202   1.780502   0.000000
    24  H    7.602603   1.777172   1.787137   0.000000
    25  H    6.685393   2.443025   3.091749   3.660815   0.000000
    26  H    6.109683   3.656018   3.762157   4.187245   1.775014
    27  H    7.766624   3.093778   2.615222   3.758999   1.783892
    28  H    5.871158   5.438902   5.093406   4.890985   4.586150
    29  H    2.583712   5.008204   5.971738   5.058645   4.384285
    30  H    4.373472   3.346066   4.232354   3.259927   3.270244
    31  H    4.744269   6.847009   6.998164   5.857389   6.809848
    32  H    5.749392   5.510134   5.442388   4.273897   5.883179
    33  H    4.572482   7.065285   7.093289   6.529633   6.132196
    34  H    3.848463   6.313763   6.600414   6.225273   4.943816
    35  H    2.622431   7.550424   8.108888   7.072454   6.971089
    36  H    3.261608   8.404818   8.809230   8.065623   7.363248
    37  H    3.395608   8.160408   8.725404   8.377549   6.476628
    38  H    3.869898   8.888860   9.791313   9.509168   7.066585
    39  H    3.404702   8.942324  10.199501   9.631149   7.578479
    40  H    2.151030   8.259315   9.595331   8.628678   7.532651
    41  H    1.086035   7.446827   8.480286   7.338324   6.960695
                   26         27         28         29         30
    26  H    0.000000
    27  H    1.785825   0.000000
    28  H    3.038374   4.083976   0.000000
    29  H    3.929267   5.413573   4.064159   0.000000
    30  H    3.113134   4.161040   3.598714   1.803232   0.000000
    31  H    5.773867   6.946754   3.543288   3.797427   3.996985
    32  H    5.047729   5.833256   3.080609   3.991750   3.343985
    33  H    4.631286   6.080838   2.285871   3.781371   4.284651
    34  H    3.498835   5.190745   2.489393   2.888139   3.597803
    35  H    5.955327   7.522237   4.432528   2.983177   4.230860
    36  H    6.064517   7.736163   4.428153   3.923544   5.212116
    37  H    5.275376   7.045247   4.932080   4.025644   5.391601
    38  H    6.360581   8.042033   6.969827   4.993199   6.462658
    39  H    7.346496   8.936164   8.171458   4.979956   6.546100
    40  H    7.389312   8.927666   7.764891   3.965607   5.564356
    41  H    6.456362   8.018191   5.979630   2.621515   4.248879
                   31         32         33         34         35
    31  H    0.000000
    32  H    1.805915   0.000000
    33  H    2.611324   3.435116   0.000000
    34  H    3.750951   4.245068   1.754795   0.000000
    35  H    2.416350   3.898470   2.668697   3.059722   0.000000
    36  H    3.487211   4.933813   2.264981   2.616324   1.749593
    37  H    5.542612   6.472869   3.630658   2.486119   3.775945
    38  H    7.547033   8.367326   5.973936   4.572949   5.528146
    39  H    8.006998   8.801936   7.187896   5.882899   5.879662
    40  H    6.675481   7.504811   6.689193   5.770194   4.686185
    41  H    4.259580   5.286647   4.696427   4.289401   2.362704
                   36         37         38         39         40
    36  H    0.000000
    37  H    2.678934   0.000000
    38  H    4.822977   2.466514   0.000000
    39  H    5.841452   4.293097   2.484421   0.000000
    40  H    5.347945   4.954724   4.296335   2.487326   0.000000
    41  H    3.528268   4.290548   4.955877   4.304304   2.481868
                   41
    41  H    0.000000
 Stoichiometry    C13H20N2O4S2
 Framework group  C1[X(C13H20N2O4S2)]
 Deg. of freedom   117
 Full point group                 C1      NOp   1
 Largest Abelian subgroup         C1      NOp   1
 Largest concise Abelian subgroup C1      NOp   1
                         Standard orientation:                         
 ---------------------------------------------------------------------
 Center     Atomic      Atomic             Coordinates (Angstroms)
 Number     Number       Type             X           Y           Z
 ---------------------------------------------------------------------
      1          6           0       -3.691162   -0.720146    2.080453
      2          7           0       -2.674168   -1.155461    1.107596
      3          6           0       -2.359673   -2.590196    1.175077
      4         16           0       -2.932588   -0.583541   -0.454736
      5          8           0       -3.763261   -1.482481   -1.264031
      6          8           0       -3.328107    0.821088   -0.305900
      7          7           0       -1.397378   -0.757426   -1.098674
      8          6           0       -0.276780    0.191069   -0.930325
      9          6           0        0.098526    0.397649    0.572862
     10         16           0        0.021916    2.212549    0.364789
     11          8           0       -0.981470    2.865623    1.220182
     12          8           0        1.366935    2.815513    0.263962
     13          6           0       -0.599669    1.691795   -1.272180
     14          6           0        0.844573   -0.393308   -1.811577
     15          6           0        2.249998    0.240047   -1.720143
     16          6           0        3.153494   -0.347223   -0.651920
     17          6           0        3.586759   -1.677984   -0.741461
     18          6           0        4.435283   -2.221516    0.221106
     19          6           0        4.870357   -1.442193    1.293876
     20          6           0        4.450491   -0.115202    1.393228
     21          6           0        3.600353    0.427074    0.427080
     22          1           0       -3.302455   -0.945460    3.075631
     23          1           0       -4.647699   -1.240805    1.947235
     24          1           0       -3.839990    0.352879    1.987645
     25          1           0       -1.987171   -2.798636    2.178894
     26          1           0       -1.576497   -2.817587    0.452145
     27          1           0       -3.236415   -3.216780    0.976058
     28          1           0       -1.497645   -1.099770   -2.052771
     29          1           0        1.084039    0.043480    0.870460
     30          1           0       -0.677386    0.052322    1.256399
     31          1           0       -0.037538    2.128367   -2.098675
     32          1           0       -1.665673    1.895557   -1.352817
     33          1           0        0.496862   -0.315462   -2.847759
     34          1           0        0.921176   -1.461984   -1.588890
     35          1           0        2.183620    1.325153   -1.588723
     36          1           0        2.721644    0.080882   -2.694795
     37          1           0        3.264333   -2.292816   -1.577775
     38          1           0        4.761075   -3.252805    0.131573
     39          1           0        5.532272   -1.864501    2.042126
     40          1           0        4.784249    0.500892    2.221480
     41          1           0        3.262685    1.456017    0.509101
 ---------------------------------------------------------------------
 Rotational constants (GHZ):      0.4176818      0.1726733      0.1514231
 Leave Link  202 at Fri Oct  2 06:12:39 2020, MaxMem=  2147483648 cpu:         0.0
 (Enter /prod/apps/gaussian/g09d1/l301.exe)
 Standard basis: 6-31G(d) (6D, 7F)
 Ernie: Thresh=  0.10000D-02 Tol=  0.10000D-05 Strict=F.
 There are   363 symmetry adapted cartesian basis functions of A   symmetry.
 There are   363 symmetry adapted basis functions of A   symmetry.
   363 basis functions,   716 primitive gaussians,   363 cartesian basis functions
    88 alpha electrons       88 beta electrons
       nuclear repulsion energy      2218.5564621617 Hartrees.
 IExCor=  402 DFT=T Ex+Corr=B3LYP ExCW=0 ScaHFX=  0.200000
 ScaDFX=  0.800000  0.720000  1.000000  0.810000 ScalE2=  1.000000  1.000000
 IRadAn=      0 IRanWt=     -1 IRanGd=            0 ICorTp=0 IEmpDi=  4
 NAtoms=   41 NActive=   41 NUniq=   41 SFac= 1.00D+00 NAtFMM=   60 NAOKFM=F Big=F
 Integral buffers will be    131072 words long.
 Raffenetti 2 integral format.
 Two-electron integral symmetry is turned on.
 Leave Link  301 at Fri Oct  2 06:12:39 2020, MaxMem=  2147483648 cpu:         0.0
 (Enter /prod/apps/gaussian/g09d1/l302.exe)
 NPDir=0 NMtPBC=     1 NCelOv=     1 NCel=       1 NClECP=     1 NCelD=      1
         NCelK=      1 NCelE2=     1 NClLst=     1 CellRange=     0.0.
 One-electron integrals computed using PRISM.
 NBasis=   363 RedAO= T EigKep=  4.57D-04  NBF=   363
 NBsUse=   363 1.00D-06 EigRej= -1.00D+00 NBFU=   363
 Precomputing XC quadrature grid using
 IXCGrd= 4 IRadAn=           0 IRanWt=          -1 IRanGd=           0 AccXCQ= 0.00D+00.
 Generated NRdTot=       0 NPtTot=           0 NUsed=           0 NTot=          32
 NSgBfM=   359   359   359   359   359 MxSgAt=    41 MxSgA2=    41.
 Leave Link  302 at Fri Oct  2 06:12:40 2020, MaxMem=  2147483648 cpu:         1.4
 (Enter /prod/apps/gaussian/g09d1/l303.exe)
 DipDrv:  MaxL=1.
 Leave Link  303 at Fri Oct  2 06:12:40 2020, MaxMem=  2147483648 cpu:         0.0
 (Enter /prod/apps/gaussian/g09d1/l401.exe)
 ExpMin= 1.17D-01 ExpMax= 2.19D+04 ExpMxC= 3.30D+03 IAcc=1 IRadAn=         1 AccDes= 0.00D+00
 Harris functional with IExCor=  402 and IRadAn=       1 diagonalized for initial guess.
 HarFok:  IExCor=  402 AccDes= 0.00D+00 IRadAn=         1 IDoV= 1 UseB2=F ITyADJ=14
 ICtDFT=  3500011 ScaDFX=  1.000000  1.000000  1.000000  1.000000
 FoFCou: FMM=F IPFlag=           0 FMFlag=      100000 FMFlg1=           0
         NFxFlg=           0 DoJE=T BraDBF=F KetDBF=T FulRan=T
         wScrn=  0.000000 ICntrl=     500 IOpCl=  0 I1Cent=   200000004 NGrid=           0
         NMat0=    1 NMatS0=      1 NMatT0=    0 NMatD0=    1 NMtDS0=    0 NMtDT0=    0
 Petite list used in FoFCou.
 Harris En= -1714.14351821245    
 JPrj=0 DoOrth=F DoCkMO=F.
 Leave Link  401 at Fri Oct  2 06:12:46 2020, MaxMem=  2147483648 cpu:         5.7
 (Enter /prod/apps/gaussian/g09d1/l502.exe)
 Closed shell SCF:
 Using DIIS extrapolation, IDIIS=  1040.
 Integral symmetry usage will be decided dynamically.
 IVT=      418784 IEndB=      418784 NGot=  2147483648 MDV=  2147213637
 LenX=  2147213637 LenY=  2147081427
 Requested convergence on RMS density matrix=1.00D-08 within 128 cycles.
 Requested convergence on MAX density matrix=1.00D-06.
 Requested convergence on             energy=1.00D-06.
 No special actions if energy rises.
 Fock matrices will be formed incrementally for  20 cycles.
 Integral accuracy reduced to 1.0D-05 until final iterations.

 Cycle   1  Pass 0  IDiag  1:
 FoFJK:  IHMeth= 1 ICntrl=       0 DoSepK=F KAlg= 0 I1Cent=   0 FoldK=F
 IRaf= 770000000 NMat=   1 IRICut=       1 DoRegI=T DoRafI=F ISym2E= 0.
 FoFCou: FMM=F IPFlag=           0 FMFlag=      100000 FMFlg1=           0
         NFxFlg=           0 DoJE=F BraDBF=F KetDBF=F FulRan=T
         wScrn=  0.000000 ICntrl=       0 IOpCl=  0 I1Cent=           0 NGrid=           0
         NMat0=    1 NMatS0=      1 NMatT0=    0 NMatD0=    1 NMtDS0=    0 NMtDT0=    0
 Symmetry not used in FoFCou.
 E= -1713.19715204748    
 DIIS: error= 2.93D-02 at cycle   1 NSaved=   1.
 NSaved= 1 IEnMin= 1 EnMin= -1713.19715204748     IErMin= 1 ErrMin= 2.93D-02
 ErrMax= 2.93D-02  0.00D+00 EMaxC= 1.00D-01 BMatC= 9.90D-01 BMatP= 9.90D-01
 IDIUse=3 WtCom= 7.07D-01 WtEn= 2.93D-01
 Coeff-Com:  0.100D+01
 Coeff-En:   0.100D+01
 Coeff:      0.100D+01
 Gap=     0.358 Goal=   None    Shift=    0.000
 GapD=    0.358 DampG=1.000 DampE=0.500 DampFc=0.5000 IDamp=-1.
 Damping current iteration by 5.00D-01
 RMSDP=6.95D-03 MaxDP=6.05D-01              OVMax= 2.25D-01

 Cycle   2  Pass 0  IDiag  1:
 RMSU=  3.47D-03    CP:  9.99D-01
 E= -1713.37661658222     Delta-E=       -0.179464534737 Rises=F Damp=T
 DIIS: error= 1.50D-02 at cycle   2 NSaved=   2.
 NSaved= 2 IEnMin= 2 EnMin= -1713.37661658222     IErMin= 2 ErrMin= 1.50D-02
 ErrMax= 1.50D-02  0.00D+00 EMaxC= 1.00D-01 BMatC= 1.69D-01 BMatP= 9.90D-01
 IDIUse=3 WtCom= 8.50D-01 WtEn= 1.50D-01
 Coeff-Com:  0.249D+00 0.751D+00
 Coeff-En:   0.392D+00 0.608D+00
 Coeff:      0.270D+00 0.730D+00
 Gap=     0.298 Goal=   None    Shift=    0.000
 RMSDP=2.05D-03 MaxDP=1.33D-01 DE=-1.79D-01 OVMax= 1.84D-01

 Cycle   3  Pass 0  IDiag  1:
 RMSU=  1.63D-03    CP:  9.89D-01  6.48D-01
 E= -1713.94267477208     Delta-E=       -0.566058189858 Rises=F Damp=F
 DIIS: error= 1.15D-02 at cycle   3 NSaved=   3.
 NSaved= 3 IEnMin= 3 EnMin= -1713.94267477208     IErMin= 3 ErrMin= 1.15D-02
 ErrMax= 1.15D-02  0.00D+00 EMaxC= 1.00D-01 BMatC= 1.02D-01 BMatP= 1.69D-01
 IDIUse=3 WtCom= 8.85D-01 WtEn= 1.15D-01
 Coeff-Com:  0.102D+00 0.444D+00 0.454D+00
 Coeff-En:   0.000D+00 0.000D+00 0.100D+01
 Coeff:      0.901D-01 0.393D+00 0.517D+00
 Gap=     0.239 Goal=   None    Shift=    0.000
 RMSDP=1.32D-03 MaxDP=4.03D-02 DE=-5.66D-01 OVMax= 8.51D-02

 Cycle   4  Pass 0  IDiag  1:
 RMSU=  7.72D-04    CP:  9.95D-01  7.34D-01  3.72D-01
 E= -1714.02272429806     Delta-E=       -0.080049525985 Rises=F Damp=F
 DIIS: error= 4.17D-03 at cycle   4 NSaved=   4.
 NSaved= 4 IEnMin= 4 EnMin= -1714.02272429806     IErMin= 4 ErrMin= 4.17D-03
 ErrMax= 4.17D-03  0.00D+00 EMaxC= 1.00D-01 BMatC= 1.62D-02 BMatP= 1.02D-01
 IDIUse=3 WtCom= 9.58D-01 WtEn= 4.17D-02
 Coeff-Com:  0.120D-01 0.781D-01 0.295D+00 0.615D+00
 Coeff-En:   0.000D+00 0.000D+00 0.149D+00 0.851D+00
 Coeff:      0.115D-01 0.749D-01 0.289D+00 0.624D+00
 Gap=     0.237 Goal=   None    Shift=    0.000
 RMSDP=4.42D-04 MaxDP=1.57D-02 DE=-8.00D-02 OVMax= 2.72D-02

 Cycle   5  Pass 0  IDiag  1:
 RMSU=  1.79D-04    CP:  9.94D-01  7.14D-01  5.40D-01  6.24D-01
 E= -1714.03634725418     Delta-E=       -0.013622956119 Rises=F Damp=F
 DIIS: error= 8.02D-04 at cycle   5 NSaved=   5.
 NSaved= 5 IEnMin= 5 EnMin= -1714.03634725418     IErMin= 5 ErrMin= 8.02D-04
 ErrMax= 8.02D-04  0.00D+00 EMaxC= 1.00D-01 BMatC= 1.02D-03 BMatP= 1.62D-02
 IDIUse=3 WtCom= 9.92D-01 WtEn= 8.02D-03
 Coeff-Com: -0.232D-03 0.151D-01 0.122D+00 0.335D+00 0.528D+00
 Coeff-En:   0.000D+00 0.000D+00 0.000D+00 0.000D+00 0.100D+01
 Coeff:     -0.230D-03 0.150D-01 0.121D+00 0.332D+00 0.532D+00
 Gap=     0.237 Goal=   None    Shift=    0.000
 RMSDP=1.12D-04 MaxDP=7.01D-03 DE=-1.36D-02 OVMax= 6.28D-03

 Cycle   6  Pass 0  IDiag  1:
 RMSU=  5.65D-05    CP:  9.94D-01  7.17D-01  5.32D-01  6.86D-01  5.42D-01
 E= -1714.03718418582     Delta-E=       -0.000836931639 Rises=F Damp=F
 DIIS: error= 4.34D-04 at cycle   6 NSaved=   6.
 NSaved= 6 IEnMin= 6 EnMin= -1714.03718418582     IErMin= 6 ErrMin= 4.34D-04
 ErrMax= 4.34D-04  0.00D+00 EMaxC= 1.00D-01 BMatC= 1.14D-04 BMatP= 1.02D-03
 IDIUse=3 WtCom= 9.96D-01 WtEn= 4.34D-03
 Coeff-Com: -0.105D-02 0.285D-02 0.460D-01 0.139D+00 0.312D+00 0.502D+00
 Coeff-En:   0.000D+00 0.000D+00 0.000D+00 0.000D+00 0.258D-01 0.974D+00
 Coeff:     -0.105D-02 0.283D-02 0.458D-01 0.138D+00 0.311D+00 0.504D+00
 Gap=     0.237 Goal=   None    Shift=    0.000
 RMSDP=3.60D-05 MaxDP=2.00D-03 DE=-8.37D-04 OVMax= 3.01D-03

 Cycle   7  Pass 0  IDiag  1:
 RMSU=  2.44D-05    CP:  9.94D-01  7.17D-01  5.33D-01  6.86D-01  5.96D-01
                    CP:  5.65D-01
 E= -1714.03726331888     Delta-E=       -0.000079133066 Rises=F Damp=F
 DIIS: error= 2.03D-04 at cycle   7 NSaved=   7.
 NSaved= 7 IEnMin= 7 EnMin= -1714.03726331888     IErMin= 7 ErrMin= 2.03D-04
 ErrMax= 2.03D-04  0.00D+00 EMaxC= 1.00D-01 BMatC= 2.13D-05 BMatP= 1.14D-04
 IDIUse=3 WtCom= 9.98D-01 WtEn= 2.03D-03
 Coeff-Com: -0.689D-03-0.222D-03 0.138D-01 0.460D-01 0.139D+00 0.340D+00
 Coeff-Com:  0.462D+00
 Coeff-En:   0.000D+00 0.000D+00 0.000D+00 0.000D+00 0.000D+00 0.147D+00
 Coeff-En:   0.853D+00
 Coeff:     -0.687D-03-0.221D-03 0.137D-01 0.459D-01 0.139D+00 0.340D+00
 Coeff:      0.463D+00
 Gap=     0.237 Goal=   None    Shift=    0.000
 RMSDP=1.35D-05 MaxDP=7.50D-04 DE=-7.91D-05 OVMax= 1.11D-03

 Cycle   8  Pass 0  IDiag  1:
 RMSU=  6.19D-06    CP:  9.94D-01  7.16D-01  5.33D-01  6.85D-01  6.00D-01
                    CP:  6.36D-01  5.42D-01
 E= -1714.03728068725     Delta-E=       -0.000017368360 Rises=F Damp=F
 DIIS: error= 3.74D-05 at cycle   8 NSaved=   8.
 NSaved= 8 IEnMin= 8 EnMin= -1714.03728068725     IErMin= 8 ErrMin= 3.74D-05
 ErrMax= 3.74D-05  0.00D+00 EMaxC= 1.00D-01 BMatC= 8.08D-07 BMatP= 2.13D-05
 IDIUse=1 WtCom= 1.00D+00 WtEn= 0.00D+00
 Coeff-Com: -0.242D-03-0.354D-03 0.211D-02 0.862D-02 0.389D-01 0.119D+00
 Coeff-Com:  0.229D+00 0.603D+00
 Coeff:     -0.242D-03-0.354D-03 0.211D-02 0.862D-02 0.389D-01 0.119D+00
 Coeff:      0.229D+00 0.603D+00
 Gap=     0.237 Goal=   None    Shift=    0.000
 RMSDP=3.47D-06 MaxDP=1.51D-04 DE=-1.74D-05 OVMax= 2.13D-04

 Initial convergence to 1.0D-05 achieved.  Increase integral accuracy.
 Cycle   9  Pass 1  IDiag  1:
 E= -1714.03736923887     Delta-E=       -0.000088551630 Rises=F Damp=F
 DIIS: error= 6.43D-05 at cycle   1 NSaved=   1.
 NSaved= 1 IEnMin= 1 EnMin= -1714.03736923887     IErMin= 1 ErrMin= 6.43D-05
 ErrMax= 6.43D-05  0.00D+00 EMaxC= 1.00D-01 BMatC= 9.60D-07 BMatP= 9.60D-07
 IDIUse=1 WtCom= 1.00D+00 WtEn= 0.00D+00
 Coeff-Com:  0.100D+01
 Coeff:      0.100D+01
 Gap=     0.237 Goal=   None    Shift=    0.000
 RMSDP=3.47D-06 MaxDP=1.51D-04 DE=-8.86D-05 OVMax= 3.59D-04

 Cycle  10  Pass 1  IDiag  1:
 RMSU=  3.32D-05    CP:  1.00D+00
 E= -1714.03736960423     Delta-E=       -0.000000365356 Rises=F Damp=F
 DIIS: error= 3.27D-05 at cycle   2 NSaved=   2.
 NSaved= 2 IEnMin= 2 EnMin= -1714.03736960423     IErMin= 2 ErrMin= 3.27D-05
 ErrMax= 3.27D-05  0.00D+00 EMaxC= 1.00D-01 BMatC= 7.20D-07 BMatP= 9.60D-07
 IDIUse=1 WtCom= 1.00D+00 WtEn= 0.00D+00
 Coeff-Com:  0.449D+00 0.551D+00
 Coeff:      0.449D+00 0.551D+00
 Gap=     0.237 Goal=   None    Shift=    0.000
 RMSDP=3.93D-06 MaxDP=1.75D-04 DE=-3.65D-07 OVMax= 3.58D-04

 Cycle  11  Pass 1  IDiag  1:
 RMSU=  3.93D-06    CP:  1.00D+00  9.93D-01
 E= -1714.03736992511     Delta-E=       -0.000000320877 Rises=F Damp=F
 DIIS: error= 2.67D-05 at cycle   3 NSaved=   3.
 NSaved= 3 IEnMin= 3 EnMin= -1714.03736992511     IErMin= 3 ErrMin= 2.67D-05
 ErrMax= 2.67D-05  0.00D+00 EMaxC= 1.00D-01 BMatC= 3.86D-07 BMatP= 7.20D-07
 IDIUse=1 WtCom= 1.00D+00 WtEn= 0.00D+00
 Coeff-Com:  0.984D-02 0.420D+00 0.570D+00
 Coeff:      0.984D-02 0.420D+00 0.570D+00
 Gap=     0.237 Goal=   None    Shift=    0.000
 RMSDP=1.74D-06 MaxDP=8.42D-05 DE=-3.21D-07 OVMax= 1.21D-04

 Cycle  12  Pass 1  IDiag  1:
 RMSU=  6.61D-07    CP:  1.00D+00  1.00D+00  6.00D-01
 E= -1714.03737024528     Delta-E=       -0.000000320172 Rises=F Damp=F
 DIIS: error= 4.84D-06 at cycle   4 NSaved=   4.
 NSaved= 4 IEnMin= 4 EnMin= -1714.03737024528     IErMin= 4 ErrMin= 4.84D-06
 ErrMax= 4.84D-06  0.00D+00 EMaxC= 1.00D-01 BMatC= 1.70D-08 BMatP= 3.86D-07
 IDIUse=1 WtCom= 1.00D+00 WtEn= 0.00D+00
 Coeff-Com: -0.686D-02 0.246D+00 0.355D+00 0.406D+00
 Coeff:     -0.686D-02 0.246D+00 0.355D+00 0.406D+00
 Gap=     0.237 Goal=   None    Shift=    0.000
 RMSDP=3.98D-07 MaxDP=1.92D-05 DE=-3.20D-07 OVMax= 2.80D-05

 Cycle  13  Pass 1  IDiag  1:
 RMSU=  2.05D-07    CP:  1.00D+00  1.00D+00  5.94D-01  4.86D-01
 E= -1714.03737025913     Delta-E=       -0.000000013853 Rises=F Damp=F
 DIIS: error= 1.02D-06 at cycle   5 NSaved=   5.
 NSaved= 5 IEnMin= 5 EnMin= -1714.03737025913     IErMin= 5 ErrMin= 1.02D-06
 ErrMax= 1.02D-06  0.00D+00 EMaxC= 1.00D-01 BMatC= 8.96D-10 BMatP= 1.70D-08
 IDIUse=1 WtCom= 1.00D+00 WtEn= 0.00D+00
 Coeff-Com: -0.475D-02 0.125D+00 0.182D+00 0.249D+00 0.449D+00
 Coeff:     -0.475D-02 0.125D+00 0.182D+00 0.249D+00 0.449D+00
 Gap=     0.237 Goal=   None    Shift=    0.000
 RMSDP=1.00D-07 MaxDP=4.76D-06 DE=-1.39D-08 OVMax= 8.95D-06

 Cycle  14  Pass 1  IDiag  1:
 RMSU=  7.48D-08    CP:  1.00D+00  1.00D+00  5.96D-01  5.14D-01  6.91D-01
 E= -1714.03737026004     Delta-E=       -0.000000000907 Rises=F Damp=F
 DIIS: error= 2.15D-07 at cycle   6 NSaved=   6.
 NSaved= 6 IEnMin= 6 EnMin= -1714.03737026004     IErMin= 6 ErrMin= 2.15D-07
 ErrMax= 2.15D-07  0.00D+00 EMaxC= 1.00D-01 BMatC= 4.06D-11 BMatP= 8.96D-10
 IDIUse=1 WtCom= 1.00D+00 WtEn= 0.00D+00
 Coeff-Com: -0.124D-02 0.243D-01 0.363D-01 0.580D-01 0.208D+00 0.675D+00
 Coeff:     -0.124D-02 0.243D-01 0.363D-01 0.580D-01 0.208D+00 0.675D+00
 Gap=     0.237 Goal=   None    Shift=    0.000
 RMSDP=2.35D-08 MaxDP=1.33D-06 DE=-9.07D-10 OVMax= 1.83D-06

 Cycle  15  Pass 1  IDiag  1:
 RMSU=  1.92D-08    CP:  1.00D+00  1.00D+00  5.95D-01  5.14D-01  7.39D-01
                    CP:  8.79D-01
 E= -1714.03737026006     Delta-E=       -0.000000000020 Rises=F Damp=F
 DIIS: error= 1.03D-07 at cycle   7 NSaved=   7.
 NSaved= 7 IEnMin= 7 EnMin= -1714.03737026006     IErMin= 7 ErrMin= 1.03D-07
 ErrMax= 1.03D-07  0.00D+00 EMaxC= 1.00D-01 BMatC= 7.86D-12 BMatP= 4.06D-11
 IDIUse=1 WtCom= 1.00D+00 WtEn= 0.00D+00
 Coeff-Com: -0.207D-03 0.736D-03 0.159D-02 0.655D-02 0.709D-01 0.385D+00
 Coeff-Com:  0.536D+00
 Coeff:     -0.207D-03 0.736D-03 0.159D-02 0.655D-02 0.709D-01 0.385D+00
 Coeff:      0.536D+00
 Gap=     0.237 Goal=   None    Shift=    0.000
 RMSDP=9.86D-09 MaxDP=8.04D-07 DE=-2.05D-11 OVMax= 4.32D-07

 SCF Done:  E(RB3LYP) =  -1714.03737026     A.U. after   15 cycles
            NFock= 15  Conv=0.99D-08     -V/T= 2.0067
 KE= 1.702553643054D+03 PE=-8.463115339651D+03 EE= 2.827967864175D+03
 Leave Link  502 at Fri Oct  2 06:19:18 2020, MaxMem=  2147483648 cpu:       392.1
 (Enter /prod/apps/gaussian/g09d1/l601.exe)
 Copying SCF densities to generalized density rwf, IOpCl= 0 IROHF=0.

 **********************************************************************

            Population analysis using the SCF density.

 **********************************************************************

 Orbital symmetries:
       Occupied  (A) (A) (A) (A) (A) (A) (A) (A) (A) (A) (A) (A)
                 (A) (A) (A) (A) (A) (A) (A) (A) (A) (A) (A) (A)
                 (A) (A) (A) (A) (A) (A) (A) (A) (A) (A) (A) (A)
                 (A) (A) (A) (A) (A) (A) (A) (A) (A) (A) (A) (A)
                 (A) (A) (A) (A) (A) (A) (A) (A) (A) (A) (A) (A)
                 (A) (A) (A) (A) (A) (A) (A) (A) (A) (A) (A) (A)
                 (A) (A) (A) (A) (A) (A) (A) (A) (A) (A) (A) (A)
                 (A) (A) (A) (A)
       Virtual   (A) (A) (A) (A) (A) (A) (A) (A) (A) (A) (A) (A)
                 (A) (A) (A) (A) (A) (A) (A) (A) (A) (A) (A) (A)
                 (A) (A) (A) (A) (A) (A) (A) (A) (A) (A) (A) (A)
                 (A) (A) (A) (A) (A) (A) (A) (A) (A) (A) (A) (A)
                 (A) (A) (A) (A) (A) (A) (A) (A) (A) (A) (A) (A)
                 (A) (A) (A) (A) (A) (A) (A) (A) (A) (A) (A) (A)
                 (A) (A) (A) (A) (A) (A) (A) (A) (A) (A) (A) (A)
                 (A) (A) (A) (A) (A) (A) (A) (A) (A) (A) (A) (A)
                 (A) (A) (A) (A) (A) (A) (A) (A) (A) (A) (A) (A)
                 (A) (A) (A) (A) (A) (A) (A) (A) (A) (A) (A) (A)
                 (A) (A) (A) (A) (A) (A) (A) (A) (A) (A) (A) (A)
                 (A) (A) (A) (A) (A) (A) (A) (A) (A) (A) (A) (A)
                 (A) (A) (A) (A) (A) (A) (A) (A) (A) (A) (A) (A)
                 (A) (A) (A) (A) (A) (A) (A) (A) (A) (A) (A) (A)
                 (A) (A) (A) (A) (A) (A) (A) (A) (A) (A) (A) (A)
                 (A) (A) (A) (A) (A) (A) (A) (A) (A) (A) (A) (A)
                 (A) (A) (A) (A) (A) (A) (A) (A) (A) (A) (A) (A)
                 (A) (A) (A) (A) (A) (A) (A) (A) (A) (A) (A) (A)
                 (A) (A) (A) (A) (A) (A) (A) (A) (A) (A) (A) (A)
                 (A) (A) (A) (A) (A) (A) (A) (A) (A) (A) (A) (A)
                 (A) (A) (A) (A) (A) (A) (A) (A) (A) (A) (A) (A)
                 (A) (A) (A) (A) (A) (A) (A) (A) (A) (A) (A) (A)
                 (A) (A) (A) (A) (A) (A) (A) (A) (A) (A) (A)
 The electronic state is 1-A.
 Alpha  occ. eigenvalues --  -89.14180 -89.08774 -19.15708 -19.15569 -19.14175
 Alpha  occ. eigenvalues --  -19.14031 -14.38892 -14.38801 -10.28431 -10.23447
 Alpha  occ. eigenvalues --  -10.23045 -10.22624 -10.22463 -10.21857 -10.20417
 Alpha  occ. eigenvalues --  -10.20194 -10.19493 -10.19394 -10.19279 -10.19211
 Alpha  occ. eigenvalues --  -10.18640  -8.16421  -8.11825  -6.12913  -6.12850
 Alpha  occ. eigenvalues --   -6.12797  -6.08248  -6.08177  -6.08112  -1.13409
 Alpha  occ. eigenvalues --   -1.09418  -1.01460  -0.99063  -0.96066  -0.94862
 Alpha  occ. eigenvalues --   -0.86376  -0.85392  -0.80069  -0.75283  -0.74672
 Alpha  occ. eigenvalues --   -0.73803  -0.72417  -0.72048  -0.68155  -0.63015
 Alpha  occ. eigenvalues --   -0.60879  -0.60752  -0.58402  -0.57330  -0.54718
 Alpha  occ. eigenvalues --   -0.53903  -0.51797  -0.51597  -0.50295  -0.49401
 Alpha  occ. eigenvalues --   -0.49063  -0.47603  -0.46798  -0.46172  -0.45526
 Alpha  occ. eigenvalues --   -0.45295  -0.44664  -0.44071  -0.43067  -0.42617
 Alpha  occ. eigenvalues --   -0.42241  -0.41715  -0.41416  -0.41070  -0.40475
 Alpha  occ. eigenvalues --   -0.39806  -0.37569  -0.36811  -0.35994  -0.35343
 Alpha  occ. eigenvalues --   -0.34593  -0.34106  -0.33922  -0.33078  -0.31960
 Alpha  occ. eigenvalues --   -0.31469  -0.30963  -0.30046  -0.29164  -0.27790
 Alpha  occ. eigenvalues --   -0.26714  -0.25361  -0.24709
 Alpha virt. eigenvalues --   -0.00968  -0.00502   0.03067   0.04165   0.05318
 Alpha virt. eigenvalues --    0.05499   0.06068   0.06350   0.06693   0.08360
 Alpha virt. eigenvalues --    0.09294   0.09430   0.10265   0.10875   0.11336
 Alpha virt. eigenvalues --    0.12452   0.13281   0.14416   0.14715   0.15205
 Alpha virt. eigenvalues --    0.15381   0.15890   0.16139   0.16693   0.17036
 Alpha virt. eigenvalues --    0.17429   0.17884   0.18165   0.18696   0.19369
 Alpha virt. eigenvalues --    0.20242   0.20697   0.20900   0.22395   0.23489
 Alpha virt. eigenvalues --    0.24545   0.25806   0.26660   0.30054   0.30419
 Alpha virt. eigenvalues --    0.32098   0.33942   0.34455   0.35349   0.36458
 Alpha virt. eigenvalues --    0.36660   0.38404   0.40763   0.43033   0.44132
 Alpha virt. eigenvalues --    0.45852   0.47575   0.47799   0.48299   0.49318
 Alpha virt. eigenvalues --    0.50610   0.51819   0.52788   0.53236   0.54536
 Alpha virt. eigenvalues --    0.55473   0.56011   0.56878   0.56993   0.57616
 Alpha virt. eigenvalues --    0.58776   0.59087   0.59524   0.59996   0.60242
 Alpha virt. eigenvalues --    0.61239   0.61601   0.62345   0.63798   0.64429
 Alpha virt. eigenvalues --    0.66490   0.67559   0.67732   0.68955   0.71536
 Alpha virt. eigenvalues --    0.72464   0.73431   0.73707   0.74513   0.74998
 Alpha virt. eigenvalues --    0.76551   0.76882   0.78346   0.79812   0.80445
 Alpha virt. eigenvalues --    0.81224   0.81743   0.82097   0.83025   0.83675
 Alpha virt. eigenvalues --    0.83872   0.84210   0.85301   0.85956   0.86534
 Alpha virt. eigenvalues --    0.87367   0.87774   0.88229   0.89389   0.89603
 Alpha virt. eigenvalues --    0.90098   0.90690   0.91397   0.93123   0.93260
 Alpha virt. eigenvalues --    0.93933   0.94297   0.94485   0.95303   0.95489
 Alpha virt. eigenvalues --    0.96653   0.97970   0.98644   1.00206   1.01755
 Alpha virt. eigenvalues --    1.03289   1.03589   1.04181   1.05814   1.06744
 Alpha virt. eigenvalues --    1.07285   1.08254   1.09494   1.11023   1.11486
 Alpha virt. eigenvalues --    1.12168   1.14169   1.14874   1.16688   1.17396
 Alpha virt. eigenvalues --    1.17794   1.19254   1.20296   1.21374   1.22733
 Alpha virt. eigenvalues --    1.24216   1.25817   1.27438   1.28792   1.29395
 Alpha virt. eigenvalues --    1.31346   1.34049   1.35833   1.38189   1.41254
 Alpha virt. eigenvalues --    1.43125   1.43536   1.44471   1.44562   1.47469
 Alpha virt. eigenvalues --    1.48089   1.49341   1.50183   1.51175   1.53494
 Alpha virt. eigenvalues --    1.55097   1.55773   1.59016   1.64014   1.67180
 Alpha virt. eigenvalues --    1.69586   1.70940   1.72077   1.73499   1.76642
 Alpha virt. eigenvalues --    1.78140   1.78994   1.79600   1.80077   1.80672
 Alpha virt. eigenvalues --    1.81212   1.81543   1.81805   1.82330   1.82804
 Alpha virt. eigenvalues --    1.83473   1.84861   1.86515   1.86915   1.88156
 Alpha virt. eigenvalues --    1.89363   1.90132   1.91002   1.92611   1.93576
 Alpha virt. eigenvalues --    1.93921   1.95818   1.97227   1.97978   1.99317
 Alpha virt. eigenvalues --    2.02181   2.02904   2.04251   2.04491   2.05461
 Alpha virt. eigenvalues --    2.06003   2.07240   2.07318   2.09644   2.10127
 Alpha virt. eigenvalues --    2.12482   2.14014   2.14664   2.14766   2.15193
 Alpha virt. eigenvalues --    2.16194   2.17059   2.18518   2.20055   2.20256
 Alpha virt. eigenvalues --    2.22177   2.24482   2.24588   2.26141   2.27758
 Alpha virt. eigenvalues --    2.29647   2.30946   2.31813   2.33250   2.34787
 Alpha virt. eigenvalues --    2.36609   2.39142   2.40965   2.41603   2.44444
 Alpha virt. eigenvalues --    2.45815   2.47628   2.50294   2.54404   2.57989
 Alpha virt. eigenvalues --    2.58521   2.59771   2.64731   2.67160   2.69438
 Alpha virt. eigenvalues --    2.71158   2.71779   2.72393   2.74368   2.74769
 Alpha virt. eigenvalues --    2.75398   2.77228   2.79188   2.82587   2.84963
 Alpha virt. eigenvalues --    2.88413   2.90102   3.05576   3.40708   3.78122
 Alpha virt. eigenvalues --    3.82865   3.91148   3.95211   3.99783   4.04740
 Alpha virt. eigenvalues --    4.06886   4.09266   4.12038   4.13828   4.17796
 Alpha virt. eigenvalues --    4.20107   4.23806   4.26034   4.32573   4.34295
 Alpha virt. eigenvalues --    4.36354   4.44792   4.54189   4.69346   4.77368
          Condensed to atoms (all electrons):
               1          2          3          4          5          6
     1  C    4.996810   0.287199  -0.049778  -0.028576  -0.002303  -0.003628
     2  N    0.287199   7.226904   0.267611   0.127249  -0.055966  -0.054988
     3  C   -0.049778   0.267611   4.995849  -0.009042   0.002465   0.001675
     4  S   -0.028576   0.127249  -0.009042  13.626297   0.444491   0.415771
     5  O   -0.002303  -0.055966   0.002465   0.444491   8.228443  -0.044179
     6  O   -0.003628  -0.054988   0.001675   0.415771  -0.044179   8.253067
     7  N    0.002318  -0.044987  -0.010953   0.130913  -0.058181  -0.054063
     8  C    0.000034  -0.003976   0.000515   0.005503   0.002349   0.002647
     9  C    0.000145  -0.010473   0.000629  -0.009675  -0.000095  -0.002105
    10  S   -0.000047  -0.000107   0.000033   0.002268   0.000015   0.003391
    11  O   -0.000027  -0.000028   0.000000   0.000611   0.000000  -0.000302
    12  O    0.000000   0.000000   0.000000  -0.000001   0.000000   0.000000
    13  C    0.000028  -0.000715  -0.000017  -0.005548  -0.000063  -0.010205
    14  C    0.000001  -0.000137  -0.000021   0.000489  -0.000119   0.000091
    15  C    0.000000   0.000001   0.000000   0.000000   0.000000   0.000001
    16  C    0.000000   0.000000   0.000000  -0.000004   0.000000   0.000000
    17  C    0.000000   0.000000   0.000000  -0.000001   0.000000   0.000000
    18  C    0.000000   0.000000   0.000000   0.000000   0.000000   0.000000
    19  C    0.000000   0.000000   0.000000   0.000000   0.000000   0.000000
    20  C    0.000000   0.000000   0.000000   0.000000   0.000000   0.000000
    21  C    0.000000   0.000000   0.000000   0.000000   0.000000   0.000000
    22  H    0.377985  -0.038895  -0.002846   0.002014  -0.000105   0.000240
    23  H    0.371843  -0.046812  -0.002511  -0.002897   0.002274  -0.000545
    24  H    0.378580  -0.029832   0.004395  -0.004556  -0.000146   0.011120
    25  H   -0.003571  -0.035431   0.374385   0.003036   0.000052  -0.000050
    26  H    0.004730  -0.033473   0.374679  -0.002786  -0.001884   0.000032
    27  H   -0.001938  -0.044242   0.375216  -0.007653   0.005343  -0.000042
    28  H   -0.000057   0.002631  -0.000157  -0.018651   0.006421  -0.000259
    29  H   -0.000003   0.000218  -0.000031   0.000064   0.000000   0.000008
    30  H   -0.000473   0.019033  -0.001361   0.001664   0.000020  -0.000384
    31  H    0.000000  -0.000002   0.000000   0.000395   0.000000   0.000226
    32  H    0.000017   0.000056  -0.000006  -0.000411  -0.000179   0.017760
    33  H    0.000000   0.000002   0.000003  -0.000318  -0.000008   0.000001
    34  H    0.000000  -0.000038  -0.000056   0.000205  -0.000007   0.000003
    35  H    0.000000   0.000000   0.000000   0.000008   0.000000   0.000000
    36  H    0.000000   0.000000   0.000000   0.000001   0.000000   0.000000
    37  H    0.000000   0.000000   0.000000   0.000000   0.000000   0.000000
    38  H    0.000000   0.000000   0.000000   0.000000   0.000000   0.000000
    39  H    0.000000   0.000000   0.000000   0.000000   0.000000   0.000000
    40  H    0.000000   0.000000   0.000000   0.000000   0.000000   0.000000
    41  H    0.000000   0.000000   0.000000   0.000000   0.000000   0.000000
               7          8          9         10         11         12
     1  C    0.002318   0.000034   0.000145  -0.000047  -0.000027   0.000000
     2  N   -0.044987  -0.003976  -0.010473  -0.000107  -0.000028   0.000000
     3  C   -0.010953   0.000515   0.000629   0.000033   0.000000   0.000000
     4  S    0.130913   0.005503  -0.009675   0.002268   0.000611  -0.000001
     5  O   -0.058181   0.002349  -0.000095   0.000015   0.000000   0.000000
     6  O   -0.054063   0.002647  -0.002105   0.003391  -0.000302   0.000000
     7  N    7.395477   0.213228  -0.040446   0.001717  -0.000136  -0.000037
     8  C    0.213228   4.813696   0.346740  -0.094548   0.001222   0.000569
     9  C   -0.040446   0.346740   5.763273   0.154996  -0.044930  -0.042019
    10  S    0.001717  -0.094548   0.154996  13.868800   0.436223   0.378239
    11  O   -0.000136   0.001222  -0.044930   0.436223   8.196710  -0.044398
    12  O   -0.000037   0.000569  -0.042019   0.378239  -0.044398   8.278537
    13  C   -0.052456   0.362695  -0.210016   0.146361  -0.042912  -0.043458
    14  C   -0.046930   0.368171  -0.039619   0.002527  -0.000059  -0.000613
    15  C    0.003348  -0.029355  -0.004442  -0.000256  -0.000011  -0.003549
    16  C   -0.000050  -0.002445  -0.003299  -0.001376   0.000000  -0.001631
    17  C   -0.000011  -0.000172  -0.000010  -0.000028   0.000000  -0.000015
    18  C    0.000000  -0.000010   0.000071   0.000000   0.000000   0.000000
    19  C    0.000000   0.000002   0.000033  -0.000004   0.000000  -0.000001
    20  C    0.000000  -0.000002  -0.000414   0.000099   0.000000   0.000168
    21  C   -0.000011   0.000579  -0.007020   0.001055  -0.000005  -0.005508
    22  H   -0.000081   0.000002   0.000142  -0.000003  -0.000002   0.000000
    23  H   -0.000079  -0.000007  -0.000021   0.000000   0.000000   0.000000
    24  H    0.000109   0.000017   0.000042   0.000212   0.000181   0.000000
    25  H   -0.000042  -0.000001   0.000220  -0.000002   0.000000   0.000000
    26  H    0.014126  -0.000107   0.000114   0.000010   0.000000   0.000000
    27  H   -0.000118  -0.000028  -0.000037   0.000000   0.000000   0.000000
    28  H    0.301933  -0.029560   0.005002  -0.000205   0.000003   0.000001
    29  H    0.001462  -0.024033   0.328777  -0.010759   0.000845  -0.001577
    30  H   -0.007219  -0.023073   0.326488  -0.005239   0.000615   0.000996
    31  H    0.002443  -0.028104   0.009518  -0.010466   0.000791  -0.000937
    32  H   -0.005829  -0.020798   0.005160  -0.005631  -0.000231   0.000951
    33  H   -0.004666  -0.037538   0.005923  -0.000210   0.000001   0.000004
    34  H    0.001410  -0.037550  -0.005170  -0.000242   0.000001   0.000004
    35  H    0.000095  -0.005999  -0.000962   0.003607   0.000035   0.010838
    36  H   -0.000110   0.004439  -0.000072   0.000107   0.000000   0.000120
    37  H   -0.000002   0.000136  -0.000020  -0.000002   0.000000   0.000000
    38  H    0.000000   0.000000   0.000000   0.000000   0.000000   0.000000
    39  H    0.000000   0.000000   0.000000   0.000000   0.000000   0.000000
    40  H    0.000000   0.000001  -0.000011   0.000007   0.000000   0.000001
    41  H    0.000001   0.000020  -0.000379  -0.000412   0.000001   0.015887
              13         14         15         16         17         18
     1  C    0.000028   0.000001   0.000000   0.000000   0.000000   0.000000
     2  N   -0.000715  -0.000137   0.000001   0.000000   0.000000   0.000000
     3  C   -0.000017  -0.000021   0.000000   0.000000   0.000000   0.000000
     4  S   -0.005548   0.000489   0.000000  -0.000004  -0.000001   0.000000
     5  O   -0.000063  -0.000119   0.000000   0.000000   0.000000   0.000000
     6  O   -0.010205   0.000091   0.000001   0.000000   0.000000   0.000000
     7  N   -0.052456  -0.046930   0.003348  -0.000050  -0.000011   0.000000
     8  C    0.362695   0.368171  -0.029355  -0.002445  -0.000172  -0.000010
     9  C   -0.210016  -0.039619  -0.004442  -0.003299  -0.000010   0.000071
    10  S    0.146361   0.002527  -0.000256  -0.001376  -0.000028   0.000000
    11  O   -0.042912  -0.000059  -0.000011   0.000000   0.000000   0.000000
    12  O   -0.043458  -0.000613  -0.003549  -0.001631  -0.000015   0.000000
    13  C    5.745744  -0.045875  -0.002249   0.000083  -0.000004   0.000000
    14  C   -0.045875   5.151987   0.328307  -0.033926  -0.006685   0.000099
    15  C   -0.002249   0.328307   5.208898   0.351285  -0.067597   0.006254
    16  C    0.000083  -0.033926   0.351285   4.656590   0.541711  -0.017479
    17  C   -0.000004  -0.006685  -0.067597   0.541711   4.980828   0.529452
    18  C    0.000000   0.000099   0.006254  -0.017479   0.529452   4.861625
    19  C    0.000000   0.000012   0.000339  -0.034609  -0.035371   0.548098
    20  C   -0.000002  -0.000189   0.007386  -0.023551  -0.048536  -0.025441
    21  C   -0.000219   0.000384  -0.050190   0.547609  -0.041266  -0.047264
    22  H    0.000000   0.000000   0.000000   0.000000   0.000000   0.000000
    23  H    0.000000   0.000000   0.000000   0.000000   0.000000   0.000000
    24  H   -0.000007   0.000000   0.000000   0.000000   0.000000   0.000000
    25  H    0.000001   0.000000   0.000000   0.000000   0.000000   0.000000
    26  H    0.000047  -0.000047   0.000000   0.000001   0.000001   0.000000
    27  H    0.000000   0.000000   0.000000   0.000000   0.000000   0.000000
    28  H    0.000122  -0.004957   0.000057   0.000007   0.000000   0.000000
    29  H    0.008632  -0.008141  -0.002500   0.010385   0.000435  -0.000305
    30  H    0.004980   0.002586   0.000138   0.000000  -0.000007   0.000000
    31  H    0.334897  -0.006969   0.000844   0.000175   0.000002   0.000000
    32  H    0.330408   0.002666   0.000064  -0.000008   0.000000   0.000000
    33  H   -0.009309   0.352982  -0.027318   0.003644   0.000328   0.000005
    34  H    0.005642   0.366010  -0.038120  -0.005343   0.004870  -0.000197
    35  H    0.000487  -0.039133   0.361354  -0.029520   0.004103  -0.000152
    36  H   -0.000042  -0.034889   0.357934  -0.031466  -0.005322  -0.000008
    37  H    0.000001   0.000774  -0.009322  -0.049046   0.353510  -0.044836
    38  H    0.000000   0.000000  -0.000189   0.003819  -0.040865   0.357282
    39  H    0.000000   0.000000   0.000007   0.000670   0.004851  -0.043470
    40  H    0.000000   0.000001  -0.000181   0.003629   0.000871   0.004558
    41  H    0.000183   0.000336  -0.010863  -0.037568   0.005810   0.000321
              19         20         21         22         23         24
     1  C    0.000000   0.000000   0.000000   0.377985   0.371843   0.378580
     2  N    0.000000   0.000000   0.000000  -0.038895  -0.046812  -0.029832
     3  C    0.000000   0.000000   0.000000  -0.002846  -0.002511   0.004395
     4  S    0.000000   0.000000   0.000000   0.002014  -0.002897  -0.004556
     5  O    0.000000   0.000000   0.000000  -0.000105   0.002274  -0.000146
     6  O    0.000000   0.000000   0.000000   0.000240  -0.000545   0.011120
     7  N    0.000000   0.000000  -0.000011  -0.000081  -0.000079   0.000109
     8  C    0.000002  -0.000002   0.000579   0.000002  -0.000007   0.000017
     9  C    0.000033  -0.000414  -0.007020   0.000142  -0.000021   0.000042
    10  S   -0.000004   0.000099   0.001055  -0.000003   0.000000   0.000212
    11  O    0.000000   0.000000  -0.000005  -0.000002   0.000000   0.000181
    12  O   -0.000001   0.000168  -0.005508   0.000000   0.000000   0.000000
    13  C    0.000000  -0.000002  -0.000219   0.000000   0.000000  -0.000007
    14  C    0.000012  -0.000189   0.000384   0.000000   0.000000   0.000000
    15  C    0.000339   0.007386  -0.050190   0.000000   0.000000   0.000000
    16  C   -0.034609  -0.023551   0.547609   0.000000   0.000000   0.000000
    17  C   -0.035371  -0.048536  -0.041266   0.000000   0.000000   0.000000
    18  C    0.548098  -0.025441  -0.047264   0.000000   0.000000   0.000000
    19  C    4.857090   0.547838  -0.034574   0.000000   0.000000   0.000000
    20  C    0.547838   4.886058   0.508553   0.000000   0.000000   0.000000
    21  C   -0.034574   0.508553   5.011554   0.000000   0.000000   0.000000
    22  H    0.000000   0.000000   0.000000   0.549809  -0.041193  -0.019738
    23  H    0.000000   0.000000   0.000000  -0.041193   0.577306  -0.028944
    24  H    0.000000   0.000000   0.000000  -0.019738  -0.028944   0.468297
    25  H    0.000000   0.000000   0.000000   0.005229  -0.001392   0.000006
    26  H    0.000000   0.000000   0.000000   0.000044  -0.000203  -0.000186
    27  H    0.000000   0.000000   0.000000  -0.001747   0.008363  -0.000175
    28  H    0.000000   0.000000   0.000000   0.000001   0.000007  -0.000004
    29  H   -0.000069   0.000528   0.011982  -0.000001   0.000000   0.000000
    30  H   -0.000001   0.000005   0.000119  -0.000453   0.000120  -0.000128
    31  H    0.000000   0.000000  -0.000009   0.000000   0.000000   0.000000
    32  H    0.000000   0.000000   0.000001   0.000000   0.000000   0.000002
    33  H    0.000000   0.000003  -0.000126   0.000000   0.000000   0.000000
    34  H   -0.000006  -0.000018   0.000350   0.000000   0.000000   0.000000
    35  H   -0.000006   0.000218  -0.003832   0.000000   0.000000   0.000000
    36  H    0.000028  -0.000217   0.002331   0.000000   0.000000   0.000000
    37  H    0.004940   0.000315   0.006244   0.000000   0.000000   0.000000
    38  H   -0.043133   0.004679   0.000761   0.000000   0.000000   0.000000
    39  H    0.359662  -0.043088   0.004694   0.000000   0.000000   0.000000
    40  H   -0.043729   0.358344  -0.038525   0.000000   0.000000   0.000000
    41  H    0.004245  -0.041964   0.349458   0.000000   0.000000   0.000000
              25         26         27         28         29         30
     1  C   -0.003571   0.004730  -0.001938  -0.000057  -0.000003  -0.000473
     2  N   -0.035431  -0.033473  -0.044242   0.002631   0.000218   0.019033
     3  C    0.374385   0.374679   0.375216  -0.000157  -0.000031  -0.001361
     4  S    0.003036  -0.002786  -0.007653  -0.018651   0.000064   0.001664
     5  O    0.000052  -0.001884   0.005343   0.006421   0.000000   0.000020
     6  O   -0.000050   0.000032  -0.000042  -0.000259   0.000008  -0.000384
     7  N   -0.000042   0.014126  -0.000118   0.301933   0.001462  -0.007219
     8  C   -0.000001  -0.000107  -0.000028  -0.029560  -0.024033  -0.023073
     9  C    0.000220   0.000114  -0.000037   0.005002   0.328777   0.326488
    10  S   -0.000002   0.000010   0.000000  -0.000205  -0.010759  -0.005239
    11  O    0.000000   0.000000   0.000000   0.000003   0.000845   0.000615
    12  O    0.000000   0.000000   0.000000   0.000001  -0.001577   0.000996
    13  C    0.000001   0.000047   0.000000   0.000122   0.008632   0.004980
    14  C    0.000000  -0.000047   0.000000  -0.004957  -0.008141   0.002586
    15  C    0.000000   0.000000   0.000000   0.000057  -0.002500   0.000138
    16  C    0.000000   0.000001   0.000000   0.000007   0.010385   0.000000
    17  C    0.000000   0.000001   0.000000   0.000000   0.000435  -0.000007
    18  C    0.000000   0.000000   0.000000   0.000000  -0.000305   0.000000
    19  C    0.000000   0.000000   0.000000   0.000000  -0.000069  -0.000001
    20  C    0.000000   0.000000   0.000000   0.000000   0.000528   0.000005
    21  C    0.000000   0.000000   0.000000   0.000000   0.011982   0.000119
    22  H    0.005229   0.000044  -0.001747   0.000001  -0.000001  -0.000453
    23  H   -0.001392  -0.000203   0.008363   0.000007   0.000000   0.000120
    24  H    0.000006  -0.000186  -0.000175  -0.000004   0.000000  -0.000128
    25  H    0.548482  -0.023529  -0.036334   0.000000  -0.000002  -0.000394
    26  H   -0.023529   0.512646  -0.030371  -0.000575   0.000020  -0.000338
    27  H   -0.036334  -0.030371   0.559328   0.000072   0.000001   0.000165
    28  H    0.000000  -0.000575   0.000072   0.369477  -0.000035   0.000119
    29  H   -0.000002   0.000020   0.000001  -0.000035   0.471803  -0.014406
    30  H   -0.000394  -0.000338   0.000165   0.000119  -0.014406   0.456291
    31  H    0.000000   0.000000   0.000000   0.000186  -0.000264  -0.000241
    32  H    0.000000   0.000000   0.000000   0.000047  -0.000235  -0.000156
    33  H    0.000000  -0.000007   0.000000   0.007491   0.000208  -0.000117
    34  H    0.000000   0.000449  -0.000001  -0.000177   0.001426  -0.000025
    35  H    0.000000   0.000000   0.000000   0.000014  -0.000113  -0.000010
    36  H    0.000000   0.000000   0.000000  -0.000024   0.000100   0.000003
    37  H    0.000000   0.000000   0.000000  -0.000001   0.000041   0.000000
    38  H    0.000000   0.000000   0.000000   0.000000  -0.000001   0.000000
    39  H    0.000000   0.000000   0.000000   0.000000   0.000000   0.000000
    40  H    0.000000   0.000000   0.000000   0.000000   0.000026   0.000000
    41  H    0.000000   0.000000   0.000000   0.000000  -0.000069   0.000011
              31         32         33         34         35         36
     1  C    0.000000   0.000017   0.000000   0.000000   0.000000   0.000000
     2  N   -0.000002   0.000056   0.000002  -0.000038   0.000000   0.000000
     3  C    0.000000  -0.000006   0.000003  -0.000056   0.000000   0.000000
     4  S    0.000395  -0.000411  -0.000318   0.000205   0.000008   0.000001
     5  O    0.000000  -0.000179  -0.000008  -0.000007   0.000000   0.000000
     6  O    0.000226   0.017760   0.000001   0.000003   0.000000   0.000000
     7  N    0.002443  -0.005829  -0.004666   0.001410   0.000095  -0.000110
     8  C   -0.028104  -0.020798  -0.037538  -0.037550  -0.005999   0.004439
     9  C    0.009518   0.005160   0.005923  -0.005170  -0.000962  -0.000072
    10  S   -0.010466  -0.005631  -0.000210  -0.000242   0.003607   0.000107
    11  O    0.000791  -0.000231   0.000001   0.000001   0.000035   0.000000
    12  O   -0.000937   0.000951   0.000004   0.000004   0.010838   0.000120
    13  C    0.334897   0.330408  -0.009309   0.005642   0.000487  -0.000042
    14  C   -0.006969   0.002666   0.352982   0.366010  -0.039133  -0.034889
    15  C    0.000844   0.000064  -0.027318  -0.038120   0.361354   0.357934
    16  C    0.000175  -0.000008   0.003644  -0.005343  -0.029520  -0.031466
    17  C    0.000002   0.000000   0.000328   0.004870   0.004103  -0.005322
    18  C    0.000000   0.000000   0.000005  -0.000197  -0.000152  -0.000008
    19  C    0.000000   0.000000   0.000000  -0.000006  -0.000006   0.000028
    20  C    0.000000   0.000000   0.000003  -0.000018   0.000218  -0.000217
    21  C   -0.000009   0.000001  -0.000126   0.000350  -0.003832   0.002331
    22  H    0.000000   0.000000   0.000000   0.000000   0.000000   0.000000
    23  H    0.000000   0.000000   0.000000   0.000000   0.000000   0.000000
    24  H    0.000000   0.000002   0.000000   0.000000   0.000000   0.000000
    25  H    0.000000   0.000000   0.000000   0.000000   0.000000   0.000000
    26  H    0.000000   0.000000  -0.000007   0.000449   0.000000   0.000000
    27  H    0.000000   0.000000   0.000000  -0.000001   0.000000   0.000000
    28  H    0.000186   0.000047   0.007491  -0.000177   0.000014  -0.000024
    29  H   -0.000264  -0.000235   0.000208   0.001426  -0.000113   0.000100
    30  H   -0.000241  -0.000156  -0.000117  -0.000025  -0.000010   0.000003
    31  H    0.507210  -0.016924   0.002900   0.000173   0.002107  -0.000214
    32  H   -0.016924   0.438674   0.000081  -0.000102   0.000092   0.000002
    33  H    0.002900   0.000081   0.607984  -0.036125   0.000401  -0.008397
    34  H    0.000173  -0.000102  -0.036125   0.566246   0.004290   0.000445
    35  H    0.002107   0.000092   0.000401   0.004290   0.531242  -0.029086
    36  H   -0.000214   0.000002  -0.008397   0.000445  -0.029086   0.581662
    37  H    0.000000   0.000000  -0.000217   0.003248   0.000037   0.003002
    38  H    0.000000   0.000000   0.000000   0.000011   0.000003  -0.000004
    39  H    0.000000   0.000000   0.000000   0.000000   0.000000   0.000000
    40  H    0.000000   0.000000   0.000000   0.000000  -0.000006   0.000004
    41  H    0.000007  -0.000002  -0.000013   0.000008   0.004310   0.000111
              37         38         39         40         41
     1  C    0.000000   0.000000   0.000000   0.000000   0.000000
     2  N    0.000000   0.000000   0.000000   0.000000   0.000000
     3  C    0.000000   0.000000   0.000000   0.000000   0.000000
     4  S    0.000000   0.000000   0.000000   0.000000   0.000000
     5  O    0.000000   0.000000   0.000000   0.000000   0.000000
     6  O    0.000000   0.000000   0.000000   0.000000   0.000000
     7  N   -0.000002   0.000000   0.000000   0.000000   0.000001
     8  C    0.000136   0.000000   0.000000   0.000001   0.000020
     9  C   -0.000020   0.000000   0.000000  -0.000011  -0.000379
    10  S   -0.000002   0.000000   0.000000   0.000007  -0.000412
    11  O    0.000000   0.000000   0.000000   0.000000   0.000001
    12  O    0.000000   0.000000   0.000000   0.000001   0.015887
    13  C    0.000001   0.000000   0.000000   0.000000   0.000183
    14  C    0.000774   0.000000   0.000000   0.000001   0.000336
    15  C   -0.009322  -0.000189   0.000007  -0.000181  -0.010863
    16  C   -0.049046   0.003819   0.000670   0.003629  -0.037568
    17  C    0.353510  -0.040865   0.004851   0.000871   0.005810
    18  C   -0.044836   0.357282  -0.043470   0.004558   0.000321
    19  C    0.004940  -0.043133   0.359662  -0.043729   0.004245
    20  C    0.000315   0.004679  -0.043088   0.358344  -0.041964
    21  C    0.006244   0.000761   0.004694  -0.038525   0.349458
    22  H    0.000000   0.000000   0.000000   0.000000   0.000000
    23  H    0.000000   0.000000   0.000000   0.000000   0.000000
    24  H    0.000000   0.000000   0.000000   0.000000   0.000000
    25  H    0.000000   0.000000   0.000000   0.000000   0.000000
    26  H    0.000000   0.000000   0.000000   0.000000   0.000000
    27  H    0.000000   0.000000   0.000000   0.000000   0.000000
    28  H   -0.000001   0.000000   0.000000   0.000000   0.000000
    29  H    0.000041  -0.000001   0.000000   0.000026  -0.000069
    30  H    0.000000   0.000000   0.000000   0.000000   0.000011
    31  H    0.000000   0.000000   0.000000   0.000000   0.000007
    32  H    0.000000   0.000000   0.000000   0.000000  -0.000002
    33  H   -0.000217   0.000000   0.000000   0.000000  -0.000013
    34  H    0.003248   0.000011   0.000000   0.000000   0.000008
    35  H    0.000037   0.000003   0.000000  -0.000006   0.004310
    36  H    0.003002  -0.000004   0.000000   0.000004   0.000111
    37  H    0.617548  -0.005855  -0.000185   0.000018  -0.000163
    38  H   -0.005855   0.599754  -0.005596  -0.000189   0.000015
    39  H   -0.000185  -0.005596   0.597242  -0.005516  -0.000153
    40  H    0.000018  -0.000189  -0.005516   0.588576  -0.004626
    41  H   -0.000163   0.000015  -0.000153  -0.004626   0.528898
 Mulliken charges:
               1
     1  C   -0.329290
     2  N   -0.530804
     3  C   -0.320675
     4  S    1.329137
     5  O   -0.528643
     6  O   -0.535283
     7  N   -0.742174
     8  C    0.214739
     9  C   -0.526040
    10  S    1.129869
    11  O   -0.504202
    12  O   -0.542572
    13  C   -0.517214
    14  C   -0.309115
    15  C   -0.380074
    16  C    0.151712
    17  C   -0.180881
    18  C   -0.128605
    19  C   -0.130784
    20  C   -0.130772
    21  C   -0.217126
    22  H    0.169598
    23  H    0.164689
    24  H    0.220757
    25  H    0.169337
    26  H    0.186606
    27  H    0.174196
    28  H    0.361071
    29  H    0.225584
    30  H    0.240673
    31  H    0.202255
    32  H    0.254531
    33  H    0.142409
    34  H    0.168386
    35  H    0.185578
    36  H    0.159562
    37  H    0.119833
    38  H    0.129508
    39  H    0.130884
    40  H    0.136748
    41  H    0.186589
 Sum of Mulliken charges =   0.00000
 Mulliken charges with hydrogens summed into heavy atoms:
               1
     1  C    0.225754
     2  N   -0.530804
     3  C    0.209465
     4  S    1.329137
     5  O   -0.528643
     6  O   -0.535283
     7  N   -0.381103
     8  C    0.214739
     9  C   -0.059783
    10  S    1.129869
    11  O   -0.504202
    12  O   -0.542572
    13  C   -0.060428
    14  C    0.001681
    15  C   -0.034934
    16  C    0.151712
    17  C   -0.061048
    18  C    0.000903
    19  C    0.000100
    20  C    0.005976
    21  C   -0.030537
 Electronic spatial extent (au):  <R**2>=           7547.0707
 Charge=              0.0000 electrons
 Dipole moment (field-independent basis, Debye):
    X=              1.7056    Y=             -5.4792    Z=             -0.6694  Tot=              5.7774
 Quadrupole moment (field-independent basis, Debye-Ang):
   XX=           -150.5124   YY=           -148.3691   ZZ=           -127.1512
   XY=             -0.8196   XZ=             -7.3244   YZ=            -10.6033
 Traceless Quadrupole moment (field-independent basis, Debye-Ang):
   XX=             -8.5015   YY=             -6.3582   ZZ=             14.8597
   XY=             -0.8196   XZ=             -7.3244   YZ=            -10.6033
 Octapole moment (field-independent basis, Debye-Ang**2):
  XXX=             -2.5392  YYY=            -47.1175  ZZZ=             -3.8557  XYY=             -5.4253
  XXY=            -18.8882  XXZ=             70.0393  XZZ=            -12.6617  YZZ=             -2.0761
  YYZ=            -14.8596  XYZ=             21.4624
 Hexadecapole moment (field-independent basis, Debye-Ang**3):
 XXXX=          -6801.4804 YYYY=          -2204.2393 ZZZZ=          -1156.0532 XXXY=            -50.2331
 XXXZ=            -46.4561 YYYX=            -16.7246 YYYZ=            -63.6133 ZZZX=             -4.0916
 ZZZY=              1.4884 XXYY=          -1432.4575 XXZZ=          -1218.5176 YYZZ=           -553.1167
 XXYZ=            -72.4530 YYXZ=             -9.2391 ZZXY=             18.4176
 N-N= 2.218556462162D+03 E-N=-8.463115399509D+03  KE= 1.702553643054D+03
 No NMR shielding tensors so no spin-rotation constants.
 Leave Link  601 at Fri Oct  2 06:19:19 2020, MaxMem=  2147483648 cpu:         0.8
 (Enter /prod/apps/gaussian/g09d1/l9999.exe)
 1\1\GINC-PIRINEUS42\SP\RB3LYP\6-31G(d)\C13H20N2O4S2\UBAFAR01\02-Oct-20
 20\0\\#p b3lyp/6-31G(d)\\SM40.n.27.pdb.xyz\\0,1\C,0,1.023,-1.225,0.741
 \N,0,2.463,-1.183,0.433\C,0,2.806,-0.307,-0.697\S,0,3.446,-0.975,1.784
 \O,0,3.703,0.436,2.094\O,0,2.889,-1.849,2.822\N,0,4.906,-1.533,1.185\C
 ,0,5.319,-2.949,1.095\C,0,4.342,-3.792,0.213\S,0,4.199,-5.048,1.534\O,
 0,2.828,-5.225,2.038\O,0,5.008,-6.25,1.245\C,0,5.176,-3.784,2.42\C,0,6
 .772,-2.884,0.585\C,0,7.463,-4.204,0.179\C,0,7.26,-4.62,-1.266\C,0,7.7
 83,-3.842,-2.309\C,0,7.623,-4.226,-3.639\C,0,6.937,-5.4,-3.953\C,0,6.4
 15,-6.186,-2.925\C,0,6.577,-5.799,-1.593\H,0,0.513,-1.592,-0.152\H,0,0
 .621,-0.237,0.998\H,0,0.852,-1.917,1.562\H,0,2.277,-0.68,-1.575\H,0,3.
 879,-0.364,-0.879\H,0,2.519,0.735,-0.516\H,0,5.64,-0.919,1.534\H,0,4.7
 58,-4.19,-0.711\H,0,3.386,-3.296,0.044\H,0,6.101,-4.18,2.841\H,0,4.563
 ,-3.294,3.174\H,0,7.36,-2.417,1.383\H,0,6.797,-2.194,-0.264\H,0,7.165,
 -5.023,0.842\H,0,8.534,-4.053,0.346\H,0,8.329,-2.931,-2.078\H,0,8.038,
 -3.611,-4.431\H,0,6.814,-5.7,-4.988\H,0,5.882,-7.102,-3.157\H,0,6.161,
 -6.403,-0.792\\Version=AM64L-G09RevD.01\State=1-A\HF=-1714.0373703\RMS
 D=9.858e-09\Dipole=0.921014,1.3151053,-1.6089795\Quadrupole=7.8420027,
 -9.9355927,2.0935899,-1.7800766,9.7180945,-2.1068353\PG=C01 [X(C13H20N
 2O4S2)]\\@


 I think that all right-thinking people in this
 country are sick and tired of being told that
 ordinary, decent people are fed up in this country
 with being sick and tired.  I'm certainly not!
 But I'm sick and tired of being told that I am!
                               -- Monty Python
 Job cpu time:       0 days  0 hours  6 minutes 40.4 seconds.
 File lengths (MBytes):  RWF=     73 Int=      0 D2E=      0 Chk=      6 Scr=      1
 Normal termination of Gaussian 09 at Fri Oct  2 06:19:19 2020.
 Initial command:
 /prod/apps/gaussian/g09d1/l1.exe "/tmp/ubafar01/1462943/Gau-2838.inp" -scrdir="/tmp/ubafar01/1462943/"
 Entering Link 1 = /prod/apps/gaussian/g09d1/l1.exe PID=      3061.
  
 Copyright (c) 1988,1990,1992,1993,1995,1998,2003,2009,2013,
            Gaussian, Inc.  All Rights Reserved.
  
 This is part of the Gaussian(R) 09 program.  It is based on
 the Gaussian(R) 03 system (copyright 2003, Gaussian, Inc.),
[...]
     8  C    0.356766   0.370150  -0.028796  -0.002541  -0.000190  -0.000010
     9  C   -0.205521  -0.039595  -0.004596  -0.003143  -0.000010   0.000069
    10  S    0.152803   0.002800  -0.000119  -0.001234  -0.000020  -0.000001
    11  O   -0.043454  -0.000059  -0.000011   0.000001   0.000000   0.000000
    12  O   -0.043708  -0.000564  -0.003452  -0.001500  -0.000014   0.000000
    13  C    5.732044  -0.045898  -0.002324   0.000087  -0.000003   0.000000
    14  C   -0.045898   5.141439   0.328603  -0.034012  -0.006560   0.000098
    15  C   -0.002324   0.328603   5.204079   0.351555  -0.066768   0.006141
    16  C    0.000087  -0.034012   0.351555   4.662033   0.541329  -0.018626
    17  C   -0.000003  -0.006560  -0.066768   0.541329   4.985072   0.527780
    18  C    0.000000   0.000098   0.006141  -0.018626   0.527780   4.871945
    19  C    0.000000   0.000012   0.000318  -0.034716  -0.036134   0.546149
    20  C   -0.000002  -0.000191   0.007336  -0.023275  -0.048562  -0.026796
    21  C   -0.000216   0.000457  -0.050527   0.546890  -0.042271  -0.046767
    22  H    0.000000   0.000000   0.000000   0.000000   0.000000   0.000000
    23  H    0.000000   0.000000   0.000000   0.000000   0.000000   0.000000
    24  H   -0.000008   0.000000   0.000000   0.000000   0.000000   0.000000
    25  H    0.000001   0.000000   0.000000   0.000000   0.000000   0.000000
    26  H    0.000046  -0.000041   0.000000   0.000000   0.000001   0.000000
    27  H    0.000000   0.000000   0.000000   0.000000   0.000000   0.000000
    28  H    0.000075  -0.004247   0.000073   0.000006   0.000000   0.000000
    29  H    0.008548  -0.007994  -0.002402   0.010096   0.000419  -0.000296
    30  H    0.004848   0.002505   0.000136   0.000003  -0.000007   0.000000
    31  H    0.338293  -0.006457   0.000759   0.000166   0.000002   0.000000
    32  H    0.330494   0.002624   0.000068  -0.000008   0.000000   0.000000
    33  H   -0.008971   0.359252  -0.026915   0.003535   0.000312   0.000005
    34  H    0.005552   0.368280  -0.038183  -0.005640   0.004936  -0.000181
    35  H    0.000661  -0.039005   0.360963  -0.031076   0.004222  -0.000157
    36  H   -0.000043  -0.033336   0.361207  -0.031081  -0.005419   0.000000
    37  H    0.000001   0.000782  -0.008800  -0.047291   0.356345  -0.043527
    38  H    0.000000   0.000000  -0.000183   0.003725  -0.039847   0.359236
    39  H    0.000000   0.000000   0.000007   0.000648   0.004766  -0.042691
    40  H    0.000000   0.000001  -0.000176   0.003652   0.000815   0.004551
    41  H    0.000173   0.000347  -0.011138  -0.038649   0.006031   0.000276
              19         20         21         22         23         24
     1  C    0.000000   0.000000   0.000000   0.380183   0.372873   0.377505
     2  N    0.000000   0.000000   0.000000  -0.037661  -0.046613  -0.031060
     3  C    0.000000   0.000000   0.000000  -0.002660  -0.002257   0.004432
     4  S    0.000000   0.000000   0.000000   0.002088  -0.003036  -0.004624
     5  O    0.000000   0.000000   0.000000  -0.000102   0.002260  -0.000143
     6  O    0.000000   0.000000   0.000000   0.000233  -0.000530   0.011030
     7  N    0.000000   0.000000  -0.000012  -0.000084  -0.000079   0.000109
     8  C    0.000002  -0.000002   0.000593   0.000002  -0.000006   0.000016
     9  C    0.000034  -0.000414  -0.006963   0.000136  -0.000020   0.000041
    10  S   -0.000004   0.000085   0.000929  -0.000003   0.000000   0.000214
    11  O    0.000000   0.000000  -0.000005  -0.000002   0.000000   0.000180
    12  O   -0.000001   0.000155  -0.005629   0.000000   0.000000   0.000000
    13  C    0.000000  -0.000002  -0.000216   0.000000   0.000000  -0.000008
    14  C    0.000012  -0.000191   0.000457   0.000000   0.000000   0.000000
    15  C    0.000318   0.007336  -0.050527   0.000000   0.000000   0.000000
    16  C   -0.034716  -0.023275   0.546890   0.000000   0.000000   0.000000
    17  C   -0.036134  -0.048562  -0.042271   0.000000   0.000000   0.000000
    18  C    0.546149  -0.026796  -0.046767   0.000000   0.000000   0.000000
    19  C    4.868281   0.546985  -0.035515   0.000000   0.000000   0.000000
    20  C    0.546985   4.897438   0.507320   0.000000   0.000000   0.000000
    21  C   -0.035515   0.507320   5.018119   0.000000   0.000000   0.000000
    22  H    0.000000   0.000000   0.000000   0.530710  -0.038865  -0.019905
    23  H    0.000000   0.000000   0.000000  -0.038865   0.570599  -0.029838
    24  H    0.000000   0.000000   0.000000  -0.019905  -0.029838   0.484710
    25  H    0.000000   0.000000   0.000000   0.004891  -0.001318   0.000010
    26  H    0.000000   0.000000   0.000000   0.000043  -0.000196  -0.000191
    27  H    0.000000   0.000000   0.000000  -0.001670   0.008123  -0.000171
    28  H    0.000000   0.000000   0.000000   0.000001   0.000007  -0.000004
    29  H   -0.000074   0.000537   0.012171  -0.000001   0.000000   0.000000
    30  H   -0.000001   0.000004   0.000116  -0.000446   0.000120  -0.000133
    31  H    0.000000   0.000000  -0.000009   0.000000   0.000000   0.000000
    32  H    0.000000   0.000000   0.000001   0.000000   0.000000   0.000002
    33  H    0.000000   0.000003  -0.000123   0.000000   0.000000   0.000000
    34  H   -0.000006  -0.000016   0.000331   0.000000   0.000000   0.000000
    35  H   -0.000006   0.000228  -0.004167   0.000000   0.000000   0.000000
    36  H    0.000028  -0.000214   0.002384   0.000000   0.000000   0.000000
    37  H    0.004793   0.000317   0.006064   0.000000   0.000000   0.000000
    38  H   -0.042675   0.004616   0.000754   0.000000   0.000000   0.000000
    39  H    0.361386  -0.042720   0.004621   0.000000   0.000000   0.000000
    40  H   -0.042868   0.359345  -0.039254   0.000000   0.000000   0.000000
    41  H    0.004403  -0.044005   0.349557   0.000000   0.000000   0.000000
              25         26         27         28         29         30
     1  C   -0.003525   0.004667  -0.001994  -0.000050  -0.000003  -0.000522
     2  N   -0.034282  -0.033582  -0.044428   0.002396   0.000221   0.019519
     3  C    0.376904   0.374741   0.376157  -0.000178  -0.000034  -0.001412
     4  S    0.003011  -0.002372  -0.008012  -0.017374   0.000068   0.001970
     5  O    0.000049  -0.001888   0.005331   0.005742   0.000000   0.000022
     6  O   -0.000049   0.000033  -0.000041  -0.000286   0.000008  -0.000391
     7  N   -0.000036   0.013488  -0.000125   0.303009   0.001472  -0.007324
     8  C    0.000000  -0.000106  -0.000027  -0.027772  -0.024077  -0.022983
     9  C    0.000210   0.000126  -0.000037   0.004653   0.329929   0.326650
    10  S   -0.000003   0.000010   0.000000  -0.000204  -0.011037  -0.005322
    11  O    0.000000   0.000000   0.000000   0.000003   0.000844   0.000525
    12  O    0.000000   0.000000   0.000000   0.000001  -0.001668   0.000988
    13  C    0.000001   0.000046   0.000000   0.000075   0.008548   0.004848
    14  C    0.000000  -0.000041   0.000000  -0.004247  -0.007994   0.002505
    15  C    0.000000   0.000000   0.000000   0.000073  -0.002402   0.000136
    16  C    0.000000   0.000000   0.000000   0.000006   0.010096   0.000003
    17  C    0.000000   0.000001   0.000000   0.000000   0.000419  -0.000007
    18  C    0.000000   0.000000   0.000000   0.000000  -0.000296   0.000000
    19  C    0.000000   0.000000   0.000000   0.000000  -0.000074  -0.000001
    20  C    0.000000   0.000000   0.000000   0.000000   0.000537   0.000004
    21  C    0.000000   0.000000   0.000000   0.000000   0.012171   0.000116
    22  H    0.004891   0.000043  -0.001670   0.000001  -0.000001  -0.000446
    23  H   -0.001318  -0.000196   0.008123   0.000007   0.000000   0.000120
    24  H    0.000010  -0.000191  -0.000171  -0.000004   0.000000  -0.000133
    25  H    0.528760  -0.022605  -0.034492   0.000000  -0.000001  -0.000393
    26  H   -0.022605   0.507476  -0.030275  -0.000526   0.000017  -0.000355
    27  H   -0.034492  -0.030275   0.556604   0.000070   0.000001   0.000165
    28  H    0.000000  -0.000526   0.000070   0.343149  -0.000030   0.000116
    29  H   -0.000001   0.000017   0.000001  -0.000030   0.465350  -0.013330
    30  H   -0.000393  -0.000355   0.000165   0.000116  -0.013330   0.449482
    31  H    0.000000   0.000000   0.000000   0.000163  -0.000258  -0.000227
    32  H    0.000000   0.000000   0.000000   0.000060  -0.000234  -0.000179
    33  H    0.000000  -0.000006   0.000000   0.006602   0.000194  -0.000110
    34  H    0.000000   0.000423  -0.000001  -0.000222   0.001410  -0.000030
    35  H    0.000000   0.000000   0.000000   0.000013  -0.000087  -0.000012
    36  H    0.000000   0.000000   0.000000  -0.000023   0.000093   0.000002
    37  H    0.000000   0.000000   0.000000  -0.000001   0.000039   0.000000
    38  H    0.000000   0.000000   0.000000   0.000000  -0.000001   0.000000
    39  H    0.000000   0.000000   0.000000   0.000000   0.000000   0.000000
    40  H    0.000000   0.000000   0.000000   0.000000   0.000026   0.000000
    41  H    0.000000   0.000000   0.000000   0.000000  -0.000086   0.000012
              31         32         33         34         35         36
     1  C    0.000000   0.000016   0.000000   0.000000   0.000000   0.000000
     2  N   -0.000002   0.000050   0.000002  -0.000037   0.000000   0.000000
     3  C    0.000000  -0.000006   0.000002  -0.000050   0.000000   0.000000
     4  S    0.000382  -0.000380  -0.000284   0.000201   0.000008   0.000001
     5  O    0.000000  -0.000177  -0.000007  -0.000006   0.000000   0.000000
     6  O    0.000216   0.017874   0.000000   0.000003   0.000000   0.000000
     7  N    0.002295  -0.006036  -0.004348   0.001018   0.000091  -0.000105
     8  C   -0.027043  -0.021153  -0.036343  -0.037511  -0.006361   0.004327
     9  C    0.009122   0.005356   0.005732  -0.005098  -0.000962  -0.000074
    10  S   -0.010931  -0.006395  -0.000216  -0.000238   0.003341   0.000085
    11  O    0.000772  -0.000194   0.000001   0.000001   0.000033   0.000000
    12  O   -0.001019   0.000979   0.000003   0.000003   0.009911   0.000113
    13  C    0.338293   0.330494  -0.008971   0.005552   0.000661  -0.000043
    14  C   -0.006457   0.002624   0.359252   0.368280  -0.039005  -0.033336
    15  C    0.000759   0.000068  -0.026915  -0.038183   0.360963   0.361207
    16  C    0.000166  -0.000008   0.003535  -0.005640  -0.031076  -0.031081
    17  C    0.000002   0.000000   0.000312   0.004936   0.004222  -0.005419
    18  C    0.000000   0.000000   0.000005  -0.000181  -0.000157   0.000000
    19  C    0.000000   0.000000   0.000000  -0.000006  -0.000006   0.000028
    20  C    0.000000   0.000000   0.000003  -0.000016   0.000228  -0.000214
    21  C   -0.000009   0.000001  -0.000123   0.000331  -0.004167   0.002384
    22  H    0.000000   0.000000   0.000000   0.000000   0.000000   0.000000
    23  H    0.000000   0.000000   0.000000   0.000000   0.000000   0.000000
    24  H    0.000000   0.000002   0.000000   0.000000   0.000000   0.000000
    25  H    0.000000   0.000000   0.000000   0.000000   0.000000   0.000000
    26  H    0.000000   0.000000  -0.000006   0.000423   0.000000   0.000000
    27  H    0.000000   0.000000   0.000000  -0.000001   0.000000   0.000000
    28  H    0.000163   0.000060   0.006602  -0.000222   0.000013  -0.000023
    29  H   -0.000258  -0.000234   0.000194   0.001410  -0.000087   0.000093
    30  H   -0.000227  -0.000179  -0.000110  -0.000030  -0.000012   0.000002
    31  H    0.485893  -0.015404   0.002669   0.000162   0.002177  -0.000206
    32  H   -0.015404   0.442620   0.000071  -0.000099   0.000087   0.000002
    33  H    0.002669   0.000071   0.577374  -0.033495   0.000403  -0.008150
    34  H    0.000162  -0.000099  -0.033495   0.554843   0.004328   0.000359
    35  H    0.002177   0.000087   0.000403   0.004328   0.542093  -0.029109
    36  H   -0.000206   0.000002  -0.008150   0.000359  -0.029109   0.566498
    37  H    0.000000   0.000000  -0.000202   0.003056   0.000039   0.002819
    38  H    0.000000   0.000000   0.000000   0.000011   0.000003  -0.000004
    39  H    0.000000   0.000000   0.000000   0.000000   0.000000   0.000000
    40  H    0.000000   0.000000   0.000000   0.000000  -0.000006   0.000003
    41  H    0.000005  -0.000002  -0.000013   0.000008   0.004391   0.000104
              37         38         39         40         41
     1  C    0.000000   0.000000   0.000000   0.000000   0.000000
     2  N    0.000000   0.000000   0.000000   0.000000   0.000000
     3  C    0.000000   0.000000   0.000000   0.000000   0.000000
     4  S    0.000000   0.000000   0.000000   0.000000   0.000000
     5  O    0.000000   0.000000   0.000000   0.000000   0.000000
     6  O    0.000000   0.000000   0.000000   0.000000   0.000000
     7  N   -0.000002   0.000000   0.000000   0.000000   0.000001
     8  C    0.000124   0.000000   0.000000   0.000001   0.000021
     9  C   -0.000019   0.000000   0.000000  -0.000011  -0.000454
    10  S   -0.000002   0.000000   0.000000   0.000006  -0.000201
    11  O    0.000000   0.000000   0.000000   0.000000   0.000001
    12  O    0.000000   0.000000   0.000000   0.000001   0.015429
    13  C    0.000001   0.000000   0.000000   0.000000   0.000173
    14  C    0.000782   0.000000   0.000000   0.000001   0.000347
    15  C   -0.008800  -0.000183   0.000007  -0.000176  -0.011138
    16  C   -0.047291   0.003725   0.000648   0.003652  -0.038649
    17  C    0.356345  -0.039847   0.004766   0.000815   0.006031
    18  C   -0.043527   0.359236  -0.042691   0.004551   0.000276
    19  C    0.004793  -0.042675   0.361386  -0.042868   0.004403
    20  C    0.000317   0.004616  -0.042720   0.359345  -0.044005
    21  C    0.006064   0.000754   0.004621  -0.039254   0.349557
    22  H    0.000000   0.000000   0.000000   0.000000   0.000000
    23  H    0.000000   0.000000   0.000000   0.000000   0.000000
    24  H    0.000000   0.000000   0.000000   0.000000   0.000000
    25  H    0.000000   0.000000   0.000000   0.000000   0.000000
    26  H    0.000000   0.000000   0.000000   0.000000   0.000000
    27  H    0.000000   0.000000   0.000000   0.000000   0.000000
    28  H   -0.000001   0.000000   0.000000   0.000000   0.000000
    29  H    0.000039  -0.000001   0.000000   0.000026  -0.000086
    30  H    0.000000   0.000000   0.000000   0.000000   0.000012
    31  H    0.000000   0.000000   0.000000   0.000000   0.000005
    32  H    0.000000   0.000000   0.000000   0.000000  -0.000002
    33  H   -0.000202   0.000000   0.000000   0.000000  -0.000013
    34  H    0.003056   0.000011   0.000000   0.000000   0.000008
    35  H    0.000039   0.000003   0.000000  -0.000006   0.004391
    36  H    0.002819  -0.000004   0.000000   0.000003   0.000104
    37  H    0.596429  -0.005554  -0.000177   0.000017  -0.000162
    38  H   -0.005554   0.585497  -0.005396  -0.000184   0.000015
    39  H   -0.000177  -0.005396   0.585480  -0.005390  -0.000154
    40  H    0.000017  -0.000184  -0.005390   0.583221  -0.004741
    41  H   -0.000162   0.000015  -0.000154  -0.004741   0.544858
 Mulliken charges:
               1
     1  C   -0.329966
     2  N   -0.531258
     3  C   -0.325441
     4  S    1.327294
     5  O   -0.544761
     6  O   -0.552151
     7  N   -0.743947
     8  C    0.211907
     9  C   -0.524137
    10  S    1.119943
    11  O   -0.529937
    12  O   -0.556123
    13  C   -0.510945
    14  C   -0.312548
    15  C   -0.380173
    16  C    0.149120
    17  C   -0.186213
    18  C   -0.137197
    19  C   -0.140391
    20  C   -0.138171
    21  C   -0.218852
    22  H    0.183114
    23  H    0.168779
    24  H    0.207829
    25  H    0.182869
    26  H    0.191074
    27  H    0.174824
    28  H    0.384777
    29  H    0.230171
    30  H    0.245991
    31  H    0.218478
    32  H    0.249961
    33  H    0.163021
    34  H    0.175885
    35  H    0.177955
    36  H    0.169737
    37  H    0.134910
    38  H    0.139988
    39  H    0.139621
    40  H    0.140989
    41  H    0.173974
 Sum of Mulliken charges =   0.00000
 Mulliken charges with hydrogens summed into heavy atoms:
               1
     1  C    0.229757
     2  N   -0.531258
     3  C    0.223325
     4  S    1.327294
     5  O   -0.544761
     6  O   -0.552151
     7  N   -0.359170
     8  C    0.211907
     9  C   -0.047975
    10  S    1.119943
    11  O   -0.529937
    12  O   -0.556123
    13  C   -0.042506
    14  C    0.026358
    15  C   -0.032480
    16  C    0.149120
    17  C   -0.051303
    18  C    0.002791
    19  C   -0.000769
    20  C    0.002818
    21  C   -0.044878
 Electronic spatial extent (au):  <R**2>=           7547.9182
 Charge=              0.0000 electrons
 Dipole moment (field-independent basis, Debye):
    X=              1.9745    Y=             -6.6481    Z=             -1.1896  Tot=              7.0364
 Quadrupole moment (field-independent basis, Debye-Ang):
   XX=           -152.9184   YY=           -149.1559   ZZ=           -125.0983
   XY=             -1.0426   XZ=             -8.4040   YZ=            -11.7764
 Traceless Quadrupole moment (field-independent basis, Debye-Ang):
   XX=            -10.5275   YY=             -6.7651   ZZ=             17.2926
   XY=             -1.0426   XZ=             -8.4040   YZ=            -11.7764
 Octapole moment (field-independent basis, Debye-Ang**2):
  XXX=              3.5307  YYY=            -58.1924  ZZZ=             -6.8748  XYY=             -3.9008
  XXY=            -25.1483  XXZ=             72.2683  XZZ=            -12.5541  YZZ=             -4.9934
  YYZ=            -16.7687  XYZ=             23.8462
 Hexadecapole moment (field-independent basis, Debye-Ang**3):
 XXXX=          -6845.5387 YYYY=          -2215.1830 ZZZZ=          -1134.1338 XXXY=            -62.7892
 XXXZ=            -60.6589 YYYX=            -20.2552 YYYZ=            -74.8631 ZZZX=            -12.3591
 ZZZY=             -4.1941 XXYY=          -1428.6291 XXZZ=          -1209.8983 YYZZ=           -549.6673
 XXYZ=            -80.4171 YYXZ=            -12.4185 ZZXY=             20.3750
 N-N= 2.218540822697D+03 E-N=-8.463286691305D+03  KE= 1.702565037719D+03
 No NMR shielding tensors so no spin-rotation constants.
 Leave Link  601 at Fri Oct  2 06:24:14 2020, MaxMem=  2147483648 cpu:         0.4
 (Enter /prod/apps/gaussian/g09d1/l9999.exe)
 1\1\GINC-PIRINEUS42\SP\RB3LYP\6-31G(d)\C13H20N2O4S2\UBAFAR01\02-Oct-20
 20\0\\#p b3lyp/6-31G(d) scrf=(iefpcm,read,solvent=n-Octanol) geom=allc
 heck guess=read\\SM40.n.27.pdb.xyz\\0,1\C,0,1.023,-1.225,0.741\N,0,2.4
 63,-1.183,0.433\C,0,2.806,-0.307,-0.697\S,0,3.446,-0.975,1.784\O,0,3.7
 03,0.436,2.094\O,0,2.889,-1.849,2.822\N,0,4.906,-1.533,1.185\C,0,5.319
 ,-2.949,1.095\C,0,4.342,-3.792,0.213\S,0,4.199,-5.048,1.534\O,0,2.828,
 -5.225,2.038\O,0,5.008,-6.25,1.245\C,0,5.176,-3.784,2.42\C,0,6.772,-2.
 884,0.585\C,0,7.463,-4.204,0.179\C,0,7.26,-4.62,-1.266\C,0,7.783,-3.84
 2,-2.309\C,0,7.623,-4.226,-3.639\C,0,6.937,-5.4,-3.953\C,0,6.415,-6.18
 6,-2.925\C,0,6.577,-5.799,-1.593\H,0,0.513,-1.592,-0.152\H,0,0.621,-0.
 237,0.998\H,0,0.852,-1.917,1.562\H,0,2.277,-0.68,-1.575\H,0,3.879,-0.3
 64,-0.879\H,0,2.519,0.735,-0.516\H,0,5.64,-0.919,1.534\H,0,4.758,-4.19
 ,-0.711\H,0,3.386,-3.296,0.044\H,0,6.101,-4.18,2.841\H,0,4.563,-3.294,
 3.174\H,0,7.36,-2.417,1.383\H,0,6.797,-2.194,-0.264\H,0,7.165,-5.023,0
 .842\H,0,8.534,-4.053,0.346\H,0,8.329,-2.931,-2.078\H,0,8.038,-3.611,-
 4.431\H,0,6.814,-5.7,-4.988\H,0,5.882,-7.102,-3.157\H,0,6.161,-6.403,-
 0.792\\Version=AM64L-G09RevD.01\State=1-A\HF=-1714.0662101\RMSD=4.811e
 -09\Dipole=1.2109085,1.6637683,-1.8518296\Quadrupole=8.982357,-11.2823
 867,2.3000297,-1.5419466,11.2210136,-2.702238\PG=C01 [X(C13H20N2O4S2)]
 \\@


 Everything starts as somebody's daydream.
                           -- Larry Niven
 Job cpu time:       0 days  0 hours  4 minutes 55.2 seconds.
 File lengths (MBytes):  RWF=    222 Int=      0 D2E=      0 Chk=      7 Scr=      1
 Normal termination of Gaussian 09 at Fri Oct  2 06:24:14 2020.
