 Entering Gaussian System, Link 0=g09
 Initial command:
 /prod/apps/gaussian/g09d1/l1.exe "/tmp/ubafar01/1462934/Gau-22222.inp" -scrdir="/tmp/ubafar01/1462934/"
 Entering Link 1 = /prod/apps/gaussian/g09d1/l1.exe PID=     22224.
  
 Copyright (c) 1988,1990,1992,1993,1995,1998,2003,2009,2013,
            Gaussian, Inc.  All Rights Reserved.
  
 This is part of the Gaussian(R) 09 program.  It is based on
 the Gaussian(R) 03 system (copyright 2003, Gaussian, Inc.),
 the Gaussian(R) 98 system (copyright 1998, Gaussian, Inc.),
 the Gaussian(R) 94 system (copyright 1995, Gaussian, Inc.),
 the Gaussian 92(TM) system (copyright 1992, Gaussian, Inc.),
 the Gaussian 90(TM) system (copyright 1990, Gaussian, Inc.),
 the Gaussian 88(TM) system (copyright 1988, Gaussian, Inc.),
 the Gaussian 86(TM) system (copyright 1986, Carnegie Mellon
 University), and the Gaussian 82(TM) system (copyright 1983,
 Carnegie Mellon University). Gaussian is a federally registered
 trademark of Gaussian, Inc.
  
 This software contains proprietary and confidential information,
 including trade secrets, belonging to Gaussian, Inc.
  
 This software is provided under written license and may be
 used, copied, transmitted, or stored only in accord with that
 written license.
  
 The following legend is applicable only to US Government
 contracts under FAR:
  
                    RESTRICTED RIGHTS LEGEND
  
 Use, reproduction and disclosure by the US Government is
 subject to restrictions as set forth in subparagraphs (a)
 and (c) of the Commercial Computer Software - Restricted
 Rights clause in FAR 52.227-19.
  
 Gaussian, Inc.
 340 Quinnipiac St., Bldg. 40, Wallingford CT 06492
  
  
 ---------------------------------------------------------------
 Warning -- This program may not be used in any manner that
 competes with the business of Gaussian, Inc. or will provide
 assistance to any competitor of Gaussian, Inc.  The licensee
 of this program is prohibited from giving any competitor of
 Gaussian, Inc. access to this program.  By using this program,
 the user acknowledges that Gaussian, Inc. is engaged in the
 business of creating and licensing software in the field of
 computational chemistry and represents and warrants to the
 licensee that it is not a competitor of Gaussian, Inc. and that
 it will not use this program in any manner prohibited above.
 ---------------------------------------------------------------
  

 Cite this work as:
 Gaussian 09, Revision D.01,
 M. J. Frisch, G. W. Trucks, H. B. Schlegel, G. E. Scuseria, 
 M. A. Robb, J. R. Cheeseman, G. Scalmani, V. Barone, B. Mennucci, 
 G. A. Petersson, H. Nakatsuji, M. Caricato, X. Li, H. P. Hratchian, 
 A. F. Izmaylov, J. Bloino, G. Zheng, J. L. Sonnenberg, M. Hada, 
 M. Ehara, K. Toyota, R. Fukuda, J. Hasegawa, M. Ishida, T. Nakajima, 
 Y. Honda, O. Kitao, H. Nakai, T. Vreven, J. A. Montgomery, Jr., 
 J. E. Peralta, F. Ogliaro, M. Bearpark, J. J. Heyd, E. Brothers, 
 K. N. Kudin, V. N. Staroverov, T. Keith, R. Kobayashi, J. Normand, 
 K. Raghavachari, A. Rendell, J. C. Burant, S. S. Iyengar, J. Tomasi, 
 M. Cossi, N. Rega, J. M. Millam, M. Klene, J. E. Knox, J. B. Cross, 
 V. Bakken, C. Adamo, J. Jaramillo, R. Gomperts, R. E. Stratmann, 
 O. Yazyev, A. J. Austin, R. Cammi, C. Pomelli, J. W. Ochterski, 
 R. L. Martin, K. Morokuma, V. G. Zakrzewski, G. A. Voth, 
 P. Salvador, J. J. Dannenberg, S. Dapprich, A. D. Daniels, 
 O. Farkas, J. B. Foresman, J. V. Ortiz, J. Cioslowski, 
 and D. J. Fox, Gaussian, Inc., Wallingford CT, 2013.
 
 ******************************************
 Gaussian 09:  AM64L-G09RevD.01 24-Apr-2013
                 2-Oct-2020 
 ******************************************
 %nproc=1
 Will use up to    1 processors via shared memory.
 %Chk=SM40.n.19.pdb.xyz.mst.n.o.chk
 %mem=16GB
 -----------------
 #p b3lyp/6-31G(d)
 -----------------
 1/38=1/1;
 2/12=2,17=6,18=5,40=1/2;
 3/5=1,6=6,7=1,11=2,16=1,25=1,30=1,74=-5/1,2,3;
 4//1;
 5/5=2,38=5/2;
 6/7=2,8=2,9=2,10=2,28=1/1;
 99/5=1,9=1/99;
 Leave Link    1 at Fri Oct  2 06:11:05 2020, MaxMem=  2147483648 cpu:         0.0
 (Enter /prod/apps/gaussian/g09d1/l101.exe)
 -----------------
 SM40.n.19.pdb.xyz
 -----------------
 Symbolic Z-matrix:
 Charge =  0 Multiplicity = 1
 C                     0.765    -1.015     0.078 
 N                     2.203    -0.819     0.329 
 C                     2.694     0.518    -0.037 
 S                     2.709    -1.344     1.848 
 O                     2.604    -0.304     2.878 
 O                     2.053    -2.638     2.06 
 N                     4.357    -1.494     1.582 
 C                     5.023    -2.664     0.976 
 C                     4.448    -3.005    -0.436 
 S                     4.238    -4.755     0.044 
 O                     2.848    -5.232    -0.02 
 O                     5.305    -5.599    -0.531 
 C                     4.72     -4.048     1.661 
 C                     6.512    -2.265     0.928 
 C                     7.525    -3.314     0.423 
 C                     8.084    -4.237     1.49 
 C                     7.963    -5.629     1.38 
 C                     8.514    -6.47      2.349 
 C                     9.195    -5.935     3.441 
 C                     9.321    -4.549     3.562 
 C                     8.77     -3.711     2.594 
 H                     0.6      -0.868    -0.99 
 H                     0.142    -0.304     0.635 
 H                     0.49     -2.033     0.347 
 H                     2.509     0.656    -1.104 
 H                     3.767     0.565     0.146 
 H                     2.19      1.314     0.523 
 H                     4.837    -1.14      2.408 
 H                     5.137    -2.873    -1.27 
 H                     3.489    -2.528    -0.641 
 H                     5.565    -4.561     2.118 
 H                     3.853    -4.014     2.32 
 H                     6.819    -1.949     1.932 
 H                     6.566    -1.375     0.294 
 H                     8.358    -2.754    -0.018 
 H                     7.097    -3.911    -0.387 
 H                     7.413    -6.042     0.541 
 H                     8.408    -7.546     2.249 
 H                     9.624    -6.589     4.193 
 H                     9.851    -4.122     4.407 
 H                     8.879    -2.634     2.692 
 
 NAtoms=     41 NQM=       41 NQMF=       0 NMMI=      0 NMMIF=      0
                NMic=       0 NMicF=      0.
                    Isotopes and Nuclear Properties:
 (Nuclear quadrupole moments (NQMom) in fm**2, nuclear magnetic moments (NMagM)
  in nuclear magnetons)

  Atom         1           2           3           4           5           6           7           8           9          10
 IAtWgt=          12          14          12          32          16          16          14          12          12          32
 AtmWgt=  12.0000000  14.0030740  12.0000000  31.9720718  15.9949146  15.9949146  14.0030740  12.0000000  12.0000000  31.9720718
 NucSpn=           0           2           0           0           0           0           2           0           0           0
 AtZEff=   0.0000000   0.0000000   0.0000000   0.0000000   0.0000000   0.0000000   0.0000000   0.0000000   0.0000000   0.0000000
 NQMom=    0.0000000   2.0440000   0.0000000   0.0000000   0.0000000   0.0000000   2.0440000   0.0000000   0.0000000   0.0000000
 NMagM=    0.0000000   0.4037610   0.0000000   0.0000000   0.0000000   0.0000000   0.4037610   0.0000000   0.0000000   0.0000000
 AtZNuc=   6.0000000   7.0000000   6.0000000  16.0000000   8.0000000   8.0000000   7.0000000   6.0000000   6.0000000  16.0000000

  Atom        11          12          13          14          15          16          17          18          19          20
 IAtWgt=          16          16          12          12          12          12          12          12          12          12
 AtmWgt=  15.9949146  15.9949146  12.0000000  12.0000000  12.0000000  12.0000000  12.0000000  12.0000000  12.0000000  12.0000000
 NucSpn=           0           0           0           0           0           0           0           0           0           0
 AtZEff=   0.0000000   0.0000000   0.0000000   0.0000000   0.0000000   0.0000000   0.0000000   0.0000000   0.0000000   0.0000000
 NQMom=    0.0000000   0.0000000   0.0000000   0.0000000   0.0000000   0.0000000   0.0000000   0.0000000   0.0000000   0.0000000
 NMagM=    0.0000000   0.0000000   0.0000000   0.0000000   0.0000000   0.0000000   0.0000000   0.0000000   0.0000000   0.0000000
 AtZNuc=   8.0000000   8.0000000   6.0000000   6.0000000   6.0000000   6.0000000   6.0000000   6.0000000   6.0000000   6.0000000

  Atom        21          22          23          24          25          26          27          28          29          30
 IAtWgt=          12           1           1           1           1           1           1           1           1           1
 AtmWgt=  12.0000000   1.0078250   1.0078250   1.0078250   1.0078250   1.0078250   1.0078250   1.0078250   1.0078250   1.0078250
 NucSpn=           0           1           1           1           1           1           1           1           1           1
 AtZEff=   0.0000000   0.0000000   0.0000000   0.0000000   0.0000000   0.0000000   0.0000000   0.0000000   0.0000000   0.0000000
 NQMom=    0.0000000   0.0000000   0.0000000   0.0000000   0.0000000   0.0000000   0.0000000   0.0000000   0.0000000   0.0000000
 NMagM=    0.0000000   2.7928460   2.7928460   2.7928460   2.7928460   2.7928460   2.7928460   2.7928460   2.7928460   2.7928460
 AtZNuc=   6.0000000   1.0000000   1.0000000   1.0000000   1.0000000   1.0000000   1.0000000   1.0000000   1.0000000   1.0000000

  Atom        31          32          33          34          35          36          37          38          39          40
 IAtWgt=           1           1           1           1           1           1           1           1           1           1
 AtmWgt=   1.0078250   1.0078250   1.0078250   1.0078250   1.0078250   1.0078250   1.0078250   1.0078250   1.0078250   1.0078250
 NucSpn=           1           1           1           1           1           1           1           1           1           1
 AtZEff=   0.0000000   0.0000000   0.0000000   0.0000000   0.0000000   0.0000000   0.0000000   0.0000000   0.0000000   0.0000000
 NQMom=    0.0000000   0.0000000   0.0000000   0.0000000   0.0000000   0.0000000   0.0000000   0.0000000   0.0000000   0.0000000
 NMagM=    2.7928460   2.7928460   2.7928460   2.7928460   2.7928460   2.7928460   2.7928460   2.7928460   2.7928460   2.7928460
 AtZNuc=   1.0000000   1.0000000   1.0000000   1.0000000   1.0000000   1.0000000   1.0000000   1.0000000   1.0000000   1.0000000

  Atom        41
 IAtWgt=           1
 AtmWgt=   1.0078250
 NucSpn=           1
 AtZEff=   0.0000000
 NQMom=    0.0000000
 NMagM=    2.7928460
 AtZNuc=   1.0000000
 Leave Link  101 at Fri Oct  2 06:11:05 2020, MaxMem=  2147483648 cpu:         0.1
 (Enter /prod/apps/gaussian/g09d1/l202.exe)
                          Input orientation:                          
 ---------------------------------------------------------------------
 Center     Atomic      Atomic             Coordinates (Angstroms)
 Number     Number       Type             X           Y           Z
 ---------------------------------------------------------------------
      1          6           0        0.765000   -1.015000    0.078000
      2          7           0        2.203000   -0.819000    0.329000
      3          6           0        2.694000    0.518000   -0.037000
      4         16           0        2.709000   -1.344000    1.848000
      5          8           0        2.604000   -0.304000    2.878000
      6          8           0        2.053000   -2.638000    2.060000
      7          7           0        4.357000   -1.494000    1.582000
      8          6           0        5.023000   -2.664000    0.976000
      9          6           0        4.448000   -3.005000   -0.436000
     10         16           0        4.238000   -4.755000    0.044000
     11          8           0        2.848000   -5.232000   -0.020000
     12          8           0        5.305000   -5.599000   -0.531000
     13          6           0        4.720000   -4.048000    1.661000
     14          6           0        6.512000   -2.265000    0.928000
     15          6           0        7.525000   -3.314000    0.423000
     16          6           0        8.084000   -4.237000    1.490000
     17          6           0        7.963000   -5.629000    1.380000
     18          6           0        8.514000   -6.470000    2.349000
     19          6           0        9.195000   -5.935000    3.441000
     20          6           0        9.321000   -4.549000    3.562000
     21          6           0        8.770000   -3.711000    2.594000
     22          1           0        0.600000   -0.868000   -0.990000
     23          1           0        0.142000   -0.304000    0.635000
     24          1           0        0.490000   -2.033000    0.347000
     25          1           0        2.509000    0.656000   -1.104000
     26          1           0        3.767000    0.565000    0.146000
     27          1           0        2.190000    1.314000    0.523000
     28          1           0        4.837000   -1.140000    2.408000
     29          1           0        5.137000   -2.873000   -1.270000
     30          1           0        3.489000   -2.528000   -0.641000
     31          1           0        5.565000   -4.561000    2.118000
     32          1           0        3.853000   -4.014000    2.320000
     33          1           0        6.819000   -1.949000    1.932000
     34          1           0        6.566000   -1.375000    0.294000
     35          1           0        8.358000   -2.754000   -0.018000
     36          1           0        7.097000   -3.911000   -0.387000
     37          1           0        7.413000   -6.042000    0.541000
     38          1           0        8.408000   -7.546000    2.249000
     39          1           0        9.624000   -6.589000    4.193000
     40          1           0        9.851000   -4.122000    4.407000
     41          1           0        8.879000   -2.634000    2.692000
 ---------------------------------------------------------------------
                    Distance matrix (angstroms):
                    1          2          3          4          5
     1  C    0.000000
     2  N    1.472841   0.000000
     3  C    2.466649   1.470580   0.000000
     4  S    2.649581   1.684940   2.649621   0.000000
     5  O    3.424535   2.631241   3.030018   1.467489   0.000000
     6  O    2.867298   2.515476   3.842997   1.466191   2.533827
     7  N    3.923509   2.581734   3.071624   1.676055   2.483692
     8  C    4.653619   3.431477   4.071306   2.803102   3.877985
     9  C    4.217675   3.225499   3.955660   3.316579   4.656000
    10  S    5.103968   4.440107   5.495000   4.150564   5.523849
    11  O    4.704422   4.473522   5.752087   4.315703   5.722161
    12  O    6.480396   5.762847   6.669261   5.523032   6.852278
    13  C    5.229436   4.305340   5.276006   3.375012   4.469461
    14  C    5.942475   4.584452   4.822182   4.019633   4.787534
    15  C    7.148568   5.878567   6.183396   5.394940   6.269240
    16  C    8.120517   6.900493   7.348051   6.114592   6.886613
    17  C    8.648434   7.577486   8.219237   6.795937   7.701851
    18  C    9.744817   8.708784   9.401997   7.760470   8.557307
    19  C   10.323811   9.205763   9.797994   8.104513   8.687141
    20  C    9.891034   8.662050   9.085396   7.545089   7.975335
    21  C    8.813552   7.524585   7.856486   6.549422   7.050380
    22  H    1.090623   2.076480   2.685897   3.567731   4.392668
    23  H    1.097223   2.146295   2.764050   3.023650   3.330539
    24  H    1.088260   2.099640   3.393033   2.766168   3.723493
    25  H    2.689033   2.079122   1.091677   3.571317   4.097188
    26  H    3.393085   2.096435   1.089508   2.767752   3.093793
    27  H    2.766386   2.141844   1.096007   3.014954   2.887100
    28  H    4.693156   3.370940   3.649581   2.209887   2.430244
    29  H    4.937981   3.922254   4.357456   4.237328   5.497432
    30  H    3.197860   2.348484   3.205457   2.864503   4.255909
    31  H    6.306799   5.339113   6.219558   4.310305   5.240913
    32  H    4.853484   4.110305   5.238106   2.942859   3.954171
    33  H    6.400046   5.015373   5.194100   4.155139   4.622463
    34  H    5.816172   4.398424   4.322661   4.158404   4.849901
    35  H    7.790185   6.461320   6.541196   6.114021   6.891867
    36  H    6.978343   5.833040   6.254994   5.553311   6.622516
    37  H    8.347515   7.380296   8.101645   6.775476   7.843003
    38  H   10.285069   9.350987  10.144146   8.432331   9.302076
    39  H   11.246536  10.163397  10.790146   8.990343   9.513719
    40  H   10.533237   9.275333   9.617764   8.079228   8.332705
    41  H    8.677047   7.310743   7.459006   6.359665   6.696202
                    6          7          8          9         10
     6  O    0.000000
     7  N    2.616417   0.000000
     8  C    3.161745   1.476378   0.000000
     9  C    3.478610   2.522643   1.562258   0.000000
    10  S    3.649681   3.607454   2.420151   1.826746   0.000000
    11  O    3.418664   4.337756   3.509596   2.773551   1.470961
    12  O    5.104538   4.713226   3.311314   2.733553   1.476973
    13  C    3.043056   2.580877   1.573687   2.357804   1.829443
    14  C    4.615543   2.380374   1.542279   2.582284   3.486063
    15  C    5.751481   3.833002   2.643542   3.209562   3.608946
    16  C    6.265354   4.628503   3.479691   4.295090   4.141371
    17  C    6.658572   5.490197   4.195002   4.747468   4.052702
    18  C    7.517464   6.529128   5.343954   6.024517   5.151546
    19  C    7.986585   6.825292   5.846473   6.793382   6.124039
    20  C    7.663664   6.155869   5.358491   6.489535   6.185115
    21  C    6.823091   5.041210   4.213566   5.325319   5.303910
    22  H    3.814002   4.595880   5.162722   4.436304   5.423372
    23  H    3.336181   4.480975   5.432315   5.194620   6.077656
    24  H    2.396531   4.095050   4.619728   4.150137   4.642047
    25  H    4.590127   3.905407   4.654997   4.196292   5.795366
    26  H    4.106142   2.578697   3.562706   3.680677   5.341783
    27  H    4.242575   3.701653   4.904649   4.967092   6.423123
    28  H    3.180529   1.018819   2.099475   3.423139   4.360679
    29  H    4.544797   3.262506   2.258582   1.089817   2.465101
    30  H    3.060980   2.600829   2.233012   1.090521   2.447398
    31  H    4.004427   3.339618   2.279591   3.192451   2.469826
    32  H    2.280565   2.673773   2.235562   2.994602   2.424352
    33  H    4.817246   2.528037   2.156566   3.513432   4.254379
    34  H    5.008103   2.559841   2.123086   2.770510   4.111750
    35  H    6.639621   4.489499   3.481144   3.940282   4.580638
    36  H    5.748937   4.150476   2.777455   2.800078   3.011972
    37  H    6.528719   5.577376   4.160794   4.355356   3.461792
    38  H    8.031825   7.313152   6.075580   6.596325   5.480931
    39  H    8.802280   7.779308   6.850103   7.814325   7.041786
    40  H    8.277649   6.713497   6.099763   7.341304   7.137382
    41  H    6.855196   4.793765   4.220698   5.436523   5.748863
                   11         12         13         14         15
    11  O    0.000000
    12  O    2.536269   0.000000
    13  C    2.780648   2.748216   0.000000
    14  C    4.809022   3.834200   2.632041   0.000000
    15  C    5.074377   3.325619   3.152685   1.543242   0.000000
    16  C    5.539478   3.696258   3.373642   2.583759   1.517531
    17  C    5.317973   3.273803   3.618780   3.691368   2.543014
    18  C    6.264851   4.398946   4.553445   4.869217   3.827262
    19  C    7.263411   5.569720   5.172504   5.194474   4.332074
    20  C    7.429464   5.829529   5.003399   4.477175   3.821539
    21  C    6.649550   5.033527   4.169719   3.156745   2.533945
    22  H    5.003888   6.688054   5.840771   6.370406   7.478978
    23  H    5.660092   7.486865   6.002358   6.671452   7.975822
    24  H    3.991047   6.055697   4.866181   6.054409   7.151081
    25  H    5.996542   6.875389   5.887390   5.355864   6.576693
    26  H    5.871740   6.388949   4.948050   4.019384   5.407951
    27  H    6.601358   7.655306   6.037134   5.626095   7.063328
    28  H    5.157109   5.360917   3.004690   2.502329   3.986458
    29  H    3.516661   2.829385   3.185165   2.662986   2.960283
    30  H    2.847479   3.569453   3.020756   3.416059   4.247257
    31  H    3.521842   2.856964   1.089056   2.754002   2.875697
    32  H    2.822968   3.570536   1.089553   3.473751   4.191920
    33  H    5.509740   4.656293   2.980779   1.096413   2.153774
    34  H    5.366430   4.484743   3.524391   1.094062   2.167036
    35  H    6.041572   4.204522   4.210525   2.131139   1.096344
    36  H    4.464721   2.466038   3.140574   2.186496   1.093477
    37  H    4.670123   2.406054   3.533084   3.902217   2.732847
    38  H    6.435570   4.598676   5.116942   5.764444   4.692951
    39  H    8.093516   6.476885   6.075930   6.248339   5.417040
    40  H    8.358974   6.872517   5.820065   5.167283   4.683524
    41  H    7.104753   5.652648   4.512166   2.974987   2.728384
                   16         17         18         19         20
    16  C    0.000000
    17  C    1.401572   0.000000
    18  C    2.430858   1.396368   0.000000
    19  C    2.814947   2.420575   1.393718   0.000000
    20  C    2.433248   2.787775   2.410987   1.396966   0.000000
    21  C    1.402173   2.409101   2.781662   2.417480   1.393868
    22  H    8.573845   9.082829  10.254888  10.917063  10.503633
    23  H    8.903644   9.490979  10.537919  11.024455  10.528124
    24  H    7.989549   8.357274   9.385071  10.028732   9.728979
    25  H    7.858175   8.684331   9.937963  10.430767   9.760478
    26  H    6.595607   7.582533   8.768035   9.086815   8.286674
    27  H    8.154013   9.070128  10.194013  10.494415   9.719128
    28  H    4.580081   5.565948   6.475547   6.561347   5.749718
    29  H    4.261796   4.754399   6.118799   6.930853   6.607803
    30  H    5.345640   5.806662   7.051956   7.799283   7.467387
    31  H    2.616242   2.726843   3.520546   4.100623   4.024030
    32  H    4.317405   4.514856   5.268557   5.786523   5.632745
    33  H    2.651515   3.893050   4.846272   4.879616   3.959407
    34  H    3.453373   4.607333   5.828958   6.132605   5.323920
    35  H    2.132705   3.221188   4.408592   4.773260   4.118955
    36  H    2.145594   2.612234   4.005255   4.811628   4.576879
    37  H    2.146827   1.084892   2.159687   3.405433   3.872461
    38  H    3.410357   2.151296   1.085823   2.153034   3.396991
    39  H    3.899963   3.404921   2.155597   1.085017   2.156750
    40  H    3.412390   3.872767   3.396474   2.156493   1.085013
    41  H    2.155560   3.395648   3.868562   3.399626   2.149300
                   21         22         23         24         25
    21  C    0.000000
    22  H    9.363579   0.000000
    23  H    9.480913   1.780024   0.000000
    24  H    8.742030   1.776765   1.787034   0.000000
    25  H    8.482100   2.445374   3.090050   3.662306   0.000000
    26  H    7.021886   3.657031   3.759642   4.186733   1.775766
    27  H    8.534405   3.094898   2.612426   3.758109   1.783775
    28  H    4.702460   5.438066   5.087775   4.893013   4.580321
    29  H    5.369491   4.968178   5.931173   4.991483   4.403156
    30  H    6.305052   3.350182   4.216250   3.196118   3.363425
    31  H    3.349791   6.924532   7.051969   5.939937   6.851095
    32  H    4.933941   5.606730   5.511338   4.373426   5.944662
    33  H    2.710957   6.955761   6.997897   6.524992   5.880427
    34  H    3.950255   6.123631   6.521587   6.111755   4.747485
    35  H    2.812141   8.042906   8.598347   7.909393   6.856989
    36  H    3.424221   7.199616   7.901073   6.907828   6.513165
    37  H    3.389664   8.690869   9.262879   8.002353   8.462768
    38  H    3.867466  10.772728  11.107579   9.833895  10.644887
    39  H    3.401323  11.875433  11.919266  10.907741  11.453011
    40  H    2.150454  11.193620  11.093682  10.415174  10.349172
    41  H    1.086929   9.231344   9.273366   8.731297   8.112374
                   26         27         28         29         30
    26  H    0.000000
    27  H    1.786074   0.000000
    28  H    3.027964   4.072094   0.000000
    29  H    3.962550   5.425000   4.076883   0.000000
    30  H    3.203639   4.219391   3.611101   1.797379   0.000000
    31  H    5.779054   6.960623   3.509605   3.809340   4.006862
    32  H    5.069607   5.863647   3.039058   3.979779   3.332899
    33  H    4.338744   5.836102   2.193030   3.733056   4.247878
    34  H    3.408798   5.141258   2.741106   2.594637   3.416367
    35  H    5.667445   7.408477   4.570330   3.457818   4.913895
    36  H    5.604245   7.225467   4.538509   2.387202   3.872321
    37  H    7.556573   9.021684   5.843892   4.301448   5.398435
    38  H    9.578612  10.960940   7.335813   6.702218   7.597959
    39  H   10.092689  11.453849   7.469484   7.986626   8.803267
    40  H    8.782889  10.164963   6.166727   7.483991   8.276363
    41  H    6.545858   8.064365   4.318617   5.455010   6.338156
                   31         32         33         34         35
    31  H    0.000000
    32  H    1.808579   0.000000
    33  H    2.903387   3.634821   0.000000
    34  H    3.805203   4.292944   1.754004   0.000000
    35  H    3.953302   5.229615   2.611330   2.282597   0.000000
    36  H    3.007416   4.226345   3.050326   2.678996   1.750694
    37  H    2.845241   4.466679   4.363527   4.749664   3.466475
    38  H    4.124322   5.764381   5.826819   6.730247   5.301420
    39  H    4.989378   6.591145   5.874500   7.193008   5.834595
    40  H    4.878733   6.351633   4.476670   5.937508   4.866323
    41  H    3.876261   5.225271   2.300092   3.561664   2.762235
                   36         37         38         39         40
    36  H    0.000000
    37  H    2.345677   0.000000
    38  H    4.677653   2.483809   0.000000
    39  H    5.876548   4.304049   2.484681   0.000000
    40  H    5.532764   4.957439   4.296858   2.486647   0.000000
    41  H    3.779748   4.288405   4.954375   4.295352   2.469849
                   41
    41  H    0.000000
 Stoichiometry    C13H20N2O4S2
 Framework group  C1[X(C13H20N2O4S2)]
 Deg. of freedom   117
 Full point group                 C1      NOp   1
 Largest Abelian subgroup         C1      NOp   1
 Largest concise Abelian subgroup C1      NOp   1
                         Standard orientation:                         
 ---------------------------------------------------------------------
 Center     Atomic      Atomic             Coordinates (Angstroms)
 Number     Number       Type             X           Y           Z
 ---------------------------------------------------------------------
      1          6           0       -4.767810    0.594183   -0.033289
      2          7           0       -3.648855   -0.226517    0.460323
      3          6           0       -4.032628   -1.190809    1.502180
      4         16           0       -2.690895   -0.881075   -0.761514
      5          8           0       -3.167808   -2.189320   -1.224737
      6          8           0       -2.492225    0.199416   -1.732485
      7          7           0       -1.298718   -1.233618    0.102615
      8          6           0       -0.218082   -0.276411    0.411925
      9          6           0       -0.744586    0.983257    1.171320
     10         16           0        0.113821    2.083976   -0.007049
     11          8           0       -0.781496    2.989218   -0.743711
     12          8           0        1.352591    2.633839    0.579935
     13          6           0        0.399768    0.473303   -0.826089
     14          6           0        0.782093   -1.097885    1.250649
     15          6           0        2.099561   -0.415890    1.675803
     16          6           0        3.240805   -0.542044    0.683560
     17          6           0        3.878370    0.592918    0.164161
     18          6           0        4.951955    0.464281   -0.719418
     19          6           0        5.406262   -0.798159   -1.096645
     20          6           0        4.777926   -1.936736   -0.586398
     21          6           0        3.706139   -1.806444    0.295172
     22          1           0       -5.163829    1.147510    0.819035
     23          1           0       -5.572170   -0.012452   -0.467911
     24          1           0       -4.395920    1.297078   -0.776221
     25          1           0       -4.440045   -0.623959    2.341495
     26          1           0       -3.144535   -1.727478    1.834302
     27          1           0       -4.784733   -1.906168    1.150284
     28          1           0       -0.956450   -2.138050   -0.218083
     29          1           0       -0.390392    1.098477    2.195513
     30          1           0       -1.827087    1.102881    1.115486
     31          1           0        1.450618    0.280966   -1.037663
     32          1           0       -0.220546    0.400079   -1.718823
     33          1           0        1.032756   -2.010000    0.696271
     34          1           0        0.236210   -1.418811    2.142832
     35          1           0        2.406274   -0.891322    2.614878
     36          1           0        1.934694    0.639682    1.908783
     37          1           0        3.508350    1.574270    0.441693
     38          1           0        5.431998    1.354649   -1.114150
     39          1           0        6.241296   -0.897521   -1.782287
     40          1           0        5.124906   -2.924363   -0.871793
     41          1           0        3.227682   -2.697543    0.693214
 ---------------------------------------------------------------------
 Rotational constants (GHZ):      0.5021958      0.1567638      0.1383521
 Leave Link  202 at Fri Oct  2 06:11:05 2020, MaxMem=  2147483648 cpu:         0.0
 (Enter /prod/apps/gaussian/g09d1/l301.exe)
 Standard basis: 6-31G(d) (6D, 7F)
 Ernie: Thresh=  0.10000D-02 Tol=  0.10000D-05 Strict=F.
 There are   363 symmetry adapted cartesian basis functions of A   symmetry.
 There are   363 symmetry adapted basis functions of A   symmetry.
   363 basis functions,   716 primitive gaussians,   363 cartesian basis functions
    88 alpha electrons       88 beta electrons
       nuclear repulsion energy      2208.1268231773 Hartrees.
 IExCor=  402 DFT=T Ex+Corr=B3LYP ExCW=0 ScaHFX=  0.200000
 ScaDFX=  0.800000  0.720000  1.000000  0.810000 ScalE2=  1.000000  1.000000
 IRadAn=      0 IRanWt=     -1 IRanGd=            0 ICorTp=0 IEmpDi=  4
 NAtoms=   41 NActive=   41 NUniq=   41 SFac= 1.00D+00 NAtFMM=   60 NAOKFM=F Big=F
 Integral buffers will be    131072 words long.
 Raffenetti 2 integral format.
 Two-electron integral symmetry is turned on.
 Leave Link  301 at Fri Oct  2 06:11:05 2020, MaxMem=  2147483648 cpu:         0.0
 (Enter /prod/apps/gaussian/g09d1/l302.exe)
 NPDir=0 NMtPBC=     1 NCelOv=     1 NCel=       1 NClECP=     1 NCelD=      1
         NCelK=      1 NCelE2=     1 NClLst=     1 CellRange=     0.0.
 One-electron integrals computed using PRISM.
 NBasis=   363 RedAO= T EigKep=  4.62D-04  NBF=   363
 NBsUse=   363 1.00D-06 EigRej= -1.00D+00 NBFU=   363
 Precomputing XC quadrature grid using
 IXCGrd= 4 IRadAn=           0 IRanWt=          -1 IRanGd=           0 AccXCQ= 0.00D+00.
 Generated NRdTot=       0 NPtTot=           0 NUsed=           0 NTot=          32
 NSgBfM=   357   358   358   358   359 MxSgAt=    41 MxSgA2=    41.
 Leave Link  302 at Fri Oct  2 06:11:06 2020, MaxMem=  2147483648 cpu:         1.3
 (Enter /prod/apps/gaussian/g09d1/l303.exe)
 DipDrv:  MaxL=1.
 Leave Link  303 at Fri Oct  2 06:11:07 2020, MaxMem=  2147483648 cpu:         0.0
 (Enter /prod/apps/gaussian/g09d1/l401.exe)
 ExpMin= 1.17D-01 ExpMax= 2.19D+04 ExpMxC= 3.30D+03 IAcc=1 IRadAn=         1 AccDes= 0.00D+00
 Harris functional with IExCor=  402 and IRadAn=       1 diagonalized for initial guess.
 HarFok:  IExCor=  402 AccDes= 0.00D+00 IRadAn=         1 IDoV= 1 UseB2=F ITyADJ=14
 ICtDFT=  3500011 ScaDFX=  1.000000  1.000000  1.000000  1.000000
 FoFCou: FMM=F IPFlag=           0 FMFlag=      100000 FMFlg1=           0
         NFxFlg=           0 DoJE=T BraDBF=F KetDBF=T FulRan=T
         wScrn=  0.000000 ICntrl=     500 IOpCl=  0 I1Cent=   200000004 NGrid=           0
         NMat0=    1 NMatS0=      1 NMatT0=    0 NMatD0=    1 NMtDS0=    0 NMtDT0=    0
 Petite list used in FoFCou.
 Harris En= -1714.14363154677    
 JPrj=0 DoOrth=F DoCkMO=F.
 Leave Link  401 at Fri Oct  2 06:11:12 2020, MaxMem=  2147483648 cpu:         5.1
 (Enter /prod/apps/gaussian/g09d1/l502.exe)
 Closed shell SCF:
 Using DIIS extrapolation, IDIIS=  1040.
 Integral symmetry usage will be decided dynamically.
 IVT=      418784 IEndB=      418784 NGot=  2147483648 MDV=  2147213637
 LenX=  2147213637 LenY=  2147081427
 Requested convergence on RMS density matrix=1.00D-08 within 128 cycles.
 Requested convergence on MAX density matrix=1.00D-06.
 Requested convergence on             energy=1.00D-06.
 No special actions if energy rises.
 Fock matrices will be formed incrementally for  20 cycles.
 Integral accuracy reduced to 1.0D-05 until final iterations.

 Cycle   1  Pass 0  IDiag  1:
 FoFJK:  IHMeth= 1 ICntrl=       0 DoSepK=F KAlg= 0 I1Cent=   0 FoldK=F
 IRaf= 750000000 NMat=   1 IRICut=       1 DoRegI=T DoRafI=F ISym2E= 0.
 FoFCou: FMM=F IPFlag=           0 FMFlag=      100000 FMFlg1=           0
         NFxFlg=           0 DoJE=F BraDBF=F KetDBF=F FulRan=T
         wScrn=  0.000000 ICntrl=       0 IOpCl=  0 I1Cent=           0 NGrid=           0
         NMat0=    1 NMatS0=      1 NMatT0=    0 NMatD0=    1 NMtDS0=    0 NMtDT0=    0
 Symmetry not used in FoFCou.
 E= -1713.19662353424    
 DIIS: error= 3.82D-02 at cycle   1 NSaved=   1.
 NSaved= 1 IEnMin= 1 EnMin= -1713.19662353424     IErMin= 1 ErrMin= 3.82D-02
 ErrMax= 3.82D-02  0.00D+00 EMaxC= 1.00D-01 BMatC= 9.90D-01 BMatP= 9.90D-01
 IDIUse=3 WtCom= 6.18D-01 WtEn= 3.82D-01
 Coeff-Com:  0.100D+01
 Coeff-En:   0.100D+01
 Coeff:      0.100D+01
 Gap=     0.363 Goal=   None    Shift=    0.000
 GapD=    0.363 DampG=1.000 DampE=0.500 DampFc=0.5000 IDamp=-1.
 Damping current iteration by 5.00D-01
 RMSDP=6.95D-03 MaxDP=6.07D-01              OVMax= 2.27D-01

 Cycle   2  Pass 0  IDiag  1:
 RMSU=  3.47D-03    CP:  9.99D-01
 E= -1713.37433267828     Delta-E=       -0.177709144042 Rises=F Damp=T
 DIIS: error= 1.54D-02 at cycle   2 NSaved=   2.
 NSaved= 2 IEnMin= 2 EnMin= -1713.37433267828     IErMin= 2 ErrMin= 1.54D-02
 ErrMax= 1.54D-02  0.00D+00 EMaxC= 1.00D-01 BMatC= 1.70D-01 BMatP= 9.90D-01
 IDIUse=3 WtCom= 8.46D-01 WtEn= 1.54D-01
 Coeff-Com:  0.250D+00 0.750D+00
 Coeff-En:   0.394D+00 0.606D+00
 Coeff:      0.272D+00 0.728D+00
 Gap=     0.297 Goal=   None    Shift=    0.000
 RMSDP=2.05D-03 MaxDP=1.33D-01 DE=-1.78D-01 OVMax= 1.87D-01

 Cycle   3  Pass 0  IDiag  1:
 RMSU=  1.64D-03    CP:  9.89D-01  6.47D-01
 E= -1713.94184234191     Delta-E=       -0.567509663635 Rises=F Damp=F
 DIIS: error= 1.02D-02 at cycle   3 NSaved=   3.
 NSaved= 3 IEnMin= 3 EnMin= -1713.94184234191     IErMin= 3 ErrMin= 1.02D-02
 ErrMax= 1.02D-02  0.00D+00 EMaxC= 1.00D-01 BMatC= 1.03D-01 BMatP= 1.70D-01
 IDIUse=3 WtCom= 8.98D-01 WtEn= 1.02D-01
 Coeff-Com:  0.103D+00 0.444D+00 0.454D+00
 Coeff-En:   0.000D+00 0.000D+00 0.100D+01
 Coeff:      0.923D-01 0.398D+00 0.509D+00
 Gap=     0.239 Goal=   None    Shift=    0.000
 RMSDP=1.30D-03 MaxDP=4.28D-02 DE=-5.68D-01 OVMax= 8.65D-02

 Cycle   4  Pass 0  IDiag  1:
 RMSU=  7.54D-04    CP:  9.95D-01  7.30D-01  3.82D-01
 E= -1714.02441193250     Delta-E=       -0.082569590587 Rises=F Damp=F
 DIIS: error= 3.55D-03 at cycle   4 NSaved=   4.
 NSaved= 4 IEnMin= 4 EnMin= -1714.02441193250     IErMin= 4 ErrMin= 3.55D-03
 ErrMax= 3.55D-03  0.00D+00 EMaxC= 1.00D-01 BMatC= 1.43D-02 BMatP= 1.03D-01
 IDIUse=3 WtCom= 9.65D-01 WtEn= 3.55D-02
 Coeff-Com:  0.112D-01 0.795D-01 0.284D+00 0.626D+00
 Coeff-En:   0.000D+00 0.000D+00 0.126D+00 0.874D+00
 Coeff:      0.108D-01 0.767D-01 0.278D+00 0.634D+00
 Gap=     0.238 Goal=   None    Shift=    0.000
 RMSDP=4.17D-04 MaxDP=1.65D-02 DE=-8.26D-02 OVMax= 2.54D-02

 Cycle   5  Pass 0  IDiag  1:
 RMSU=  1.78D-04    CP:  9.94D-01  7.13D-01  5.38D-01  6.41D-01
 E= -1714.03638093631     Delta-E=       -0.011969003805 Rises=F Damp=F
 DIIS: error= 9.00D-04 at cycle   5 NSaved=   5.
 NSaved= 5 IEnMin= 5 EnMin= -1714.03638093631     IErMin= 5 ErrMin= 9.00D-04
 ErrMax= 9.00D-04  0.00D+00 EMaxC= 1.00D-01 BMatC= 1.02D-03 BMatP= 1.43D-02
 IDIUse=3 WtCom= 9.91D-01 WtEn= 9.00D-03
 Coeff-Com: -0.689D-03 0.162D-01 0.117D+00 0.341D+00 0.526D+00
 Coeff-En:   0.000D+00 0.000D+00 0.000D+00 0.000D+00 0.100D+01
 Coeff:     -0.682D-03 0.160D-01 0.116D+00 0.338D+00 0.530D+00
 Gap=     0.238 Goal=   None    Shift=    0.000
 RMSDP=1.11D-04 MaxDP=6.97D-03 DE=-1.20D-02 OVMax= 5.73D-03

 Cycle   6  Pass 0  IDiag  1:
 RMSU=  5.72D-05    CP:  9.94D-01  7.16D-01  5.30D-01  7.01D-01  5.35D-01
 E= -1714.03721129848     Delta-E=       -0.000830362170 Rises=F Damp=F
 DIIS: error= 4.69D-04 at cycle   6 NSaved=   6.
 NSaved= 6 IEnMin= 6 EnMin= -1714.03721129848     IErMin= 6 ErrMin= 4.69D-04
 ErrMax= 4.69D-04  0.00D+00 EMaxC= 1.00D-01 BMatC= 1.21D-04 BMatP= 1.02D-03
 IDIUse=3 WtCom= 9.95D-01 WtEn= 4.69D-03
 Coeff-Com: -0.126D-02 0.346D-02 0.451D-01 0.144D+00 0.316D+00 0.493D+00
 Coeff-En:   0.000D+00 0.000D+00 0.000D+00 0.000D+00 0.329D-01 0.967D+00
 Coeff:     -0.125D-02 0.344D-02 0.449D-01 0.144D+00 0.315D+00 0.495D+00
 Gap=     0.238 Goal=   None    Shift=    0.000
 RMSDP=3.65D-05 MaxDP=2.12D-03 DE=-8.30D-04 OVMax= 3.27D-03

 Cycle   7  Pass 0  IDiag  1:
 RMSU=  2.45D-05    CP:  9.94D-01  7.16D-01  5.31D-01  7.01D-01  5.91D-01
                    CP:  5.59D-01
 E= -1714.03729443997     Delta-E=       -0.000083141491 Rises=F Damp=F
 DIIS: error= 1.99D-04 at cycle   7 NSaved=   7.
 NSaved= 7 IEnMin= 7 EnMin= -1714.03729443997     IErMin= 7 ErrMin= 1.99D-04
 ErrMax= 1.99D-04  0.00D+00 EMaxC= 1.00D-01 BMatC= 2.16D-05 BMatP= 1.21D-04
 IDIUse=3 WtCom= 9.98D-01 WtEn= 1.99D-03
 Coeff-Com: -0.766D-03-0.430D-04 0.133D-01 0.474D-01 0.139D+00 0.334D+00
 Coeff-Com:  0.467D+00
 Coeff-En:   0.000D+00 0.000D+00 0.000D+00 0.000D+00 0.000D+00 0.143D+00
 Coeff-En:   0.857D+00
 Coeff:     -0.765D-03-0.430D-04 0.132D-01 0.473D-01 0.139D+00 0.334D+00
 Coeff:      0.467D+00
 Gap=     0.238 Goal=   None    Shift=    0.000
 RMSDP=1.34D-05 MaxDP=7.28D-04 DE=-8.31D-05 OVMax= 1.12D-03

 Cycle   8  Pass 0  IDiag  1:
 RMSU=  6.22D-06    CP:  9.94D-01  7.16D-01  5.32D-01  7.00D-01  5.96D-01
                    CP:  6.28D-01  5.45D-01
 E= -1714.03731188408     Delta-E=       -0.000017444109 Rises=F Damp=F
 DIIS: error= 3.46D-05 at cycle   8 NSaved=   8.
 NSaved= 8 IEnMin= 8 EnMin= -1714.03731188408     IErMin= 8 ErrMin= 3.46D-05
 ErrMax= 3.46D-05  0.00D+00 EMaxC= 1.00D-01 BMatC= 7.57D-07 BMatP= 2.16D-05
 IDIUse=1 WtCom= 1.00D+00 WtEn= 0.00D+00
 Coeff-Com: -0.260D-03-0.312D-03 0.201D-02 0.891D-02 0.388D-01 0.116D+00
 Coeff-Com:  0.226D+00 0.609D+00
 Coeff:     -0.260D-03-0.312D-03 0.201D-02 0.891D-02 0.388D-01 0.116D+00
 Coeff:      0.226D+00 0.609D+00
 Gap=     0.238 Goal=   None    Shift=    0.000
 RMSDP=3.41D-06 MaxDP=1.48D-04 DE=-1.74D-05 OVMax= 2.10D-04

 Initial convergence to 1.0D-05 achieved.  Increase integral accuracy.
 Cycle   9  Pass 1  IDiag  1:
 E= -1714.03734887584     Delta-E=       -0.000036991760 Rises=F Damp=F
 DIIS: error= 5.64D-05 at cycle   1 NSaved=   1.
 NSaved= 1 IEnMin= 1 EnMin= -1714.03734887584     IErMin= 1 ErrMin= 5.64D-05
 ErrMax= 5.64D-05  0.00D+00 EMaxC= 1.00D-01 BMatC= 9.38D-07 BMatP= 9.38D-07
 IDIUse=1 WtCom= 1.00D+00 WtEn= 0.00D+00
 Coeff-Com:  0.100D+01
 Coeff:      0.100D+01
 Gap=     0.238 Goal=   None    Shift=    0.000
 RMSDP=3.41D-06 MaxDP=1.48D-04 DE=-3.70D-05 OVMax= 3.08D-04

 Cycle  10  Pass 1  IDiag  1:
 RMSU=  2.83D-05    CP:  1.00D+00
 E= -1714.03734926972     Delta-E=       -0.000000393886 Rises=F Damp=F
 DIIS: error= 3.57D-05 at cycle   2 NSaved=   2.
 NSaved= 2 IEnMin= 2 EnMin= -1714.03734926972     IErMin= 2 ErrMin= 3.57D-05
 ErrMax= 3.57D-05  0.00D+00 EMaxC= 1.00D-01 BMatC= 6.89D-07 BMatP= 9.38D-07
 IDIUse=1 WtCom= 1.00D+00 WtEn= 0.00D+00
 Coeff-Com:  0.445D+00 0.555D+00
 Coeff:      0.445D+00 0.555D+00
 Gap=     0.238 Goal=   None    Shift=    0.000
 RMSDP=3.81D-06 MaxDP=1.57D-04 DE=-3.94D-07 OVMax= 3.12D-04

 Cycle  11  Pass 1  IDiag  1:
 RMSU=  3.80D-06    CP:  1.00D+00  9.92D-01
 E= -1714.03734954862     Delta-E=       -0.000000278897 Rises=F Damp=F
 DIIS: error= 2.38D-05 at cycle   3 NSaved=   3.
 NSaved= 3 IEnMin= 3 EnMin= -1714.03734954862     IErMin= 3 ErrMin= 2.38D-05
 ErrMax= 2.38D-05  0.00D+00 EMaxC= 1.00D-01 BMatC= 3.91D-07 BMatP= 6.89D-07
 IDIUse=1 WtCom= 1.00D+00 WtEn= 0.00D+00
 Coeff-Com:  0.838D-02 0.427D+00 0.565D+00
 Coeff:      0.838D-02 0.427D+00 0.565D+00
 Gap=     0.238 Goal=   None    Shift=    0.000
 RMSDP=1.74D-06 MaxDP=7.94D-05 DE=-2.79D-07 OVMax= 1.08D-04

 Cycle  12  Pass 1  IDiag  1:
 RMSU=  6.53D-07    CP:  1.00D+00  1.01D+00  5.88D-01
 E= -1714.03734986580     Delta-E=       -0.000000317178 Rises=F Damp=F
 DIIS: error= 4.06D-06 at cycle   4 NSaved=   4.
 NSaved= 4 IEnMin= 4 EnMin= -1714.03734986580     IErMin= 4 ErrMin= 4.06D-06
 ErrMax= 4.06D-06  0.00D+00 EMaxC= 1.00D-01 BMatC= 1.60D-08 BMatP= 3.91D-07
 IDIUse=1 WtCom= 1.00D+00 WtEn= 0.00D+00
 Coeff-Com: -0.808D-02 0.248D+00 0.350D+00 0.410D+00
 Coeff:     -0.808D-02 0.248D+00 0.350D+00 0.410D+00
 Gap=     0.238 Goal=   None    Shift=    0.000
 RMSDP=3.83D-07 MaxDP=1.70D-05 DE=-3.17D-07 OVMax= 2.73D-05

 Cycle  13  Pass 1  IDiag  1:
 RMSU=  2.13D-07    CP:  1.00D+00  1.01D+00  5.88D-01  5.12D-01
 E= -1714.03734987902     Delta-E=       -0.000000013228 Rises=F Damp=F
 DIIS: error= 1.77D-06 at cycle   5 NSaved=   5.
 NSaved= 5 IEnMin= 5 EnMin= -1714.03734987902     IErMin= 5 ErrMin= 1.77D-06
 ErrMax= 1.77D-06  0.00D+00 EMaxC= 1.00D-01 BMatC= 8.30D-10 BMatP= 1.60D-08
 IDIUse=1 WtCom= 1.00D+00 WtEn= 0.00D+00
 Coeff-Com: -0.513D-02 0.125D+00 0.178D+00 0.252D+00 0.450D+00
 Coeff:     -0.513D-02 0.125D+00 0.178D+00 0.252D+00 0.450D+00
 Gap=     0.238 Goal=   None    Shift=    0.000
 RMSDP=9.55D-08 MaxDP=4.22D-06 DE=-1.32D-08 OVMax= 8.50D-06

 Cycle  14  Pass 1  IDiag  1:
 RMSU=  7.50D-08    CP:  1.00D+00  1.01D+00  5.90D-01  5.46D-01  7.48D-01
 E= -1714.03734987982     Delta-E=       -0.000000000796 Rises=F Damp=F
 DIIS: error= 2.84D-07 at cycle   6 NSaved=   6.
 NSaved= 6 IEnMin= 6 EnMin= -1714.03734987982     IErMin= 6 ErrMin= 2.84D-07
 ErrMax= 2.84D-07  0.00D+00 EMaxC= 1.00D-01 BMatC= 4.23D-11 BMatP= 8.30D-10
 IDIUse=1 WtCom= 1.00D+00 WtEn= 0.00D+00
 Coeff-Com: -0.132D-02 0.241D-01 0.352D-01 0.641D-01 0.214D+00 0.664D+00
 Coeff:     -0.132D-02 0.241D-01 0.352D-01 0.641D-01 0.214D+00 0.664D+00
 Gap=     0.238 Goal=   None    Shift=    0.000
 RMSDP=2.32D-08 MaxDP=1.46D-06 DE=-7.96D-10 OVMax= 1.29D-06

 Cycle  15  Pass 1  IDiag  1:
 RMSU=  1.91D-08    CP:  1.00D+00  1.01D+00  5.90D-01  5.51D-01  7.92D-01
                    CP:  8.87D-01
 E= -1714.03734987989     Delta-E=       -0.000000000071 Rises=F Damp=F
 DIIS: error= 9.45D-08 at cycle   7 NSaved=   7.
 NSaved= 7 IEnMin= 7 EnMin= -1714.03734987989     IErMin= 7 ErrMin= 9.45D-08
 ErrMax= 9.45D-08  0.00D+00 EMaxC= 1.00D-01 BMatC= 8.54D-12 BMatP= 4.23D-11
 IDIUse=1 WtCom= 1.00D+00 WtEn= 0.00D+00
 Coeff-Com: -0.171D-03-0.653D-03-0.418D-03 0.788D-02 0.707D-01 0.378D+00
 Coeff-Com:  0.545D+00
 Coeff:     -0.171D-03-0.653D-03-0.418D-03 0.788D-02 0.707D-01 0.378D+00
 Coeff:      0.545D+00
 Gap=     0.238 Goal=   None    Shift=    0.000
 RMSDP=1.08D-08 MaxDP=7.51D-07 DE=-7.14D-11 OVMax= 5.64D-07

 Cycle  16  Pass 1  IDiag  1:
 RMSU=  6.77D-09    CP:  1.00D+00  1.01D+00  5.90D-01  5.55D-01  8.02D-01
                    CP:  9.08D-01  6.04D-01
 E= -1714.03734987985     Delta-E=        0.000000000041 Rises=F Damp=F
 DIIS: error= 4.02D-08 at cycle   8 NSaved=   8.
 NSaved= 8 IEnMin= 7 EnMin= -1714.03734987989     IErMin= 8 ErrMin= 4.02D-08
 ErrMax= 4.02D-08  0.00D+00 EMaxC= 1.00D-01 BMatC= 1.44D-12 BMatP= 8.54D-12
 IDIUse=1 WtCom= 1.00D+00 WtEn= 0.00D+00
 Coeff-Com:  0.254D-04-0.270D-02-0.362D-02-0.131D-02 0.230D-01 0.166D+00
 Coeff-Com:  0.347D+00 0.472D+00
 Coeff:      0.254D-04-0.270D-02-0.362D-02-0.131D-02 0.230D-01 0.166D+00
 Coeff:      0.347D+00 0.472D+00
 Gap=     0.238 Goal=   None    Shift=    0.000
 RMSDP=3.77D-09 MaxDP=1.95D-07 DE= 4.09D-11 OVMax= 2.20D-07

 SCF Done:  E(RB3LYP) =  -1714.03734988     A.U. after   16 cycles
            NFock= 16  Conv=0.38D-08     -V/T= 2.0068
 KE= 1.702545164163D+03 PE=-8.442309686995D+03 EE= 2.817600349775D+03
 Leave Link  502 at Fri Oct  2 06:18:11 2020, MaxMem=  2147483648 cpu:       419.8
 (Enter /prod/apps/gaussian/g09d1/l601.exe)
 Copying SCF densities to generalized density rwf, IOpCl= 0 IROHF=0.

 **********************************************************************

            Population analysis using the SCF density.

 **********************************************************************

 Orbital symmetries:
       Occupied  (A) (A) (A) (A) (A) (A) (A) (A) (A) (A) (A) (A)
                 (A) (A) (A) (A) (A) (A) (A) (A) (A) (A) (A) (A)
                 (A) (A) (A) (A) (A) (A) (A) (A) (A) (A) (A) (A)
                 (A) (A) (A) (A) (A) (A) (A) (A) (A) (A) (A) (A)
                 (A) (A) (A) (A) (A) (A) (A) (A) (A) (A) (A) (A)
                 (A) (A) (A) (A) (A) (A) (A) (A) (A) (A) (A) (A)
                 (A) (A) (A) (A) (A) (A) (A) (A) (A) (A) (A) (A)
                 (A) (A) (A) (A)
       Virtual   (A) (A) (A) (A) (A) (A) (A) (A) (A) (A) (A) (A)
                 (A) (A) (A) (A) (A) (A) (A) (A) (A) (A) (A) (A)
                 (A) (A) (A) (A) (A) (A) (A) (A) (A) (A) (A) (A)
                 (A) (A) (A) (A) (A) (A) (A) (A) (A) (A) (A) (A)
                 (A) (A) (A) (A) (A) (A) (A) (A) (A) (A) (A) (A)
                 (A) (A) (A) (A) (A) (A) (A) (A) (A) (A) (A) (A)
                 (A) (A) (A) (A) (A) (A) (A) (A) (A) (A) (A) (A)
                 (A) (A) (A) (A) (A) (A) (A) (A) (A) (A) (A) (A)
                 (A) (A) (A) (A) (A) (A) (A) (A) (A) (A) (A) (A)
                 (A) (A) (A) (A) (A) (A) (A) (A) (A) (A) (A) (A)
                 (A) (A) (A) (A) (A) (A) (A) (A) (A) (A) (A) (A)
                 (A) (A) (A) (A) (A) (A) (A) (A) (A) (A) (A) (A)
                 (A) (A) (A) (A) (A) (A) (A) (A) (A) (A) (A) (A)
                 (A) (A) (A) (A) (A) (A) (A) (A) (A) (A) (A) (A)
                 (A) (A) (A) (A) (A) (A) (A) (A) (A) (A) (A) (A)
                 (A) (A) (A) (A) (A) (A) (A) (A) (A) (A) (A) (A)
                 (A) (A) (A) (A) (A) (A) (A) (A) (A) (A) (A) (A)
                 (A) (A) (A) (A) (A) (A) (A) (A) (A) (A) (A) (A)
                 (A) (A) (A) (A) (A) (A) (A) (A) (A) (A) (A) (A)
                 (A) (A) (A) (A) (A) (A) (A) (A) (A) (A) (A) (A)
                 (A) (A) (A) (A) (A) (A) (A) (A) (A) (A) (A) (A)
                 (A) (A) (A) (A) (A) (A) (A) (A) (A) (A) (A) (A)
                 (A) (A) (A) (A) (A) (A) (A) (A) (A) (A) (A)
 The electronic state is 1-A.
 Alpha  occ. eigenvalues --  -89.14191 -89.08746 -19.15724 -19.15628 -19.14116
 Alpha  occ. eigenvalues --  -19.13989 -14.38909 -14.38878 -10.28411 -10.23578
 Alpha  occ. eigenvalues --  -10.23149 -10.22926 -10.22241 -10.21784 -10.20262
 Alpha  occ. eigenvalues --  -10.20044 -10.19358 -10.19262 -10.19099 -10.19025
 Alpha  occ. eigenvalues --  -10.18527  -8.16437  -8.11793  -6.12927  -6.12866
 Alpha  occ. eigenvalues --   -6.12812  -6.08215  -6.08147  -6.08081  -1.13431
 Alpha  occ. eigenvalues --   -1.09389  -1.01502  -0.99031  -0.96082  -0.94910
 Alpha  occ. eigenvalues --   -0.86273  -0.85318  -0.79965  -0.75113  -0.74518
 Alpha  occ. eigenvalues --   -0.73906  -0.72714  -0.71737  -0.68114  -0.62965
 Alpha  occ. eigenvalues --   -0.60880  -0.60591  -0.58268  -0.57314  -0.54790
 Alpha  occ. eigenvalues --   -0.53914  -0.51885  -0.51432  -0.50305  -0.49355
 Alpha  occ. eigenvalues --   -0.49094  -0.47548  -0.46749  -0.45890  -0.45674
 Alpha  occ. eigenvalues --   -0.45107  -0.44669  -0.43646  -0.43435  -0.42760
 Alpha  occ. eigenvalues --   -0.42344  -0.41887  -0.41372  -0.40607  -0.40346
 Alpha  occ. eigenvalues --   -0.39878  -0.37347  -0.36971  -0.36157  -0.35347
 Alpha  occ. eigenvalues --   -0.34340  -0.33962  -0.33763  -0.33118  -0.31946
 Alpha  occ. eigenvalues --   -0.31493  -0.30960  -0.30099  -0.29088  -0.27784
 Alpha  occ. eigenvalues --   -0.26789  -0.25199  -0.24526
 Alpha virt. eigenvalues --   -0.00745  -0.00314   0.02961   0.04180   0.05265
 Alpha virt. eigenvalues --    0.05722   0.05986   0.06199   0.06645   0.08245
 Alpha virt. eigenvalues --    0.09158   0.09432   0.09839   0.10925   0.11683
 Alpha virt. eigenvalues --    0.12797   0.13001   0.14167   0.14968   0.15037
 Alpha virt. eigenvalues --    0.15358   0.15705   0.16435   0.17024   0.17260
 Alpha virt. eigenvalues --    0.17421   0.17951   0.18015   0.18538   0.19731
 Alpha virt. eigenvalues --    0.20398   0.20638   0.21128   0.22005   0.23420
 Alpha virt. eigenvalues --    0.24706   0.25997   0.26823   0.29934   0.30525
 Alpha virt. eigenvalues --    0.32259   0.33961   0.34850   0.35437   0.36383
 Alpha virt. eigenvalues --    0.36642   0.38498   0.41160   0.43094   0.44209
 Alpha virt. eigenvalues --    0.46198   0.47125   0.47580   0.48270   0.49522
 Alpha virt. eigenvalues --    0.50641   0.51549   0.52612   0.53384   0.54473
 Alpha virt. eigenvalues --    0.54991   0.56502   0.56522   0.57334   0.57950
 Alpha virt. eigenvalues --    0.58795   0.59180   0.59708   0.60127   0.60381
 Alpha virt. eigenvalues --    0.61474   0.61789   0.62289   0.64044   0.64457
 Alpha virt. eigenvalues --    0.66440   0.67844   0.67883   0.68786   0.70702
 Alpha virt. eigenvalues --    0.72229   0.73460   0.73786   0.74181   0.75829
 Alpha virt. eigenvalues --    0.76396   0.76717   0.78597   0.79551   0.80328
 Alpha virt. eigenvalues --    0.81313   0.81805   0.81945   0.82820   0.83441
 Alpha virt. eigenvalues --    0.83921   0.84803   0.85315   0.86228   0.86519
 Alpha virt. eigenvalues --    0.87459   0.87738   0.88269   0.89209   0.89277
 Alpha virt. eigenvalues --    0.90405   0.90924   0.91211   0.92717   0.93171
 Alpha virt. eigenvalues --    0.93978   0.94693   0.94899   0.95561   0.96911
 Alpha virt. eigenvalues --    0.97437   0.98665   0.99731   1.00430   1.00801
 Alpha virt. eigenvalues --    1.02290   1.03600   1.04162   1.05871   1.05941
 Alpha virt. eigenvalues --    1.06940   1.08887   1.09716   1.10069   1.10588
 Alpha virt. eigenvalues --    1.12080   1.13467   1.15357   1.16058   1.17433
 Alpha virt. eigenvalues --    1.17613   1.19471   1.20338   1.20910   1.22833
 Alpha virt. eigenvalues --    1.23994   1.25881   1.26743   1.27000   1.30140
 Alpha virt. eigenvalues --    1.32038   1.33019   1.33628   1.39218   1.42667
 Alpha virt. eigenvalues --    1.42990   1.43404   1.44104   1.44731   1.47412
 Alpha virt. eigenvalues --    1.48355   1.48945   1.49829   1.51442   1.52360
 Alpha virt. eigenvalues --    1.55335   1.56447   1.58603   1.65758   1.67633
 Alpha virt. eigenvalues --    1.69298   1.71031   1.72168   1.73902   1.76656
 Alpha virt. eigenvalues --    1.77975   1.78864   1.79648   1.80262   1.80819
 Alpha virt. eigenvalues --    1.81401   1.81633   1.81994   1.82222   1.82670
 Alpha virt. eigenvalues --    1.83554   1.84720   1.86331   1.87024   1.88735
 Alpha virt. eigenvalues --    1.89383   1.89547   1.91070   1.92663   1.93545
 Alpha virt. eigenvalues --    1.94089   1.96285   1.97210   1.98189   1.99542
 Alpha virt. eigenvalues --    2.02728   2.02867   2.03555   2.04396   2.05417
 Alpha virt. eigenvalues --    2.06323   2.07138   2.07517   2.09749   2.10830
 Alpha virt. eigenvalues --    2.12680   2.13865   2.14500   2.14678   2.14886
 Alpha virt. eigenvalues --    2.16147   2.16666   2.18840   2.19820   2.20268
 Alpha virt. eigenvalues --    2.22070   2.23613   2.24552   2.26743   2.28525
 Alpha virt. eigenvalues --    2.30250   2.30958   2.31280   2.33589   2.35163
 Alpha virt. eigenvalues --    2.36805   2.39096   2.40794   2.41490   2.42957
 Alpha virt. eigenvalues --    2.46236   2.47486   2.50610   2.54537   2.58154
 Alpha virt. eigenvalues --    2.58622   2.59605   2.64835   2.66982   2.69641
 Alpha virt. eigenvalues --    2.71525   2.71592   2.72360   2.74486   2.74742
 Alpha virt. eigenvalues --    2.75424   2.77466   2.79579   2.82724   2.85083
 Alpha virt. eigenvalues --    2.87959   2.89949   3.05980   3.40825   3.78243
 Alpha virt. eigenvalues --    3.82718   3.91538   3.95391   3.99831   4.05084
 Alpha virt. eigenvalues --    4.07830   4.09236   4.11793   4.13774   4.17270
 Alpha virt. eigenvalues --    4.20198   4.23697   4.26496   4.33131   4.33691
 Alpha virt. eigenvalues --    4.35534   4.44825   4.53764   4.69553   4.77061
          Condensed to atoms (all electrons):
               1          2          3          4          5          6
     1  C    4.997937   0.286710  -0.049903  -0.028045  -0.002301  -0.003806
     2  N    0.286710   7.229817   0.268527   0.123271  -0.055884  -0.054760
     3  C   -0.049903   0.268527   4.996560  -0.009309   0.002423   0.001694
     4  S   -0.028045   0.123271  -0.009309  13.628395   0.444832   0.414437
     5  O   -0.002301  -0.055884   0.002423   0.444832   8.226821  -0.043959
     6  O   -0.003806  -0.054760   0.001694   0.414437  -0.043959   8.254006
     7  N    0.002339  -0.044435  -0.011187   0.127966  -0.057827  -0.053812
     8  C    0.000031  -0.003989   0.000609   0.005064   0.002205   0.003241
     9  C    0.000124  -0.010139   0.000491  -0.008369  -0.000093  -0.002099
    10  S   -0.000033  -0.000150   0.000028   0.001880   0.000014   0.003323
    11  O   -0.000019  -0.000014   0.000000   0.000455   0.000000  -0.000271
    12  O    0.000000   0.000000   0.000000   0.000000   0.000000   0.000000
    13  C    0.000023  -0.000526  -0.000016  -0.005269  -0.000048  -0.009399
    14  C    0.000002  -0.000221  -0.000037   0.000632  -0.000107   0.000087
    15  C    0.000000   0.000001  -0.000001   0.000003   0.000000   0.000001
    16  C    0.000000   0.000000   0.000000   0.000000   0.000000   0.000000
    17  C    0.000000   0.000000   0.000000   0.000000   0.000000   0.000000
    18  C    0.000000   0.000000   0.000000   0.000000   0.000000   0.000000
    19  C    0.000000   0.000000   0.000000   0.000000   0.000000   0.000000
    20  C    0.000000   0.000000   0.000000   0.000000   0.000000   0.000000
    21  C    0.000000   0.000000   0.000000   0.000000   0.000000   0.000000
    22  H    0.378039  -0.038926  -0.002918   0.002051  -0.000105   0.000232
    23  H    0.372256  -0.046713  -0.002557  -0.003053   0.002325  -0.000521
    24  H    0.378534  -0.030070   0.004434  -0.004544  -0.000158   0.011335
    25  H   -0.003571  -0.035503   0.374020   0.003097   0.000047  -0.000050
    26  H    0.004760  -0.033619   0.374257  -0.002937  -0.001832   0.000033
    27  H   -0.001931  -0.044221   0.374987  -0.007656   0.005304  -0.000040
    28  H   -0.000055   0.002569  -0.000165  -0.018308   0.006357  -0.000222
    29  H   -0.000004   0.000219  -0.000024   0.000092   0.000001   0.000020
    30  H   -0.000561   0.019041  -0.001088   0.002579   0.000024  -0.000351
    31  H    0.000000  -0.000002   0.000000   0.000335   0.000000   0.000204
    32  H    0.000015   0.000042  -0.000005   0.000161  -0.000220   0.016053
    33  H    0.000000   0.000002   0.000004  -0.000139  -0.000019   0.000000
    34  H    0.000000  -0.000020  -0.000053  -0.000016  -0.000001   0.000003
    35  H    0.000000   0.000000   0.000000   0.000000   0.000000   0.000000
    36  H    0.000000   0.000000   0.000000   0.000006   0.000000   0.000000
    37  H    0.000000   0.000000   0.000000   0.000000   0.000000   0.000000
    38  H    0.000000   0.000000   0.000000   0.000000   0.000000   0.000000
    39  H    0.000000   0.000000   0.000000   0.000000   0.000000   0.000000
    40  H    0.000000   0.000000   0.000000   0.000000   0.000000   0.000000
    41  H    0.000000   0.000000   0.000000   0.000000   0.000000   0.000000
               7          8          9         10         11         12
     1  C    0.002339   0.000031   0.000124  -0.000033  -0.000019   0.000000
     2  N   -0.044435  -0.003989  -0.010139  -0.000150  -0.000014   0.000000
     3  C   -0.011187   0.000609   0.000491   0.000028   0.000000   0.000000
     4  S    0.127966   0.005064  -0.008369   0.001880   0.000455   0.000000
     5  O   -0.057827   0.002205  -0.000093   0.000014   0.000000   0.000000
     6  O   -0.053812   0.003241  -0.002099   0.003323  -0.000271   0.000000
     7  N    7.399910   0.210775  -0.039212   0.001952  -0.000129  -0.000037
     8  C    0.210775   4.820594   0.346260  -0.093937   0.001307   0.000761
     9  C   -0.039212   0.346260   5.747782   0.142391  -0.044309  -0.043822
    10  S    0.001952  -0.093937   0.142391  13.864282   0.436902   0.380565
    11  O   -0.000129   0.001307  -0.044309   0.436902   8.194733  -0.044227
    12  O   -0.000037   0.000761  -0.043822   0.380565  -0.044227   8.277578
    13  C   -0.052090   0.363986  -0.207814   0.157072  -0.043265  -0.042190
    14  C   -0.047597   0.367159  -0.040391   0.002495  -0.000058  -0.000687
    15  C    0.003329  -0.029857  -0.004828  -0.000809  -0.000012  -0.004352
    16  C   -0.000036  -0.002474   0.000097  -0.001148   0.000000  -0.001520
    17  C   -0.000006   0.000505  -0.000161   0.000888  -0.000004  -0.004258
    18  C    0.000000   0.000001  -0.000002   0.000068   0.000000   0.000114
    19  C    0.000000   0.000002   0.000000  -0.000003   0.000000  -0.000001
    20  C    0.000000  -0.000016   0.000000  -0.000001   0.000000   0.000000
    21  C   -0.000007  -0.000272  -0.000003  -0.000018   0.000000  -0.000010
    22  H   -0.000082   0.000002   0.000131  -0.000002  -0.000001   0.000000
    23  H   -0.000077  -0.000007  -0.000020  -0.000001   0.000000   0.000000
    24  H    0.000110   0.000019   0.000045   0.000170   0.000108   0.000000
    25  H   -0.000036   0.000000   0.000190  -0.000001   0.000000   0.000000
    26  H    0.014589  -0.000234   0.000047   0.000008   0.000000   0.000000
    27  H   -0.000107  -0.000026  -0.000032   0.000000   0.000000   0.000000
    28  H    0.301657  -0.027336   0.005080  -0.000231   0.000003   0.000001
    29  H    0.001925  -0.026787   0.338086  -0.010113   0.000838  -0.000943
    30  H   -0.006863  -0.022373   0.327662  -0.004013   0.000541   0.000966
    31  H    0.001963  -0.025422   0.008926  -0.010522   0.000762  -0.001333
    32  H   -0.006088  -0.021707   0.005319  -0.006553  -0.000315   0.000999
    33  H   -0.005227  -0.036324   0.005419  -0.000295   0.000001   0.000002
    34  H    0.000494  -0.037530  -0.009262  -0.000181   0.000001   0.000005
    35  H   -0.000118   0.004481   0.000007   0.000123   0.000000   0.000142
    36  H    0.000118  -0.006487   0.000615   0.003448   0.000038   0.011867
    37  H    0.000000  -0.000004   0.000134  -0.000124   0.000006   0.012898
    38  H    0.000000   0.000000   0.000000   0.000004   0.000000  -0.000001
    39  H    0.000000   0.000000   0.000000   0.000000   0.000000   0.000000
    40  H    0.000000   0.000000   0.000000   0.000000   0.000000   0.000000
    41  H   -0.000002   0.000187   0.000000  -0.000002   0.000000   0.000000
              13         14         15         16         17         18
     1  C    0.000023   0.000002   0.000000   0.000000   0.000000   0.000000
     2  N   -0.000526  -0.000221   0.000001   0.000000   0.000000   0.000000
     3  C   -0.000016  -0.000037  -0.000001   0.000000   0.000000   0.000000
     4  S   -0.005269   0.000632   0.000003   0.000000   0.000000   0.000000
     5  O   -0.000048  -0.000107   0.000000   0.000000   0.000000   0.000000
     6  O   -0.009399   0.000087   0.000001   0.000000   0.000000   0.000000
     7  N   -0.052090  -0.047597   0.003329  -0.000036  -0.000006   0.000000
     8  C    0.363986   0.367159  -0.029857  -0.002474   0.000505   0.000001
     9  C   -0.207814  -0.040391  -0.004828   0.000097  -0.000161  -0.000002
    10  S    0.157072   0.002495  -0.000809  -0.001148   0.000888   0.000068
    11  O   -0.043265  -0.000058  -0.000012   0.000000  -0.000004   0.000000
    12  O   -0.042190  -0.000687  -0.004352  -0.001520  -0.004258   0.000114
    13  C    5.746893  -0.046328  -0.001465  -0.002953  -0.004977  -0.000248
    14  C   -0.046328   5.141418   0.327311  -0.031762   0.000801  -0.000188
    15  C   -0.001465   0.327311   5.220832   0.346499  -0.048880   0.007327
    16  C   -0.002953  -0.031762   0.346499   4.660568   0.549519  -0.022833
    17  C   -0.004977   0.000801  -0.048880   0.549519   4.996375   0.510100
    18  C   -0.000248  -0.000188   0.007327  -0.022833   0.510100   4.882408
    19  C    0.000032   0.000004   0.000363  -0.034764  -0.034657   0.548999
    20  C    0.000070   0.000191   0.006237  -0.017400  -0.046829  -0.025424
    21  C   -0.000179  -0.007101  -0.068841   0.540008  -0.042368  -0.048286
    22  H    0.000000   0.000000   0.000000   0.000000   0.000000   0.000000
    23  H    0.000000   0.000000   0.000000   0.000000   0.000000   0.000000
    24  H   -0.000004   0.000000   0.000000   0.000000   0.000000   0.000000
    25  H    0.000001   0.000000   0.000000   0.000000   0.000000   0.000000
    26  H    0.000045   0.000043   0.000001   0.000000   0.000000   0.000000
    27  H    0.000000   0.000000   0.000000   0.000000   0.000000   0.000000
    28  H   -0.000210  -0.006226  -0.000023  -0.000015   0.000001   0.000000
    29  H    0.009349  -0.007831   0.001320   0.000181  -0.000008   0.000000
    30  H    0.004670   0.002795   0.000066  -0.000007   0.000001   0.000000
    31  H    0.328987  -0.006487  -0.003217   0.010490   0.008369   0.000330
    32  H    0.329289   0.002510   0.000145   0.000006   0.000087   0.000003
    33  H   -0.004697   0.362721  -0.041622  -0.006448   0.000321  -0.000012
    34  H    0.005841   0.358017  -0.027037   0.003631  -0.000117   0.000002
    35  H   -0.000091  -0.035744   0.357987  -0.030596   0.001580  -0.000217
    36  H   -0.000821  -0.039315   0.360552  -0.029556  -0.004328   0.000198
    37  H   -0.000083   0.000273  -0.011396  -0.036904   0.351533  -0.042794
    38  H   -0.000007   0.000001  -0.000181   0.003659  -0.038452   0.358171
    39  H    0.000000   0.000000   0.000007   0.000667   0.004673  -0.042999
    40  H    0.000000   0.000001  -0.000191   0.003777   0.000765   0.004663
    41  H   -0.000026   0.000133  -0.009175  -0.049599   0.006218   0.000327
              19         20         21         22         23         24
     1  C    0.000000   0.000000   0.000000   0.378039   0.372256   0.378534
     2  N    0.000000   0.000000   0.000000  -0.038926  -0.046713  -0.030070
     3  C    0.000000   0.000000   0.000000  -0.002918  -0.002557   0.004434
     4  S    0.000000   0.000000   0.000000   0.002051  -0.003053  -0.004544
     5  O    0.000000   0.000000   0.000000  -0.000105   0.002325  -0.000158
     6  O    0.000000   0.000000   0.000000   0.000232  -0.000521   0.011335
     7  N    0.000000   0.000000  -0.000007  -0.000082  -0.000077   0.000110
     8  C    0.000002  -0.000016  -0.000272   0.000002  -0.000007   0.000019
     9  C    0.000000   0.000000  -0.000003   0.000131  -0.000020   0.000045
    10  S   -0.000003  -0.000001  -0.000018  -0.000002  -0.000001   0.000170
    11  O    0.000000   0.000000   0.000000  -0.000001   0.000000   0.000108
    12  O   -0.000001   0.000000  -0.000010   0.000000   0.000000   0.000000
    13  C    0.000032   0.000070  -0.000179   0.000000   0.000000  -0.000004
    14  C    0.000004   0.000191  -0.007101   0.000000   0.000000   0.000000
    15  C    0.000363   0.006237  -0.068841   0.000000   0.000000   0.000000
    16  C   -0.034764  -0.017400   0.540008   0.000000   0.000000   0.000000
    17  C   -0.034657  -0.046829  -0.042368   0.000000   0.000000   0.000000
    18  C    0.548999  -0.025424  -0.048286   0.000000   0.000000   0.000000
    19  C    4.855555   0.547845  -0.035702   0.000000   0.000000   0.000000
    20  C    0.547845   4.860638   0.529941   0.000000   0.000000   0.000000
    21  C   -0.035702   0.529941   4.987084   0.000000   0.000000   0.000000
    22  H    0.000000   0.000000   0.000000   0.550092  -0.041039  -0.019906
    23  H    0.000000   0.000000   0.000000  -0.041039   0.575808  -0.028915
    24  H    0.000000   0.000000   0.000000  -0.019906  -0.028915   0.469270
    25  H    0.000000   0.000000   0.000000   0.005235  -0.001406   0.000004
    26  H    0.000000   0.000000   0.000000   0.000041  -0.000201  -0.000188
    27  H    0.000000   0.000000   0.000000  -0.001744   0.008438  -0.000177
    28  H    0.000000   0.000000  -0.000026   0.000001   0.000007  -0.000004
    29  H    0.000000   0.000000   0.000002  -0.000001   0.000000   0.000000
    30  H    0.000000   0.000000   0.000000  -0.000440   0.000124  -0.000108
    31  H   -0.000075  -0.000291   0.000763   0.000000   0.000000   0.000000
    32  H   -0.000001  -0.000001  -0.000003   0.000000   0.000000   0.000000
    33  H   -0.000006  -0.000212   0.005530   0.000000   0.000000   0.000000
    34  H    0.000000   0.000003   0.000311   0.000000   0.000000   0.000000
    35  H    0.000035  -0.000057  -0.005097   0.000000   0.000000   0.000000
    36  H   -0.000005  -0.000151   0.004309   0.000000   0.000000   0.000000
    37  H    0.004335   0.000305   0.005981   0.000000   0.000000   0.000000
    38  H   -0.043774   0.004583   0.000870   0.000000   0.000000   0.000000
    39  H    0.359780  -0.043456   0.004864   0.000000   0.000000   0.000000
    40  H   -0.042736   0.357294  -0.041015   0.000000   0.000000   0.000000
    41  H    0.004881  -0.044229   0.352421   0.000000   0.000000   0.000000
              25         26         27         28         29         30
     1  C   -0.003571   0.004760  -0.001931  -0.000055  -0.000004  -0.000561
     2  N   -0.035503  -0.033619  -0.044221   0.002569   0.000219   0.019041
     3  C    0.374020   0.374257   0.374987  -0.000165  -0.000024  -0.001088
     4  S    0.003097  -0.002937  -0.007656  -0.018308   0.000092   0.002579
     5  O    0.000047  -0.001832   0.005304   0.006357   0.000001   0.000024
     6  O   -0.000050   0.000033  -0.000040  -0.000222   0.000020  -0.000351
     7  N   -0.000036   0.014589  -0.000107   0.301657   0.001925  -0.006863
     8  C    0.000000  -0.000234  -0.000026  -0.027336  -0.026787  -0.022373
     9  C    0.000190   0.000047  -0.000032   0.005080   0.338086   0.327662
    10  S   -0.000001   0.000008   0.000000  -0.000231  -0.010113  -0.004013
    11  O    0.000000   0.000000   0.000000   0.000003   0.000838   0.000541
    12  O    0.000000   0.000000   0.000000   0.000001  -0.000943   0.000966
    13  C    0.000001   0.000045   0.000000  -0.000210   0.009349   0.004670
    14  C    0.000000   0.000043   0.000000  -0.006226  -0.007831   0.002795
    15  C    0.000000   0.000001   0.000000  -0.000023   0.001320   0.000066
    16  C    0.000000   0.000000   0.000000  -0.000015   0.000181  -0.000007
    17  C    0.000000   0.000000   0.000000   0.000001  -0.000008   0.000001
    18  C    0.000000   0.000000   0.000000   0.000000   0.000000   0.000000
    19  C    0.000000   0.000000   0.000000   0.000000   0.000000   0.000000
    20  C    0.000000   0.000000   0.000000   0.000000   0.000000   0.000000
    21  C    0.000000   0.000000   0.000000  -0.000026   0.000002   0.000000
    22  H    0.005235   0.000041  -0.001744   0.000001  -0.000001  -0.000440
    23  H   -0.001406  -0.000201   0.008438   0.000007   0.000000   0.000124
    24  H    0.000004  -0.000188  -0.000177  -0.000004   0.000000  -0.000108
    25  H    0.550550  -0.023642  -0.036497   0.000000  -0.000001  -0.000366
    26  H   -0.023642   0.514209  -0.030347  -0.000581   0.000017  -0.000286
    27  H   -0.036497  -0.030347   0.559298   0.000072   0.000001   0.000142
    28  H    0.000000  -0.000581   0.000072   0.367362  -0.000054   0.000140
    29  H   -0.000001   0.000017   0.000001  -0.000054   0.502009  -0.017051
    30  H   -0.000366  -0.000286   0.000142   0.000140  -0.017051   0.451501
    31  H    0.000000   0.000000   0.000000   0.000213  -0.000271  -0.000219
    32  H    0.000000   0.000000   0.000000   0.000010  -0.000261  -0.000161
    33  H    0.000000  -0.000014   0.000000   0.008812   0.000237  -0.000115
    34  H    0.000001   0.000557  -0.000001  -0.000539   0.002825   0.000067
    35  H    0.000000   0.000000   0.000000  -0.000007  -0.000255   0.000002
    36  H    0.000000   0.000000   0.000000   0.000021   0.002158   0.000100
    37  H    0.000000   0.000000   0.000000   0.000000   0.000003  -0.000001
    38  H    0.000000   0.000000   0.000000   0.000000   0.000000   0.000000
    39  H    0.000000   0.000000   0.000000   0.000000   0.000000   0.000000
    40  H    0.000000   0.000000   0.000000   0.000000   0.000000   0.000000
    41  H    0.000000   0.000000   0.000000  -0.000008   0.000000   0.000000
              31         32         33         34         35         36
     1  C    0.000000   0.000015   0.000000   0.000000   0.000000   0.000000
     2  N   -0.000002   0.000042   0.000002  -0.000020   0.000000   0.000000
     3  C    0.000000  -0.000005   0.000004  -0.000053   0.000000   0.000000
     4  S    0.000335   0.000161  -0.000139  -0.000016   0.000000   0.000006
     5  O    0.000000  -0.000220  -0.000019  -0.000001   0.000000   0.000000
     6  O    0.000204   0.016053   0.000000   0.000003   0.000000   0.000000
     7  N    0.001963  -0.006088  -0.005227   0.000494  -0.000118   0.000118
     8  C   -0.025422  -0.021707  -0.036324  -0.037530   0.004481  -0.006487
     9  C    0.008926   0.005319   0.005419  -0.009262   0.000007   0.000615
    10  S   -0.010522  -0.006553  -0.000295  -0.000181   0.000123   0.003448
    11  O    0.000762  -0.000315   0.000001   0.000001   0.000000   0.000038
    12  O   -0.001333   0.000999   0.000002   0.000005   0.000142   0.011867
    13  C    0.328987   0.329289  -0.004697   0.005841  -0.000091  -0.000821
    14  C   -0.006487   0.002510   0.362721   0.358017  -0.035744  -0.039315
    15  C   -0.003217   0.000145  -0.041622  -0.027037   0.357987   0.360552
    16  C    0.010490   0.000006  -0.006448   0.003631  -0.030596  -0.029556
    17  C    0.008369   0.000087   0.000321  -0.000117   0.001580  -0.004328
    18  C    0.000330   0.000003  -0.000012   0.000002  -0.000217   0.000198
    19  C   -0.000075  -0.000001  -0.000006   0.000000   0.000035  -0.000005
    20  C   -0.000291  -0.000001  -0.000212   0.000003  -0.000057  -0.000151
    21  C    0.000763  -0.000003   0.005530   0.000311  -0.005097   0.004309
    22  H    0.000000   0.000000   0.000000   0.000000   0.000000   0.000000
    23  H    0.000000   0.000000   0.000000   0.000000   0.000000   0.000000
    24  H    0.000000   0.000000   0.000000   0.000000   0.000000   0.000000
    25  H    0.000000   0.000000   0.000000   0.000001   0.000000   0.000000
    26  H    0.000000   0.000000  -0.000014   0.000557   0.000000   0.000000
    27  H    0.000000   0.000000   0.000000  -0.000001   0.000000   0.000000
    28  H    0.000213   0.000010   0.008812  -0.000539  -0.000007   0.000021
    29  H   -0.000271  -0.000261   0.000237   0.002825  -0.000255   0.002158
    30  H   -0.000219  -0.000161  -0.000115   0.000067   0.000002   0.000100
    31  H    0.476308  -0.015169   0.001482   0.000154   0.000110  -0.000142
    32  H   -0.015169   0.447930   0.000004  -0.000104   0.000002  -0.000009
    33  H    0.001482   0.000004   0.589920  -0.034993   0.000574   0.004486
    34  H    0.000154  -0.000104  -0.034993   0.588234  -0.007726   0.000297
    35  H    0.000110   0.000002   0.000574  -0.007726   0.581560  -0.029285
    36  H   -0.000142  -0.000009   0.004486   0.000297  -0.029285   0.532084
    37  H    0.000030  -0.000001   0.000006  -0.000009   0.000134   0.004970
    38  H    0.000016   0.000000   0.000000   0.000000   0.000004  -0.000007
    39  H    0.000000   0.000000   0.000000   0.000000   0.000000   0.000000
    40  H   -0.000001   0.000000   0.000014   0.000000  -0.000003   0.000003
    41  H    0.000049   0.000000   0.004723  -0.000215   0.002263   0.000029
              37         38         39         40         41
     1  C    0.000000   0.000000   0.000000   0.000000   0.000000
     2  N    0.000000   0.000000   0.000000   0.000000   0.000000
     3  C    0.000000   0.000000   0.000000   0.000000   0.000000
     4  S    0.000000   0.000000   0.000000   0.000000   0.000000
     5  O    0.000000   0.000000   0.000000   0.000000   0.000000
     6  O    0.000000   0.000000   0.000000   0.000000   0.000000
     7  N    0.000000   0.000000   0.000000   0.000000  -0.000002
     8  C   -0.000004   0.000000   0.000000   0.000000   0.000187
     9  C    0.000134   0.000000   0.000000   0.000000   0.000000
    10  S   -0.000124   0.000004   0.000000   0.000000  -0.000002
    11  O    0.000006   0.000000   0.000000   0.000000   0.000000
    12  O    0.012898  -0.000001   0.000000   0.000000   0.000000
    13  C   -0.000083  -0.000007   0.000000   0.000000  -0.000026
    14  C    0.000273   0.000001   0.000000   0.000001   0.000133
    15  C   -0.011396  -0.000181   0.000007  -0.000191  -0.009175
    16  C   -0.036904   0.003659   0.000667   0.003777  -0.049599
    17  C    0.351533  -0.038452   0.004673   0.000765   0.006218
    18  C   -0.042794   0.358171  -0.042999   0.004663   0.000327
    19  C    0.004335  -0.043774   0.359780  -0.042736   0.004881
    20  C    0.000305   0.004583  -0.043456   0.357294  -0.044229
    21  C    0.005981   0.000870   0.004864  -0.041015   0.352421
    22  H    0.000000   0.000000   0.000000   0.000000   0.000000
    23  H    0.000000   0.000000   0.000000   0.000000   0.000000
    24  H    0.000000   0.000000   0.000000   0.000000   0.000000
    25  H    0.000000   0.000000   0.000000   0.000000   0.000000
    26  H    0.000000   0.000000   0.000000   0.000000   0.000000
    27  H    0.000000   0.000000   0.000000   0.000000   0.000000
    28  H    0.000000   0.000000   0.000000   0.000000  -0.000008
    29  H    0.000003   0.000000   0.000000   0.000000   0.000000
    30  H   -0.000001   0.000000   0.000000   0.000000   0.000000
    31  H    0.000030   0.000016   0.000000  -0.000001   0.000049
    32  H   -0.000001   0.000000   0.000000   0.000000   0.000000
    33  H    0.000006   0.000000   0.000000   0.000014   0.004723
    34  H   -0.000009   0.000000   0.000000   0.000000  -0.000215
    35  H    0.000134   0.000004   0.000000  -0.000003   0.002263
    36  H    0.004970  -0.000007   0.000000   0.000003   0.000029
    37  H    0.536273  -0.004762  -0.000154   0.000015  -0.000167
    38  H   -0.004762   0.589085  -0.005596  -0.000188   0.000018
    39  H   -0.000154  -0.005596   0.596612  -0.005535  -0.000185
    40  H    0.000015  -0.000188  -0.005535   0.599013  -0.005781
    41  H   -0.000167   0.000018  -0.000185  -0.005781   0.618689
 Mulliken charges:
               1
     1  C   -0.330540
     2  N   -0.531006
     3  C   -0.320771
     4  S    1.332388
     5  O   -0.527797
     6  O   -0.535379
     7  N   -0.742153
     8  C    0.207595
     9  C   -0.518250
    10  S    1.132524
    11  O   -0.503074
    12  O   -0.542518
    13  C   -0.523551
    14  C   -0.296514
    15  C   -0.380095
    16  C    0.148912
    17  C   -0.206691
    18  C   -0.129709
    19  C   -0.130106
    20  C   -0.129039
    21  C   -0.183156
    22  H    0.169342
    23  H    0.165552
    24  H    0.220043
    25  H    0.167932
    26  H    0.185275
    27  H    0.174538
    28  H    0.361704
    29  H    0.204320
    30  H    0.243581
    31  H    0.223659
    32  H    0.248024
    33  H    0.145866
    34  H    0.157360
    35  H    0.160193
    36  H    0.184807
    37  H    0.179503
    38  H    0.136556
    39  H    0.131321
    40  H    0.129906
    41  H    0.119449
 Sum of Mulliken charges =   0.00000
 Mulliken charges with hydrogens summed into heavy atoms:
               1
     1  C    0.224396
     2  N   -0.531006
     3  C    0.206974
     4  S    1.332388
     5  O   -0.527797
     6  O   -0.535379
     7  N   -0.380448
     8  C    0.207595
     9  C   -0.070349
    10  S    1.132524
    11  O   -0.503074
    12  O   -0.542518
    13  C   -0.051868
    14  C    0.006712
    15  C   -0.035095
    16  C    0.148912
    17  C   -0.027188
    18  C    0.006847
    19  C    0.001215
    20  C    0.000867
    21  C   -0.063707
 Electronic spatial extent (au):  <R**2>=           7975.3071
 Charge=              0.0000 electrons
 Dipole moment (field-independent basis, Debye):
    X=             -0.7346    Y=             -4.1428    Z=              4.0300  Tot=              5.8261
 Quadrupole moment (field-independent basis, Debye-Ang):
   XX=           -126.6205   YY=           -152.8142   ZZ=           -138.4151
   XY=             -7.6062   XZ=            -17.3251   YZ=             -1.4148
 Traceless Quadrupole moment (field-independent basis, Debye-Ang):
   XX=             12.6628   YY=            -13.5309   ZZ=              0.8681
   XY=             -7.6062   XZ=            -17.3251   YZ=             -1.4148
 Octapole moment (field-independent basis, Debye-Ang**2):
  XXX=           -104.4231  YYY=            -43.5740  ZZZ=              9.2983  XYY=              9.8743
  XXY=             20.7535  XXZ=              3.7955  XZZ=             -4.0305  YZZ=              6.3645
  YYZ=             10.3871  XYZ=              6.3920
 Hexadecapole moment (field-independent basis, Debye-Ang**3):
 XXXX=          -7226.1543 YYYY=          -1990.4706 ZZZZ=           -891.0330 XXXY=            -47.8526
 XXXZ=           -303.2138 YYYX=            -41.4896 YYYZ=              6.1746 ZZZX=             -9.7858
 ZZZY=             -0.8199 XXYY=          -1603.4985 XXZZ=          -1440.9864 YYZZ=           -467.4531
 XXYZ=            -30.8117 YYXZ=            -56.3979 ZZXY=              2.3465
 N-N= 2.208126823177D+03 E-N=-8.442309677694D+03  KE= 1.702545164163D+03
 No NMR shielding tensors so no spin-rotation constants.
 Leave Link  601 at Fri Oct  2 06:18:12 2020, MaxMem=  2147483648 cpu:         0.4
 (Enter /prod/apps/gaussian/g09d1/l9999.exe)
 1\1\GINC-PIRINEUS43\SP\RB3LYP\6-31G(d)\C13H20N2O4S2\UBAFAR01\02-Oct-20
 20\0\\#p b3lyp/6-31G(d)\\SM40.n.19.pdb.xyz\\0,1\C,0,0.765,-1.015,0.078
 \N,0,2.203,-0.819,0.329\C,0,2.694,0.518,-0.037\S,0,2.709,-1.344,1.848\
 O,0,2.604,-0.304,2.878\O,0,2.053,-2.638,2.06\N,0,4.357,-1.494,1.582\C,
 0,5.023,-2.664,0.976\C,0,4.448,-3.005,-0.436\S,0,4.238,-4.755,0.044\O,
 0,2.848,-5.232,-0.02\O,0,5.305,-5.599,-0.531\C,0,4.72,-4.048,1.661\C,0
 ,6.512,-2.265,0.928\C,0,7.525,-3.314,0.423\C,0,8.084,-4.237,1.49\C,0,7
 .963,-5.629,1.38\C,0,8.514,-6.47,2.349\C,0,9.195,-5.935,3.441\C,0,9.32
 1,-4.549,3.562\C,0,8.77,-3.711,2.594\H,0,0.6,-0.868,-0.99\H,0,0.142,-0
 .304,0.635\H,0,0.49,-2.033,0.347\H,0,2.509,0.656,-1.104\H,0,3.767,0.56
 5,0.146\H,0,2.19,1.314,0.523\H,0,4.837,-1.14,2.408\H,0,5.137,-2.873,-1
 .27\H,0,3.489,-2.528,-0.641\H,0,5.565,-4.561,2.118\H,0,3.853,-4.014,2.
 32\H,0,6.819,-1.949,1.932\H,0,6.566,-1.375,0.294\H,0,8.358,-2.754,-0.0
 18\H,0,7.097,-3.911,-0.387\H,0,7.413,-6.042,0.541\H,0,8.408,-7.546,2.2
 49\H,0,9.624,-6.589,4.193\H,0,9.851,-4.122,4.407\H,0,8.879,-2.634,2.69
 2\\Version=AM64L-G09RevD.01\State=1-A\HF=-1714.0373499\RMSD=3.768e-09\
 Dipole=1.050303,1.994475,-0.4158207\Quadrupole=-0.2186202,-0.9336238,1
 .1522441,-5.3001484,9.530451,-13.1939343\PG=C01 [X(C13H20N2O4S2)]\\@


 YOU SHOULDN'T LET PEOPLE DRIVE YOU CRAZY
 WHEN YOU KNOW IT'S WITHIN WALKING DISTANCE.
 Job cpu time:       0 days  0 hours  7 minutes  6.9 seconds.
[...]
     9  C   -0.203315  -0.040689  -0.004862   0.000107  -0.000161  -0.000002
    10  S    0.160035   0.002794  -0.000639  -0.001030   0.000818   0.000057
    11  O   -0.043711  -0.000058  -0.000012   0.000001  -0.000004   0.000000
    12  O   -0.042435  -0.000631  -0.004212  -0.001399  -0.004401   0.000101
    13  C    5.739737  -0.046209  -0.001583  -0.002839  -0.004972  -0.000251
    14  C   -0.046209   5.134057   0.327154  -0.031963   0.000891  -0.000191
    15  C   -0.001583   0.327154   5.214468   0.347732  -0.049283   0.007285
    16  C   -0.002839  -0.031963   0.347732   4.665187   0.548609  -0.022641
    17  C   -0.004972   0.000891  -0.049283   0.548609   5.004486   0.508369
    18  C   -0.000251  -0.000191   0.007285  -0.022641   0.508369   4.895805
    19  C    0.000033   0.000004   0.000342  -0.034865  -0.035645   0.547891
    20  C    0.000069   0.000192   0.006106  -0.018602  -0.046353  -0.026859
    21  C   -0.000183  -0.006862  -0.068038   0.539291  -0.043335  -0.048341
    22  H    0.000000   0.000000   0.000000   0.000000   0.000000   0.000000
    23  H    0.000000   0.000000   0.000000   0.000000   0.000000   0.000000
    24  H   -0.000004   0.000000   0.000000   0.000000   0.000000   0.000000
    25  H    0.000001   0.000000   0.000000   0.000000   0.000000   0.000000
    26  H    0.000043   0.000047   0.000001   0.000000   0.000000   0.000000
    27  H    0.000000   0.000000   0.000000   0.000000   0.000000   0.000000
    28  H   -0.000233  -0.005593  -0.000001  -0.000016   0.000001   0.000000
    29  H    0.009036  -0.007350   0.001182   0.000172  -0.000009   0.000000
    30  H    0.004661   0.002698   0.000069  -0.000007   0.000001   0.000000
    31  H    0.329911  -0.006356  -0.003094   0.010256   0.008598   0.000342
    32  H    0.328820   0.002471   0.000146   0.000008   0.000086   0.000003
    33  H   -0.004634   0.366744  -0.041293  -0.006651   0.000306  -0.000010
    34  H    0.005735   0.362057  -0.026468   0.003503  -0.000115   0.000002
    35  H   -0.000094  -0.033869   0.361111  -0.030242   0.001660  -0.000215
    36  H   -0.000826  -0.039195   0.360567  -0.031134  -0.004648   0.000211
    37  H   -0.000141   0.000280  -0.011608  -0.037812   0.351489  -0.044830
    38  H   -0.000007   0.000001  -0.000176   0.003680  -0.039146   0.359224
    39  H    0.000000   0.000000   0.000007   0.000641   0.004606  -0.042713
    40  H    0.000000   0.000001  -0.000184   0.003682   0.000755   0.004604
    41  H   -0.000025   0.000294  -0.008687  -0.047605   0.006034   0.000326
              19         20         21         22         23         24
     1  C    0.000000   0.000000   0.000000   0.380399   0.373033   0.377451
     2  N    0.000000   0.000000   0.000000  -0.037611  -0.046561  -0.031294
     3  C    0.000000   0.000000   0.000000  -0.002699  -0.002298   0.004467
     4  S    0.000000   0.000000   0.000000   0.002127  -0.003242  -0.004611
     5  O    0.000000   0.000000   0.000000  -0.000102   0.002314  -0.000156
     6  O    0.000000   0.000000   0.000000   0.000223  -0.000504   0.011197
     7  N    0.000000   0.000000  -0.000007  -0.000085  -0.000076   0.000110
     8  C    0.000002  -0.000016  -0.000293   0.000003  -0.000007   0.000018
     9  C    0.000000   0.000000  -0.000001   0.000125  -0.000020   0.000044
    10  S   -0.000002  -0.000001  -0.000012  -0.000002  -0.000001   0.000172
    11  O    0.000000   0.000000   0.000000  -0.000001   0.000000   0.000107
    12  O   -0.000001   0.000000  -0.000009   0.000000   0.000000   0.000000
    13  C    0.000033   0.000069  -0.000183   0.000000   0.000000  -0.000004
    14  C    0.000004   0.000192  -0.006862   0.000000   0.000000   0.000000
    15  C    0.000342   0.006106  -0.068038   0.000000   0.000000   0.000000
    16  C   -0.034865  -0.018602   0.539291   0.000000   0.000000   0.000000
    17  C   -0.035645  -0.046353  -0.043335   0.000000   0.000000   0.000000
    18  C    0.547891  -0.026859  -0.048341   0.000000   0.000000   0.000000
    19  C    4.868516   0.545698  -0.036582   0.000000   0.000000   0.000000
    20  C    0.545698   4.872531   0.528231   0.000000   0.000000   0.000000
    21  C   -0.036582   0.528231   4.991370   0.000000   0.000000   0.000000
    22  H    0.000000   0.000000   0.000000   0.530052  -0.038768  -0.019989
    23  H    0.000000   0.000000   0.000000  -0.038768   0.570238  -0.029910
    24  H    0.000000   0.000000   0.000000  -0.019989  -0.029910   0.485949
    25  H    0.000000   0.000000   0.000000   0.004891  -0.001332   0.000008
    26  H    0.000000   0.000000   0.000000   0.000040  -0.000193  -0.000192
    27  H    0.000000   0.000000   0.000000  -0.001671   0.008210  -0.000172
    28  H    0.000000   0.000000  -0.000024   0.000001   0.000007  -0.000004
    29  H    0.000000   0.000000   0.000002  -0.000001   0.000000   0.000000
    30  H    0.000000   0.000000   0.000000  -0.000433   0.000125  -0.000111
    31  H   -0.000081  -0.000281   0.000757   0.000000   0.000000   0.000000
    32  H   -0.000001  -0.000001  -0.000003   0.000000   0.000000   0.000001
    33  H   -0.000006  -0.000176   0.005624   0.000000   0.000000   0.000000
    34  H    0.000000   0.000003   0.000301   0.000000   0.000000   0.000000
    35  H    0.000034  -0.000049  -0.005236   0.000000   0.000000   0.000000
    36  H   -0.000005  -0.000154   0.004436   0.000000   0.000000   0.000000
    37  H    0.004485   0.000256   0.006191   0.000000   0.000000   0.000000
    38  H   -0.043074   0.004581   0.000809   0.000000   0.000000   0.000000
    39  H    0.361470  -0.042753   0.004788   0.000000   0.000000   0.000000
    40  H   -0.042421   0.359262  -0.039945   0.000000   0.000000   0.000000
    41  H    0.004730  -0.042827   0.355535   0.000000   0.000000   0.000000
              25         26         27         28         29         30
     1  C   -0.003510   0.004673  -0.002024  -0.000049  -0.000004  -0.000610
     2  N   -0.034216  -0.033549  -0.044455   0.002353   0.000215   0.019318
     3  C    0.376782   0.374686   0.375576  -0.000192  -0.000026  -0.001138
     4  S    0.003079  -0.002469  -0.008120  -0.017021   0.000099   0.002974
     5  O    0.000043  -0.001829   0.005296   0.005699   0.000001   0.000026
     6  O   -0.000049   0.000033  -0.000040  -0.000249   0.000019  -0.000363
     7  N   -0.000032   0.013702  -0.000118   0.302606   0.001842  -0.006999
     8  C    0.000001  -0.000211  -0.000025  -0.025779  -0.026406  -0.022647
     9  C    0.000180   0.000057  -0.000032   0.004723   0.341489   0.328170
    10  S   -0.000001   0.000008   0.000000  -0.000233  -0.010508  -0.004522
    11  O    0.000000   0.000000   0.000000   0.000003   0.000819   0.000496
    12  O    0.000000   0.000000   0.000000   0.000001  -0.001056   0.000958
    13  C    0.000001   0.000043   0.000000  -0.000233   0.009036   0.004661
    14  C    0.000000   0.000047   0.000000  -0.005593  -0.007350   0.002698
    15  C    0.000000   0.000001   0.000000  -0.000001   0.001182   0.000069
    16  C    0.000000   0.000000   0.000000  -0.000016   0.000172  -0.000007
    17  C    0.000000   0.000000   0.000000   0.000001  -0.000009   0.000001
    18  C    0.000000   0.000000   0.000000   0.000000   0.000000   0.000000
    19  C    0.000000   0.000000   0.000000   0.000000   0.000000   0.000000
    20  C    0.000000   0.000000   0.000000   0.000000   0.000000   0.000000
    21  C    0.000000   0.000000   0.000000  -0.000024   0.000002   0.000000
    22  H    0.004891   0.000040  -0.001671   0.000001  -0.000001  -0.000433
    23  H   -0.001332  -0.000193   0.008210   0.000007   0.000000   0.000125
    24  H    0.000008  -0.000192  -0.000172  -0.000004   0.000000  -0.000111
    25  H    0.529380  -0.022426  -0.034769   0.000000  -0.000001  -0.000364
    26  H   -0.022426   0.506599  -0.030322  -0.000532   0.000014  -0.000299
    27  H   -0.034769  -0.030322   0.558386   0.000070   0.000001   0.000142
    28  H    0.000000  -0.000532   0.000070   0.342591  -0.000045   0.000137
    29  H   -0.000001   0.000014   0.000001  -0.000045   0.480460  -0.015151
    30  H   -0.000364  -0.000299   0.000142   0.000137  -0.015151   0.444463
    31  H    0.000000   0.000000   0.000000   0.000191  -0.000264  -0.000214
    32  H    0.000000   0.000000   0.000000   0.000022  -0.000251  -0.000185
    33  H    0.000000  -0.000012   0.000000   0.007836   0.000218  -0.000107
    34  H    0.000001   0.000515  -0.000001  -0.000494   0.002642   0.000056
    35  H    0.000000   0.000000   0.000000  -0.000006  -0.000242   0.000002
    36  H    0.000000   0.000000   0.000000   0.000019   0.002237   0.000093
    37  H    0.000000   0.000000   0.000000   0.000000   0.000002  -0.000001
    38  H    0.000000   0.000000   0.000000   0.000000   0.000000   0.000000
    39  H    0.000000   0.000000   0.000000   0.000000   0.000000   0.000000
    40  H    0.000000   0.000000   0.000000   0.000000   0.000000   0.000000
    41  H    0.000000   0.000000   0.000000  -0.000007   0.000000   0.000000
              31         32         33         34         35         36
     1  C    0.000000   0.000014   0.000000   0.000000   0.000000   0.000000
     2  N   -0.000002   0.000039   0.000002  -0.000019   0.000000   0.000000
     3  C    0.000000  -0.000005   0.000003  -0.000044   0.000000   0.000000
     4  S    0.000332   0.000193  -0.000099  -0.000028   0.000000   0.000007
     5  O    0.000000  -0.000218  -0.000018  -0.000001   0.000000   0.000000
     6  O    0.000201   0.016390   0.000000   0.000003   0.000000   0.000000
     7  N    0.001922  -0.006267  -0.004720   0.000097  -0.000112   0.000112
     8  C   -0.024862  -0.021641  -0.035690  -0.036995   0.004367  -0.006785
     9  C    0.008776   0.005408   0.005273  -0.008959   0.000002   0.000849
    10  S   -0.011026  -0.006922  -0.000289  -0.000182   0.000100   0.003097
    11  O    0.000759  -0.000299   0.000001   0.000001   0.000000   0.000036
    12  O   -0.001405   0.001027   0.000001   0.000003   0.000133   0.010800
    13  C    0.329911   0.328820  -0.004634   0.005735  -0.000094  -0.000826
    14  C   -0.006356   0.002471   0.366744   0.362057  -0.033869  -0.039195
    15  C   -0.003094   0.000146  -0.041293  -0.026468   0.361111   0.360567
    16  C    0.010256   0.000008  -0.006651   0.003503  -0.030242  -0.031134
    17  C    0.008598   0.000086   0.000306  -0.000115   0.001660  -0.004648
    18  C    0.000342   0.000003  -0.000010   0.000002  -0.000215   0.000211
    19  C   -0.000081  -0.000001  -0.000006   0.000000   0.000034  -0.000005
    20  C   -0.000281  -0.000001  -0.000176   0.000003  -0.000049  -0.000154
    21  C    0.000757  -0.000003   0.005624   0.000301  -0.005236   0.004436
    22  H    0.000000   0.000000   0.000000   0.000000   0.000000   0.000000
    23  H    0.000000   0.000000   0.000000   0.000000   0.000000   0.000000
    24  H    0.000000   0.000001   0.000000   0.000000   0.000000   0.000000
    25  H    0.000000   0.000000   0.000000   0.000001   0.000000   0.000000
    26  H    0.000000   0.000000  -0.000012   0.000515   0.000000   0.000000
    27  H    0.000000   0.000000   0.000000  -0.000001   0.000000   0.000000
    28  H    0.000191   0.000022   0.007836  -0.000494  -0.000006   0.000019
    29  H   -0.000264  -0.000251   0.000218   0.002642  -0.000242   0.002237
    30  H   -0.000214  -0.000185  -0.000107   0.000056   0.000002   0.000093
    31  H    0.470666  -0.014315   0.001433   0.000146   0.000103  -0.000117
    32  H   -0.014315   0.451525  -0.000001  -0.000100   0.000002  -0.000011
    33  H    0.001433  -0.000001   0.568326  -0.032523   0.000479   0.004445
    34  H    0.000146  -0.000100  -0.032523   0.566942  -0.007668   0.000326
    35  H    0.000103   0.000002   0.000479  -0.007668   0.566241  -0.029182
    36  H   -0.000117  -0.000011   0.004445   0.000326  -0.029182   0.541621
    37  H    0.000022   0.000000   0.000007  -0.000009   0.000126   0.005022
    38  H    0.000016   0.000000   0.000000   0.000000   0.000004  -0.000007
    39  H    0.000000   0.000000   0.000000   0.000000   0.000000   0.000000
    40  H   -0.000001   0.000000   0.000013   0.000000  -0.000002   0.000003
    41  H    0.000047   0.000000   0.004429  -0.000205   0.002120   0.000033
              37         38         39         40         41
     1  C    0.000000   0.000000   0.000000   0.000000   0.000000
     2  N    0.000000   0.000000   0.000000   0.000000   0.000000
     3  C    0.000000   0.000000   0.000000   0.000000   0.000000
     4  S    0.000000   0.000000   0.000000   0.000000   0.000000
     5  O    0.000000   0.000000   0.000000   0.000000   0.000000
     6  O    0.000000   0.000000   0.000000   0.000000   0.000000
     7  N    0.000000   0.000000   0.000000   0.000000  -0.000002
     8  C   -0.000004   0.000000   0.000000   0.000000   0.000170
     9  C    0.000129   0.000000   0.000000   0.000000   0.000000
    10  S    0.000072   0.000004   0.000000   0.000000  -0.000002
    11  O    0.000006   0.000000   0.000000   0.000000   0.000000
    12  O    0.012629  -0.000001   0.000000   0.000000   0.000000
    13  C   -0.000141  -0.000007   0.000000   0.000000  -0.000025
    14  C    0.000280   0.000001   0.000000   0.000001   0.000294
    15  C   -0.011608  -0.000176   0.000007  -0.000184  -0.008687
    16  C   -0.037812   0.003680   0.000641   0.003682  -0.047605
    17  C    0.351489  -0.039146   0.004606   0.000755   0.006034
    18  C   -0.044830   0.359224  -0.042713   0.004604   0.000326
    19  C    0.004485  -0.043074   0.361470  -0.042421   0.004730
    20  C    0.000256   0.004581  -0.042753   0.359262  -0.042827
    21  C    0.006191   0.000809   0.004788  -0.039945   0.355535
    22  H    0.000000   0.000000   0.000000   0.000000   0.000000
    23  H    0.000000   0.000000   0.000000   0.000000   0.000000
    24  H    0.000000   0.000000   0.000000   0.000000   0.000000
    25  H    0.000000   0.000000   0.000000   0.000000   0.000000
    26  H    0.000000   0.000000   0.000000   0.000000   0.000000
    27  H    0.000000   0.000000   0.000000   0.000000   0.000000
    28  H    0.000000   0.000000   0.000000   0.000000  -0.000007
    29  H    0.000002   0.000000   0.000000   0.000000   0.000000
    30  H   -0.000001   0.000000   0.000000   0.000000   0.000000
    31  H    0.000022   0.000016   0.000000  -0.000001   0.000047
    32  H    0.000000   0.000000   0.000000   0.000000   0.000000
    33  H    0.000007   0.000000   0.000000   0.000013   0.004429
    34  H   -0.000009   0.000000   0.000000   0.000000  -0.000205
    35  H    0.000126   0.000004   0.000000  -0.000002   0.002120
    36  H    0.005022  -0.000007   0.000000   0.000003   0.000033
    37  H    0.550568  -0.004866  -0.000154   0.000015  -0.000165
    38  H   -0.004866   0.583922  -0.005474  -0.000183   0.000017
    39  H   -0.000154  -0.005474   0.585514  -0.005345  -0.000176
    40  H    0.000015  -0.000183  -0.005345   0.585010  -0.005468
    41  H   -0.000165   0.000017  -0.000176  -0.005468   0.595574
 Mulliken charges:
               1
     1  C   -0.330869
     2  N   -0.530790
     3  C   -0.325482
     4  S    1.330114
     5  O   -0.544068
     6  O   -0.553299
     7  N   -0.742590
     8  C    0.205121
     9  C   -0.518012
    10  S    1.122114
    11  O   -0.529754
    12  O   -0.555314
    13  C   -0.515389
    14  C   -0.301897
    15  C   -0.379914
    16  C    0.146530
    17  C   -0.209147
    18  C   -0.138169
    19  C   -0.140521
    20  C   -0.138856
    21  C   -0.188463
    22  H    0.183502
    23  H    0.168985
    24  H    0.206919
    25  H    0.182335
    26  H    0.191616
    27  H    0.174069
    28  H    0.384219
    29  H    0.220866
    30  H    0.248766
    31  H    0.227539
    32  H    0.244068
    33  H    0.161087
    34  H    0.171478
    35  H    0.170434
    36  H    0.178152
    37  H    0.168290
    38  H    0.140676
    39  H    0.139590
    40  H    0.140206
    41  H    0.135860
 Sum of Mulliken charges =   0.00000
 Mulliken charges with hydrogens summed into heavy atoms:
               1
     1  C    0.228536
     2  N   -0.530790
     3  C    0.222537
     4  S    1.330114
     5  O   -0.544068
     6  O   -0.553299
     7  N   -0.358370
     8  C    0.205121
     9  C   -0.048379
    10  S    1.122114
    11  O   -0.529754
    12  O   -0.555314
    13  C   -0.043782
    14  C    0.030667
    15  C   -0.031328
    16  C    0.146530
    17  C   -0.040857
    18  C    0.002507
    19  C   -0.000931
    20  C    0.001350
    21  C   -0.052604
 Electronic spatial extent (au):  <R**2>=           7975.6241
 Charge=              0.0000 electrons
 Dipole moment (field-independent basis, Debye):
    X=             -0.9165    Y=             -5.2487    Z=              4.9504  Tot=              7.2729
 Quadrupole moment (field-independent basis, Debye-Ang):
   XX=           -126.5361   YY=           -153.9266   ZZ=           -137.8135
   XY=             -8.8681   XZ=            -19.5298   YZ=             -1.5811
 Traceless Quadrupole moment (field-independent basis, Debye-Ang):
   XX=             12.8893   YY=            -14.5012   ZZ=              1.6119
   XY=             -8.8681   XZ=            -19.5298   YZ=             -1.5811
 Octapole moment (field-independent basis, Debye-Ang**2):
  XXX=           -115.0341  YYY=            -53.9177  ZZZ=             14.4033  XYY=             12.4121
  XXY=             17.3271  XXZ=             10.6566  XZZ=             -3.6214  YZZ=              4.9437
  YYZ=             13.1557  XYZ=              6.4768
 Hexadecapole moment (field-independent basis, Debye-Ang**3):
 XXXX=          -7189.7705 YYYY=          -2007.8348 ZZZZ=           -884.3883 XXXY=            -70.0479
 XXXZ=           -342.6358 YYYX=            -51.6568 YYYZ=              6.4595 ZZZX=            -19.0836
 ZZZY=             -2.7816 XXYY=          -1600.7581 XXZZ=          -1434.0370 YYZZ=           -467.8146
 XXYZ=            -33.4199 YYXZ=            -62.3851 ZZXY=              0.3415
 N-N= 2.208111360830D+03 E-N=-8.442475428749D+03  KE= 1.702557125705D+03
 No NMR shielding tensors so no spin-rotation constants.
 Leave Link  601 at Fri Oct  2 06:23:02 2020, MaxMem=  2147483648 cpu:         0.3
 (Enter /prod/apps/gaussian/g09d1/l9999.exe)
 1\1\GINC-PIRINEUS43\SP\RB3LYP\6-31G(d)\C13H20N2O4S2\UBAFAR01\02-Oct-20
 20\0\\#p b3lyp/6-31G(d) scrf=(iefpcm,read,solvent=n-Octanol) geom=allc
 heck guess=read\\SM40.n.19.pdb.xyz\\0,1\C,0,0.765,-1.015,0.078\N,0,2.2
 03,-0.819,0.329\C,0,2.694,0.518,-0.037\S,0,2.709,-1.344,1.848\O,0,2.60
 4,-0.304,2.878\O,0,2.053,-2.638,2.06\N,0,4.357,-1.494,1.582\C,0,5.023,
 -2.664,0.976\C,0,4.448,-3.005,-0.436\S,0,4.238,-4.755,0.044\O,0,2.848,
 -5.232,-0.02\O,0,5.305,-5.599,-0.531\C,0,4.72,-4.048,1.661\C,0,6.512,-
 2.265,0.928\C,0,7.525,-3.314,0.423\C,0,8.084,-4.237,1.49\C,0,7.963,-5.
 629,1.38\C,0,8.514,-6.47,2.349\C,0,9.195,-5.935,3.441\C,0,9.321,-4.549
 ,3.562\C,0,8.77,-3.711,2.594\H,0,0.6,-0.868,-0.99\H,0,0.142,-0.304,0.6
 35\H,0,0.49,-2.033,0.347\H,0,2.509,0.656,-1.104\H,0,3.767,0.565,0.146\
 H,0,2.19,1.314,0.523\H,0,4.837,-1.14,2.408\H,0,5.137,-2.873,-1.27\H,0,
 3.489,-2.528,-0.641\H,0,5.565,-4.561,2.118\H,0,3.853,-4.014,2.32\H,0,6
 .819,-1.949,1.932\H,0,6.566,-1.375,0.294\H,0,8.358,-2.754,-0.018\H,0,7
 .097,-3.911,-0.387\H,0,7.413,-6.042,0.541\H,0,8.408,-7.546,2.249\H,0,9
 .624,-6.589,4.193\H,0,9.851,-4.122,4.407\H,0,8.879,-2.634,2.692\\Versi
 on=AM64L-G09RevD.01\State=1-A\HF=-1714.0662076\RMSD=4.922e-09\Dipole=1
 .3089852,2.4994257,-0.4763765\Quadrupole=-0.648391,-1.1570893,1.805480
 3,-5.1964797,10.6685442,-14.7344057\PG=C01 [X(C13H20N2O4S2)]\\@


 IN SO FAR AS QUANTUM MECHANICS IS CORRECT, CHEMICAL 
 QUESTIONS ARE PROBLEMS IN APPLIED MATHEMATICS.

                    -- EYRING, WALTER, & KIMBALL, 1944
 Job cpu time:       0 days  0 hours  4 minutes 49.8 seconds.
 File lengths (MBytes):  RWF=    218 Int=      0 D2E=      0 Chk=      7 Scr=      1
 Normal termination of Gaussian 09 at Fri Oct  2 06:23:02 2020.
