 Entering Gaussian System, Link 0=g09
 Initial command:
 /prod/apps/gaussian/g09d1/l1.exe "/tmp/ubafar01/1462941/Gau-2821.inp" -scrdir="/tmp/ubafar01/1462941/"
 Entering Link 1 = /prod/apps/gaussian/g09d1/l1.exe PID=      2822.
  
 Copyright (c) 1988,1990,1992,1993,1995,1998,2003,2009,2013,
            Gaussian, Inc.  All Rights Reserved.
  
 This is part of the Gaussian(R) 09 program.  It is based on
 the Gaussian(R) 03 system (copyright 2003, Gaussian, Inc.),
 the Gaussian(R) 98 system (copyright 1998, Gaussian, Inc.),
 the Gaussian(R) 94 system (copyright 1995, Gaussian, Inc.),
 the Gaussian 92(TM) system (copyright 1992, Gaussian, Inc.),
 the Gaussian 90(TM) system (copyright 1990, Gaussian, Inc.),
 the Gaussian 88(TM) system (copyright 1988, Gaussian, Inc.),
 the Gaussian 86(TM) system (copyright 1986, Carnegie Mellon
 University), and the Gaussian 82(TM) system (copyright 1983,
 Carnegie Mellon University). Gaussian is a federally registered
 trademark of Gaussian, Inc.
  
 This software contains proprietary and confidential information,
 including trade secrets, belonging to Gaussian, Inc.
  
 This software is provided under written license and may be
 used, copied, transmitted, or stored only in accord with that
 written license.
  
 The following legend is applicable only to US Government
 contracts under FAR:
  
                    RESTRICTED RIGHTS LEGEND
  
 Use, reproduction and disclosure by the US Government is
 subject to restrictions as set forth in subparagraphs (a)
 and (c) of the Commercial Computer Software - Restricted
 Rights clause in FAR 52.227-19.
  
 Gaussian, Inc.
 340 Quinnipiac St., Bldg. 40, Wallingford CT 06492
  
  
 ---------------------------------------------------------------
 Warning -- This program may not be used in any manner that
 competes with the business of Gaussian, Inc. or will provide
 assistance to any competitor of Gaussian, Inc.  The licensee
 of this program is prohibited from giving any competitor of
 Gaussian, Inc. access to this program.  By using this program,
 the user acknowledges that Gaussian, Inc. is engaged in the
 business of creating and licensing software in the field of
 computational chemistry and represents and warrants to the
 licensee that it is not a competitor of Gaussian, Inc. and that
 it will not use this program in any manner prohibited above.
 ---------------------------------------------------------------
  

 Cite this work as:
 Gaussian 09, Revision D.01,
 M. J. Frisch, G. W. Trucks, H. B. Schlegel, G. E. Scuseria, 
 M. A. Robb, J. R. Cheeseman, G. Scalmani, V. Barone, B. Mennucci, 
 G. A. Petersson, H. Nakatsuji, M. Caricato, X. Li, H. P. Hratchian, 
 A. F. Izmaylov, J. Bloino, G. Zheng, J. L. Sonnenberg, M. Hada, 
 M. Ehara, K. Toyota, R. Fukuda, J. Hasegawa, M. Ishida, T. Nakajima, 
 Y. Honda, O. Kitao, H. Nakai, T. Vreven, J. A. Montgomery, Jr., 
 J. E. Peralta, F. Ogliaro, M. Bearpark, J. J. Heyd, E. Brothers, 
 K. N. Kudin, V. N. Staroverov, T. Keith, R. Kobayashi, J. Normand, 
 K. Raghavachari, A. Rendell, J. C. Burant, S. S. Iyengar, J. Tomasi, 
 M. Cossi, N. Rega, J. M. Millam, M. Klene, J. E. Knox, J. B. Cross, 
 V. Bakken, C. Adamo, J. Jaramillo, R. Gomperts, R. E. Stratmann, 
 O. Yazyev, A. J. Austin, R. Cammi, C. Pomelli, J. W. Ochterski, 
 R. L. Martin, K. Morokuma, V. G. Zakrzewski, G. A. Voth, 
 P. Salvador, J. J. Dannenberg, S. Dapprich, A. D. Daniels, 
 O. Farkas, J. B. Foresman, J. V. Ortiz, J. Cioslowski, 
 and D. J. Fox, Gaussian, Inc., Wallingford CT, 2013.
 
 ******************************************
 Gaussian 09:  AM64L-G09RevD.01 24-Apr-2013
                 2-Oct-2020 
 ******************************************
 %nproc=1
 Will use up to    1 processors via shared memory.
 %Chk=SM40.n.25.pdb.xyz.mst.n.o.chk
 %mem=16GB
 -----------------
 #p b3lyp/6-31G(d)
 -----------------
 1/38=1/1;
 2/12=2,17=6,18=5,40=1/2;
 3/5=1,6=6,7=1,11=2,16=1,25=1,30=1,74=-5/1,2,3;
 4//1;
 5/5=2,38=5/2;
 6/7=2,8=2,9=2,10=2,28=1/1;
 99/5=1,9=1/99;
 Leave Link    1 at Fri Oct  2 06:12:38 2020, MaxMem=  2147483648 cpu:         0.0
 (Enter /prod/apps/gaussian/g09d1/l101.exe)
 -----------------
 SM40.n.25.pdb.xyz
 -----------------
 Symbolic Z-matrix:
 Charge =  0 Multiplicity = 1
 C                     1.843     0.662    -0.304 
 N                     2.357     0.021     0.912 
 C                     1.521    -1.066     1.432 
 S                     3.999    -0.25      0.967 
 O                     4.633     0.964     0.448 
 O                     4.318    -0.762     2.299 
 N                     4.263    -1.544    -0.103 
 C                     5.283    -2.58      0.146 
 C                     4.959    -3.809    -0.768 
 S                     5.235    -4.922     0.653 
 O                     4.132    -5.858     0.914 
 O                     6.625    -5.417     0.673 
 C                     5.088    -3.317     1.509 
 C                     6.739    -2.149    -0.092 
 C                     7.312    -1.079     0.845 
 C                     8.781    -0.839     0.574 
 C                     9.235     0.421     0.174 
 C                     10.587    0.649    -0.079 
 C                     11.51    -0.386     0.064 
 C                     11.069   -1.651     0.461 
 C                     9.716    -1.873     0.712 
 H                     0.864     1.082    -0.066 
 H                     1.729    -0.048    -1.133 
 H                     2.513     1.469    -0.594 
 H                     0.525    -0.657     1.613 
 H                     1.935    -1.414     2.377 
 H                     1.444    -1.903     0.727 
 H                     4.332    -1.178    -1.054 
 H                     5.62     -3.978    -1.618 
 H                     3.909    -3.843    -1.06 
 H                     5.837    -3.144     2.279 
 H                     4.085    -3.213     1.917 
 H                     6.824    -1.804    -1.129 
 H                     7.353    -3.051    -0.017 
 H                     7.174    -1.391     1.888 
 H                     6.766    -0.141     0.723 
 H                     8.518     1.229     0.064 
 H                     10.918    1.636    -0.387 
 H                     12.563   -0.211    -0.132 
 H                     11.779   -2.464     0.575 
 H                     9.378    -2.859     1.018 
 
 NAtoms=     41 NQM=       41 NQMF=       0 NMMI=      0 NMMIF=      0
                NMic=       0 NMicF=      0.
                    Isotopes and Nuclear Properties:
 (Nuclear quadrupole moments (NQMom) in fm**2, nuclear magnetic moments (NMagM)
  in nuclear magnetons)

  Atom         1           2           3           4           5           6           7           8           9          10
 IAtWgt=          12          14          12          32          16          16          14          12          12          32
 AtmWgt=  12.0000000  14.0030740  12.0000000  31.9720718  15.9949146  15.9949146  14.0030740  12.0000000  12.0000000  31.9720718
 NucSpn=           0           2           0           0           0           0           2           0           0           0
 AtZEff=   0.0000000   0.0000000   0.0000000   0.0000000   0.0000000   0.0000000   0.0000000   0.0000000   0.0000000   0.0000000
 NQMom=    0.0000000   2.0440000   0.0000000   0.0000000   0.0000000   0.0000000   2.0440000   0.0000000   0.0000000   0.0000000
 NMagM=    0.0000000   0.4037610   0.0000000   0.0000000   0.0000000   0.0000000   0.4037610   0.0000000   0.0000000   0.0000000
 AtZNuc=   6.0000000   7.0000000   6.0000000  16.0000000   8.0000000   8.0000000   7.0000000   6.0000000   6.0000000  16.0000000

  Atom        11          12          13          14          15          16          17          18          19          20
 IAtWgt=          16          16          12          12          12          12          12          12          12          12
 AtmWgt=  15.9949146  15.9949146  12.0000000  12.0000000  12.0000000  12.0000000  12.0000000  12.0000000  12.0000000  12.0000000
 NucSpn=           0           0           0           0           0           0           0           0           0           0
 AtZEff=   0.0000000   0.0000000   0.0000000   0.0000000   0.0000000   0.0000000   0.0000000   0.0000000   0.0000000   0.0000000
 NQMom=    0.0000000   0.0000000   0.0000000   0.0000000   0.0000000   0.0000000   0.0000000   0.0000000   0.0000000   0.0000000
 NMagM=    0.0000000   0.0000000   0.0000000   0.0000000   0.0000000   0.0000000   0.0000000   0.0000000   0.0000000   0.0000000
 AtZNuc=   8.0000000   8.0000000   6.0000000   6.0000000   6.0000000   6.0000000   6.0000000   6.0000000   6.0000000   6.0000000

  Atom        21          22          23          24          25          26          27          28          29          30
 IAtWgt=          12           1           1           1           1           1           1           1           1           1
 AtmWgt=  12.0000000   1.0078250   1.0078250   1.0078250   1.0078250   1.0078250   1.0078250   1.0078250   1.0078250   1.0078250
 NucSpn=           0           1           1           1           1           1           1           1           1           1
 AtZEff=   0.0000000   0.0000000   0.0000000   0.0000000   0.0000000   0.0000000   0.0000000   0.0000000   0.0000000   0.0000000
 NQMom=    0.0000000   0.0000000   0.0000000   0.0000000   0.0000000   0.0000000   0.0000000   0.0000000   0.0000000   0.0000000
 NMagM=    0.0000000   2.7928460   2.7928460   2.7928460   2.7928460   2.7928460   2.7928460   2.7928460   2.7928460   2.7928460
 AtZNuc=   6.0000000   1.0000000   1.0000000   1.0000000   1.0000000   1.0000000   1.0000000   1.0000000   1.0000000   1.0000000

  Atom        31          32          33          34          35          36          37          38          39          40
 IAtWgt=           1           1           1           1           1           1           1           1           1           1
 AtmWgt=   1.0078250   1.0078250   1.0078250   1.0078250   1.0078250   1.0078250   1.0078250   1.0078250   1.0078250   1.0078250
 NucSpn=           1           1           1           1           1           1           1           1           1           1
 AtZEff=   0.0000000   0.0000000   0.0000000   0.0000000   0.0000000   0.0000000   0.0000000   0.0000000   0.0000000   0.0000000
 NQMom=    0.0000000   0.0000000   0.0000000   0.0000000   0.0000000   0.0000000   0.0000000   0.0000000   0.0000000   0.0000000
 NMagM=    2.7928460   2.7928460   2.7928460   2.7928460   2.7928460   2.7928460   2.7928460   2.7928460   2.7928460   2.7928460
 AtZNuc=   1.0000000   1.0000000   1.0000000   1.0000000   1.0000000   1.0000000   1.0000000   1.0000000   1.0000000   1.0000000

  Atom        41
 IAtWgt=           1
 AtmWgt=   1.0078250
 NucSpn=           1
 AtZEff=   0.0000000
 NQMom=    0.0000000
 NMagM=    2.7928460
 AtZNuc=   1.0000000
 Leave Link  101 at Fri Oct  2 06:12:39 2020, MaxMem=  2147483648 cpu:         0.1
 (Enter /prod/apps/gaussian/g09d1/l202.exe)
                          Input orientation:                          
 ---------------------------------------------------------------------
 Center     Atomic      Atomic             Coordinates (Angstroms)
 Number     Number       Type             X           Y           Z
 ---------------------------------------------------------------------
      1          6           0        1.843000    0.662000   -0.304000
      2          7           0        2.357000    0.021000    0.912000
      3          6           0        1.521000   -1.066000    1.432000
      4         16           0        3.999000   -0.250000    0.967000
      5          8           0        4.633000    0.964000    0.448000
      6          8           0        4.318000   -0.762000    2.299000
      7          7           0        4.263000   -1.544000   -0.103000
      8          6           0        5.283000   -2.580000    0.146000
      9          6           0        4.959000   -3.809000   -0.768000
     10         16           0        5.235000   -4.922000    0.653000
     11          8           0        4.132000   -5.858000    0.914000
     12          8           0        6.625000   -5.417000    0.673000
     13          6           0        5.088000   -3.317000    1.509000
     14          6           0        6.739000   -2.149000   -0.092000
     15          6           0        7.312000   -1.079000    0.845000
     16          6           0        8.781000   -0.839000    0.574000
     17          6           0        9.235000    0.421000    0.174000
     18          6           0       10.587000    0.649000   -0.079000
     19          6           0       11.510000   -0.386000    0.064000
     20          6           0       11.069000   -1.651000    0.461000
     21          6           0        9.716000   -1.873000    0.712000
     22          1           0        0.864000    1.082000   -0.066000
     23          1           0        1.729000   -0.048000   -1.133000
     24          1           0        2.513000    1.469000   -0.594000
     25          1           0        0.525000   -0.657000    1.613000
     26          1           0        1.935000   -1.414000    2.377000
     27          1           0        1.444000   -1.903000    0.727000
     28          1           0        4.332000   -1.178000   -1.054000
     29          1           0        5.620000   -3.978000   -1.618000
     30          1           0        3.909000   -3.843000   -1.060000
     31          1           0        5.837000   -3.144000    2.279000
     32          1           0        4.085000   -3.213000    1.917000
     33          1           0        6.824000   -1.804000   -1.129000
     34          1           0        7.353000   -3.051000   -0.017000
     35          1           0        7.174000   -1.391000    1.888000
     36          1           0        6.766000   -0.141000    0.723000
     37          1           0        8.518000    1.229000    0.064000
     38          1           0       10.918000    1.636000   -0.387000
     39          1           0       12.563000   -0.211000   -0.132000
     40          1           0       11.779000   -2.464000    0.575000
     41          1           0        9.378000   -2.859000    1.018000
 ---------------------------------------------------------------------
                    Distance matrix (angstroms):
                    1          2          3          4          5
     1  C    0.000000
     2  N    1.467560   0.000000
     3  C    2.470499   1.466583   0.000000
     4  S    2.663742   1.665122   2.650012   0.000000
     5  O    2.905307   2.506935   3.843657   1.464620   0.000000
     6  O    3.863808   2.526337   2.944030   1.462234   2.550393
     7  N    3.280737   2.666887   3.178565   1.699715   2.594333
     8  C    4.748333   3.989164   4.254249   2.784169   3.615749
     9  C    5.469423   4.925617   4.917712   4.074102   4.936240
    10  S    6.603224   5.725663   5.410118   4.842920   5.920255
    11  O    7.016655   6.141113   5.481689   5.609827   6.856226
    12  O    7.795915   6.916993   6.749674   5.803465   6.688486
    13  C    5.445129   4.353965   4.218580   3.299420   4.433927
    14  C    5.649556   4.991877   5.542832   3.497897   3.797052
    15  C    5.853310   5.076073   5.820689   3.417323   3.392418
    16  C    7.152603   6.490117   7.314048   4.834138   4.524665
    17  C    7.411358   6.929035   7.956100   5.338051   4.642018
    18  C    8.746904   8.313204   9.349690   6.730829   5.985572
    19  C    9.730602   9.201204  10.105144   7.566309   7.018767
    20  C    9.542236   8.882451   9.615060   7.225215   6.946977
    21  C    8.333223   7.601455   8.266056   5.948382   5.827105
    22  H    1.091552   2.076356   2.699918   3.559429   3.805717
    23  H    1.097423   2.140367   2.767456   3.098984   3.457878
    24  H    1.088232   2.095012   3.393371   2.756788   2.415614
    25  H    2.674280   2.075406   1.091814   3.556915   4.567333
    26  H    3.392050   2.093689   1.088818   2.757370   4.081070
    27  H    2.793096   2.137655   1.097052   3.052545   4.297354
    28  H    3.184842   3.033708   3.754259   2.248669   2.633395
    29  H    6.125514   5.748049   5.880820   4.817453   5.446640
    30  H    5.013474   4.607384   4.429936   4.126315   5.089744
    31  H    6.091762   4.898603   4.864499   3.670807   4.655947
    32  H    4.997502   3.801942   3.379191   3.112758   4.461569
    33  H    5.618909   5.239312   5.935080   3.845615   3.866424
    34  H    6.650477   5.938033   6.328669   4.479193   4.871843
    35  H    6.118761   5.113688   5.680666   3.497248   3.751840
    36  H    5.092688   4.416022   5.372926   2.779875   2.417920
    37  H    6.709138   6.335321   7.489757   4.839857   3.912915
    38  H    9.127496   8.808311   9.945510   7.298142   6.375738
    39  H   10.756864  10.261881  11.184940   8.634316   8.037532
    40  H   10.453163   9.750019  10.388235   8.098386   7.926704
    41  H    8.421481   7.589471   8.069615   5.978555   6.120070
                    6          7          8          9         10
     6  O    0.000000
     7  N    2.526688   0.000000
     8  C    2.978550   1.475024   0.000000
     9  C    4.370535   2.461070   1.565507   0.000000
    10  S    4.566816   3.595442   2.396730   1.825975   0.000000
    11  O    5.284131   4.434191   3.558077   2.776950   1.469975
    12  O    5.443818   4.602320   3.182336   2.727215   1.475644
    13  C    2.782989   2.534304   1.561718   2.333117   1.824930
    14  C    3.674492   2.548867   1.536991   2.526059   3.241384
    15  C    3.343447   3.226659   2.618863   3.948579   4.372578
    16  C    4.785386   4.622519   3.930683   5.022902   5.408442
    17  C    5.485618   5.353386   4.962367   6.088057   6.691569
    18  C    6.851727   6.693489   6.213653   7.212688   7.759882
    19  C    7.540654   7.340835   6.602718   7.438061   7.765169
    20  C    7.052983   6.830167   5.868566   6.595415   6.691178
    21  C    5.735093   5.523375   4.524566   5.344862   5.420262
    22  H    4.574241   4.295398   5.743061   6.417454   7.461275
    23  H    4.357906   3.117703   4.547283   4.971041   6.264001
    24  H    4.074903   3.518771   4.961341   5.819835   7.057561
    25  H    3.855966   4.207620   5.337470   5.938402   6.426191
    26  H    2.471817   3.403951   4.188797   4.977110   5.115490
    27  H    3.468853   2.960497   3.941296   4.268851   4.846805
    28  H    3.378737   1.021331   2.076055   2.719758   4.212694
    29  H    5.232662   3.171913   2.275889   1.089946   2.489338
    30  H    4.576322   2.515267   2.222044   1.090376   2.420100
    31  H    2.825188   3.272828   2.274797   3.239956   2.483458
    32  H    2.491508   2.626337   2.229873   2.885882   2.416791
    33  H    4.372297   2.771100   2.145340   2.761987   3.927132
    34  H    4.451360   3.438974   2.129157   2.621031   2.904387
    35  H    2.953184   3.530072   2.832696   4.219868   4.213420
    36  H    2.976931   2.985916   2.912205   4.352304   5.020640
    37  H    5.157452   5.081579   4.998043   6.224158   6.997129
    38  H    7.518311   7.381198   7.057760   8.081019   8.739877
    39  H    8.613558   8.406410   7.660799   8.436286   8.746961
    40  H    7.844457   7.602390   6.511184   7.079906   6.990836
    41  H    5.625120   5.398990   4.196099   4.860026   4.642590
                   11         12         13         14         15
    11  O    0.000000
    12  O    2.543150   0.000000
    13  C    2.779324   2.733361   0.000000
    14  C    4.643831   3.358280   2.579385   0.000000
    15  C    5.740732   4.395429   3.224239   1.533362   0.000000
    16  C    6.849756   5.061247   4.544553   2.515834   1.512945
    17  C    8.124903   6.414308   5.740425   3.592447   2.529460
    18  C    9.219226   7.284182   6.963469   4.757739   3.816462
    19  C    9.224975   7.038826   7.205614   5.088708   4.325900
    20  C    8.125640   5.828965   6.296525   4.393485   3.819645
    21  C    6.863096   4.702737   4.913118   3.095985   2.535220
    22  H    7.733293   8.716206   6.298730   6.704898   6.861235
    23  H    6.612164   7.487230   5.380465   5.531544   6.012099
    24  H    7.653767   8.119780   5.827438   5.585786   5.620803
    25  H    6.367845   7.794306   5.282744   6.614143   6.843338
    26  H    5.168783   6.397165   3.783681   5.451110   5.601016
    27  H    4.785639   6.260501   3.986183   5.363609   5.926746
    28  H    5.080888   5.119521   3.422839   2.768020   3.535025
    29  H    3.487057   2.886075   3.240073   2.631744   4.163344
    30  H    2.829599   3.585725   2.875148   3.437377   4.780076
    31  H    3.483683   2.892526   1.088040   2.724935   2.914825
    32  H    2.829177   3.585631   1.087791   3.494552   4.014557
    33  H    5.277843   4.042348   3.501701   1.096184   2.158806
    34  H    4.372740   2.569833   2.744022   1.093721   2.152559
    35  H    5.491496   4.241026   2.864352   2.164299   1.097377
    36  H    6.297502   5.278121   3.677017   2.167260   1.092174
    37  H    8.377653   6.937121   5.875291   3.821003   2.718687
    38  H   10.193254   8.324558   7.881366   5.645998   4.678919
    39  H   10.201200   7.937903   8.259282   6.138112   5.411188
    40  H    8.373217   5.940836   6.809511   5.093694   4.684572
    41  H    6.043619   3.773778   4.342228   2.949665   2.732524
                   16         17         18         19         20
    16  C    0.000000
    17  C    1.397754   0.000000
    18  C    2.429442   1.394237   0.000000
    19  C    2.812961   2.416397   1.394132   0.000000
    20  C    2.430444   2.781925   2.411208   1.397253   0.000000
    21  C    1.400866   2.404837   2.782949   2.418576   1.393877
    22  H    8.171825   8.400486   9.732645  10.747523  10.577762
    23  H    7.298646   7.633364   8.947675   9.859767   9.609685
    24  H    6.780775   6.846416   8.131857   9.209777   9.168018
    25  H    8.323111   8.893644  10.286513  11.096985  10.653219
    26  H    7.102757   7.842859   9.227405   9.903907   9.335801
    27  H    7.415327   8.149016   9.526636  10.201236   9.631972
    28  H    4.749622   5.301339   6.588898   7.307590   6.921425
    29  H    4.964887   5.969145   6.960513   7.100964   6.279233
    30  H    5.952340   6.933306   8.107781   8.425522   7.640936
    31  H    4.109402   5.355992   6.519932   6.685486   5.736549
    32  H    5.430648   6.539610   7.821449   8.158196   7.303152
    33  H    2.767902   3.530064   4.613012   5.039104   4.535585
    34  H    2.698409   3.953883   4.914529   4.938566   3.999642
    35  H    2.147964   3.235562   4.436131   4.810187   4.156315
    36  H    2.137669   2.590986   3.983384   4.795815   4.567773
    37  H    2.146134   1.085842   2.153511   3.400042   3.867766
    38  H    3.408213   2.150217   1.085631   2.154611   3.397981
    39  H    3.898249   3.401271   2.155687   1.085288   2.158074
    40  H    3.410078   3.867294   3.396962   2.156749   1.085387
    41  H    2.152660   3.389865   3.869258   3.401657   2.151510
                   21         22         23         24         25
    21  C    0.000000
    22  H    9.364572   0.000000
    23  H    8.398025   1.778655   0.000000
    24  H    8.047224   1.774191   1.790661   0.000000
    25  H    9.314770   2.440918   3.059577   3.652789   0.000000
    26  H    7.970374   3.653123   3.772067   4.180026   1.773371
    27  H    8.272068   3.142527   2.642319   3.776001   1.783837
    28  H    5.708698   4.255675   2.838794   3.244529   4.677347
    29  H    5.161118   7.115605   5.551577   6.353883   6.886757
    30  H    6.382956   5.875005   4.377186   5.512106   5.361621
    31  H    4.372364   6.934611   6.172732   6.370469   5.903056
    32  H    5.912342   5.723125   4.987029   5.540526   4.393080
    33  H    3.428951   6.706755   5.389117   5.439069   6.965025
    34  H    2.739141   7.693582   6.472468   6.647475   7.416854
    35  H    2.842018   7.053364   6.370095   6.005401   6.695042
    36  H    3.420884   6.078804   5.368869   4.734406   6.325222
    37  H    3.387848   7.656515   7.010996   6.045708   8.357299
    38  H    3.868551  10.074367   9.371771   8.409207  10.829233
    39  H    3.402938  11.770421  10.881366  10.199919  12.171992
    40  H    2.150353  11.494443  10.476489  10.133795  11.445314
    41  H    1.086313   9.444296   8.428269   8.273956   9.142124
                   26         27         28         29         30
    26  H    0.000000
    27  H    1.789609   0.000000
    28  H    4.192024   3.469601   0.000000
    29  H    6.009438   5.219543   3.133216   0.000000
    30  H    4.648622   3.610152   2.698368   1.804747   0.000000
    31  H    4.269439   4.821539   4.151996   3.991147   3.918508
    32  H    2.840863   3.179164   3.609581   3.929081   3.048017
    33  H    6.028802   5.692006   2.570518   2.532788   3.558020
    34  H    6.145383   6.065288   3.702693   2.534920   3.684596
    35  H    5.261822   5.868813   4.096059   4.625962   5.036192
    36  H    5.262585   5.606099   3.187076   4.638552   5.004632
    37  H    7.461321   7.764694   4.956427   6.191961   6.944886
    38  H    9.881118  10.174586   7.192974   7.816723   8.921796
    39  H   10.986204  11.279756   8.338737   8.037645   9.431030
    40  H   10.062507  10.351331   7.730799   6.710792   8.155475
    41  H    7.702802   7.996685   5.707982   4.724746   5.932647
                   31         32         33         34         35
    31  H    0.000000
    32  H    1.790338   0.000000
    33  H    3.792655   4.331919   0.000000
    34  H    2.752911   3.800845   1.752539   0.000000
    35  H    2.239075   3.586425   3.065185   2.533114   0.000000
    36  H    3.507447   4.248598   2.489746   3.059456   1.756755
    37  H    5.587228   6.543429   3.673142   4.436461   3.463771
    38  H    7.468100   8.689713   5.398611   5.900347   5.325025
    39  H    7.723632   9.224255   6.038856   5.934890   5.874872
    40  H    6.218792   7.845993   5.281216   4.503833   4.907272
    41  H    3.769619   5.380462   3.499364   2.282261   2.787389
                   36         37         38         39         40
    36  H    0.000000
    37  H    2.319630   0.000000
    38  H    4.650692   2.475692   0.000000
    39  H    5.860131   4.298144   2.486455   0.000000
    40  H    5.527061   4.953129   4.298461   2.488074   0.000000
    41  H    3.781150   4.285027   4.954861   4.298678   2.473272
                   41
    41  H    0.000000
 Stoichiometry    C13H20N2O4S2
 Framework group  C1[X(C13H20N2O4S2)]
 Deg. of freedom   117
 Full point group                 C1      NOp   1
 Largest Abelian subgroup         C1      NOp   1
 Largest concise Abelian subgroup C1      NOp   1
                         Standard orientation:                         
 ---------------------------------------------------------------------
 Center     Atomic      Atomic             Coordinates (Angstroms)
 Number     Number       Type             X           Y           Z
 ---------------------------------------------------------------------
      1          6           0       -3.712543   -2.771008    1.068969
      2          7           0       -3.334174   -2.067642   -0.162228
      3          6           0       -4.290739   -1.047445   -0.603868
      4         16           0       -1.727884   -1.656190   -0.314444
      5          8           0       -0.961530   -2.820175    0.136061
      6          8           0       -1.540037   -1.096037   -1.652005
      7          7           0       -1.505270   -0.362850    0.765717
      8          6           0       -0.594515    0.760764    0.476383
      9          6           0       -0.961183    1.941693    1.436474
     10         16           0       -0.872529    3.098396    0.026379
     11          8           0       -2.065093    3.940881   -0.143426
     12          8           0        0.466565    3.710824   -0.069985
     13          6           0       -0.938736    1.501594   -0.854649
     14          6           0        0.904979    0.451959    0.612392
     15          6           0        1.504340   -0.548871   -0.382747
     16          6           0        3.002790   -0.666857   -0.210322
     17          6           0        3.586343   -1.890036    0.131752
     18          6           0        4.966279   -2.005774    0.293859
     19          6           0        5.787526   -0.893274    0.116377
     20          6           0        5.216671    0.335948   -0.223410
     21          6           0        3.836376    0.445589   -0.383595
     22          1           0       -4.665979   -3.269126    0.883709
     23          1           0       -3.832135   -2.087667    1.919311
     24          1           0       -2.959527   -3.522544    1.297901
     25          1           0       -5.258320   -1.537037   -0.730938
     26          1           0       -3.969565   -0.649160   -1.564983
     27          1           0       -4.392272   -0.232300    0.123285
     28          1           0       -1.344274   -0.737828    1.701981
     29          1           0       -0.263187    2.152074    2.246735
     30          1           0       -1.989212    1.880691    1.794740
     31          1           0       -0.229205    1.406546   -1.674016
     32          1           0       -1.953681    1.319125   -1.200887
     33          1           0        1.085677    0.097799    1.633929
     34          1           0        1.434589    1.404355    0.519225
     35          1           0        1.273337   -0.232018   -1.407676
     36          1           0        1.048421   -1.532113   -0.247782
     37          1           0        2.948654   -2.758206    0.268451
     38          1           0        5.398557   -2.965948    0.558048
     39          1           0        6.861998   -0.980831    0.241646
     40          1           0        5.846719    1.208567   -0.363546
     41          1           0        3.397351    1.404133   -0.645369
 ---------------------------------------------------------------------
 Rotational constants (GHZ):      0.3175817      0.1835972      0.1250705
 Leave Link  202 at Fri Oct  2 06:12:39 2020, MaxMem=  2147483648 cpu:         0.0
 (Enter /prod/apps/gaussian/g09d1/l301.exe)
 Standard basis: 6-31G(d) (6D, 7F)
 Ernie: Thresh=  0.10000D-02 Tol=  0.10000D-05 Strict=F.
 There are   363 symmetry adapted cartesian basis functions of A   symmetry.
 There are   363 symmetry adapted basis functions of A   symmetry.
   363 basis functions,   716 primitive gaussians,   363 cartesian basis functions
    88 alpha electrons       88 beta electrons
       nuclear repulsion energy      2164.7067869182 Hartrees.
 IExCor=  402 DFT=T Ex+Corr=B3LYP ExCW=0 ScaHFX=  0.200000
 ScaDFX=  0.800000  0.720000  1.000000  0.810000 ScalE2=  1.000000  1.000000
 IRadAn=      0 IRanWt=     -1 IRanGd=            0 ICorTp=0 IEmpDi=  4
 NAtoms=   41 NActive=   41 NUniq=   41 SFac= 1.00D+00 NAtFMM=   60 NAOKFM=F Big=F
 Integral buffers will be    131072 words long.
 Raffenetti 2 integral format.
 Two-electron integral symmetry is turned on.
 Leave Link  301 at Fri Oct  2 06:12:39 2020, MaxMem=  2147483648 cpu:         0.0
 (Enter /prod/apps/gaussian/g09d1/l302.exe)
 NPDir=0 NMtPBC=     1 NCelOv=     1 NCel=       1 NClECP=     1 NCelD=      1
         NCelK=      1 NCelE2=     1 NClLst=     1 CellRange=     0.0.
 One-electron integrals computed using PRISM.
 NBasis=   363 RedAO= T EigKep=  4.59D-04  NBF=   363
 NBsUse=   363 1.00D-06 EigRej= -1.00D+00 NBFU=   363
 Precomputing XC quadrature grid using
 IXCGrd= 4 IRadAn=           0 IRanWt=          -1 IRanGd=           0 AccXCQ= 0.00D+00.
 Generated NRdTot=       0 NPtTot=           0 NUsed=           0 NTot=          32
 NSgBfM=   356   356   357   357   357 MxSgAt=    41 MxSgA2=    41.
 Leave Link  302 at Fri Oct  2 06:12:40 2020, MaxMem=  2147483648 cpu:         1.3
 (Enter /prod/apps/gaussian/g09d1/l303.exe)
 DipDrv:  MaxL=1.
 Leave Link  303 at Fri Oct  2 06:12:40 2020, MaxMem=  2147483648 cpu:         0.0
 (Enter /prod/apps/gaussian/g09d1/l401.exe)
 ExpMin= 1.17D-01 ExpMax= 2.19D+04 ExpMxC= 3.30D+03 IAcc=1 IRadAn=         1 AccDes= 0.00D+00
 Harris functional with IExCor=  402 and IRadAn=       1 diagonalized for initial guess.
 HarFok:  IExCor=  402 AccDes= 0.00D+00 IRadAn=         1 IDoV= 1 UseB2=F ITyADJ=14
 ICtDFT=  3500011 ScaDFX=  1.000000  1.000000  1.000000  1.000000
 FoFCou: FMM=F IPFlag=           0 FMFlag=      100000 FMFlg1=           0
         NFxFlg=           0 DoJE=T BraDBF=F KetDBF=T FulRan=T
         wScrn=  0.000000 ICntrl=     500 IOpCl=  0 I1Cent=   200000004 NGrid=           0
         NMat0=    1 NMatS0=      1 NMatT0=    0 NMatD0=    1 NMtDS0=    0 NMtDT0=    0
 Petite list used in FoFCou.
 Harris En= -1714.14732846895    
 JPrj=0 DoOrth=F DoCkMO=F.
 Leave Link  401 at Fri Oct  2 06:12:45 2020, MaxMem=  2147483648 cpu:         4.9
 (Enter /prod/apps/gaussian/g09d1/l502.exe)
 Closed shell SCF:
 Using DIIS extrapolation, IDIIS=  1040.
 Integral symmetry usage will be decided dynamically.
 IVT=      418784 IEndB=      418784 NGot=  2147483648 MDV=  2147213637
 LenX=  2147213637 LenY=  2147081427
 Requested convergence on RMS density matrix=1.00D-08 within 128 cycles.
 Requested convergence on MAX density matrix=1.00D-06.
 Requested convergence on             energy=1.00D-06.
 No special actions if energy rises.
 Fock matrices will be formed incrementally for  20 cycles.
 Integral accuracy reduced to 1.0D-05 until final iterations.

 Cycle   1  Pass 0  IDiag  1:
 FoFJK:  IHMeth= 1 ICntrl=       0 DoSepK=F KAlg= 0 I1Cent=   0 FoldK=F
 IRaf= 740000000 NMat=   1 IRICut=       1 DoRegI=T DoRafI=F ISym2E= 0.
 FoFCou: FMM=F IPFlag=           0 FMFlag=      100000 FMFlg1=           0
         NFxFlg=           0 DoJE=F BraDBF=F KetDBF=F FulRan=T
         wScrn=  0.000000 ICntrl=       0 IOpCl=  0 I1Cent=           0 NGrid=           0
         NMat0=    1 NMatS0=      1 NMatT0=    0 NMatD0=    1 NMtDS0=    0 NMtDT0=    0
 Symmetry not used in FoFCou.
 E= -1713.19694078865    
 DIIS: error= 3.70D-02 at cycle   1 NSaved=   1.
 NSaved= 1 IEnMin= 1 EnMin= -1713.19694078865     IErMin= 1 ErrMin= 3.70D-02
 ErrMax= 3.70D-02  0.00D+00 EMaxC= 1.00D-01 BMatC= 9.90D-01 BMatP= 9.90D-01
 IDIUse=3 WtCom= 6.30D-01 WtEn= 3.70D-01
 Coeff-Com:  0.100D+01
 Coeff-En:   0.100D+01
 Coeff:      0.100D+01
 Gap=     0.383 Goal=   None    Shift=    0.000
 GapD=    0.383 DampG=1.000 DampE=0.500 DampFc=0.5000 IDamp=-1.
 Damping current iteration by 5.00D-01
 RMSDP=6.96D-03 MaxDP=6.01D-01              OVMax= 2.27D-01

 Cycle   2  Pass 0  IDiag  1:
 RMSU=  3.48D-03    CP:  9.99D-01
 E= -1713.38338334946     Delta-E=       -0.186442560811 Rises=F Damp=T
 DIIS: error= 2.27D-02 at cycle   2 NSaved=   2.
 NSaved= 2 IEnMin= 2 EnMin= -1713.38338334946     IErMin= 2 ErrMin= 2.27D-02
 ErrMax= 2.27D-02  0.00D+00 EMaxC= 1.00D-01 BMatC= 1.62D-01 BMatP= 9.90D-01
 IDIUse=3 WtCom= 7.73D-01 WtEn= 2.27D-01
 Coeff-Com:  0.245D+00 0.755D+00
 Coeff-En:   0.387D+00 0.613D+00
 Coeff:      0.277D+00 0.723D+00
 Gap=     0.268 Goal=   None    Shift=    0.000
 RMSDP=1.97D-03 MaxDP=1.29D-01 DE=-1.86D-01 OVMax= 2.02D-01

 Cycle   3  Pass 0  IDiag  1:
 RMSU=  1.58D-03    CP:  9.90D-01  6.70D-01
 E= -1713.95796567762     Delta-E=       -0.574582328155 Rises=F Damp=F
 DIIS: error= 1.17D-02 at cycle   3 NSaved=   3.
 NSaved= 3 IEnMin= 3 EnMin= -1713.95796567762     IErMin= 3 ErrMin= 1.17D-02
 ErrMax= 1.17D-02  0.00D+00 EMaxC= 1.00D-01 BMatC= 8.62D-02 BMatP= 1.62D-01
 IDIUse=3 WtCom= 8.83D-01 WtEn= 1.17D-01
 Coeff-Com:  0.105D+00 0.427D+00 0.467D+00
 Coeff-En:   0.000D+00 0.000D+00 0.100D+01
 Coeff:      0.930D-01 0.377D+00 0.530D+00
 Gap=     0.241 Goal=   None    Shift=    0.000
 RMSDP=1.22D-03 MaxDP=3.56D-02 DE=-5.75D-01 OVMax= 7.60D-02

 Cycle   4  Pass 0  IDiag  1:
 RMSU=  7.34D-04    CP:  9.95D-01  7.30D-01  4.05D-01
 E= -1714.02680764212     Delta-E=       -0.068841964501 Rises=F Damp=F
 DIIS: error= 3.43D-03 at cycle   4 NSaved=   4.
 NSaved= 4 IEnMin= 4 EnMin= -1714.02680764212     IErMin= 4 ErrMin= 3.43D-03
 ErrMax= 3.43D-03  0.00D+00 EMaxC= 1.00D-01 BMatC= 1.38D-02 BMatP= 8.62D-02
 IDIUse=3 WtCom= 9.66D-01 WtEn= 3.43D-02
 Coeff-Com:  0.130D-01 0.687D-01 0.294D+00 0.625D+00
 Coeff-En:   0.000D+00 0.000D+00 0.140D+00 0.860D+00
 Coeff:      0.125D-01 0.664D-01 0.289D+00 0.633D+00
 Gap=     0.240 Goal=   None    Shift=    0.000
 RMSDP=3.99D-04 MaxDP=1.51D-02 DE=-6.88D-02 OVMax= 2.51D-02

 Cycle   5  Pass 0  IDiag  1:
 RMSU=  1.66D-04    CP:  9.94D-01  7.15D-01  5.61D-01  6.44D-01
 E= -1714.03849308400     Delta-E=       -0.011685441882 Rises=F Damp=F
 DIIS: error= 9.42D-04 at cycle   5 NSaved=   5.
 NSaved= 5 IEnMin= 5 EnMin= -1714.03849308400     IErMin= 5 ErrMin= 9.42D-04
 ErrMax= 9.42D-04  0.00D+00 EMaxC= 1.00D-01 BMatC= 8.22D-04 BMatP= 1.38D-02
 IDIUse=3 WtCom= 9.91D-01 WtEn= 9.42D-03
 Coeff-Com:  0.486D-03 0.127D-01 0.121D+00 0.331D+00 0.535D+00
 Coeff-En:   0.000D+00 0.000D+00 0.000D+00 0.000D+00 0.100D+01
 Coeff:      0.482D-03 0.126D-01 0.120D+00 0.328D+00 0.539D+00
 Gap=     0.240 Goal=   None    Shift=    0.000
 RMSDP=1.04D-04 MaxDP=7.08D-03 DE=-1.17D-02 OVMax= 4.47D-03

 Cycle   6  Pass 0  IDiag  1:
 RMSU=  5.15D-05    CP:  9.94D-01  7.18D-01  5.54D-01  7.01D-01  5.32D-01
 E= -1714.03917732590     Delta-E=       -0.000684241893 Rises=F Damp=F
 DIIS: error= 3.20D-04 at cycle   6 NSaved=   6.
 NSaved= 6 IEnMin= 6 EnMin= -1714.03917732590     IErMin= 6 ErrMin= 3.20D-04
 ErrMax= 3.20D-04  0.00D+00 EMaxC= 1.00D-01 BMatC= 7.76D-05 BMatP= 8.22D-04
 IDIUse=3 WtCom= 9.97D-01 WtEn= 3.20D-03
 Coeff-Com: -0.651D-03 0.187D-02 0.429D-01 0.129D+00 0.300D+00 0.527D+00
 Coeff-En:   0.000D+00 0.000D+00 0.000D+00 0.000D+00 0.000D+00 0.100D+01
 Coeff:     -0.649D-03 0.187D-02 0.428D-01 0.128D+00 0.299D+00 0.529D+00
 Gap=     0.240 Goal=   None    Shift=    0.000
 RMSDP=3.02D-05 MaxDP=1.70D-03 DE=-6.84D-04 OVMax= 2.21D-03

 Cycle   7  Pass 0  IDiag  1:
 RMSU=  2.00D-05    CP:  9.94D-01  7.18D-01  5.56D-01  6.99D-01  5.86D-01
                    CP:  6.05D-01
 E= -1714.03922970021     Delta-E=       -0.000052374318 Rises=F Damp=F
 DIIS: error= 1.52D-04 at cycle   7 NSaved=   7.
 NSaved= 7 IEnMin= 7 EnMin= -1714.03922970021     IErMin= 7 ErrMin= 1.52D-04
 ErrMax= 1.52D-04  0.00D+00 EMaxC= 1.00D-01 BMatC= 1.45D-05 BMatP= 7.76D-05
 IDIUse=3 WtCom= 9.98D-01 WtEn= 1.52D-03
 Coeff-Com: -0.497D-03-0.324D-03 0.134D-01 0.437D-01 0.133D+00 0.349D+00
 Coeff-Com:  0.462D+00
 Coeff-En:   0.000D+00 0.000D+00 0.000D+00 0.000D+00 0.000D+00 0.128D+00
 Coeff-En:   0.872D+00
 Coeff:     -0.496D-03-0.323D-03 0.134D-01 0.436D-01 0.133D+00 0.348D+00
 Coeff:      0.462D+00
 Gap=     0.240 Goal=   None    Shift=    0.000
 RMSDP=1.09D-05 MaxDP=6.03D-04 DE=-5.24D-05 OVMax= 8.54D-04

 Cycle   8  Pass 0  IDiag  1:
 RMSU=  5.24D-06    CP:  9.94D-01  7.18D-01  5.56D-01  6.99D-01  5.91D-01
                    CP:  6.54D-01  5.41D-01
 E= -1714.03924099848     Delta-E=       -0.000011298268 Rises=F Damp=F
 DIIS: error= 2.24D-05 at cycle   8 NSaved=   8.
 NSaved= 8 IEnMin= 8 EnMin= -1714.03924099848     IErMin= 8 ErrMin= 2.24D-05
 ErrMax= 2.24D-05  0.00D+00 EMaxC= 1.00D-01 BMatC= 5.43D-07 BMatP= 1.45D-05
 IDIUse=1 WtCom= 1.00D+00 WtEn= 0.00D+00
 Coeff-Com: -0.183D-03-0.342D-03 0.209D-02 0.806D-02 0.359D-01 0.120D+00
 Coeff-Com:  0.224D+00 0.611D+00
 Coeff:     -0.183D-03-0.342D-03 0.209D-02 0.806D-02 0.359D-01 0.120D+00
 Coeff:      0.224D+00 0.611D+00
 Gap=     0.240 Goal=   None    Shift=    0.000
 RMSDP=2.82D-06 MaxDP=1.40D-04 DE=-1.13D-05 OVMax= 1.47D-04

 Initial convergence to 1.0D-05 achieved.  Increase integral accuracy.
 Cycle   9  Pass 1  IDiag  1:
 E= -1714.03911303413     Delta-E=        0.000127964352 Rises=F Damp=F
 DIIS: error= 4.64D-05 at cycle   1 NSaved=   1.
 NSaved= 1 IEnMin= 1 EnMin= -1714.03911303413     IErMin= 1 ErrMin= 4.64D-05
 ErrMax= 4.64D-05  0.00D+00 EMaxC= 1.00D-01 BMatC= 7.69D-07 BMatP= 7.69D-07
 IDIUse=1 WtCom= 1.00D+00 WtEn= 0.00D+00
 Coeff-Com:  0.100D+01
 Coeff:      0.100D+01
 Gap=     0.240 Goal=   None    Shift=    0.000
 RMSDP=2.82D-06 MaxDP=1.40D-04 DE= 1.28D-04 OVMax= 1.82D-04

 Cycle  10  Pass 1  IDiag  1:
 RMSU=  2.65D-05    CP:  1.00D+00
 E= -1714.03911358779     Delta-E=       -0.000000553659 Rises=F Damp=F
 DIIS: error= 1.57D-05 at cycle   2 NSaved=   2.
 NSaved= 2 IEnMin= 2 EnMin= -1714.03911358779     IErMin= 2 ErrMin= 1.57D-05
 ErrMax= 1.57D-05  0.00D+00 EMaxC= 1.00D-01 BMatC= 2.86D-07 BMatP= 7.69D-07
 IDIUse=1 WtCom= 1.00D+00 WtEn= 0.00D+00
 Coeff-Com:  0.319D+00 0.681D+00
 Coeff:      0.319D+00 0.681D+00
 Gap=     0.240 Goal=   None    Shift=    0.000
 RMSDP=2.85D-06 MaxDP=1.23D-04 DE=-5.54D-07 OVMax= 1.77D-04

 Cycle  11  Pass 1  IDiag  1:
 RMSU=  2.85D-06    CP:  1.00D+00  9.98D-01
 E= -1714.03911358376     Delta-E=        0.000000004029 Rises=F Damp=F
 DIIS: error= 2.06D-05 at cycle   3 NSaved=   3.
 NSaved= 3 IEnMin= 2 EnMin= -1714.03911358779     IErMin= 2 ErrMin= 1.57D-05
 ErrMax= 2.06D-05  0.00D+00 EMaxC= 1.00D-01 BMatC= 3.00D-07 BMatP= 2.86D-07
 IDIUse=1 WtCom= 1.00D+00 WtEn= 0.00D+00
 Coeff-Com:  0.310D-02 0.506D+00 0.491D+00
 Coeff:      0.310D-02 0.506D+00 0.491D+00
 Gap=     0.240 Goal=   None    Shift=    0.000
 RMSDP=1.52D-06 MaxDP=6.82D-05 DE= 4.03D-09 OVMax= 8.84D-05

 Cycle  12  Pass 1  IDiag  1:
 RMSU=  5.15D-07    CP:  1.00D+00  1.01D+00  5.05D-01
 E= -1714.03911381758     Delta-E=       -0.000000233822 Rises=F Damp=F
 DIIS: error= 6.02D-06 at cycle   4 NSaved=   4.
 NSaved= 4 IEnMin= 4 EnMin= -1714.03911381758     IErMin= 4 ErrMin= 6.02D-06
 ErrMax= 6.02D-06  0.00D+00 EMaxC= 1.00D-01 BMatC= 1.11D-08 BMatP= 2.86D-07
 IDIUse=1 WtCom= 1.00D+00 WtEn= 0.00D+00
 Coeff-Com: -0.757D-02 0.301D+00 0.312D+00 0.394D+00
 Coeff:     -0.757D-02 0.301D+00 0.312D+00 0.394D+00
 Gap=     0.240 Goal=   None    Shift=    0.000
 RMSDP=3.11D-07 MaxDP=1.25D-05 DE=-2.34D-07 OVMax= 2.05D-05

 Cycle  13  Pass 1  IDiag  1:
 RMSU=  1.56D-07    CP:  1.00D+00  1.01D+00  5.09D-01  4.80D-01
 E= -1714.03911382667     Delta-E=       -0.000000009087 Rises=F Damp=F
 DIIS: error= 8.45D-07 at cycle   5 NSaved=   5.
 NSaved= 5 IEnMin= 5 EnMin= -1714.03911382667     IErMin= 5 ErrMin= 8.45D-07
 ErrMax= 8.45D-07  0.00D+00 EMaxC= 1.00D-01 BMatC= 3.76D-10 BMatP= 1.11D-08
 IDIUse=1 WtCom= 1.00D+00 WtEn= 0.00D+00
 Coeff-Com: -0.415D-02 0.135D+00 0.141D+00 0.220D+00 0.509D+00
 Coeff:     -0.415D-02 0.135D+00 0.141D+00 0.220D+00 0.509D+00
 Gap=     0.240 Goal=   None    Shift=    0.000
 RMSDP=6.63D-08 MaxDP=3.66D-06 DE=-9.09D-09 OVMax= 3.77D-06

 Cycle  14  Pass 1  IDiag  1:
 RMSU=  5.46D-08    CP:  1.00D+00  1.01D+00  5.09D-01  5.02D-01  7.72D-01
 E= -1714.03911382698     Delta-E=       -0.000000000317 Rises=F Damp=F
 DIIS: error= 2.12D-07 at cycle   6 NSaved=   6.
 NSaved= 6 IEnMin= 6 EnMin= -1714.03911382698     IErMin= 6 ErrMin= 2.12D-07
 ErrMax= 2.12D-07  0.00D+00 EMaxC= 1.00D-01 BMatC= 3.19D-11 BMatP= 3.76D-10
 IDIUse=1 WtCom= 1.00D+00 WtEn= 0.00D+00
 Coeff-Com: -0.110D-02 0.277D-01 0.296D-01 0.582D-01 0.258D+00 0.627D+00
 Coeff:     -0.110D-02 0.277D-01 0.296D-01 0.582D-01 0.258D+00 0.627D+00
 Gap=     0.240 Goal=   None    Shift=    0.000
 RMSDP=2.03D-08 MaxDP=9.69D-07 DE=-3.17D-10 OVMax= 1.26D-06

 Cycle  15  Pass 1  IDiag  1:
 RMSU=  1.54D-08    CP:  1.00D+00  1.01D+00  5.09D-01  5.07D-01  8.21D-01
                    CP:  8.10D-01
 E= -1714.03911382692     Delta-E=        0.000000000065 Rises=F Damp=F
 DIIS: error= 1.31D-07 at cycle   7 NSaved=   7.
 NSaved= 7 IEnMin= 6 EnMin= -1714.03911382698     IErMin= 7 ErrMin= 1.31D-07
 ErrMax= 1.31D-07  0.00D+00 EMaxC= 1.00D-01 BMatC= 7.77D-12 BMatP= 3.19D-11
 IDIUse=1 WtCom= 1.00D+00 WtEn= 0.00D+00
 Coeff-Com: -0.251D-03 0.269D-02 0.314D-02 0.127D-01 0.108D+00 0.395D+00
 Coeff-Com:  0.478D+00
 Coeff:     -0.251D-03 0.269D-02 0.314D-02 0.127D-01 0.108D+00 0.395D+00
 Coeff:      0.478D+00
 Gap=     0.240 Goal=   None    Shift=    0.000
 RMSDP=8.99D-09 MaxDP=4.65D-07 DE= 6.50D-11 OVMax= 5.64D-07

 SCF Done:  E(RB3LYP) =  -1714.03911383     A.U. after   15 cycles
            NFock= 15  Conv=0.90D-08     -V/T= 2.0067
 KE= 1.702596812578D+03 PE=-8.355261690076D+03 EE= 2.773918976753D+03
 Leave Link  502 at Fri Oct  2 06:18:51 2020, MaxMem=  2147483648 cpu:       365.3
 (Enter /prod/apps/gaussian/g09d1/l601.exe)
 Copying SCF densities to generalized density rwf, IOpCl= 0 IROHF=0.

 **********************************************************************

            Population analysis using the SCF density.

 **********************************************************************

 Orbital symmetries:
       Occupied  (A) (A) (A) (A) (A) (A) (A) (A) (A) (A) (A) (A)
                 (A) (A) (A) (A) (A) (A) (A) (A) (A) (A) (A) (A)
                 (A) (A) (A) (A) (A) (A) (A) (A) (A) (A) (A) (A)
                 (A) (A) (A) (A) (A) (A) (A) (A) (A) (A) (A) (A)
                 (A) (A) (A) (A) (A) (A) (A) (A) (A) (A) (A) (A)
                 (A) (A) (A) (A) (A) (A) (A) (A) (A) (A) (A) (A)
                 (A) (A) (A) (A) (A) (A) (A) (A) (A) (A) (A) (A)
                 (A) (A) (A) (A)
       Virtual   (A) (A) (A) (A) (A) (A) (A) (A) (A) (A) (A) (A)
                 (A) (A) (A) (A) (A) (A) (A) (A) (A) (A) (A) (A)
                 (A) (A) (A) (A) (A) (A) (A) (A) (A) (A) (A) (A)
                 (A) (A) (A) (A) (A) (A) (A) (A) (A) (A) (A) (A)
                 (A) (A) (A) (A) (A) (A) (A) (A) (A) (A) (A) (A)
                 (A) (A) (A) (A) (A) (A) (A) (A) (A) (A) (A) (A)
                 (A) (A) (A) (A) (A) (A) (A) (A) (A) (A) (A) (A)
                 (A) (A) (A) (A) (A) (A) (A) (A) (A) (A) (A) (A)
                 (A) (A) (A) (A) (A) (A) (A) (A) (A) (A) (A) (A)
                 (A) (A) (A) (A) (A) (A) (A) (A) (A) (A) (A) (A)
                 (A) (A) (A) (A) (A) (A) (A) (A) (A) (A) (A) (A)
                 (A) (A) (A) (A) (A) (A) (A) (A) (A) (A) (A) (A)
                 (A) (A) (A) (A) (A) (A) (A) (A) (A) (A) (A) (A)
                 (A) (A) (A) (A) (A) (A) (A) (A) (A) (A) (A) (A)
                 (A) (A) (A) (A) (A) (A) (A) (A) (A) (A) (A) (A)
                 (A) (A) (A) (A) (A) (A) (A) (A) (A) (A) (A) (A)
                 (A) (A) (A) (A) (A) (A) (A) (A) (A) (A) (A) (A)
                 (A) (A) (A) (A) (A) (A) (A) (A) (A) (A) (A) (A)
                 (A) (A) (A) (A) (A) (A) (A) (A) (A) (A) (A) (A)
                 (A) (A) (A) (A) (A) (A) (A) (A) (A) (A) (A) (A)
                 (A) (A) (A) (A) (A) (A) (A) (A) (A) (A) (A) (A)
                 (A) (A) (A) (A) (A) (A) (A) (A) (A) (A) (A) (A)
                 (A) (A) (A) (A) (A) (A) (A) (A) (A) (A) (A)
 The electronic state is 1-A.
 Alpha  occ. eigenvalues --  -89.14635 -89.09335 -19.16261 -19.16192 -19.14820
 Alpha  occ. eigenvalues --  -19.14527 -14.39203 -14.39091 -10.28438 -10.24192
 Alpha  occ. eigenvalues --  -10.23820 -10.23813 -10.23362 -10.20441 -10.19286
 Alpha  occ. eigenvalues --  -10.18992 -10.18633 -10.18578 -10.18484 -10.18379
 Alpha  occ. eigenvalues --  -10.18331  -8.16868  -8.12389  -6.13345  -6.13287
 Alpha  occ. eigenvalues --   -6.13274  -6.08807  -6.08746  -6.08674  -1.14039
 Alpha  occ. eigenvalues --   -1.10053  -1.02363  -0.99712  -0.96267  -0.95339
 Alpha  occ. eigenvalues --   -0.86458  -0.85229  -0.79431  -0.74650  -0.74172
 Alpha  occ. eigenvalues --   -0.73941  -0.73092  -0.72439  -0.67414  -0.63615
 Alpha  occ. eigenvalues --   -0.60963  -0.60125  -0.58178  -0.57746  -0.56026
 Alpha  occ. eigenvalues --   -0.52953  -0.52438  -0.51394  -0.50376  -0.50009
 Alpha  occ. eigenvalues --   -0.49054  -0.47980  -0.47393  -0.46231  -0.45723
 Alpha  occ. eigenvalues --   -0.44786  -0.44577  -0.44248  -0.43158  -0.42923
 Alpha  occ. eigenvalues --   -0.42883  -0.41502  -0.41391  -0.40947  -0.40701
 Alpha  occ. eigenvalues --   -0.39130  -0.37632  -0.36743  -0.35644  -0.34851
 Alpha  occ. eigenvalues --   -0.34668  -0.33900  -0.33487  -0.33358  -0.32364
 Alpha  occ. eigenvalues --   -0.31981  -0.31613  -0.30035  -0.29658  -0.28696
 Alpha  occ. eigenvalues --   -0.27162  -0.24588  -0.23868
 Alpha virt. eigenvalues --    0.00096   0.00489   0.02011   0.03534   0.04758
 Alpha virt. eigenvalues --    0.05587   0.05876   0.06864   0.08144   0.08317
 Alpha virt. eigenvalues --    0.08754   0.09264   0.09491   0.10225   0.11401
 Alpha virt. eigenvalues --    0.11921   0.12191   0.12739   0.14064   0.14330
 Alpha virt. eigenvalues --    0.14882   0.15477   0.16289   0.16597   0.17455
 Alpha virt. eigenvalues --    0.17610   0.17818   0.18368   0.18491   0.18983
 Alpha virt. eigenvalues --    0.20178   0.20537   0.21129   0.21858   0.24256
 Alpha virt. eigenvalues --    0.25268   0.25472   0.27619   0.29670   0.31020
 Alpha virt. eigenvalues --    0.32000   0.33522   0.33909   0.35274   0.35878
 Alpha virt. eigenvalues --    0.36319   0.40018   0.43239   0.44493   0.45865
 Alpha virt. eigenvalues --    0.45974   0.47684   0.47977   0.48243   0.50038
 Alpha virt. eigenvalues --    0.51647   0.52787   0.53226   0.53523   0.53863
 Alpha virt. eigenvalues --    0.54931   0.55823   0.56735   0.57567   0.58203
 Alpha virt. eigenvalues --    0.59333   0.59756   0.60029   0.60237   0.61066
 Alpha virt. eigenvalues --    0.61230   0.61747   0.61926   0.63128   0.64986
 Alpha virt. eigenvalues --    0.65532   0.66846   0.67079   0.67589   0.69885
 Alpha virt. eigenvalues --    0.70237   0.71413   0.73052   0.74530   0.75376
 Alpha virt. eigenvalues --    0.76604   0.77384   0.78408   0.78887   0.79697
 Alpha virt. eigenvalues --    0.80283   0.80985   0.81788   0.82397   0.84004
 Alpha virt. eigenvalues --    0.84352   0.84707   0.84765   0.85565   0.86324
 Alpha virt. eigenvalues --    0.86489   0.87197   0.87849   0.88178   0.88974
 Alpha virt. eigenvalues --    0.90048   0.90894   0.91348   0.91936   0.92514
 Alpha virt. eigenvalues --    0.93463   0.94237   0.94883   0.95155   0.95742
 Alpha virt. eigenvalues --    0.96130   0.97323   0.98567   1.00056   1.00713
 Alpha virt. eigenvalues --    1.01465   1.03692   1.04868   1.06361   1.06885
 Alpha virt. eigenvalues --    1.07853   1.08222   1.09808   1.10631   1.11142
 Alpha virt. eigenvalues --    1.12332   1.13326   1.14050   1.14930   1.16143
 Alpha virt. eigenvalues --    1.17642   1.18507   1.20028   1.21118   1.21934
 Alpha virt. eigenvalues --    1.23613   1.24278   1.25198   1.27584   1.30428
 Alpha virt. eigenvalues --    1.31119   1.32889   1.37226   1.39442   1.40986
 Alpha virt. eigenvalues --    1.43317   1.43657   1.43877   1.45150   1.47851
 Alpha virt. eigenvalues --    1.49136   1.50201   1.50905   1.51777   1.52594
 Alpha virt. eigenvalues --    1.53590   1.59167   1.61826   1.66066   1.67270
 Alpha virt. eigenvalues --    1.69960   1.72087   1.72742   1.74296   1.76763
 Alpha virt. eigenvalues --    1.77474   1.78763   1.79113   1.79962   1.80149
 Alpha virt. eigenvalues --    1.80626   1.81204   1.81899   1.82345   1.83392
 Alpha virt. eigenvalues --    1.83616   1.85233   1.87215   1.88659   1.88823
 Alpha virt. eigenvalues --    1.90207   1.90463   1.91755   1.92377   1.93192
 Alpha virt. eigenvalues --    1.95371   1.95542   1.96497   1.97228   1.98403
 Alpha virt. eigenvalues --    1.98946   2.01427   2.02264   2.03507   2.04894
 Alpha virt. eigenvalues --    2.05831   2.06652   2.07995   2.08546   2.09467
 Alpha virt. eigenvalues --    2.11344   2.12400   2.13645   2.14684   2.15369
 Alpha virt. eigenvalues --    2.15572   2.17499   2.17980   2.19793   2.20596
 Alpha virt. eigenvalues --    2.22486   2.24312   2.27277   2.27768   2.28925
 Alpha virt. eigenvalues --    2.30324   2.31123   2.31647   2.33559   2.34467
 Alpha virt. eigenvalues --    2.38136   2.40616   2.41380   2.42278   2.43564
 Alpha virt. eigenvalues --    2.45122   2.46471   2.50876   2.54980   2.58055
 Alpha virt. eigenvalues --    2.58360   2.59305   2.65762   2.68848   2.70022
 Alpha virt. eigenvalues --    2.70755   2.72506   2.73256   2.73797   2.75739
 Alpha virt. eigenvalues --    2.76070   2.78537   2.81578   2.82622   2.83738
 Alpha virt. eigenvalues --    2.84755   2.95174   3.06844   3.42020   3.76453
 Alpha virt. eigenvalues --    3.81232   3.93773   3.95456   4.01036   4.03641
 Alpha virt. eigenvalues --    4.07200   4.09578   4.12018   4.12702   4.14806
 Alpha virt. eigenvalues --    4.21851   4.24663   4.27922   4.29493   4.33397
 Alpha virt. eigenvalues --    4.37096   4.41426   4.54108   4.69452   4.72139
          Condensed to atoms (all electrons):
               1          2          3          4          5          6
     1  C    5.005133   0.279430  -0.051176  -0.009452  -0.007501   0.001466
     2  N    0.279430   7.159154   0.277078   0.178394  -0.056806  -0.052213
     3  C   -0.051176   0.277078   5.004706  -0.014379   0.001660  -0.006231
     4  S   -0.009452   0.178394  -0.014379  13.540445   0.419132   0.415176
     5  O   -0.007501  -0.056806   0.001660   0.419132   8.257116  -0.038270
     6  O    0.001466  -0.052213  -0.006231   0.415176  -0.038270   8.281032
     7  N   -0.000373  -0.059193  -0.000706   0.110607  -0.055059  -0.050265
     8  C    0.000037   0.001940  -0.000182  -0.013319  -0.001352   0.002807
     9  C   -0.000004  -0.000105   0.000009   0.000429  -0.000072   0.000053
    10  S   -0.000001   0.000002  -0.000003   0.000076   0.000001   0.000559
    11  O    0.000000   0.000000   0.000000  -0.000023   0.000000   0.000000
    12  O    0.000000   0.000000   0.000000  -0.000002   0.000000   0.000000
    13  C   -0.000007   0.000216  -0.000260  -0.007275  -0.000095   0.003654
    14  C    0.000003  -0.000111  -0.000001  -0.003535   0.001957  -0.003101
    15  C   -0.000001  -0.000039   0.000004   0.003378  -0.009703   0.003460
    16  C    0.000000   0.000000   0.000000   0.000005   0.000187   0.000112
    17  C    0.000000   0.000000   0.000000  -0.000041  -0.000098   0.000001
    18  C    0.000000   0.000000   0.000000   0.000000   0.000000   0.000000
    19  C    0.000000   0.000000   0.000000   0.000000   0.000000   0.000000
    20  C    0.000000   0.000000   0.000000   0.000000   0.000000   0.000000
    21  C    0.000000   0.000000   0.000000   0.000002  -0.000001   0.000000
    22  H    0.378029  -0.036222  -0.003313   0.002242   0.000161  -0.000044
    23  H    0.366574  -0.049570  -0.001936  -0.008685   0.000070  -0.000059
    24  H    0.375829  -0.032031   0.004468  -0.000344   0.011014   0.000047
    25  H   -0.004025  -0.034771   0.376147   0.002878  -0.000047   0.000096
    26  H    0.004570  -0.032394   0.377325  -0.001044   0.000017   0.010353
    27  H   -0.002042  -0.048319   0.367924  -0.008917  -0.000028  -0.000307
    28  H    0.000258   0.000248   0.000174  -0.009313   0.002190   0.001948
    29  H    0.000000   0.000001   0.000000  -0.000060   0.000001   0.000001
    30  H   -0.000004  -0.000071  -0.000005   0.000022   0.000002  -0.000005
    31  H    0.000000   0.000003   0.000000  -0.000095  -0.000002  -0.000774
    32  H    0.000007  -0.000518   0.000803   0.001065   0.000018   0.000315
    33  H    0.000000   0.000002   0.000000  -0.000621   0.000046  -0.000006
    34  H    0.000000   0.000001   0.000000   0.000246  -0.000004  -0.000039
    35  H    0.000000   0.000005   0.000000  -0.000269   0.000016   0.001593
    36  H    0.000004   0.000078  -0.000004   0.007584   0.018052  -0.003532
    37  H    0.000000   0.000000   0.000000   0.000035   0.000121   0.000001
    38  H    0.000000   0.000000   0.000000   0.000000   0.000000   0.000000
    39  H    0.000000   0.000000   0.000000   0.000000   0.000000   0.000000
    40  H    0.000000   0.000000   0.000000   0.000000   0.000000   0.000000
    41  H    0.000000   0.000000   0.000000   0.000000   0.000000   0.000000
               7          8          9         10         11         12
     1  C   -0.000373   0.000037  -0.000004  -0.000001   0.000000   0.000000
     2  N   -0.059193   0.001940  -0.000105   0.000002   0.000000   0.000000
     3  C   -0.000706  -0.000182   0.000009  -0.000003   0.000000   0.000000
     4  S    0.110607  -0.013319   0.000429   0.000076  -0.000023  -0.000002
     5  O   -0.055059  -0.001352  -0.000072   0.000001   0.000000   0.000000
     6  O   -0.050265   0.002807   0.000053   0.000559   0.000000   0.000000
     7  N    7.383477   0.274447  -0.053459   0.003853  -0.000124  -0.000035
     8  C    0.274447   4.881790   0.332038  -0.092940   0.002830   0.000129
     9  C   -0.053459   0.332038   5.777948   0.104935  -0.045228  -0.044397
    10  S    0.003853  -0.092940   0.104935  13.905525   0.440697   0.397357
    11  O   -0.000124   0.002830  -0.045228   0.440697   8.195188  -0.043740
    12  O   -0.000035   0.000129  -0.044397   0.397357  -0.043740   8.258589
    13  C   -0.047196   0.352090  -0.180763   0.137248  -0.045734  -0.044785
    14  C   -0.070363   0.326072  -0.061873   0.008998  -0.000078  -0.005118
    15  C    0.000640  -0.028709   0.004195  -0.000697   0.000000  -0.000003
    16  C   -0.000088   0.004294  -0.000118   0.000090   0.000000   0.000028
    17  C    0.000007  -0.000059   0.000000   0.000000   0.000000   0.000000
    18  C    0.000000   0.000001   0.000000   0.000000   0.000000   0.000000
    19  C    0.000000   0.000000   0.000000   0.000000   0.000000   0.000000
    20  C    0.000000   0.000002   0.000000  -0.000001   0.000000  -0.000001
    21  C    0.000001   0.000382  -0.000007  -0.000124   0.000000  -0.000151
    22  H   -0.000102   0.000003   0.000000   0.000000   0.000000   0.000000
    23  H    0.004514  -0.000104   0.000009   0.000001   0.000000   0.000000
    24  H   -0.000357  -0.000001   0.000000   0.000000   0.000000   0.000000
    25  H   -0.000003   0.000004  -0.000001   0.000001   0.000000   0.000000
    26  H   -0.001182   0.000034   0.000004  -0.000015   0.000000   0.000000
    27  H    0.009041  -0.000356  -0.000008   0.000050   0.000000   0.000000
    28  H    0.290684  -0.029350  -0.004715  -0.000085   0.000002   0.000002
    29  H    0.000955  -0.025770   0.341716  -0.008409   0.000666  -0.000632
    30  H    0.002153  -0.026588   0.322650   0.002298  -0.000430   0.001164
    31  H    0.001191  -0.024871   0.009656  -0.013379   0.000675  -0.000067
    32  H   -0.001985  -0.022427   0.002701  -0.003228   0.000224   0.001231
    33  H   -0.004268  -0.033010  -0.005899  -0.000498   0.000002   0.000154
    34  H    0.005040  -0.028419  -0.004351   0.007665   0.000043   0.011081
    35  H   -0.000293  -0.004329   0.000039  -0.000058   0.000000   0.000026
    36  H    0.000646  -0.005746  -0.000048  -0.000028   0.000000  -0.000002
    37  H    0.000001  -0.000010   0.000000   0.000000   0.000000   0.000000
    38  H    0.000000   0.000000   0.000000   0.000000   0.000000   0.000000
    39  H    0.000000   0.000000   0.000000   0.000000   0.000000   0.000000
    40  H    0.000000   0.000000   0.000000   0.000000   0.000000   0.000000
    41  H    0.000000  -0.000197   0.000010   0.000096   0.000000   0.000461
              13         14         15         16         17         18
     1  C   -0.000007   0.000003  -0.000001   0.000000   0.000000   0.000000
     2  N    0.000216  -0.000111  -0.000039   0.000000   0.000000   0.000000
     3  C   -0.000260  -0.000001   0.000004   0.000000   0.000000   0.000000
     4  S   -0.007275  -0.003535   0.003378   0.000005  -0.000041   0.000000
     5  O   -0.000095   0.001957  -0.009703   0.000187  -0.000098   0.000000
     6  O    0.003654  -0.003101   0.003460   0.000112   0.000001   0.000000
     7  N   -0.047196  -0.070363   0.000640  -0.000088   0.000007   0.000000
     8  C    0.352090   0.326072  -0.028709   0.004294  -0.000059   0.000001
     9  C   -0.180763  -0.061873   0.004195  -0.000118   0.000000   0.000000
    10  S    0.137248   0.008998  -0.000697   0.000090   0.000000   0.000000
    11  O   -0.045734  -0.000078   0.000000   0.000000   0.000000   0.000000
    12  O   -0.044785  -0.005118  -0.000003   0.000028   0.000000   0.000000
    13  C    5.669384  -0.061106  -0.005174   0.000021  -0.000003   0.000000
    14  C   -0.061106   5.220256   0.337643  -0.037916  -0.001653  -0.000165
    15  C   -0.005174   0.337643   5.240502   0.324107  -0.046797   0.007697
    16  C    0.000021  -0.037916   0.324107   4.655659   0.562028  -0.021009
    17  C   -0.000003  -0.001653  -0.046797   0.562028   4.960136   0.515589
    18  C    0.000000  -0.000165   0.007697  -0.021009   0.515589   4.877658
    19  C    0.000000  -0.000005   0.000434  -0.034673  -0.035584   0.551823
    20  C    0.000000   0.000410   0.006053  -0.016967  -0.046999  -0.024743
    21  C    0.000029  -0.003712  -0.065705   0.534715  -0.040378  -0.048811
    22  H    0.000000   0.000000   0.000000   0.000000   0.000000   0.000000
    23  H   -0.000005   0.000005   0.000001   0.000000   0.000000   0.000000
    24  H    0.000000  -0.000002   0.000002   0.000000   0.000000   0.000000
    25  H    0.000008   0.000000   0.000000   0.000000   0.000000   0.000000
    26  H   -0.000149   0.000000   0.000000   0.000000   0.000000   0.000000
    27  H   -0.000211   0.000015   0.000000   0.000000   0.000000   0.000000
    28  H    0.005225  -0.001693  -0.000193   0.000017  -0.000001   0.000000
    29  H    0.009686  -0.003787   0.000158  -0.000012   0.000000   0.000000
    30  H    0.002292   0.004741  -0.000113   0.000002   0.000000   0.000000
    31  H    0.349282  -0.005348   0.002093  -0.000204   0.000000   0.000000
    32  H    0.329459   0.004483  -0.000043   0.000003   0.000000   0.000000
    33  H    0.005672   0.353308  -0.038138   0.000714   0.001437  -0.000055
    34  H   -0.005171   0.354140  -0.035529  -0.005712   0.000234   0.000003
    35  H    0.002440  -0.044430   0.362123  -0.026254   0.001038  -0.000228
    36  H   -0.000105  -0.029599   0.353365  -0.032737  -0.003119   0.000183
    37  H    0.000000   0.000170  -0.011748  -0.040823   0.354287  -0.047133
    38  H    0.000000   0.000001  -0.000193   0.003879  -0.039390   0.356096
    39  H    0.000000   0.000000   0.000007   0.000689   0.004758  -0.043736
    40  H    0.000000   0.000001  -0.000192   0.003586   0.000871   0.004609
    41  H    0.000007  -0.000832  -0.007763  -0.048115   0.005889   0.000395
              19         20         21         22         23         24
     1  C    0.000000   0.000000   0.000000   0.378029   0.366574   0.375829
     2  N    0.000000   0.000000   0.000000  -0.036222  -0.049570  -0.032031
     3  C    0.000000   0.000000   0.000000  -0.003313  -0.001936   0.004468
     4  S    0.000000   0.000000   0.000002   0.002242  -0.008685  -0.000344
     5  O    0.000000   0.000000  -0.000001   0.000161   0.000070   0.011014
     6  O    0.000000   0.000000   0.000000  -0.000044  -0.000059   0.000047
     7  N    0.000000   0.000000   0.000001  -0.000102   0.004514  -0.000357
     8  C    0.000000   0.000002   0.000382   0.000003  -0.000104  -0.000001
     9  C    0.000000   0.000000  -0.000007   0.000000   0.000009   0.000000
    10  S    0.000000  -0.000001  -0.000124   0.000000   0.000001   0.000000
    11  O    0.000000   0.000000   0.000000   0.000000   0.000000   0.000000
    12  O    0.000000  -0.000001  -0.000151   0.000000   0.000000   0.000000
    13  C    0.000000   0.000000   0.000029   0.000000  -0.000005   0.000000
    14  C   -0.000005   0.000410  -0.003712   0.000000   0.000005  -0.000002
    15  C    0.000434   0.006053  -0.065705   0.000000   0.000001   0.000002
    16  C   -0.034673  -0.016967   0.534715   0.000000   0.000000   0.000000
    17  C   -0.035584  -0.046999  -0.040378   0.000000   0.000000   0.000000
    18  C    0.551823  -0.024743  -0.048811   0.000000   0.000000   0.000000
    19  C    4.854956   0.547368  -0.035558   0.000000   0.000000   0.000000
    20  C    0.547368   4.862671   0.527474   0.000000   0.000000   0.000000
    21  C   -0.035558   0.527474   4.984830   0.000000   0.000000   0.000000
    22  H    0.000000   0.000000   0.000000   0.536509  -0.040324  -0.019372
    23  H    0.000000   0.000000   0.000000  -0.040324   0.604418  -0.031019
    24  H    0.000000   0.000000   0.000000  -0.019372  -0.031019   0.481943
    25  H    0.000000   0.000000   0.000000   0.005456  -0.001519   0.000004
    26  H    0.000000   0.000000   0.000000   0.000004  -0.000205  -0.000191
    27  H    0.000000   0.000000   0.000000  -0.001544   0.008763  -0.000175
    28  H    0.000000   0.000000   0.000000  -0.000017   0.000799   0.000048
    29  H    0.000000   0.000000   0.000003   0.000000   0.000000   0.000000
    30  H    0.000000   0.000000   0.000000   0.000000   0.000050   0.000000
    31  H    0.000000   0.000000   0.000031   0.000000   0.000000   0.000000
    32  H    0.000000   0.000000  -0.000001   0.000000   0.000004   0.000000
    33  H   -0.000007  -0.000080   0.000045   0.000000  -0.000001   0.000000
    34  H    0.000000  -0.000147   0.004558   0.000000   0.000000   0.000000
    35  H    0.000030  -0.000051  -0.003656   0.000000   0.000000   0.000000
    36  H   -0.000001  -0.000144   0.004131   0.000000   0.000000  -0.000001
    37  H    0.004789   0.000335   0.006536   0.000000   0.000000   0.000000
    38  H   -0.043923   0.004625   0.000846   0.000000   0.000000   0.000000
    39  H    0.359054  -0.043369   0.004865   0.000000   0.000000   0.000000
    40  H   -0.043329   0.357102  -0.039727   0.000000   0.000000   0.000000
    41  H    0.004663  -0.041987   0.354354   0.000000   0.000000   0.000000
              25         26         27         28         29         30
     1  C   -0.004025   0.004570  -0.002042   0.000258   0.000000  -0.000004
     2  N   -0.034771  -0.032394  -0.048319   0.000248   0.000001  -0.000071
     3  C    0.376147   0.377325   0.367924   0.000174   0.000000  -0.000005
     4  S    0.002878  -0.001044  -0.008917  -0.009313  -0.000060   0.000022
     5  O   -0.000047   0.000017  -0.000028   0.002190   0.000001   0.000002
     6  O    0.000096   0.010353  -0.000307   0.001948   0.000001  -0.000005
     7  N   -0.000003  -0.001182   0.009041   0.290684   0.000955   0.002153
     8  C    0.000004   0.000034  -0.000356  -0.029350  -0.025770  -0.026588
     9  C   -0.000001   0.000004  -0.000008  -0.004715   0.341716   0.322650
    10  S    0.000001  -0.000015   0.000050  -0.000085  -0.008409   0.002298
    11  O    0.000000   0.000000   0.000000   0.000002   0.000666  -0.000430
    12  O    0.000000   0.000000   0.000000   0.000002  -0.000632   0.001164
    13  C    0.000008  -0.000149  -0.000211   0.005225   0.009686   0.002292
    14  C    0.000000   0.000000   0.000015  -0.001693  -0.003787   0.004741
    15  C    0.000000   0.000000   0.000000  -0.000193   0.000158  -0.000113
    16  C    0.000000   0.000000   0.000000   0.000017  -0.000012   0.000002
    17  C    0.000000   0.000000   0.000000  -0.000001   0.000000   0.000000
    18  C    0.000000   0.000000   0.000000   0.000000   0.000000   0.000000
    19  C    0.000000   0.000000   0.000000   0.000000   0.000000   0.000000
    20  C    0.000000   0.000000   0.000000   0.000000   0.000000   0.000000
    21  C    0.000000   0.000000   0.000000   0.000000   0.000003   0.000000
    22  H    0.005456   0.000004  -0.001544  -0.000017   0.000000   0.000000
    23  H   -0.001519  -0.000205   0.008763   0.000799   0.000000   0.000050
    24  H    0.000004  -0.000191  -0.000175   0.000048   0.000000   0.000000
    25  H    0.539342  -0.020851  -0.037560  -0.000004   0.000000  -0.000001
    26  H   -0.020851   0.489512  -0.031261  -0.000015   0.000000  -0.000009
    27  H   -0.037560  -0.031261   0.584500   0.000011  -0.000001   0.000446
    28  H   -0.000004  -0.000015   0.000011   0.393838   0.000571   0.000428
    29  H    0.000000   0.000000  -0.000001   0.000571   0.493537  -0.021226
    30  H   -0.000001  -0.000009   0.000446   0.000428  -0.021226   0.504396
    31  H    0.000000   0.000000   0.000000  -0.000103  -0.000268  -0.000265
    32  H   -0.000014   0.001004   0.000671   0.000010  -0.000271   0.000412
    33  H    0.000000   0.000000   0.000000   0.004565   0.003980  -0.000046
    34  H    0.000000   0.000000   0.000000  -0.000093  -0.000612   0.000130
    35  H    0.000000   0.000000   0.000000   0.000047   0.000010   0.000000
    36  H    0.000000   0.000001   0.000000  -0.000078   0.000001   0.000003
    37  H    0.000000   0.000000   0.000000   0.000001   0.000000   0.000000
    38  H    0.000000   0.000000   0.000000   0.000000   0.000000   0.000000
    39  H    0.000000   0.000000   0.000000   0.000000   0.000000   0.000000
    40  H    0.000000   0.000000   0.000000   0.000000   0.000000   0.000000
    41  H    0.000000   0.000000   0.000000   0.000000   0.000000   0.000000
              31         32         33         34         35         36
     1  C    0.000000   0.000007   0.000000   0.000000   0.000000   0.000004
     2  N    0.000003  -0.000518   0.000002   0.000001   0.000005   0.000078
     3  C    0.000000   0.000803   0.000000   0.000000   0.000000  -0.000004
     4  S   -0.000095   0.001065  -0.000621   0.000246  -0.000269   0.007584
     5  O   -0.000002   0.000018   0.000046  -0.000004   0.000016   0.018052
     6  O   -0.000774   0.000315  -0.000006  -0.000039   0.001593  -0.003532
     7  N    0.001191  -0.001985  -0.004268   0.005040  -0.000293   0.000646
     8  C   -0.024871  -0.022427  -0.033010  -0.028419  -0.004329  -0.005746
     9  C    0.009656   0.002701  -0.005899  -0.004351   0.000039  -0.000048
    10  S   -0.013379  -0.003228  -0.000498   0.007665  -0.000058  -0.000028
    11  O    0.000675   0.000224   0.000002   0.000043   0.000000   0.000000
    12  O   -0.000067   0.001231   0.000154   0.011081   0.000026  -0.000002
    13  C    0.349282   0.329459   0.005672  -0.005171   0.002440  -0.000105
    14  C   -0.005348   0.004483   0.353308   0.354140  -0.044430  -0.029599
    15  C    0.002093  -0.000043  -0.038138  -0.035529   0.362123   0.353365
    16  C   -0.000204   0.000003   0.000714  -0.005712  -0.026254  -0.032737
    17  C    0.000000   0.000000   0.001437   0.000234   0.001038  -0.003119
    18  C    0.000000   0.000000  -0.000055   0.000003  -0.000228   0.000183
    19  C    0.000000   0.000000  -0.000007   0.000000   0.000030  -0.000001
    20  C    0.000000   0.000000  -0.000080  -0.000147  -0.000051  -0.000144
    21  C    0.000031  -0.000001   0.000045   0.004558  -0.003656   0.004131
    22  H    0.000000   0.000000   0.000000   0.000000   0.000000   0.000000
    23  H    0.000000   0.000004  -0.000001   0.000000   0.000000   0.000000
    24  H    0.000000   0.000000   0.000000   0.000000   0.000000  -0.000001
    25  H    0.000000  -0.000014   0.000000   0.000000   0.000000   0.000000
    26  H    0.000000   0.001004   0.000000   0.000000   0.000000   0.000001
    27  H    0.000000   0.000671   0.000000   0.000000   0.000000   0.000000
    28  H   -0.000103   0.000010   0.004565  -0.000093   0.000047  -0.000078
    29  H   -0.000268  -0.000271   0.003980  -0.000612   0.000010   0.000001
    30  H   -0.000265   0.000412  -0.000046   0.000130   0.000000   0.000003
    31  H    0.472045  -0.017274   0.000173  -0.000564   0.005897  -0.000032
    32  H   -0.017274   0.486509  -0.000119   0.000030  -0.000146  -0.000012
    33  H    0.000173  -0.000119   0.600486  -0.028971   0.005759  -0.004706
    34  H   -0.000564   0.000030  -0.028971   0.534323  -0.003372   0.004341
    35  H    0.005897  -0.000146   0.005759  -0.003372   0.568626  -0.030753
    36  H   -0.000032  -0.000012  -0.004706   0.004341  -0.030753   0.522744
    37  H    0.000000   0.000000   0.000049   0.000011   0.000133   0.007656
    38  H    0.000000   0.000000   0.000001   0.000000   0.000003  -0.000009
    39  H    0.000000   0.000000   0.000000   0.000000   0.000000   0.000000
    40  H    0.000000   0.000000   0.000000   0.000009  -0.000002   0.000003
    41  H    0.000134   0.000000   0.000190   0.004147   0.001927   0.000000
              37         38         39         40         41
     1  C    0.000000   0.000000   0.000000   0.000000   0.000000
     2  N    0.000000   0.000000   0.000000   0.000000   0.000000
     3  C    0.000000   0.000000   0.000000   0.000000   0.000000
     4  S    0.000035   0.000000   0.000000   0.000000   0.000000
     5  O    0.000121   0.000000   0.000000   0.000000   0.000000
     6  O    0.000001   0.000000   0.000000   0.000000   0.000000
     7  N    0.000001   0.000000   0.000000   0.000000   0.000000
     8  C   -0.000010   0.000000   0.000000   0.000000  -0.000197
     9  C    0.000000   0.000000   0.000000   0.000000   0.000010
    10  S    0.000000   0.000000   0.000000   0.000000   0.000096
    11  O    0.000000   0.000000   0.000000   0.000000   0.000000
    12  O    0.000000   0.000000   0.000000   0.000000   0.000461
    13  C    0.000000   0.000000   0.000000   0.000000   0.000007
    14  C    0.000170   0.000001   0.000000   0.000001  -0.000832
    15  C   -0.011748  -0.000193   0.000007  -0.000192  -0.007763
    16  C   -0.040823   0.003879   0.000689   0.003586  -0.048115
    17  C    0.354287  -0.039390   0.004758   0.000871   0.005889
    18  C   -0.047133   0.356096  -0.043736   0.004609   0.000395
    19  C    0.004789  -0.043923   0.359054  -0.043329   0.004663
    20  C    0.000335   0.004625  -0.043369   0.357102  -0.041987
    21  C    0.006536   0.000846   0.004865  -0.039727   0.354354
    22  H    0.000000   0.000000   0.000000   0.000000   0.000000
    23  H    0.000000   0.000000   0.000000   0.000000   0.000000
    24  H    0.000000   0.000000   0.000000   0.000000   0.000000
    25  H    0.000000   0.000000   0.000000   0.000000   0.000000
    26  H    0.000000   0.000000   0.000000   0.000000   0.000000
    27  H    0.000000   0.000000   0.000000   0.000000   0.000000
    28  H    0.000001   0.000000   0.000000   0.000000   0.000000
    29  H    0.000000   0.000000   0.000000   0.000000   0.000000
    30  H    0.000000   0.000000   0.000000   0.000000   0.000000
    31  H    0.000000   0.000000   0.000000   0.000000   0.000134
    32  H    0.000000   0.000000   0.000000   0.000000   0.000000
    33  H    0.000049   0.000001   0.000000   0.000000   0.000190
    34  H    0.000011   0.000000   0.000000   0.000009   0.004147
    35  H    0.000133   0.000003   0.000000  -0.000002   0.001927
    36  H    0.007656  -0.000009   0.000000   0.000003   0.000000
    37  H    0.598656  -0.005554  -0.000177   0.000017  -0.000182
    38  H   -0.005554   0.601246  -0.005692  -0.000190   0.000018
    39  H   -0.000177  -0.005692   0.601599  -0.005526  -0.000179
    40  H    0.000017  -0.000190  -0.005526   0.597310  -0.005500
    41  H   -0.000182   0.000018  -0.000179  -0.005500   0.594802
 Mulliken charges:
               1
     1  C   -0.336754
     2  N   -0.494191
     3  C   -0.332102
     4  S    1.395661
     5  O   -0.542721
     6  O   -0.567827
     7  N   -0.742204
     8  C    0.158840
     9  C   -0.495344
    10  S    1.110015
    11  O   -0.504971
    12  O   -0.531290
    13  C   -0.468674
    14  C   -0.277775
    15  C   -0.395122
    16  C    0.174491
    17  C   -0.192154
    18  C   -0.128175
    19  C   -0.130036
    20  C   -0.131551
    21  C   -0.184971
    22  H    0.178536
    23  H    0.148220
    24  H    0.210139
    25  H    0.174862
    26  H    0.204493
    27  H    0.159308
    28  H    0.344594
    29  H    0.209765
    30  H    0.207575
    31  H    0.222068
    32  H    0.217090
    33  H    0.139843
    34  H    0.186983
    35  H    0.164126
    36  H    0.191865
    37  H    0.132828
    38  H    0.128236
    39  H    0.127706
    40  H    0.130956
    41  H    0.137661
 Sum of Mulliken charges =   0.00000
 Mulliken charges with hydrogens summed into heavy atoms:
               1
     1  C    0.200142
     2  N   -0.494191
     3  C    0.206561
     4  S    1.395661
     5  O   -0.542721
     6  O   -0.567827
     7  N   -0.397610
     8  C    0.158840
     9  C   -0.078004
    10  S    1.110015
    11  O   -0.504971
    12  O   -0.531290
    13  C   -0.029516
    14  C    0.049052
    15  C   -0.039131
    16  C    0.174491
    17  C   -0.059326
    18  C    0.000061
    19  C   -0.002330
    20  C   -0.000595
    21  C   -0.047310
 Electronic spatial extent (au):  <R**2>=           8425.3335
 Charge=              0.0000 electrons
 Dipole moment (field-independent basis, Debye):
    X=             -2.8884    Y=             -3.4356    Z=              3.7858  Tot=              5.8719
 Quadrupole moment (field-independent basis, Debye-Ang):
   XX=           -120.5292   YY=           -165.7841   ZZ=           -134.8948
   XY=              9.5523   XZ=             -5.0441   YZ=             -3.7344
 Traceless Quadrupole moment (field-independent basis, Debye-Ang):
   XX=             19.8735   YY=            -25.3814   ZZ=              5.5079
   XY=              9.5523   XZ=             -5.0441   YZ=             -3.7344
 Octapole moment (field-independent basis, Debye-Ang**2):
  XXX=            -68.9555  YYY=           -107.0428  ZZZ=             10.6799  XYY=             12.0462
  XXY=            -53.1251  XXZ=             10.2870  XZZ=            -31.2788  YZZ=             17.3629
  YYZ=             21.0666  XYZ=              2.7779
 Hexadecapole moment (field-independent basis, Debye-Ang**3):
 XXXX=          -6265.4449 YYYY=          -4043.1357 ZZZZ=           -531.1328 XXXY=            210.8012
 XXXZ=             41.5625 YYYX=            137.6069 YYYZ=              0.3226 ZZZX=            -10.0628
 ZZZY=             -5.5671 XXYY=          -1710.3735 XXZZ=          -1314.1545 YYZZ=           -649.3473
 XXYZ=            -63.0166 YYXZ=            -31.6926 ZZXY=             11.9183
 N-N= 2.164706786918D+03 E-N=-8.355261705512D+03  KE= 1.702596812578D+03
 No NMR shielding tensors so no spin-rotation constants.
 Leave Link  601 at Fri Oct  2 06:18:51 2020, MaxMem=  2147483648 cpu:         0.5
 (Enter /prod/apps/gaussian/g09d1/l9999.exe)
 1\1\GINC-PIRINEUS42\SP\RB3LYP\6-31G(d)\C13H20N2O4S2\UBAFAR01\02-Oct-20
 20\0\\#p b3lyp/6-31G(d)\\SM40.n.25.pdb.xyz\\0,1\C,0,1.843,0.662,-0.304
 \N,0,2.357,0.021,0.912\C,0,1.521,-1.066,1.432\S,0,3.999,-0.25,0.967\O,
 0,4.633,0.964,0.448\O,0,4.318,-0.762,2.299\N,0,4.263,-1.544,-0.103\C,0
 ,5.283,-2.58,0.146\C,0,4.959,-3.809,-0.768\S,0,5.235,-4.922,0.653\O,0,
 4.132,-5.858,0.914\O,0,6.625,-5.417,0.673\C,0,5.088,-3.317,1.509\C,0,6
 .739,-2.149,-0.092\C,0,7.312,-1.079,0.845\C,0,8.781,-0.839,0.574\C,0,9
 .235,0.421,0.174\C,0,10.587,0.649,-0.079\C,0,11.51,-0.386,0.064\C,0,11
 .069,-1.651,0.461\C,0,9.716,-1.873,0.712\H,0,0.864,1.082,-0.066\H,0,1.
 729,-0.048,-1.133\H,0,2.513,1.469,-0.594\H,0,0.525,-0.657,1.613\H,0,1.
 935,-1.414,2.377\H,0,1.444,-1.903,0.727\H,0,4.332,-1.178,-1.054\H,0,5.
 62,-3.978,-1.618\H,0,3.909,-3.843,-1.06\H,0,5.837,-3.144,2.279\H,0,4.0
 85,-3.213,1.917\H,0,6.824,-1.804,-1.129\H,0,7.353,-3.051,-0.017\H,0,7.
 174,-1.391,1.888\H,0,6.766,-0.141,0.723\H,0,8.518,1.229,0.064\H,0,10.9
 18,1.636,-0.387\H,0,12.563,-0.211,-0.132\H,0,11.779,-2.464,0.575\H,0,9
 .378,-2.859,1.018\\Version=AM64L-G09RevD.01\State=1-A\HF=-1714.0391138
 \RMSD=8.990e-09\Dipole=-1.3395036,1.2170985,-1.4357365\Quadrupole=16.1
 952357,-19.9231802,3.7279445,-4.1946235,3.306215,-1.6471565\PG=C01 [X(
 C13H20N2O4S2)]\\@


 WAR ES EIN GOTT DER DIESE ZEICHEN SCHRIEB?
          - LUDWIG BOLTZMANN, QUOTING GOETHE, ABOUT MAXWELL'S EQUATIONS.
 Job cpu time:       0 days  0 hours  6 minutes 12.4 seconds.
 File lengths (MBytes):  RWF=     73 Int=      0 D2E=      0 Chk=      6 Scr=      1
 Normal termination of Gaussian 09 at Fri Oct  2 06:18:51 2020.
 Initial command:
 /prod/apps/gaussian/g09d1/l1.exe "/tmp/ubafar01/1462941/Gau-2821.inp" -scrdir="/tmp/ubafar01/1462941/"
 Entering Link 1 = /prod/apps/gaussian/g09d1/l1.exe PID=      3057.
  
 Copyright (c) 1988,1990,1992,1993,1995,1998,2003,2009,2013,
            Gaussian, Inc.  All Rights Reserved.
  
 This is part of the Gaussian(R) 09 program.  It is based on
 the Gaussian(R) 03 system (copyright 2003, Gaussian, Inc.),
 the Gaussian(R) 98 system (copyright 1998, Gaussian, Inc.),
 the Gaussian(R) 94 system (copyright 1995, Gaussian, Inc.),
 the Gaussian 92(TM) system (copyright 1992, Gaussian, Inc.),
[...]
     8  C    0.347699   0.326692  -0.028373   0.004181  -0.000057   0.000001
     9  C   -0.175008  -0.062371   0.004254  -0.000118   0.000000   0.000000
    10  S    0.137423   0.010407  -0.000748   0.000091   0.000000   0.000000
    11  O   -0.045983  -0.000081   0.000000   0.000000   0.000000   0.000000
    12  O   -0.045065  -0.004873  -0.000004   0.000028   0.000000   0.000000
    13  C    5.674261  -0.061852  -0.005276   0.000026  -0.000003   0.000000
    14  C   -0.061852   5.214303   0.338292  -0.037805  -0.001556  -0.000167
    15  C   -0.005276   0.338292   5.241079   0.326101  -0.047445   0.007721
    16  C    0.000026  -0.037805   0.326101   4.660972   0.560049  -0.021691
    17  C   -0.000003  -0.001556  -0.047445   0.560049   4.970857   0.513821
    18  C    0.000000  -0.000167   0.007721  -0.021691   0.513821   4.891040
    19  C    0.000000  -0.000004   0.000387  -0.034909  -0.036788   0.549588
    20  C    0.000000   0.000394   0.006096  -0.017365  -0.047085  -0.026217
    21  C    0.000029  -0.003831  -0.065716   0.533610  -0.040666  -0.048689
    22  H    0.000000   0.000000   0.000000   0.000000   0.000000   0.000000
    23  H   -0.000005   0.000005   0.000001   0.000000   0.000000   0.000000
    24  H    0.000000  -0.000001   0.000002   0.000000   0.000000   0.000000
    25  H    0.000008   0.000000   0.000000   0.000000   0.000000   0.000000
    26  H   -0.000164   0.000000   0.000000   0.000000   0.000000   0.000000
    27  H   -0.000211   0.000014   0.000000   0.000000   0.000000   0.000000
    28  H    0.004770  -0.001369  -0.000187   0.000017  -0.000001   0.000000
    29  H    0.009372  -0.003412   0.000152  -0.000011   0.000000   0.000000
    30  H    0.002252   0.004638  -0.000108   0.000001   0.000000   0.000000
    31  H    0.348680  -0.005421   0.002037  -0.000202   0.000000   0.000000
    32  H    0.330474   0.004479  -0.000043   0.000003   0.000000   0.000000
    33  H    0.005474   0.358847  -0.037859   0.000645   0.001350  -0.000053
    34  H   -0.005082   0.353472  -0.036797  -0.005971   0.000241   0.000003
    35  H    0.002597  -0.043344   0.361325  -0.026243   0.001088  -0.000232
    36  H   -0.000099  -0.029242   0.352012  -0.032984  -0.003233   0.000186
    37  H    0.000000   0.000179  -0.011685  -0.041276   0.355608  -0.046673
    38  H    0.000000   0.000001  -0.000187   0.003814  -0.038773   0.358253
    39  H    0.000000   0.000000   0.000007   0.000666   0.004671  -0.042913
    40  H    0.000000   0.000001  -0.000186   0.003552   0.000827   0.004562
    41  H    0.000006  -0.000742  -0.007876  -0.048140   0.005947   0.000343
              19         20         21         22         23         24
     1  C    0.000000   0.000000   0.000000   0.378788   0.371608   0.375455
     2  N    0.000000   0.000000   0.000000  -0.035458  -0.048244  -0.032813
     3  C    0.000000   0.000000   0.000000  -0.003328  -0.001735   0.004445
     4  S    0.000000   0.000000   0.000002   0.002166  -0.008202  -0.000525
     5  O    0.000000   0.000000  -0.000001   0.000150   0.000046   0.010581
     6  O    0.000000   0.000000   0.000000  -0.000043  -0.000059   0.000048
     7  N    0.000000   0.000000   0.000001  -0.000102   0.004333  -0.000377
     8  C    0.000000   0.000002   0.000373   0.000003  -0.000098  -0.000002
     9  C    0.000000   0.000000  -0.000007   0.000000   0.000009   0.000000
    10  S    0.000000  -0.000001  -0.000121   0.000000   0.000001   0.000000
    11  O    0.000000   0.000000   0.000000   0.000000   0.000000   0.000000
    12  O    0.000000  -0.000001  -0.000151   0.000000   0.000000   0.000000
    13  C    0.000000   0.000000   0.000029   0.000000  -0.000005   0.000000
    14  C   -0.000004   0.000394  -0.003831   0.000000   0.000005  -0.000001
    15  C    0.000387   0.006096  -0.065716   0.000000   0.000001   0.000002
    16  C   -0.034909  -0.017365   0.533610   0.000000   0.000000   0.000000
    17  C   -0.036788  -0.047085  -0.040666   0.000000   0.000000   0.000000
    18  C    0.549588  -0.026217  -0.048689   0.000000   0.000000   0.000000
    19  C    4.869533   0.544916  -0.036585   0.000000   0.000000   0.000000
    20  C    0.544916   4.877649   0.525293   0.000000   0.000000   0.000000
    21  C   -0.036585   0.525293   4.991984   0.000000   0.000000   0.000000
    22  H    0.000000   0.000000   0.000000   0.524017  -0.037715  -0.019863
    23  H    0.000000   0.000000   0.000000  -0.037715   0.578745  -0.030012
    24  H    0.000000   0.000000   0.000000  -0.019863  -0.030012   0.489524
    25  H    0.000000   0.000000   0.000000   0.005171  -0.001412   0.000008
    26  H    0.000000   0.000000   0.000000   0.000011  -0.000190  -0.000197
    27  H    0.000000   0.000000   0.000000  -0.001475   0.008175  -0.000166
    28  H    0.000000   0.000000   0.000000  -0.000018   0.000780   0.000031
    29  H    0.000000   0.000000   0.000003   0.000000   0.000000   0.000000
    30  H    0.000000   0.000000   0.000000   0.000000   0.000046   0.000000
    31  H    0.000000   0.000000   0.000030   0.000000   0.000000   0.000000
    32  H    0.000000   0.000000  -0.000001   0.000000   0.000003   0.000000
    33  H   -0.000007  -0.000077   0.000017   0.000000  -0.000001   0.000000
    34  H    0.000000  -0.000135   0.004558   0.000000   0.000000   0.000000
    35  H    0.000030  -0.000052  -0.003797   0.000000   0.000000   0.000000
    36  H    0.000000  -0.000149   0.004218   0.000000   0.000000  -0.000002
    37  H    0.004799   0.000296   0.006520   0.000000   0.000000   0.000000
    38  H   -0.043145   0.004560   0.000808   0.000000   0.000000   0.000000
    39  H    0.361173  -0.042647   0.004755   0.000000   0.000000   0.000000
    40  H   -0.042615   0.359054  -0.039463   0.000000   0.000000   0.000000
    41  H    0.004720  -0.042505   0.355397   0.000000   0.000000   0.000000
              25         26         27         28         29         30
     1  C   -0.003951   0.004518  -0.001618   0.000273   0.000000  -0.000002
     2  N   -0.033996  -0.033188  -0.047764   0.000003   0.000001  -0.000071
     3  C    0.378053   0.376467   0.370275   0.000165   0.000000   0.000003
     4  S    0.002825  -0.001130  -0.008637  -0.008360  -0.000053  -0.000018
     5  O   -0.000046   0.000019  -0.000030   0.001830   0.000001   0.000002
     6  O    0.000091   0.010033  -0.000313   0.001743   0.000000  -0.000005
     7  N   -0.000001  -0.001238   0.008840   0.294752   0.000888   0.001921
     8  C    0.000004   0.000037  -0.000361  -0.027361  -0.025687  -0.025587
     9  C   -0.000001   0.000005   0.000001  -0.004611   0.344884   0.325800
    10  S    0.000001  -0.000016   0.000048  -0.000106  -0.009617   0.001279
    11  O    0.000000   0.000000   0.000000   0.000002   0.000655  -0.000470
    12  O    0.000000   0.000000   0.000000   0.000001  -0.000673   0.001141
    13  C    0.000008  -0.000164  -0.000211   0.004770   0.009372   0.002252
    14  C    0.000000   0.000000   0.000014  -0.001369  -0.003412   0.004638
    15  C    0.000000   0.000000   0.000000  -0.000187   0.000152  -0.000108
    16  C    0.000000   0.000000   0.000000   0.000017  -0.000011   0.000001
    17  C    0.000000   0.000000   0.000000  -0.000001   0.000000   0.000000
    18  C    0.000000   0.000000   0.000000   0.000000   0.000000   0.000000
    19  C    0.000000   0.000000   0.000000   0.000000   0.000000   0.000000
    20  C    0.000000   0.000000   0.000000   0.000000   0.000000   0.000000
    21  C    0.000000   0.000000   0.000000   0.000000   0.000003   0.000000
    22  H    0.005171   0.000011  -0.001475  -0.000018   0.000000   0.000000
    23  H   -0.001412  -0.000190   0.008175   0.000780   0.000000   0.000046
    24  H    0.000008  -0.000197  -0.000166   0.000031   0.000000   0.000000
    25  H    0.523388  -0.020992  -0.035289  -0.000004   0.000000  -0.000001
    26  H   -0.020992   0.497688  -0.031267  -0.000014   0.000000  -0.000008
    27  H   -0.035289  -0.031267   0.571641   0.000036  -0.000001   0.000423
    28  H   -0.000004  -0.000014   0.000036   0.358137   0.000480   0.000376
    29  H    0.000000   0.000000  -0.000001   0.000480   0.473695  -0.018286
    30  H   -0.000001  -0.000008   0.000423   0.000376  -0.018286   0.484216
    31  H    0.000000   0.000000   0.000000  -0.000092  -0.000263  -0.000255
    32  H   -0.000016   0.000989   0.000684   0.000018  -0.000252   0.000412
    33  H    0.000000   0.000000   0.000000   0.003909   0.003682  -0.000036
    34  H    0.000000   0.000000   0.000000  -0.000078  -0.000569   0.000113
    35  H    0.000000   0.000000   0.000000   0.000040   0.000010   0.000000
    36  H    0.000000   0.000001   0.000000  -0.000059   0.000000   0.000003
    37  H    0.000000   0.000000   0.000000   0.000001   0.000000   0.000000
    38  H    0.000000   0.000000   0.000000   0.000000   0.000000   0.000000
    39  H    0.000000   0.000000   0.000000   0.000000   0.000000   0.000000
    40  H    0.000000   0.000000   0.000000   0.000000   0.000000   0.000000
    41  H    0.000000   0.000000   0.000000   0.000000   0.000000   0.000000
              31         32         33         34         35         36
     1  C    0.000000   0.000007   0.000000   0.000000   0.000000   0.000005
     2  N    0.000003  -0.000526   0.000002   0.000001   0.000006   0.000082
     3  C    0.000000   0.000874   0.000000   0.000000   0.000000  -0.000004
     4  S   -0.000058   0.000970  -0.000551   0.000259  -0.000154   0.007657
     5  O   -0.000002   0.000018   0.000042  -0.000005   0.000014   0.018492
     6  O   -0.000755   0.000351  -0.000005  -0.000039   0.001655  -0.003508
     7  N    0.001235  -0.001688  -0.003775   0.005025  -0.000292   0.000493
     8  C   -0.024924  -0.022199  -0.031519  -0.028313  -0.004385  -0.005710
     9  C    0.009493   0.002437  -0.005697  -0.004467   0.000030  -0.000050
    10  S   -0.013089  -0.002928  -0.000513   0.007285  -0.000067  -0.000024
    11  O    0.000673   0.000133   0.000001   0.000040   0.000000   0.000000
    12  O   -0.000154   0.001206   0.000145   0.010448   0.000026  -0.000002
    13  C    0.348680   0.330474   0.005474  -0.005082   0.002597  -0.000099
    14  C   -0.005421   0.004479   0.358847   0.353472  -0.043344  -0.029242
    15  C    0.002037  -0.000043  -0.037859  -0.036797   0.361325   0.352012
    16  C   -0.000202   0.000003   0.000645  -0.005971  -0.026243  -0.032984
    17  C    0.000000   0.000000   0.001350   0.000241   0.001088  -0.003233
    18  C    0.000000   0.000000  -0.000053   0.000003  -0.000232   0.000186
    19  C    0.000000   0.000000  -0.000007   0.000000   0.000030   0.000000
    20  C    0.000000   0.000000  -0.000077  -0.000135  -0.000052  -0.000149
    21  C    0.000030  -0.000001   0.000017   0.004558  -0.003797   0.004218
    22  H    0.000000   0.000000   0.000000   0.000000   0.000000   0.000000
    23  H    0.000000   0.000003  -0.000001   0.000000   0.000000   0.000000
    24  H    0.000000   0.000000   0.000000   0.000000   0.000000  -0.000002
    25  H    0.000000  -0.000016   0.000000   0.000000   0.000000   0.000000
    26  H    0.000000   0.000989   0.000000   0.000000   0.000000   0.000001
    27  H    0.000000   0.000684   0.000000   0.000000   0.000000   0.000000
    28  H   -0.000092   0.000018   0.003909  -0.000078   0.000040  -0.000059
    29  H   -0.000263  -0.000252   0.003682  -0.000569   0.000010   0.000000
    30  H   -0.000255   0.000412  -0.000036   0.000113   0.000000   0.000003
    31  H    0.467469  -0.016501   0.000161  -0.000528   0.005740  -0.000025
    32  H   -0.016501   0.477560  -0.000113   0.000021  -0.000154  -0.000012
    33  H    0.000161  -0.000113   0.576016  -0.028513   0.005577  -0.004649
    34  H   -0.000528   0.000021  -0.028513   0.544261  -0.003423   0.004428
    35  H    0.005740  -0.000154   0.005577  -0.003423   0.570090  -0.031526
    36  H   -0.000025  -0.000012  -0.004649   0.004428  -0.031526   0.528005
    37  H    0.000000   0.000000   0.000046   0.000011   0.000134   0.007718
    38  H    0.000000   0.000000   0.000001   0.000000   0.000003  -0.000009
    39  H    0.000000   0.000000   0.000000   0.000000   0.000000   0.000000
    40  H    0.000000   0.000000   0.000000   0.000009  -0.000002   0.000003
    41  H    0.000133   0.000000   0.000175   0.004186   0.001898   0.000005
              37         38         39         40         41
     1  C    0.000000   0.000000   0.000000   0.000000   0.000000
     2  N    0.000000   0.000000   0.000000   0.000000   0.000000
     3  C    0.000000   0.000000   0.000000   0.000000   0.000000
     4  S    0.000034   0.000000   0.000000   0.000000   0.000000
     5  O    0.000125   0.000000   0.000000   0.000000   0.000000
     6  O    0.000000   0.000000   0.000000   0.000000   0.000000
     7  N    0.000001   0.000000   0.000000   0.000000   0.000000
     8  C   -0.000010   0.000000   0.000000   0.000000  -0.000197
     9  C    0.000000   0.000000   0.000000   0.000000   0.000010
    10  S    0.000000   0.000000   0.000000   0.000000   0.000098
    11  O    0.000000   0.000000   0.000000   0.000000   0.000000
    12  O    0.000000   0.000000   0.000000   0.000000   0.000464
    13  C    0.000000   0.000000   0.000000   0.000000   0.000006
    14  C    0.000179   0.000001   0.000000   0.000001  -0.000742
    15  C   -0.011685  -0.000187   0.000007  -0.000186  -0.007876
    16  C   -0.041276   0.003814   0.000666   0.003552  -0.048140
    17  C    0.355608  -0.038773   0.004671   0.000827   0.005947
    18  C   -0.046673   0.358253  -0.042913   0.004562   0.000343
    19  C    0.004799  -0.043145   0.361173  -0.042615   0.004720
    20  C    0.000296   0.004560  -0.042647   0.359054  -0.042505
    21  C    0.006520   0.000808   0.004755  -0.039463   0.355397
    22  H    0.000000   0.000000   0.000000   0.000000   0.000000
    23  H    0.000000   0.000000   0.000000   0.000000   0.000000
    24  H    0.000000   0.000000   0.000000   0.000000   0.000000
    25  H    0.000000   0.000000   0.000000   0.000000   0.000000
    26  H    0.000000   0.000000   0.000000   0.000000   0.000000
    27  H    0.000000   0.000000   0.000000   0.000000   0.000000
    28  H    0.000001   0.000000   0.000000   0.000000   0.000000
    29  H    0.000000   0.000000   0.000000   0.000000   0.000000
    30  H    0.000000   0.000000   0.000000   0.000000   0.000000
    31  H    0.000000   0.000000   0.000000   0.000000   0.000133
    32  H    0.000000   0.000000   0.000000   0.000000   0.000000
    33  H    0.000046   0.000001   0.000000   0.000000   0.000175
    34  H    0.000011   0.000000   0.000000   0.000009   0.004186
    35  H    0.000134   0.000003   0.000000  -0.000002   0.001898
    36  H    0.007718  -0.000009   0.000000   0.000003   0.000005
    37  H    0.593265  -0.005434  -0.000172   0.000017  -0.000178
    38  H   -0.005434   0.586781  -0.005468  -0.000183   0.000018
    39  H   -0.000172  -0.005468   0.587014  -0.005328  -0.000174
    40  H    0.000017  -0.000183  -0.005328   0.585154  -0.005435
    41  H   -0.000178   0.000018  -0.000174  -0.005435   0.593053
 Mulliken charges:
               1
     1  C   -0.339045
     2  N   -0.500997
     3  C   -0.334584
     4  S    1.388367
     5  O   -0.555276
     6  O   -0.581149
     7  N   -0.745987
     8  C    0.159007
     9  C   -0.491183
    10  S    1.101756
    11  O   -0.527231
    12  O   -0.550846
    13  C   -0.472865
    14  C   -0.280277
    15  C   -0.394033
    16  C    0.172730
    17  C   -0.198716
    18  C   -0.138882
    19  C   -0.141094
    20  C   -0.142026
    21  C   -0.188572
    22  H    0.187699
    23  H    0.163921
    24  H    0.203862
    25  H    0.186162
    26  H    0.198638
    27  H    0.166996
    28  H    0.374899
    29  H    0.225002
    30  H    0.222221
    31  H    0.226613
    32  H    0.223792
    33  H    0.157277
    34  H    0.179559
    35  H    0.163409
    36  H    0.187976
    37  H    0.136672
    38  H    0.138961
    39  H    0.138415
    40  H    0.140034
    41  H    0.138794
 Sum of Mulliken charges =   0.00000
 Mulliken charges with hydrogens summed into heavy atoms:
               1
     1  C    0.216438
     2  N   -0.500997
     3  C    0.217211
     4  S    1.388367
     5  O   -0.555276
     6  O   -0.581149
     7  N   -0.371087
     8  C    0.159007
     9  C   -0.043960
    10  S    1.101756
    11  O   -0.527231
    12  O   -0.550846
    13  C   -0.022460
    14  C    0.056559
    15  C   -0.042648
    16  C    0.172730
    17  C   -0.062044
    18  C    0.000079
    19  C   -0.002679
    20  C   -0.001992
    21  C   -0.049778
 Electronic spatial extent (au):  <R**2>=           8425.3213
 Charge=              0.0000 electrons
 Dipole moment (field-independent basis, Debye):
    X=             -3.4396    Y=             -3.8733    Z=              4.7348  Tot=              7.0179
 Quadrupole moment (field-independent basis, Debye-Ang):
   XX=           -118.1023   YY=           -169.2363   ZZ=           -133.8530
   XY=             10.4283   XZ=             -6.1772   YZ=             -3.9483
 Traceless Quadrupole moment (field-independent basis, Debye-Ang):
   XX=             22.2949   YY=            -28.8391   ZZ=              6.5442
   XY=             10.4283   XZ=             -6.1772   YZ=             -3.9483
 Octapole moment (field-independent basis, Debye-Ang**2):
  XXX=            -77.7248  YYY=           -120.1094  ZZZ=             15.1522  XYY=             14.5876
  XXY=            -59.3028  XXZ=             15.1541  XZZ=            -33.1025  YZZ=             18.0144
  YYZ=             24.4756  XYZ=              3.4456
 Hexadecapole moment (field-independent basis, Debye-Ang**3):
 XXXX=          -6155.5934 YYYY=          -4115.2376 ZZZZ=           -524.1447 XXXY=            231.1589
 XXXZ=             34.8447 YYYX=            150.0807 YYYZ=              1.5139 ZZZX=            -16.0411
 ZZZY=             -5.7506 XXYY=          -1703.7407 XXZZ=          -1308.6334 YYZZ=           -647.5216
 XXYZ=            -70.1665 YYXZ=            -36.5943 ZZXY=             13.0777
 N-N= 2.164691428847D+03 E-N=-8.355431833468D+03  KE= 1.702608981734D+03
 No NMR shielding tensors so no spin-rotation constants.
 Leave Link  601 at Fri Oct  2 06:23:32 2020, MaxMem=  2147483648 cpu:         0.8
 (Enter /prod/apps/gaussian/g09d1/l9999.exe)
 1\1\GINC-PIRINEUS42\SP\RB3LYP\6-31G(d)\C13H20N2O4S2\UBAFAR01\02-Oct-20
 20\0\\#p b3lyp/6-31G(d) scrf=(iefpcm,read,solvent=n-Octanol) geom=allc
 heck guess=read\\SM40.n.25.pdb.xyz\\0,1\C,0,1.843,0.662,-0.304\N,0,2.3
 57,0.021,0.912\C,0,1.521,-1.066,1.432\S,0,3.999,-0.25,0.967\O,0,4.633,
 0.964,0.448\O,0,4.318,-0.762,2.299\N,0,4.263,-1.544,-0.103\C,0,5.283,-
 2.58,0.146\C,0,4.959,-3.809,-0.768\S,0,5.235,-4.922,0.653\O,0,4.132,-5
 .858,0.914\O,0,6.625,-5.417,0.673\C,0,5.088,-3.317,1.509\C,0,6.739,-2.
 149,-0.092\C,0,7.312,-1.079,0.845\C,0,8.781,-0.839,0.574\C,0,9.235,0.4
 21,0.174\C,0,10.587,0.649,-0.079\C,0,11.51,-0.386,0.064\C,0,11.069,-1.
 651,0.461\C,0,9.716,-1.873,0.712\H,0,0.864,1.082,-0.066\H,0,1.729,-0.0
 48,-1.133\H,0,2.513,1.469,-0.594\H,0,0.525,-0.657,1.613\H,0,1.935,-1.4
 14,2.377\H,0,1.444,-1.903,0.727\H,0,4.332,-1.178,-1.054\H,0,5.62,-3.97
 8,-1.618\H,0,3.909,-3.843,-1.06\H,0,5.837,-3.144,2.279\H,0,4.085,-3.21
 3,1.917\H,0,6.824,-1.804,-1.129\H,0,7.353,-3.051,-0.017\H,0,7.174,-1.3
 91,1.888\H,0,6.766,-0.141,0.723\H,0,8.518,1.229,0.064\H,0,10.918,1.636
 ,-0.387\H,0,12.563,-0.211,-0.132\H,0,11.779,-2.464,0.575\H,0,9.378,-2.
 859,1.018\\Version=AM64L-G09RevD.01\State=1-A\HF=-1714.0684014\RMSD=4.
 987e-09\Dipole=-1.5933896,1.36191,-1.7971721\Quadrupole=18.1775341,-22
 .5744603,4.3969262,-4.4501315,4.0886939,-1.6412514\PG=C01 [X(C13H20N2O
 4S2)]\\@


 THOSE WITH THE GOLD MAKE THE RULES.

             -- PETER'S GOLDEN RULE
 Job cpu time:       0 days  0 hours  4 minutes 39.9 seconds.
 File lengths (MBytes):  RWF=    226 Int=      0 D2E=      0 Chk=      7 Scr=      1
 Normal termination of Gaussian 09 at Fri Oct  2 06:23:32 2020.
