 Entering Gaussian System, Link 0=g09
 Initial command:
 /prod/apps/gaussian/g09d1/l1.exe "/tmp/ubafar01/1462951/Gau-2823.inp" -scrdir="/tmp/ubafar01/1462951/"
 Entering Link 1 = /prod/apps/gaussian/g09d1/l1.exe PID=      2824.
  
 Copyright (c) 1988,1990,1992,1993,1995,1998,2003,2009,2013,
            Gaussian, Inc.  All Rights Reserved.
  
 This is part of the Gaussian(R) 09 program.  It is based on
 the Gaussian(R) 03 system (copyright 2003, Gaussian, Inc.),
 the Gaussian(R) 98 system (copyright 1998, Gaussian, Inc.),
 the Gaussian(R) 94 system (copyright 1995, Gaussian, Inc.),
 the Gaussian 92(TM) system (copyright 1992, Gaussian, Inc.),
 the Gaussian 90(TM) system (copyright 1990, Gaussian, Inc.),
 the Gaussian 88(TM) system (copyright 1988, Gaussian, Inc.),
 the Gaussian 86(TM) system (copyright 1986, Carnegie Mellon
 University), and the Gaussian 82(TM) system (copyright 1983,
 Carnegie Mellon University). Gaussian is a federally registered
 trademark of Gaussian, Inc.
  
 This software contains proprietary and confidential information,
 including trade secrets, belonging to Gaussian, Inc.
  
 This software is provided under written license and may be
 used, copied, transmitted, or stored only in accord with that
 written license.
  
 The following legend is applicable only to US Government
 contracts under FAR:
  
                    RESTRICTED RIGHTS LEGEND
  
 Use, reproduction and disclosure by the US Government is
 subject to restrictions as set forth in subparagraphs (a)
 and (c) of the Commercial Computer Software - Restricted
 Rights clause in FAR 52.227-19.
  
 Gaussian, Inc.
 340 Quinnipiac St., Bldg. 40, Wallingford CT 06492
  
  
 ---------------------------------------------------------------
 Warning -- This program may not be used in any manner that
 competes with the business of Gaussian, Inc. or will provide
 assistance to any competitor of Gaussian, Inc.  The licensee
 of this program is prohibited from giving any competitor of
 Gaussian, Inc. access to this program.  By using this program,
 the user acknowledges that Gaussian, Inc. is engaged in the
 business of creating and licensing software in the field of
 computational chemistry and represents and warrants to the
 licensee that it is not a competitor of Gaussian, Inc. and that
 it will not use this program in any manner prohibited above.
 ---------------------------------------------------------------
  

 Cite this work as:
 Gaussian 09, Revision D.01,
 M. J. Frisch, G. W. Trucks, H. B. Schlegel, G. E. Scuseria, 
 M. A. Robb, J. R. Cheeseman, G. Scalmani, V. Barone, B. Mennucci, 
 G. A. Petersson, H. Nakatsuji, M. Caricato, X. Li, H. P. Hratchian, 
 A. F. Izmaylov, J. Bloino, G. Zheng, J. L. Sonnenberg, M. Hada, 
 M. Ehara, K. Toyota, R. Fukuda, J. Hasegawa, M. Ishida, T. Nakajima, 
 Y. Honda, O. Kitao, H. Nakai, T. Vreven, J. A. Montgomery, Jr., 
 J. E. Peralta, F. Ogliaro, M. Bearpark, J. J. Heyd, E. Brothers, 
 K. N. Kudin, V. N. Staroverov, T. Keith, R. Kobayashi, J. Normand, 
 K. Raghavachari, A. Rendell, J. C. Burant, S. S. Iyengar, J. Tomasi, 
 M. Cossi, N. Rega, J. M. Millam, M. Klene, J. E. Knox, J. B. Cross, 
 V. Bakken, C. Adamo, J. Jaramillo, R. Gomperts, R. E. Stratmann, 
 O. Yazyev, A. J. Austin, R. Cammi, C. Pomelli, J. W. Ochterski, 
 R. L. Martin, K. Morokuma, V. G. Zakrzewski, G. A. Voth, 
 P. Salvador, J. J. Dannenberg, S. Dapprich, A. D. Daniels, 
 O. Farkas, J. B. Foresman, J. V. Ortiz, J. Cioslowski, 
 and D. J. Fox, Gaussian, Inc., Wallingford CT, 2013.
 
 ******************************************
 Gaussian 09:  AM64L-G09RevD.01 24-Apr-2013
                 2-Oct-2020 
 ******************************************
 %nproc=1
 Will use up to    1 processors via shared memory.
 %Chk=SM40.n.6.pdb.xyz.mst.n.o.chk
 %mem=16GB
 -----------------
 #p b3lyp/6-31G(d)
 -----------------
 1/38=1/1;
 2/12=2,17=6,18=5,40=1/2;
 3/5=1,6=6,7=1,11=2,16=1,25=1,30=1,74=-5/1,2,3;
 4//1;
 5/5=2,38=5/2;
 6/7=2,8=2,9=2,10=2,28=1/1;
 99/5=1,9=1/99;
 Leave Link    1 at Fri Oct  2 06:12:38 2020, MaxMem=  2147483648 cpu:         0.0
 (Enter /prod/apps/gaussian/g09d1/l101.exe)
 ----------------
 SM40.n.6.pdb.xyz
 ----------------
 Symbolic Z-matrix:
 Charge =  0 Multiplicity = 1
 C                     6.166     0.789    -0.269 
 N                     5.678     0.025     0.886 
 C                     5.902     0.703     2.174 
 S                     4.119    -0.603     0.68 
 O                     3.709    -1.08      2.001 
 O                     3.268     0.322    -0.073 
 N                     4.27     -1.922    -0.331 
 C                     5.106    -3.119    -0.097 
 C                     4.528    -4.25     -1.016 
 S                     4.081    -5.247     0.447 
 O                     2.628    -5.4       0.623 
 O                     4.952    -6.429     0.588 
 C                     4.765    -3.777     1.287 
 C                     6.599    -2.839    -0.364 
 C                     7.587    -4.014    -0.18 
 C                     8.127    -4.208     1.224 
 C                     7.824    -5.359     1.962 
 C                     8.341    -5.543     3.246 
 C                     9.173    -4.577     3.812 
 C                     9.484    -3.426     3.085 
 C                     8.967    -3.245     1.804 
 H                     7.235     0.96     -0.124 
 H                     5.656     1.752    -0.379 
 H                     6.036     0.211    -1.185 
 H                     6.979     0.842     2.282 
 H                     5.538     0.071     2.981 
 H                     5.411     1.683     2.224 
 H                     4.205    -1.633    -1.305 
 H                     5.258    -4.755    -1.648 
 H                     3.648    -3.958    -1.586 
 H                     5.624    -4.028     1.909 
 H                     4.007    -3.239     1.853 
 H                     6.899    -1.999     0.267 
 H                     6.663    -2.492    -1.402 
 H                     8.432    -3.822    -0.852 
 H                     7.141    -4.952    -0.526 
 H                     7.165    -6.105     1.526 
 H                     8.092    -6.442     3.801 
 H                     9.577    -4.719     4.809 
 H                     10.135   -2.671     3.514 
 H                     9.225    -2.351     1.243 
 
 NAtoms=     41 NQM=       41 NQMF=       0 NMMI=      0 NMMIF=      0
                NMic=       0 NMicF=      0.
                    Isotopes and Nuclear Properties:
 (Nuclear quadrupole moments (NQMom) in fm**2, nuclear magnetic moments (NMagM)
  in nuclear magnetons)

  Atom         1           2           3           4           5           6           7           8           9          10
 IAtWgt=          12          14          12          32          16          16          14          12          12          32
 AtmWgt=  12.0000000  14.0030740  12.0000000  31.9720718  15.9949146  15.9949146  14.0030740  12.0000000  12.0000000  31.9720718
 NucSpn=           0           2           0           0           0           0           2           0           0           0
 AtZEff=   0.0000000   0.0000000   0.0000000   0.0000000   0.0000000   0.0000000   0.0000000   0.0000000   0.0000000   0.0000000
 NQMom=    0.0000000   2.0440000   0.0000000   0.0000000   0.0000000   0.0000000   2.0440000   0.0000000   0.0000000   0.0000000
 NMagM=    0.0000000   0.4037610   0.0000000   0.0000000   0.0000000   0.0000000   0.4037610   0.0000000   0.0000000   0.0000000
 AtZNuc=   6.0000000   7.0000000   6.0000000  16.0000000   8.0000000   8.0000000   7.0000000   6.0000000   6.0000000  16.0000000

  Atom        11          12          13          14          15          16          17          18          19          20
 IAtWgt=          16          16          12          12          12          12          12          12          12          12
 AtmWgt=  15.9949146  15.9949146  12.0000000  12.0000000  12.0000000  12.0000000  12.0000000  12.0000000  12.0000000  12.0000000
 NucSpn=           0           0           0           0           0           0           0           0           0           0
 AtZEff=   0.0000000   0.0000000   0.0000000   0.0000000   0.0000000   0.0000000   0.0000000   0.0000000   0.0000000   0.0000000
 NQMom=    0.0000000   0.0000000   0.0000000   0.0000000   0.0000000   0.0000000   0.0000000   0.0000000   0.0000000   0.0000000
 NMagM=    0.0000000   0.0000000   0.0000000   0.0000000   0.0000000   0.0000000   0.0000000   0.0000000   0.0000000   0.0000000
 AtZNuc=   8.0000000   8.0000000   6.0000000   6.0000000   6.0000000   6.0000000   6.0000000   6.0000000   6.0000000   6.0000000

  Atom        21          22          23          24          25          26          27          28          29          30
 IAtWgt=          12           1           1           1           1           1           1           1           1           1
 AtmWgt=  12.0000000   1.0078250   1.0078250   1.0078250   1.0078250   1.0078250   1.0078250   1.0078250   1.0078250   1.0078250
 NucSpn=           0           1           1           1           1           1           1           1           1           1
 AtZEff=   0.0000000   0.0000000   0.0000000   0.0000000   0.0000000   0.0000000   0.0000000   0.0000000   0.0000000   0.0000000
 NQMom=    0.0000000   0.0000000   0.0000000   0.0000000   0.0000000   0.0000000   0.0000000   0.0000000   0.0000000   0.0000000
 NMagM=    0.0000000   2.7928460   2.7928460   2.7928460   2.7928460   2.7928460   2.7928460   2.7928460   2.7928460   2.7928460
 AtZNuc=   6.0000000   1.0000000   1.0000000   1.0000000   1.0000000   1.0000000   1.0000000   1.0000000   1.0000000   1.0000000

  Atom        31          32          33          34          35          36          37          38          39          40
 IAtWgt=           1           1           1           1           1           1           1           1           1           1
 AtmWgt=   1.0078250   1.0078250   1.0078250   1.0078250   1.0078250   1.0078250   1.0078250   1.0078250   1.0078250   1.0078250
 NucSpn=           1           1           1           1           1           1           1           1           1           1
 AtZEff=   0.0000000   0.0000000   0.0000000   0.0000000   0.0000000   0.0000000   0.0000000   0.0000000   0.0000000   0.0000000
 NQMom=    0.0000000   0.0000000   0.0000000   0.0000000   0.0000000   0.0000000   0.0000000   0.0000000   0.0000000   0.0000000
 NMagM=    2.7928460   2.7928460   2.7928460   2.7928460   2.7928460   2.7928460   2.7928460   2.7928460   2.7928460   2.7928460
 AtZNuc=   1.0000000   1.0000000   1.0000000   1.0000000   1.0000000   1.0000000   1.0000000   1.0000000   1.0000000   1.0000000

  Atom        41
 IAtWgt=           1
 AtmWgt=   1.0078250
 NucSpn=           1
 AtZEff=   0.0000000
 NQMom=    0.0000000
 NMagM=    2.7928460
 AtZNuc=   1.0000000
 Leave Link  101 at Fri Oct  2 06:12:39 2020, MaxMem=  2147483648 cpu:         0.1
 (Enter /prod/apps/gaussian/g09d1/l202.exe)
                          Input orientation:                          
 ---------------------------------------------------------------------
 Center     Atomic      Atomic             Coordinates (Angstroms)
 Number     Number       Type             X           Y           Z
 ---------------------------------------------------------------------
      1          6           0        6.166000    0.789000   -0.269000
      2          7           0        5.678000    0.025000    0.886000
      3          6           0        5.902000    0.703000    2.174000
      4         16           0        4.119000   -0.603000    0.680000
      5          8           0        3.709000   -1.080000    2.001000
      6          8           0        3.268000    0.322000   -0.073000
      7          7           0        4.270000   -1.922000   -0.331000
      8          6           0        5.106000   -3.119000   -0.097000
      9          6           0        4.528000   -4.250000   -1.016000
     10         16           0        4.081000   -5.247000    0.447000
     11          8           0        2.628000   -5.400000    0.623000
     12          8           0        4.952000   -6.429000    0.588000
     13          6           0        4.765000   -3.777000    1.287000
     14          6           0        6.599000   -2.839000   -0.364000
     15          6           0        7.587000   -4.014000   -0.180000
     16          6           0        8.127000   -4.208000    1.224000
     17          6           0        7.824000   -5.359000    1.962000
     18          6           0        8.341000   -5.543000    3.246000
     19          6           0        9.173000   -4.577000    3.812000
     20          6           0        9.484000   -3.426000    3.085000
     21          6           0        8.967000   -3.245000    1.804000
     22          1           0        7.235000    0.960000   -0.124000
     23          1           0        5.656000    1.752000   -0.379000
     24          1           0        6.036000    0.211000   -1.185000
     25          1           0        6.979000    0.842000    2.282000
     26          1           0        5.538000    0.071000    2.981000
     27          1           0        5.411000    1.683000    2.224000
     28          1           0        4.205000   -1.633000   -1.305000
     29          1           0        5.258000   -4.755000   -1.648000
     30          1           0        3.648000   -3.958000   -1.586000
     31          1           0        5.624000   -4.028000    1.909000
     32          1           0        4.007000   -3.239000    1.853000
     33          1           0        6.899000   -1.999000    0.267000
     34          1           0        6.663000   -2.492000   -1.402000
     35          1           0        8.432000   -3.822000   -0.852000
     36          1           0        7.141000   -4.952000   -0.526000
     37          1           0        7.165000   -6.105000    1.526000
     38          1           0        8.092000   -6.442000    3.801000
     39          1           0        9.577000   -4.719000    4.809000
     40          1           0       10.135000   -2.671000    3.514000
     41          1           0        9.225000   -2.351000    1.243000
 ---------------------------------------------------------------------
                    Distance matrix (angstroms):
                    1          2          3          4          5
     1  C    0.000000
     2  N    1.468286   0.000000
     3  C    2.458728   1.472686   0.000000
     4  S    2.651127   1.693311   2.667726   0.000000
     5  O    3.831829   2.518176   2.831654   1.463103   0.000000
     6  O    2.941923   2.610745   3.483120   1.465208   2.541960
     7  N    3.308804   2.693392   3.978577   1.668737   2.542029
     8  C    4.052857   3.343383   4.516497   2.812144   3.242026
     9  C    5.350941   4.818270   6.049478   4.042809   4.452185
    10  S    6.425977   5.526040   6.457637   4.649997   4.462868
    11  O    7.184485   6.229149   7.097273   5.023698   4.661528
    12  O    7.369381   6.501538   7.367721   5.885969   5.670398
    13  C    5.023176   3.930595   4.706372   3.295458   2.983076
    14  C    3.654983   3.257796   4.412824   3.498576   4.127882
    15  C    5.009588   4.592838   5.534495   4.939792   5.329540
    16  C    5.571766   4.902054   5.474582   5.418120   5.468714
    17  C    6.747165   5.894960   6.362930   6.163610   5.936715
    18  C    7.561751   6.607858   6.790465   6.986647   6.551627
    19  C    7.381773   6.477261   6.423464   7.151574   6.735282
    20  C    6.326505   5.588438   5.541596   6.522007   6.326879
    21  C    5.330674   4.727911   5.011769   5.634416   5.689692
    22  H    1.092258   2.078118   2.669034   3.577547   4.594551
    23  H    1.095248   2.140850   2.771051   3.004975   4.180363
    24  H    1.090890   2.109929   3.397485   2.795659   4.151169
    25  H    2.677943   2.075790   1.091290   3.582461   3.803412
    26  H    3.387094   2.100176   1.087736   2.786115   2.372855
    27  H    2.753963   2.147207   1.097261   3.046144   3.252799
    28  H    3.284037   3.117559   4.521078   2.237973   3.388430
    29  H    5.784638   5.426413   6.694190   4.894488   5.405574
    30  H    5.532524   5.108422   6.398675   4.075858   4.599258
    31  H    5.314220   4.180461   4.746564   3.937777   3.516588
    32  H    5.038745   3.792232   4.385593   2.887381   2.184488
    33  H    2.932154   2.443477   3.454195   3.138118   3.745319
    34  H    3.506517   3.541251   4.855401   3.791435   4.722316
    35  H    5.170683   5.040295   6.002766   5.595619   6.161567
    36  H    5.828873   5.376304   6.387812   5.431457   5.758189
    37  H    7.193557   6.340163   6.954419   6.345537   6.117204
    38  H    8.518318   7.493111   7.648154   7.721353   7.155539
    39  H    8.231590   7.286815   7.060236   7.986229   7.453899
    40  H    6.483491   5.834351   5.576537   6.964225   6.790724
    41  H    4.637157   4.284161   4.608254   5.426206   5.711065
                    6          7          8          9         10
     6  O    0.000000
     7  N    2.471053   0.000000
     8  C    3.901192   1.478669   0.000000
     9  C    4.835290   2.440363   1.567739   0.000000
    10  S    5.652002   3.420034   2.423829   1.825976   0.000000
    11  O    5.799595   3.962671   3.444103   2.760221   1.471596
    12  O    6.989190   4.650025   3.383643   2.738728   1.475007
    13  C    4.570822   2.510772   1.569937   2.362987   1.826022
    14  C    4.601322   2.503242   1.542316   2.589414   3.577221
    15  C    6.120956   3.924507   2.638802   3.179949   3.769012
    16  C    6.768529   4.745553   3.472377   4.239359   4.248925
    17  C    7.561225   5.449930   4.079780   4.578426   4.039532
    18  C    8.435005   6.517638   5.245632   5.863059   5.105841
    19  C    8.600142   6.946430   5.826365   6.707648   6.140081
    20  C    7.915752   6.412244   5.420909   6.485300   6.282316
    21  C    6.980345   5.326384   4.305461   5.354171   5.451830
    22  H    4.018300   4.140048   4.601262   5.938654   6.985743
    23  H    2.800193   3.927031   4.910058   6.140208   7.221420
    24  H    2.985078   2.897889   3.624575   4.712021   6.022891
    25  H    4.425827   4.669705   4.985709   6.543139   6.988673
    26  H    3.813505   4.068073   4.453853   5.972198   6.068371
    27  H    3.423592   4.563544   5.342216   6.817461   7.276780
    28  H    2.493555   1.018048   2.116426   2.652648   4.018193
    29  H    5.675972   3.276663   2.259469   1.089655   2.452839
    30  H    4.555433   2.471276   2.246510   1.088377   2.445833
    31  H    5.329311   3.359487   2.262441   3.131473   2.450358
    32  H    4.115376   2.563887   2.241584   3.086215   2.452422
    33  H    4.322823   2.697253   2.145168   3.512084   4.303839
    34  H    4.605525   2.682982   2.126124   2.792451   4.204230
    35  H    6.666819   4.604746   3.482314   3.930814   4.759120
    36  H    6.558995   4.178704   2.772211   2.749668   3.224493
    37  H    7.684383   5.415437   3.973639   4.105674   3.378085
    38  H    9.166818   7.218830   5.928991   6.380474   5.363344
    39  H    9.436582   7.899814   6.827787   7.722887   7.036465
    40  H    8.305438   7.052890   6.207324   7.379200   7.259007
    41  H    6.660528   5.216660   4.399044   5.547170   5.956607
                   11         12         13         14         15
    11  O    0.000000
    12  O    2.541858   0.000000
    13  C    2.764379   2.748941   0.000000
    14  C    4.827187   4.062882   2.639924   0.000000
    15  C    5.211284   3.655855   3.189348   1.546165   0.000000
    16  C    5.658716   3.926571   3.390099   2.594357   1.516724
    17  C    5.365913   3.358744   3.509392   3.641607   2.540346
    18  C    6.288000   4.397190   4.443446   4.835109   3.826726
    19  C    7.326942   5.625026   5.142576   5.204334   4.332254
    20  C    7.547374   5.982645   5.062111   4.534688   3.821594
    21  C    6.798655   5.266568   4.266980   3.236122   2.536142
    22  H    7.888730   7.766360   5.525485   3.859339   4.986754
    23  H    7.830957   8.267978   5.842883   4.686870   6.084005
    24  H    6.809306   6.957599   4.861108   3.208350   4.611535
    25  H    7.787557   7.736007   5.217948   4.549228   5.478307
    26  H    6.630242   6.951248   4.274841   4.558821   5.556757
    27  H    7.776707   8.288047   5.577355   5.343929   6.555151
    28  H    4.516016   5.209902   3.410103   2.840977   4.286340
    29  H    3.534171   2.809912   3.132692   2.667957   2.851025
    30  H    2.828329   3.540132   3.087811   3.384353   4.182785
    31  H    3.537258   2.821600   1.089847   2.744244   2.866616
    32  H    2.843319   3.559403   1.088285   3.434174   4.189286
    33  H    5.471287   4.849613   2.958993   1.092594   2.175633
    34  H    5.370132   4.731553   3.533320   1.096334   2.159524
    35  H    6.192909   4.580442   4.245496   2.136427   1.096573
    36  H    4.678469   2.866051   3.211381   2.187413   1.094749
    37  H    4.679402   2.425322   3.352119   3.815654   2.731447
    38  H    6.406305   4.492565   4.948874   5.705952   4.690263
    39  H    8.140943   6.490883   6.037151   6.258020   5.417310
    40  H    8.494726   7.039001   5.917742   5.250753   4.684185
    41  H    7.293916   5.942864   4.682629   3.117125   2.733778
                   16         17         18         19         20
    16  C    0.000000
    17  C    1.400448   0.000000
    18  C    2.432387   1.396353   0.000000
    19  C    2.815674   2.419468   1.394896   0.000000
    20  C    2.432343   2.784460   2.411236   1.396442   0.000000
    21  C    1.403342   2.408404   2.784249   2.418414   1.393202
    22  H    5.414886   6.680425   7.407371   7.064440   5.881554
    23  H    6.648086   7.794025   8.577113   8.366003   7.311947
    24  H    5.450057   6.642699   7.619403   7.598403   6.584024
    25  H    5.285808   6.266484   6.599437   6.043186   5.013547
    26  H    5.300925   5.979052   6.280448   5.958833   5.273589
    27  H    6.563577   7.448555   7.864125   7.474088   6.590336
    28  H    5.329967   6.136247   7.287400   7.715688   7.096111
    29  H    4.096188   4.470042   5.837557   6.720901   6.482793
    30  H    5.293396   5.655977   6.919877   7.749012   7.494008
    31  H    2.601275   2.571842   3.385983   4.064260   4.079826
    32  H    4.278902   4.367582   5.102198   5.684671   5.616967
    33  H    2.702501   3.875339   4.849097   4.938035   4.081627
    34  H    3.461767   4.569913   5.807598   6.150863   5.381781
    35  H    2.133494   3.263530   4.445641   4.782468   4.094324
    36  H    2.142016   2.611950   4.002158   4.804986   4.567017
    37  H    2.148315   1.086689   2.158059   3.404797   3.871083
    38  H    3.410705   2.150961   1.085462   2.155669   3.398025
    39  H    3.900749   3.404118   2.156303   1.085076   2.157006
    40  H    3.411529   3.869725   3.396858   2.155710   1.085296
    41  H    2.157409   3.395265   3.870701   3.399638   2.148411
                   21         22         23         24         25
    21  C    0.000000
    22  H    4.939538   0.000000
    23  H    6.379516   1.784805   0.000000
    24  H    5.428519   1.767575   1.780089   0.000000
    25  H    4.569923   2.422457   3.107949   3.647944   0.000000
    26  H    4.913169   3.648446   3.758894   4.197995   1.777505
    27  H    6.091529   3.059871   2.615415   3.765460   1.780244
    28  H    5.911097   4.159244   3.797513   2.601403   5.165972
    29  H    5.287068   6.236372   6.641522   5.047852   7.052173
    30  H    6.347616   6.260251   6.171954   4.821193   7.006924
    31  H    3.435078   5.622149   6.216459   5.264190   5.068733
    32  H    4.960246   5.653328   5.710613   5.024817   5.066694
    33  H    2.862081   3.003574   4.004044   2.781577   3.483950
    34  H    4.019187   3.725154   4.480191   2.783240   4.978681
    35  H    2.770106   4.983003   6.244948   4.702850   5.803969
    36  H    3.417166   5.926397   6.868075   5.320890   6.440617
    37  H    3.391768   7.255455   8.224266   6.965344   6.990489
    38  H    3.869683   8.421976   9.515678   8.564446   7.523482
    39  H    3.402176   7.878483   9.174063   8.530628   6.637775
    40  H    2.148907   5.901627   7.401339   6.869376   4.880505
    41  H    1.086518   4.097745   5.674791   4.756968   4.039714
                   26         27         28         29         30
    26  H    0.000000
    27  H    1.785419   0.000000
    28  H    4.801073   4.990404   0.000000
    29  H    6.693005   7.514229   3.312604   0.000000
    30  H    6.376710   7.031725   2.407246   1.797541   0.000000
    31  H    4.237733   5.723645   4.251986   3.648936   4.015532
    32  H    3.817387   5.131758   3.548437   4.015004   3.531652
    33  H    3.674645   4.427315   3.140506   3.735725   4.223777
    34  H    5.200508   5.669745   2.605581   2.675016   3.357564
    35  H    6.182441   6.992370   4.781680   3.402702   4.841891
    36  H    6.332392   7.387735   4.499189   2.200769   3.783211
    37  H    6.550353   8.013530   6.064235   3.941247   5.163666
    38  H    7.043755   8.700018   8.019132   6.369390   7.412096
    39  H    6.526807   8.063708   8.704182   7.768391   8.753753
    40  H    5.379132   6.552678   7.711362   7.400975   8.351499
    41  H    4.741381   5.637563   5.675229   5.465728   6.456672
                   31         32         33         34         35
    31  H    0.000000
    32  H    1.800096   0.000000
    33  H    2.904932   3.523728   0.000000
    34  H    3.794936   4.267009   1.756219   0.000000
    35  H    3.943402   5.218960   2.631649   2.280518   0.000000
    36  H    3.014016   4.291383   3.067185   2.654705   1.746384
    37  H    2.614440   4.277131   4.302914   4.677495   3.531609
    38  H    3.936761   5.544469   5.801091   6.686984   5.350739
    39  H    4.951130   6.477132   5.932946   7.213005   5.844874
    40  H    4.976605   6.374475   4.633173   6.021120   4.825657
    41  H    4.027789   5.328055   2.546911   3.685071   2.679872
                   36         37         38         39         40
    36  H    0.000000
    37  H    2.353867   0.000000
    38  H    4.674123   2.479622   0.000000
    39  H    5.869464   4.303119   2.487975   0.000000
    40  H    5.521648   4.956349   4.298448   2.486502   0.000000
    41  H    3.773277   4.291411   4.956141   4.295077   2.467375
                   41
    41  H    0.000000
 Stoichiometry    C13H20N2O4S2
 Framework group  C1[X(C13H20N2O4S2)]
 Deg. of freedom   117
 Full point group                 C1      NOp   1
 Largest Abelian subgroup         C1      NOp   1
 Largest concise Abelian subgroup C1      NOp   1
                         Standard orientation:                         
 ---------------------------------------------------------------------
 Center     Atomic      Atomic             Coordinates (Angstroms)
 Number     Number       Type             X           Y           Z
 ---------------------------------------------------------------------
      1          6           0       -3.010558   -2.162050    1.267954
      2          7           0       -2.367377   -1.738232    0.017929
      3          6           0       -2.446744   -2.746130   -1.052888
      4         16           0       -2.774432   -0.165737   -0.460471
      5          8           0       -2.273357   -0.028208   -1.828199
      6          8           0       -4.172574    0.140601   -0.147117
      7          7           0       -1.907719    0.867213    0.522639
      8          6           0       -0.437396    0.912111    0.672957
      9          6           0       -0.094733    2.324651    1.260425
     10         16           0        0.836816    2.756060   -0.249637
     11          8           0        0.210032    3.835078   -1.029673
     12          8           0        2.289995    2.798126   -0.000339
     13          6           0        0.261846    1.088411   -0.721561
     14          6           0        0.086436   -0.241919    1.551906
     15          6           0        1.609288   -0.302849    1.812356
     16          6           0        2.426540   -1.048724    0.774945
     17          6           0        3.369431   -0.382389   -0.017651
     18          6           0        4.134727   -1.077188   -0.956468
     19          6           0        3.969727   -2.453116   -1.115631
     20          6           0        3.034091   -3.128929   -0.329557
     21          6           0        2.271966   -2.433326    0.606559
     22          1           0       -2.524005   -3.084166    1.593526
     23          1           0       -4.084056   -2.341646    1.145823
     24          1           0       -2.861891   -1.408250    2.042372
     25          1           0       -1.940059   -3.642088   -0.690336
     26          1           0       -1.931863   -2.373896   -1.935786
     27          1           0       -3.481469   -3.003821   -1.311576
     28          1           0       -2.428162    1.068186    1.374209
     29          1           0        0.540533    2.319168    2.145725
     30          1           0       -0.957428    2.973757    1.398209
     31          1           0        1.094070    0.411975   -0.915475
     32          1           0       -0.432259    1.116361   -1.559297
     33          1           0       -0.252258   -1.180537    1.106884
     34          1           0       -0.426350   -0.147312    2.516297
     35          1           0        1.742689   -0.800163    2.780527
     36          1           0        2.020714    0.703879    1.937666
     37          1           0        3.488128    0.691672    0.097222
     38          1           0        4.858825   -0.540615   -1.561447
     39          1           0        4.564670   -2.994985   -1.843512
     40          1           0        2.902029   -4.200322   -0.441556
     41          1           0        1.555195   -2.971316    1.220829
 ---------------------------------------------------------------------
 Rotational constants (GHZ):      0.3177306      0.2222696      0.1553928
 Leave Link  202 at Fri Oct  2 06:12:39 2020, MaxMem=  2147483648 cpu:         0.0
 (Enter /prod/apps/gaussian/g09d1/l301.exe)
 Standard basis: 6-31G(d) (6D, 7F)
 Ernie: Thresh=  0.10000D-02 Tol=  0.10000D-05 Strict=F.
 There are   363 symmetry adapted cartesian basis functions of A   symmetry.
 There are   363 symmetry adapted basis functions of A   symmetry.
   363 basis functions,   716 primitive gaussians,   363 cartesian basis functions
    88 alpha electrons       88 beta electrons
       nuclear repulsion energy      2218.6703063463 Hartrees.
 IExCor=  402 DFT=T Ex+Corr=B3LYP ExCW=0 ScaHFX=  0.200000
 ScaDFX=  0.800000  0.720000  1.000000  0.810000 ScalE2=  1.000000  1.000000
 IRadAn=      0 IRanWt=     -1 IRanGd=            0 ICorTp=0 IEmpDi=  4
 NAtoms=   41 NActive=   41 NUniq=   41 SFac= 1.00D+00 NAtFMM=   60 NAOKFM=F Big=F
 Integral buffers will be    131072 words long.
 Raffenetti 2 integral format.
 Two-electron integral symmetry is turned on.
 Leave Link  301 at Fri Oct  2 06:12:39 2020, MaxMem=  2147483648 cpu:         0.0
 (Enter /prod/apps/gaussian/g09d1/l302.exe)
 NPDir=0 NMtPBC=     1 NCelOv=     1 NCel=       1 NClECP=     1 NCelD=      1
         NCelK=      1 NCelE2=     1 NClLst=     1 CellRange=     0.0.
 One-electron integrals computed using PRISM.
 NBasis=   363 RedAO= T EigKep=  4.58D-04  NBF=   363
 NBsUse=   363 1.00D-06 EigRej= -1.00D+00 NBFU=   363
 Precomputing XC quadrature grid using
 IXCGrd= 4 IRadAn=           0 IRanWt=          -1 IRanGd=           0 AccXCQ= 0.00D+00.
 Generated NRdTot=       0 NPtTot=           0 NUsed=           0 NTot=          32
 NSgBfM=   359   359   359   359   359 MxSgAt=    41 MxSgA2=    41.
 Leave Link  302 at Fri Oct  2 06:12:40 2020, MaxMem=  2147483648 cpu:         1.4
 (Enter /prod/apps/gaussian/g09d1/l303.exe)
 DipDrv:  MaxL=1.
 Leave Link  303 at Fri Oct  2 06:12:40 2020, MaxMem=  2147483648 cpu:         0.1
 (Enter /prod/apps/gaussian/g09d1/l401.exe)
 ExpMin= 1.17D-01 ExpMax= 2.19D+04 ExpMxC= 3.30D+03 IAcc=1 IRadAn=         1 AccDes= 0.00D+00
 Harris functional with IExCor=  402 and IRadAn=       1 diagonalized for initial guess.
 HarFok:  IExCor=  402 AccDes= 0.00D+00 IRadAn=         1 IDoV= 1 UseB2=F ITyADJ=14
 ICtDFT=  3500011 ScaDFX=  1.000000  1.000000  1.000000  1.000000
 FoFCou: FMM=F IPFlag=           0 FMFlag=      100000 FMFlg1=           0
         NFxFlg=           0 DoJE=T BraDBF=F KetDBF=T FulRan=T
         wScrn=  0.000000 ICntrl=     500 IOpCl=  0 I1Cent=   200000004 NGrid=           0
         NMat0=    1 NMatS0=      1 NMatT0=    0 NMatD0=    1 NMtDS0=    0 NMtDT0=    0
 Petite list used in FoFCou.
 Harris En= -1714.14353393554    
 JPrj=0 DoOrth=F DoCkMO=F.
 Leave Link  401 at Fri Oct  2 06:12:46 2020, MaxMem=  2147483648 cpu:         5.9
 (Enter /prod/apps/gaussian/g09d1/l502.exe)
 Closed shell SCF:
 Using DIIS extrapolation, IDIIS=  1040.
 Integral symmetry usage will be decided dynamically.
 IVT=      418784 IEndB=      418784 NGot=  2147483648 MDV=  2147213637
 LenX=  2147213637 LenY=  2147081427
 Requested convergence on RMS density matrix=1.00D-08 within 128 cycles.
 Requested convergence on MAX density matrix=1.00D-06.
 Requested convergence on             energy=1.00D-06.
 No special actions if energy rises.
 Fock matrices will be formed incrementally for  20 cycles.
 Integral accuracy reduced to 1.0D-05 until final iterations.

 Cycle   1  Pass 0  IDiag  1:
 FoFJK:  IHMeth= 1 ICntrl=       0 DoSepK=F KAlg= 0 I1Cent=   0 FoldK=F
 IRaf= 790000000 NMat=   1 IRICut=       1 DoRegI=T DoRafI=F ISym2E= 0.
 FoFCou: FMM=F IPFlag=           0 FMFlag=      100000 FMFlg1=           0
         NFxFlg=           0 DoJE=F BraDBF=F KetDBF=F FulRan=T
         wScrn=  0.000000 ICntrl=       0 IOpCl=  0 I1Cent=           0 NGrid=           0
         NMat0=    1 NMatS0=      1 NMatT0=    0 NMatD0=    1 NMtDS0=    0 NMtDT0=    0
 Symmetry not used in FoFCou.
 E= -1713.19282197354    
 DIIS: error= 3.16D-02 at cycle   1 NSaved=   1.
 NSaved= 1 IEnMin= 1 EnMin= -1713.19282197354     IErMin= 1 ErrMin= 3.16D-02
 ErrMax= 3.16D-02  0.00D+00 EMaxC= 1.00D-01 BMatC= 9.89D-01 BMatP= 9.89D-01
 IDIUse=3 WtCom= 6.84D-01 WtEn= 3.16D-01
 Coeff-Com:  0.100D+01
 Coeff-En:   0.100D+01
 Coeff:      0.100D+01
 Gap=     0.356 Goal=   None    Shift=    0.000
 GapD=    0.356 DampG=1.000 DampE=0.500 DampFc=0.5000 IDamp=-1.
 Damping current iteration by 5.00D-01
 RMSDP=6.98D-03 MaxDP=6.06D-01              OVMax= 2.32D-01

 Cycle   2  Pass 0  IDiag  1:
 RMSU=  3.49D-03    CP:  9.99D-01
 E= -1713.37034226298     Delta-E=       -0.177520289444 Rises=F Damp=T
 DIIS: error= 1.77D-02 at cycle   2 NSaved=   2.
 NSaved= 2 IEnMin= 2 EnMin= -1713.37034226298     IErMin= 2 ErrMin= 1.77D-02
 ErrMax= 1.77D-02  0.00D+00 EMaxC= 1.00D-01 BMatC= 1.69D-01 BMatP= 9.89D-01
 IDIUse=3 WtCom= 8.23D-01 WtEn= 1.77D-01
 Coeff-Com:  0.249D+00 0.751D+00
 Coeff-En:   0.394D+00 0.606D+00
 Coeff:      0.275D+00 0.725D+00
 Gap=     0.284 Goal=   None    Shift=    0.000
 RMSDP=2.02D-03 MaxDP=1.35D-01 DE=-1.78D-01 OVMax= 2.04D-01

 Cycle   3  Pass 0  IDiag  1:
 RMSU=  1.62D-03    CP:  9.90D-01  6.57D-01
 E= -1713.94433635775     Delta-E=       -0.573994094765 Rises=F Damp=F
 DIIS: error= 1.03D-02 at cycle   3 NSaved=   3.
 NSaved= 3 IEnMin= 3 EnMin= -1713.94433635775     IErMin= 3 ErrMin= 1.03D-02
 ErrMax= 1.03D-02  0.00D+00 EMaxC= 1.00D-01 BMatC= 9.64D-02 BMatP= 1.69D-01
 IDIUse=3 WtCom= 8.97D-01 WtEn= 1.03D-01
 Coeff-Com:  0.104D+00 0.436D+00 0.460D+00
 Coeff-En:   0.000D+00 0.000D+00 0.100D+01
 Coeff:      0.931D-01 0.391D+00 0.515D+00
 Gap=     0.240 Goal=   None    Shift=    0.000
 RMSDP=1.25D-03 MaxDP=3.60D-02 DE=-5.74D-01 OVMax= 8.31D-02

 Cycle   4  Pass 0  IDiag  1:
 RMSU=  7.49D-04    CP:  9.95D-01  7.25D-01  4.00D-01
 E= -1714.02173080697     Delta-E=       -0.077394449223 Rises=F Damp=F
 DIIS: error= 2.97D-03 at cycle   4 NSaved=   4.
 NSaved= 4 IEnMin= 4 EnMin= -1714.02173080697     IErMin= 4 ErrMin= 2.97D-03
 ErrMax= 2.97D-03  0.00D+00 EMaxC= 1.00D-01 BMatC= 1.36D-02 BMatP= 9.64D-02
 IDIUse=3 WtCom= 9.70D-01 WtEn= 2.97D-02
 Coeff-Com:  0.112D-01 0.767D-01 0.284D+00 0.628D+00
 Coeff-En:   0.000D+00 0.000D+00 0.126D+00 0.874D+00
 Coeff:      0.109D-01 0.744D-01 0.280D+00 0.635D+00
 Gap=     0.237 Goal=   None    Shift=    0.000
 RMSDP=4.07D-04 MaxDP=1.41D-02 DE=-7.74D-02 OVMax= 2.55D-02

 Cycle   5  Pass 0  IDiag  1:
 RMSU=  1.74D-04    CP:  9.94D-01  7.13D-01  5.52D-01  6.37D-01
 E= -1714.03316411194     Delta-E=       -0.011433304968 Rises=F Damp=F
 DIIS: error= 8.58D-04 at cycle   5 NSaved=   5.
 NSaved= 5 IEnMin= 5 EnMin= -1714.03316411194     IErMin= 5 ErrMin= 8.58D-04
 ErrMax= 8.58D-04  0.00D+00 EMaxC= 1.00D-01 BMatC= 9.68D-04 BMatP= 1.36D-02
 IDIUse=3 WtCom= 9.91D-01 WtEn= 8.58D-03
 Coeff-Com: -0.402D-03 0.167D-01 0.119D+00 0.341D+00 0.524D+00
 Coeff-En:   0.000D+00 0.000D+00 0.000D+00 0.000D+00 0.100D+01
 Coeff:     -0.399D-03 0.165D-01 0.118D+00 0.338D+00 0.528D+00
 Gap=     0.237 Goal=   None    Shift=    0.000
 RMSDP=1.10D-04 MaxDP=6.85D-03 DE=-1.14D-02 OVMax= 7.40D-03

 Cycle   6  Pass 0  IDiag  1:
 RMSU=  5.68D-05    CP:  9.94D-01  7.15D-01  5.44D-01  6.99D-01  5.34D-01
 E= -1714.03394424696     Delta-E=       -0.000780135016 Rises=F Damp=F
 DIIS: error= 4.89D-04 at cycle   6 NSaved=   6.
 NSaved= 6 IEnMin= 6 EnMin= -1714.03394424696     IErMin= 6 ErrMin= 4.89D-04
 ErrMax= 4.89D-04  0.00D+00 EMaxC= 1.00D-01 BMatC= 1.28D-04 BMatP= 9.68D-04
 IDIUse=3 WtCom= 9.95D-01 WtEn= 4.89D-03
 Coeff-Com: -0.118D-02 0.342D-02 0.454D-01 0.144D+00 0.320D+00 0.488D+00
 Coeff-En:   0.000D+00 0.000D+00 0.000D+00 0.000D+00 0.598D-01 0.940D+00
 Coeff:     -0.117D-02 0.341D-02 0.452D-01 0.143D+00 0.319D+00 0.490D+00
 Gap=     0.237 Goal=   None    Shift=    0.000
 RMSDP=3.67D-05 MaxDP=1.54D-03 DE=-7.80D-04 OVMax= 2.64D-03

 Cycle   7  Pass 0  IDiag  1:
 RMSU=  2.36D-05    CP:  9.94D-01  7.15D-01  5.45D-01  6.97D-01  5.97D-01
                    CP:  5.47D-01
 E= -1714.03403807169     Delta-E=       -0.000093824735 Rises=F Damp=F
 DIIS: error= 1.91D-04 at cycle   7 NSaved=   7.
 NSaved= 7 IEnMin= 7 EnMin= -1714.03403807169     IErMin= 7 ErrMin= 1.91D-04
 ErrMax= 1.91D-04  0.00D+00 EMaxC= 1.00D-01 BMatC= 1.83D-05 BMatP= 1.28D-04
 IDIUse=3 WtCom= 9.98D-01 WtEn= 1.91D-03
 Coeff-Com: -0.737D-03-0.310D-04 0.134D-01 0.472D-01 0.140D+00 0.319D+00
 Coeff-Com:  0.481D+00
 Coeff-En:   0.000D+00 0.000D+00 0.000D+00 0.000D+00 0.000D+00 0.101D+00
 Coeff-En:   0.899D+00
 Coeff:     -0.735D-03-0.309D-04 0.133D-01 0.471D-01 0.140D+00 0.319D+00
 Coeff:      0.481D+00
 Gap=     0.237 Goal=   None    Shift=    0.000
 RMSDP=1.25D-05 MaxDP=5.20D-04 DE=-9.38D-05 OVMax= 8.17D-04

 Cycle   8  Pass 0  IDiag  1:
 RMSU=  6.04D-06    CP:  9.94D-01  7.15D-01  5.46D-01  6.97D-01  5.99D-01
                    CP:  6.13D-01  5.65D-01
 E= -1714.03405322001     Delta-E=       -0.000015148318 Rises=F Damp=F
 DIIS: error= 4.11D-05 at cycle   8 NSaved=   8.
 NSaved= 8 IEnMin= 8 EnMin= -1714.03405322001     IErMin= 8 ErrMin= 4.11D-05
 ErrMax= 4.11D-05  0.00D+00 EMaxC= 1.00D-01 BMatC= 7.13D-07 BMatP= 1.83D-05
 IDIUse=1 WtCom= 1.00D+00 WtEn= 0.00D+00
 Coeff-Com: -0.256D-03-0.298D-03 0.220D-02 0.936D-02 0.400D-01 0.111D+00
 Coeff-Com:  0.234D+00 0.604D+00
 Coeff:     -0.256D-03-0.298D-03 0.220D-02 0.936D-02 0.400D-01 0.111D+00
 Coeff:      0.234D+00 0.604D+00
 Gap=     0.237 Goal=   None    Shift=    0.000
 RMSDP=3.40D-06 MaxDP=1.48D-04 DE=-1.51D-05 OVMax= 2.51D-04

 Initial convergence to 1.0D-05 achieved.  Increase integral accuracy.
 Cycle   9  Pass 1  IDiag  1:
 E= -1714.03406801586     Delta-E=       -0.000014795854 Rises=F Damp=F
 DIIS: error= 6.91D-05 at cycle   1 NSaved=   1.
 NSaved= 1 IEnMin= 1 EnMin= -1714.03406801586     IErMin= 1 ErrMin= 6.91D-05
 ErrMax= 6.91D-05  0.00D+00 EMaxC= 1.00D-01 BMatC= 1.13D-06 BMatP= 1.13D-06
 IDIUse=1 WtCom= 1.00D+00 WtEn= 0.00D+00
 Coeff-Com:  0.100D+01
 Coeff:      0.100D+01
 Gap=     0.237 Goal=   None    Shift=    0.000
 RMSDP=3.40D-06 MaxDP=1.48D-04 DE=-1.48D-05 OVMax= 3.49D-04

 Cycle  10  Pass 1  IDiag  1:
 RMSU=  3.43D-05    CP:  1.00D+00
 E= -1714.03406841892     Delta-E=       -0.000000403058 Rises=F Damp=F
 DIIS: error= 4.79D-05 at cycle   2 NSaved=   2.
 NSaved= 2 IEnMin= 2 EnMin= -1714.03406841892     IErMin= 2 ErrMin= 4.79D-05
 ErrMax= 4.79D-05  0.00D+00 EMaxC= 1.00D-01 BMatC= 9.34D-07 BMatP= 1.13D-06
 IDIUse=1 WtCom= 1.00D+00 WtEn= 0.00D+00
 Coeff-Com:  0.466D+00 0.534D+00
 Coeff:      0.466D+00 0.534D+00
 Gap=     0.237 Goal=   None    Shift=    0.000
 RMSDP=4.33D-06 MaxDP=1.95D-04 DE=-4.03D-07 OVMax= 3.87D-04

 Cycle  11  Pass 1  IDiag  1:
 RMSU=  4.33D-06    CP:  1.00D+00  9.92D-01
 E= -1714.03406883520     Delta-E=       -0.000000416282 Rises=F Damp=F
 DIIS: error= 3.71D-05 at cycle   3 NSaved=   3.
 NSaved= 3 IEnMin= 3 EnMin= -1714.03406883520     IErMin= 3 ErrMin= 3.71D-05
 ErrMax= 3.71D-05  0.00D+00 EMaxC= 1.00D-01 BMatC= 4.88D-07 BMatP= 9.34D-07
 IDIUse=1 WtCom= 1.00D+00 WtEn= 0.00D+00
 Coeff-Com:  0.369D-02 0.418D+00 0.578D+00
 Coeff:      0.369D-02 0.418D+00 0.578D+00
 Gap=     0.237 Goal=   None    Shift=    0.000
 RMSDP=1.91D-06 MaxDP=9.72D-05 DE=-4.16D-07 OVMax= 1.59D-04

 Cycle  12  Pass 1  IDiag  1:
 RMSU=  6.91D-07    CP:  1.00D+00  1.01D+00  6.01D-01
 E= -1714.03406923627     Delta-E=       -0.000000401071 Rises=F Damp=F
 DIIS: error= 5.01D-06 at cycle   4 NSaved=   4.
 NSaved= 4 IEnMin= 4 EnMin= -1714.03406923627     IErMin= 4 ErrMin= 5.01D-06
 ErrMax= 5.01D-06  0.00D+00 EMaxC= 1.00D-01 BMatC= 1.73D-08 BMatP= 4.88D-07
 IDIUse=1 WtCom= 1.00D+00 WtEn= 0.00D+00
 Coeff-Com: -0.850D-02 0.245D+00 0.357D+00 0.406D+00
 Coeff:     -0.850D-02 0.245D+00 0.357D+00 0.406D+00
 Gap=     0.237 Goal=   None    Shift=    0.000
 RMSDP=4.15D-07 MaxDP=1.70D-05 DE=-4.01D-07 OVMax= 4.05D-05

 Cycle  13  Pass 1  IDiag  1:
 RMSU=  2.41D-07    CP:  1.00D+00  1.01D+00  5.95D-01  5.13D-01
 E= -1714.03406925145     Delta-E=       -0.000000015173 Rises=F Damp=F
 DIIS: error= 1.64D-06 at cycle   5 NSaved=   5.
 NSaved= 5 IEnMin= 5 EnMin= -1714.03406925145     IErMin= 5 ErrMin= 1.64D-06
 ErrMax= 1.64D-06  0.00D+00 EMaxC= 1.00D-01 BMatC= 8.39D-10 BMatP= 1.73D-08
 IDIUse=1 WtCom= 1.00D+00 WtEn= 0.00D+00
 Coeff-Com: -0.514D-02 0.119D+00 0.176D+00 0.243D+00 0.466D+00
 Coeff:     -0.514D-02 0.119D+00 0.176D+00 0.243D+00 0.466D+00
 Gap=     0.237 Goal=   None    Shift=    0.000
 RMSDP=1.02D-07 MaxDP=4.34D-06 DE=-1.52D-08 OVMax= 1.11D-05

 Cycle  14  Pass 1  IDiag  1:
 RMSU=  7.80D-08    CP:  1.00D+00  1.01D+00  5.99D-01  5.42D-01  7.49D-01
 E= -1714.03406925219     Delta-E=       -0.000000000743 Rises=F Damp=F
 DIIS: error= 2.65D-07 at cycle   6 NSaved=   6.
 NSaved= 6 IEnMin= 6 EnMin= -1714.03406925219     IErMin= 6 ErrMin= 2.65D-07
 ErrMax= 2.65D-07  0.00D+00 EMaxC= 1.00D-01 BMatC= 4.17D-11 BMatP= 8.39D-10
 IDIUse=1 WtCom= 1.00D+00 WtEn= 0.00D+00
 Coeff-Com: -0.122D-02 0.215D-01 0.326D-01 0.571D-01 0.214D+00 0.676D+00
 Coeff:     -0.122D-02 0.215D-01 0.326D-01 0.571D-01 0.214D+00 0.676D+00
 Gap=     0.237 Goal=   None    Shift=    0.000
 RMSDP=2.45D-08 MaxDP=1.15D-06 DE=-7.43D-10 OVMax= 1.62D-06

 Cycle  15  Pass 1  IDiag  1:
 RMSU=  1.87D-08    CP:  1.00D+00  1.01D+00  5.98D-01  5.46D-01  7.94D-01
                    CP:  8.61D-01
 E= -1714.03406925223     Delta-E=       -0.000000000046 Rises=F Damp=F
 DIIS: error= 1.44D-07 at cycle   7 NSaved=   7.
 NSaved= 7 IEnMin= 7 EnMin= -1714.03406925223     IErMin= 7 ErrMin= 1.44D-07
 ErrMax= 1.44D-07  0.00D+00 EMaxC= 1.00D-01 BMatC= 8.96D-12 BMatP= 4.17D-11
 IDIUse=1 WtCom= 1.00D+00 WtEn= 0.00D+00
 Coeff-Com: -0.228D-03 0.105D-02 0.200D-02 0.949D-02 0.763D-01 0.389D+00
 Coeff-Com:  0.522D+00
 Coeff:     -0.228D-03 0.105D-02 0.200D-02 0.949D-02 0.763D-01 0.389D+00
 Coeff:      0.522D+00
 Gap=     0.237 Goal=   None    Shift=    0.000
 RMSDP=1.07D-08 MaxDP=7.12D-07 DE=-4.64D-11 OVMax= 6.32D-07

 Cycle  16  Pass 1  IDiag  1:
 RMSU=  6.67D-09    CP:  1.00D+00  1.01D+00  5.98D-01  5.48D-01  8.01D-01
                    CP:  8.87D-01  5.85D-01
 E= -1714.03406925223     Delta-E=        0.000000000007 Rises=F Damp=F
 DIIS: error= 5.23D-08 at cycle   8 NSaved=   8.
 NSaved= 8 IEnMin= 7 EnMin= -1714.03406925223     IErMin= 8 ErrMin= 5.23D-08
 ErrMax= 5.23D-08  0.00D+00 EMaxC= 1.00D-01 BMatC= 1.48D-12 BMatP= 8.96D-12
 IDIUse=1 WtCom= 1.00D+00 WtEn= 0.00D+00
 Coeff-Com:  0.607D-05-0.195D-02-0.270D-02-0.813D-03 0.235D-01 0.171D+00
 Coeff-Com:  0.334D+00 0.477D+00
 Coeff:      0.607D-05-0.195D-02-0.270D-02-0.813D-03 0.235D-01 0.171D+00
 Coeff:      0.334D+00 0.477D+00
 Gap=     0.237 Goal=   None    Shift=    0.000
 RMSDP=3.81D-09 MaxDP=1.98D-07 DE= 6.82D-12 OVMax= 2.36D-07

 SCF Done:  E(RB3LYP) =  -1714.03406925     A.U. after   16 cycles
            NFock= 16  Conv=0.38D-08     -V/T= 2.0068
 KE= 1.702516939533D+03 PE=-8.462998878842D+03 EE= 2.827777563710D+03
 Leave Link  502 at Fri Oct  2 06:19:59 2020, MaxMem=  2147483648 cpu:       433.1
 (Enter /prod/apps/gaussian/g09d1/l601.exe)
 Copying SCF densities to generalized density rwf, IOpCl= 0 IROHF=0.

 **********************************************************************

            Population analysis using the SCF density.

 **********************************************************************

 Orbital symmetries:
       Occupied  (A) (A) (A) (A) (A) (A) (A) (A) (A) (A) (A) (A)
                 (A) (A) (A) (A) (A) (A) (A) (A) (A) (A) (A) (A)
                 (A) (A) (A) (A) (A) (A) (A) (A) (A) (A) (A) (A)
                 (A) (A) (A) (A) (A) (A) (A) (A) (A) (A) (A) (A)
                 (A) (A) (A) (A) (A) (A) (A) (A) (A) (A) (A) (A)
                 (A) (A) (A) (A) (A) (A) (A) (A) (A) (A) (A) (A)
                 (A) (A) (A) (A) (A) (A) (A) (A) (A) (A) (A) (A)
                 (A) (A) (A) (A)
       Virtual   (A) (A) (A) (A) (A) (A) (A) (A) (A) (A) (A) (A)
                 (A) (A) (A) (A) (A) (A) (A) (A) (A) (A) (A) (A)
                 (A) (A) (A) (A) (A) (A) (A) (A) (A) (A) (A) (A)
                 (A) (A) (A) (A) (A) (A) (A) (A) (A) (A) (A) (A)
                 (A) (A) (A) (A) (A) (A) (A) (A) (A) (A) (A) (A)
                 (A) (A) (A) (A) (A) (A) (A) (A) (A) (A) (A) (A)
                 (A) (A) (A) (A) (A) (A) (A) (A) (A) (A) (A) (A)
                 (A) (A) (A) (A) (A) (A) (A) (A) (A) (A) (A) (A)
                 (A) (A) (A) (A) (A) (A) (A) (A) (A) (A) (A) (A)
                 (A) (A) (A) (A) (A) (A) (A) (A) (A) (A) (A) (A)
                 (A) (A) (A) (A) (A) (A) (A) (A) (A) (A) (A) (A)
                 (A) (A) (A) (A) (A) (A) (A) (A) (A) (A) (A) (A)
                 (A) (A) (A) (A) (A) (A) (A) (A) (A) (A) (A) (A)
                 (A) (A) (A) (A) (A) (A) (A) (A) (A) (A) (A) (A)
                 (A) (A) (A) (A) (A) (A) (A) (A) (A) (A) (A) (A)
                 (A) (A) (A) (A) (A) (A) (A) (A) (A) (A) (A) (A)
                 (A) (A) (A) (A) (A) (A) (A) (A) (A) (A) (A) (A)
                 (A) (A) (A) (A) (A) (A) (A) (A) (A) (A) (A) (A)
                 (A) (A) (A) (A) (A) (A) (A) (A) (A) (A) (A) (A)
                 (A) (A) (A) (A) (A) (A) (A) (A) (A) (A) (A) (A)
                 (A) (A) (A) (A) (A) (A) (A) (A) (A) (A) (A) (A)
                 (A) (A) (A) (A) (A) (A) (A) (A) (A) (A) (A) (A)
                 (A) (A) (A) (A) (A) (A) (A) (A) (A) (A) (A)
 The electronic state is 1-A.
 Alpha  occ. eigenvalues --  -89.14287 -89.09086 -19.15716 -19.15533 -19.14500
 Alpha  occ. eigenvalues --  -19.14316 -14.39067 -14.38816 -10.28618 -10.24262
 Alpha  occ. eigenvalues --  -10.23739 -10.23384 -10.22384 -10.21258 -10.20680
 Alpha  occ. eigenvalues --  -10.20297 -10.19579 -10.19494 -10.19336 -10.19268
 Alpha  occ. eigenvalues --  -10.18784  -8.16480  -8.12125  -6.12965  -6.12912
 Alpha  occ. eigenvalues --   -6.12873  -6.08544  -6.08487  -6.08409  -1.13462
 Alpha  occ. eigenvalues --   -1.09726  -1.01646  -0.99396  -0.95971  -0.95006
 Alpha  occ. eigenvalues --   -0.86460  -0.85514  -0.80003  -0.74867  -0.74680
 Alpha  occ. eigenvalues --   -0.74292  -0.73014  -0.72115  -0.68353  -0.63574
 Alpha  occ. eigenvalues --   -0.61183  -0.60636  -0.58711  -0.57696  -0.56142
 Alpha  occ. eigenvalues --   -0.53733  -0.51989  -0.51627  -0.50355  -0.49318
 Alpha  occ. eigenvalues --   -0.49209  -0.48079  -0.46809  -0.46279  -0.45883
 Alpha  occ. eigenvalues --   -0.45336  -0.44575  -0.44101  -0.43719  -0.43014
 Alpha  occ. eigenvalues --   -0.42625  -0.42220  -0.41465  -0.41004  -0.40489
 Alpha  occ. eigenvalues --   -0.40270  -0.37474  -0.36961  -0.35942  -0.35421
 Alpha  occ. eigenvalues --   -0.34593  -0.34087  -0.33652  -0.32944  -0.32269
 Alpha  occ. eigenvalues --   -0.31658  -0.31220  -0.29838  -0.29564  -0.28858
 Alpha  occ. eigenvalues --   -0.26551  -0.25431  -0.24720
 Alpha virt. eigenvalues --   -0.01018  -0.00575   0.02123   0.03253   0.04658
 Alpha virt. eigenvalues --    0.05200   0.05819   0.06258   0.07163   0.08212
 Alpha virt. eigenvalues --    0.08645   0.09621   0.09961   0.10280   0.11013
 Alpha virt. eigenvalues --    0.12712   0.13165   0.14189   0.14247   0.14862
 Alpha virt. eigenvalues --    0.15304   0.15551   0.16040   0.16438   0.16946
 Alpha virt. eigenvalues --    0.17113   0.17383   0.17932   0.18621   0.19342
 Alpha virt. eigenvalues --    0.19591   0.20271   0.21373   0.21903   0.22446
 Alpha virt. eigenvalues --    0.24225   0.25633   0.27108   0.29958   0.30392
 Alpha virt. eigenvalues --    0.32084   0.32925   0.33745   0.35192   0.35701
 Alpha virt. eigenvalues --    0.35964   0.37580   0.41293   0.42633   0.44715
 Alpha virt. eigenvalues --    0.45473   0.45995   0.47744   0.49302   0.50252
 Alpha virt. eigenvalues --    0.51133   0.52021   0.52950   0.53122   0.54272
 Alpha virt. eigenvalues --    0.54584   0.55196   0.56264   0.56564   0.57542
 Alpha virt. eigenvalues --    0.58193   0.59024   0.59273   0.59673   0.60505
 Alpha virt. eigenvalues --    0.61025   0.61356   0.61671   0.63977   0.64295
 Alpha virt. eigenvalues --    0.65501   0.66551   0.67170   0.68583   0.70384
 Alpha virt. eigenvalues --    0.71897   0.72736   0.73600   0.75445   0.75899
 Alpha virt. eigenvalues --    0.76298   0.77061   0.78485   0.79179   0.79719
 Alpha virt. eigenvalues --    0.80449   0.80901   0.81679   0.82613   0.83338
 Alpha virt. eigenvalues --    0.83496   0.84185   0.84857   0.85303   0.85892
 Alpha virt. eigenvalues --    0.86881   0.87381   0.87860   0.89031   0.89587
 Alpha virt. eigenvalues --    0.90135   0.90847   0.91792   0.92256   0.92858
 Alpha virt. eigenvalues --    0.93541   0.94133   0.94936   0.95180   0.96263
 Alpha virt. eigenvalues --    0.97642   0.97775   0.99684   1.00130   1.01010
 Alpha virt. eigenvalues --    1.02772   1.04077   1.04942   1.05583   1.06043
 Alpha virt. eigenvalues --    1.07256   1.08884   1.10471   1.11039   1.11551
 Alpha virt. eigenvalues --    1.11733   1.13000   1.14571   1.15491   1.16823
 Alpha virt. eigenvalues --    1.18086   1.18695   1.18881   1.21521   1.22927
 Alpha virt. eigenvalues --    1.23700   1.25154   1.26185   1.28103   1.30367
 Alpha virt. eigenvalues --    1.31081   1.33382   1.34948   1.37631   1.39576
 Alpha virt. eigenvalues --    1.42584   1.43590   1.43856   1.44379   1.47633
 Alpha virt. eigenvalues --    1.47895   1.49536   1.50261   1.50959   1.51803
 Alpha virt. eigenvalues --    1.55010   1.57171   1.60280   1.61894   1.65433
 Alpha virt. eigenvalues --    1.68294   1.71148   1.72140   1.72740   1.76234
 Alpha virt. eigenvalues --    1.79126   1.79334   1.79636   1.80086   1.80920
 Alpha virt. eigenvalues --    1.81111   1.81145   1.81410   1.81874   1.82358
 Alpha virt. eigenvalues --    1.82753   1.83917   1.86018   1.87469   1.88273
 Alpha virt. eigenvalues --    1.88776   1.90497   1.91143   1.92615   1.92821
 Alpha virt. eigenvalues --    1.93378   1.93975   1.96419   1.97198   1.98052
 Alpha virt. eigenvalues --    1.99106   2.00584   2.02011   2.03671   2.04204
 Alpha virt. eigenvalues --    2.05187   2.06284   2.07028   2.08350   2.10264
 Alpha virt. eigenvalues --    2.10409   2.12240   2.13854   2.14125   2.14841
 Alpha virt. eigenvalues --    2.15718   2.17468   2.17849   2.18999   2.20841
 Alpha virt. eigenvalues --    2.21902   2.24149   2.25097   2.26651   2.29229
 Alpha virt. eigenvalues --    2.29594   2.30799   2.30960   2.32575   2.33357
 Alpha virt. eigenvalues --    2.34989   2.38935   2.41192   2.42731   2.44064
 Alpha virt. eigenvalues --    2.46950   2.48814   2.50398   2.55634   2.57756
 Alpha virt. eigenvalues --    2.58289   2.59455   2.64181   2.66727   2.69426
 Alpha virt. eigenvalues --    2.70485   2.71557   2.72906   2.74392   2.74708
 Alpha virt. eigenvalues --    2.75538   2.77770   2.78306   2.80927   2.84020
 Alpha virt. eigenvalues --    2.88952   2.92401   3.05265   3.40621   3.76746
 Alpha virt. eigenvalues --    3.81767   3.91255   3.95330   3.98456   4.01097
 Alpha virt. eigenvalues --    4.05830   4.08110   4.09194   4.12333   4.17373
 Alpha virt. eigenvalues --    4.20213   4.23058   4.23974   4.31002   4.34480
 Alpha virt. eigenvalues --    4.35474   4.44190   4.54373   4.69001   4.76795
          Condensed to atoms (all electrons):
               1          2          3          4          5          6
     1  C    4.985231   0.267190  -0.051193  -0.007767   0.001819   0.004465
     2  N    0.267190   7.226424   0.287634   0.136855  -0.055181  -0.056473
     3  C   -0.051193   0.287634   4.986378  -0.023672  -0.003025  -0.002014
     4  S   -0.007767   0.136855  -0.023672  13.560347   0.429870   0.446819
     5  O    0.001819  -0.055181  -0.003025   0.429870   8.247593  -0.043220
     6  O    0.004465  -0.056473  -0.002014   0.446819  -0.043220   8.223743
     7  N   -0.004427  -0.056486   0.002114   0.163154  -0.052164  -0.060140
     8  C    0.000022   0.003550  -0.000170  -0.003044  -0.003046   0.002471
     9  C   -0.000019  -0.000020   0.000001   0.000079  -0.000115  -0.000094
    10  S    0.000001   0.000032  -0.000001   0.000433   0.000160   0.000007
    11  O    0.000000   0.000000   0.000000  -0.000028   0.000000   0.000000
    12  O    0.000000   0.000000   0.000000  -0.000003   0.000000   0.000000
    13  C    0.000013  -0.001155   0.000017  -0.003332  -0.006352  -0.000085
    14  C    0.000409  -0.008866   0.000181  -0.007247  -0.000427  -0.000104
    15  C   -0.000030   0.000209   0.000001   0.000167  -0.000003   0.000000
    16  C    0.000002  -0.000004   0.000000  -0.000008   0.000000   0.000000
    17  C    0.000000  -0.000001   0.000000   0.000000   0.000000   0.000000
    18  C    0.000000   0.000000   0.000000   0.000000   0.000000   0.000000
    19  C    0.000000   0.000000   0.000000   0.000000   0.000000   0.000000
    20  C    0.000000  -0.000002   0.000000   0.000000   0.000000   0.000000
    21  C   -0.000008  -0.000022   0.000011  -0.000011   0.000000   0.000000
    22  H    0.373731  -0.035438  -0.004079   0.002456  -0.000052   0.000166
    23  H    0.377110  -0.043530  -0.002129  -0.007572  -0.000042   0.005966
    24  H    0.372045  -0.037324   0.005063   0.002055   0.000005  -0.002472
    25  H   -0.002777  -0.039833   0.374799   0.001524   0.000365  -0.000106
    26  H    0.004537  -0.030215   0.378765  -0.004403   0.011508  -0.000047
    27  H   -0.002553  -0.047532   0.371915  -0.002408  -0.000557   0.001791
    28  H   -0.000182   0.000266  -0.000028  -0.007626   0.001655   0.002772
    29  H    0.000000   0.000001   0.000000  -0.000041   0.000000   0.000000
    30  H    0.000000   0.000004   0.000000   0.000061  -0.000007  -0.000021
    31  H    0.000001   0.000004   0.000003  -0.000268  -0.000095   0.000000
    32  H   -0.000006  -0.000012  -0.000001  -0.002550   0.016194  -0.000087
    33  H   -0.002243   0.013201  -0.000118   0.001783  -0.000150   0.000004
    34  H   -0.000242   0.000127   0.000002  -0.000592   0.000006  -0.000004
    35  H    0.000004   0.000000   0.000000  -0.000008   0.000000   0.000000
    36  H    0.000000  -0.000005   0.000000   0.000001   0.000000   0.000000
    37  H    0.000000   0.000000   0.000000   0.000000   0.000000   0.000000
    38  H    0.000000   0.000000   0.000000   0.000000   0.000000   0.000000
    39  H    0.000000   0.000000   0.000000   0.000000   0.000000   0.000000
    40  H    0.000000   0.000000   0.000000   0.000000   0.000000   0.000000
    41  H    0.000010  -0.000016   0.000009   0.000001   0.000000   0.000000
               7          8          9         10         11         12
     1  C   -0.004427   0.000022  -0.000019   0.000001   0.000000   0.000000
     2  N   -0.056486   0.003550  -0.000020   0.000032   0.000000   0.000000
     3  C    0.002114  -0.000170   0.000001  -0.000001   0.000000   0.000000
     4  S    0.163154  -0.003044   0.000079   0.000433  -0.000028  -0.000003
     5  O   -0.052164  -0.003046  -0.000115   0.000160   0.000000   0.000000
     6  O   -0.060140   0.002471  -0.000094   0.000007   0.000000   0.000000
     7  N    7.364276   0.202588  -0.046599   0.006891  -0.000310  -0.000030
     8  C    0.202588   4.849472   0.348734  -0.101722   0.001378   0.001000
     9  C   -0.046599   0.348734   5.750918   0.123359  -0.044825  -0.043884
    10  S    0.006891  -0.101722   0.123359  13.871224   0.437791   0.391773
    11  O   -0.000310   0.001378  -0.044825   0.437791   8.193572  -0.043508
    12  O   -0.000030   0.001000  -0.043884   0.391773  -0.043508   8.261235
    13  C   -0.047041   0.359033  -0.195696   0.165382  -0.045434  -0.043153
    14  C   -0.059049   0.391093  -0.050384   0.003628  -0.000064  -0.000494
    15  C    0.004068  -0.029865  -0.004801  -0.000935  -0.000006  -0.000931
    16  C   -0.000036  -0.002889  -0.000084  -0.000795   0.000000  -0.000832
    17  C   -0.000008   0.000676  -0.000230   0.000770  -0.000005  -0.005009
    18  C    0.000000   0.000000  -0.000002   0.000081   0.000000   0.000088
    19  C    0.000000   0.000002   0.000000  -0.000003   0.000000  -0.000001
    20  C    0.000000  -0.000012   0.000000  -0.000001   0.000000   0.000000
    21  C   -0.000002  -0.000252  -0.000002  -0.000033   0.000000  -0.000007
    22  H   -0.000167   0.000026  -0.000001   0.000000   0.000000   0.000000
    23  H   -0.000215  -0.000008   0.000000   0.000000   0.000000   0.000000
    24  H    0.006930  -0.000924   0.000014  -0.000002   0.000000   0.000000
    25  H   -0.000076   0.000016   0.000000   0.000000   0.000000   0.000000
    26  H    0.000149  -0.000011   0.000000   0.000002   0.000000   0.000000
    27  H   -0.000109   0.000002   0.000000   0.000000   0.000000   0.000000
    28  H    0.292378  -0.025505  -0.006721  -0.000080   0.000006   0.000001
    29  H    0.002279  -0.027479   0.332573  -0.007798   0.000875  -0.000977
    30  H   -0.001699  -0.025548   0.335487  -0.003195   0.000107   0.000922
    31  H    0.002030  -0.027126   0.007998  -0.010579   0.000900  -0.001276
    32  H   -0.003397  -0.022152   0.006298  -0.005379   0.000395   0.000834
    33  H   -0.004672  -0.029856   0.004972  -0.000200   0.000001   0.000004
    34  H   -0.001066  -0.040307  -0.008004  -0.000018   0.000001   0.000004
    35  H   -0.000145   0.004319   0.000036   0.000099   0.000000   0.000028
    36  H    0.000114  -0.006561   0.001288   0.001921   0.000017   0.004794
    37  H    0.000000   0.000028   0.000109   0.000512   0.000013   0.014557
    38  H    0.000000   0.000001   0.000000   0.000007   0.000000   0.000002
    39  H    0.000000   0.000000   0.000000   0.000000   0.000000   0.000000
    40  H    0.000000   0.000000   0.000000   0.000000   0.000000   0.000000
    41  H    0.000002   0.000111   0.000001  -0.000001   0.000000   0.000000
              13         14         15         16         17         18
     1  C    0.000013   0.000409  -0.000030   0.000002   0.000000   0.000000
     2  N   -0.001155  -0.008866   0.000209  -0.000004  -0.000001   0.000000
     3  C    0.000017   0.000181   0.000001   0.000000   0.000000   0.000000
     4  S   -0.003332  -0.007247   0.000167  -0.000008   0.000000   0.000000
     5  O   -0.006352  -0.000427  -0.000003   0.000000   0.000000   0.000000
     6  O   -0.000085  -0.000104   0.000000   0.000000   0.000000   0.000000
     7  N   -0.047041  -0.059049   0.004068  -0.000036  -0.000008   0.000000
     8  C    0.359033   0.391093  -0.029865  -0.002889   0.000676   0.000000
     9  C   -0.195696  -0.050384  -0.004801  -0.000084  -0.000230  -0.000002
    10  S    0.165382   0.003628  -0.000935  -0.000795   0.000770   0.000081
    11  O   -0.045434  -0.000064  -0.000006   0.000000  -0.000005   0.000000
    12  O   -0.043153  -0.000494  -0.000931  -0.000832  -0.005009   0.000088
    13  C    5.721502  -0.044789  -0.003030  -0.002856  -0.007213  -0.000461
    14  C   -0.044789   5.141677   0.319355  -0.033417   0.000451  -0.000173
    15  C   -0.003030   0.319355   5.217481   0.349494  -0.052067   0.007376
    16  C   -0.002856  -0.033417   0.349494   4.656399   0.544773  -0.023580
    17  C   -0.007213   0.000451  -0.052067   0.544773   5.010640   0.512098
    18  C   -0.000461  -0.000173   0.007376  -0.023580   0.512098   4.877588
    19  C    0.000032   0.000010   0.000361  -0.034580  -0.035195   0.549597
    20  C    0.000076   0.000117   0.006244  -0.017272  -0.047523  -0.025294
    21  C    0.000053  -0.006430  -0.065674   0.543331  -0.040191  -0.047923
    22  H    0.000000   0.000285  -0.000016   0.000001   0.000000   0.000000
    23  H   -0.000001  -0.000032   0.000000   0.000000   0.000000   0.000000
    24  H    0.000030   0.001375   0.000024   0.000000   0.000000   0.000000
    25  H   -0.000004   0.000088  -0.000006   0.000002   0.000000   0.000000
    26  H    0.000045   0.000022  -0.000001   0.000001   0.000000   0.000000
    27  H   -0.000001  -0.000014   0.000000   0.000000   0.000000   0.000000
    28  H    0.005072  -0.000802  -0.000044   0.000002   0.000000   0.000000
    29  H    0.007916  -0.005639   0.000756   0.000252  -0.000014  -0.000001
    30  H    0.006623   0.002843   0.000078  -0.000009   0.000001   0.000000
    31  H    0.326877  -0.005745  -0.002706   0.009240   0.012098   0.000689
    32  H    0.331344   0.002134   0.000061   0.000012   0.000103   0.000004
    33  H   -0.004563   0.366884  -0.037643  -0.004418   0.000279  -0.000014
    34  H    0.005772   0.351040  -0.028293   0.003746  -0.000124   0.000003
    35  H   -0.000112  -0.032797   0.356219  -0.029503   0.002338  -0.000234
    36  H   -0.000518  -0.042389   0.363138  -0.032724  -0.003449   0.000237
    37  H   -0.000384   0.000289  -0.010974  -0.039301   0.349778  -0.040488
    38  H   -0.000012   0.000001  -0.000184   0.003618  -0.037936   0.358221
    39  H    0.000000   0.000000   0.000007   0.000678   0.004755  -0.042813
    40  H    0.000000   0.000000  -0.000188   0.003844   0.000767   0.004669
    41  H   -0.000021   0.000989  -0.009384  -0.049168   0.006308   0.000294
              19         20         21         22         23         24
     1  C    0.000000   0.000000  -0.000008   0.373731   0.377110   0.372045
     2  N    0.000000  -0.000002  -0.000022  -0.035438  -0.043530  -0.037324
     3  C    0.000000   0.000000   0.000011  -0.004079  -0.002129   0.005063
     4  S    0.000000   0.000000  -0.000011   0.002456  -0.007572   0.002055
     5  O    0.000000   0.000000   0.000000  -0.000052  -0.000042   0.000005
     6  O    0.000000   0.000000   0.000000   0.000166   0.005966  -0.002472
     7  N    0.000000   0.000000  -0.000002  -0.000167  -0.000215   0.006930
     8  C    0.000002  -0.000012  -0.000252   0.000026  -0.000008  -0.000924
     9  C    0.000000   0.000000  -0.000002  -0.000001   0.000000   0.000014
    10  S   -0.000003  -0.000001  -0.000033   0.000000   0.000000  -0.000002
    11  O    0.000000   0.000000   0.000000   0.000000   0.000000   0.000000
    12  O   -0.000001   0.000000  -0.000007   0.000000   0.000000   0.000000
    13  C    0.000032   0.000076   0.000053   0.000000  -0.000001   0.000030
    14  C    0.000010   0.000117  -0.006430   0.000285  -0.000032   0.001375
    15  C    0.000361   0.006244  -0.065674  -0.000016   0.000000   0.000024
    16  C   -0.034580  -0.017272   0.543331   0.000001   0.000000   0.000000
    17  C   -0.035195  -0.047523  -0.040191   0.000000   0.000000   0.000000
    18  C    0.549597  -0.025294  -0.047923   0.000000   0.000000   0.000000
    19  C    4.855068   0.547258  -0.035318   0.000000   0.000000   0.000000
    20  C    0.547258   4.863181   0.529433   0.000000   0.000000   0.000000
    21  C   -0.035318   0.529433   4.972498  -0.000004   0.000000   0.000001
    22  H    0.000000   0.000000  -0.000004   0.553194  -0.035586  -0.026621
    23  H    0.000000   0.000000   0.000000  -0.035586   0.550422  -0.032743
    24  H    0.000000   0.000000   0.000001  -0.026621  -0.032743   0.551592
    25  H    0.000000   0.000005   0.000029   0.005273  -0.001646   0.000067
    26  H    0.000000   0.000001   0.000006   0.000013  -0.000178  -0.000189
    27  H    0.000000   0.000000   0.000000  -0.001446   0.008471  -0.000255
    28  H    0.000000   0.000000   0.000000   0.000012   0.000019   0.001131
    29  H    0.000000   0.000000   0.000003   0.000000   0.000000  -0.000002
    30  H    0.000000   0.000000   0.000000   0.000000   0.000000  -0.000005
    31  H   -0.000075  -0.000290   0.000292   0.000000   0.000000   0.000000
    32  H   -0.000002  -0.000001  -0.000006   0.000001   0.000000   0.000000
    33  H   -0.000005  -0.000145   0.004743  -0.000384   0.000262  -0.000947
    34  H    0.000000   0.000004   0.000298   0.000001   0.000009   0.001815
    35  H    0.000032  -0.000012  -0.005379   0.000001   0.000000  -0.000009
    36  H   -0.000006  -0.000159   0.004283   0.000000   0.000000   0.000001
    37  H    0.004258   0.000336   0.005687   0.000000   0.000000   0.000000
    38  H   -0.043366   0.004514   0.000881   0.000000   0.000000   0.000000
    39  H    0.359753  -0.043394   0.004790   0.000000   0.000000   0.000000
    40  H   -0.042900   0.357057  -0.041253   0.000000   0.000000   0.000000
    41  H    0.004985  -0.045631   0.353152   0.000053   0.000000  -0.000001
              25         26         27         28         29         30
     1  C   -0.002777   0.004537  -0.002553  -0.000182   0.000000   0.000000
     2  N   -0.039833  -0.030215  -0.047532   0.000266   0.000001   0.000004
     3  C    0.374799   0.378765   0.371915  -0.000028   0.000000   0.000000
     4  S    0.001524  -0.004403  -0.002408  -0.007626  -0.000041   0.000061
     5  O    0.000365   0.011508  -0.000557   0.001655   0.000000  -0.000007
     6  O   -0.000106  -0.000047   0.001791   0.002772   0.000000  -0.000021
     7  N   -0.000076   0.000149  -0.000109   0.292378   0.002279  -0.001699
     8  C    0.000016  -0.000011   0.000002  -0.025505  -0.027479  -0.025548
     9  C    0.000000   0.000000   0.000000  -0.006721   0.332573   0.335487
    10  S    0.000000   0.000002   0.000000  -0.000080  -0.007798  -0.003195
    11  O    0.000000   0.000000   0.000000   0.000006   0.000875   0.000107
    12  O    0.000000   0.000000   0.000000   0.000001  -0.000977   0.000922
    13  C   -0.000004   0.000045  -0.000001   0.005072   0.007916   0.006623
    14  C    0.000088   0.000022  -0.000014  -0.000802  -0.005639   0.002843
    15  C   -0.000006  -0.000001   0.000000  -0.000044   0.000756   0.000078
    16  C    0.000002   0.000001   0.000000   0.000002   0.000252  -0.000009
    17  C    0.000000   0.000000   0.000000   0.000000  -0.000014   0.000001
    18  C    0.000000   0.000000   0.000000   0.000000  -0.000001   0.000000
    19  C    0.000000   0.000000   0.000000   0.000000   0.000000   0.000000
    20  C    0.000005   0.000001   0.000000   0.000000   0.000000   0.000000
    21  C    0.000029   0.000006   0.000000   0.000000   0.000003   0.000000
    22  H    0.005273   0.000013  -0.001446   0.000012   0.000000   0.000000
    23  H   -0.001646  -0.000178   0.008471   0.000019   0.000000   0.000000
    24  H    0.000067  -0.000189  -0.000255   0.001131  -0.000002  -0.000005
    25  H    0.561302  -0.020764  -0.042187  -0.000001   0.000000   0.000000
    26  H   -0.020764   0.479765  -0.029391  -0.000006   0.000000   0.000000
    27  H   -0.042187  -0.029391   0.580331   0.000002   0.000000   0.000000
    28  H   -0.000001  -0.000006   0.000002   0.375797   0.000191   0.002546
    29  H    0.000000   0.000000   0.000000   0.000191   0.503351  -0.019686
    30  H    0.000000   0.000000   0.000000   0.002546  -0.019686   0.484698
    31  H    0.000000   0.000008   0.000000  -0.000089  -0.000224  -0.000224
    32  H    0.000001   0.000041  -0.000002   0.000082  -0.000218  -0.000239
    33  H   -0.000274  -0.000060   0.000068  -0.000406   0.000241  -0.000094
    34  H   -0.000002  -0.000001   0.000000   0.003868   0.001881   0.000081
    35  H    0.000000   0.000000   0.000000  -0.000001  -0.000195   0.000003
    36  H    0.000000   0.000000   0.000000   0.000002   0.003992   0.000106
    37  H    0.000000   0.000000   0.000000   0.000000  -0.000004  -0.000001
    38  H    0.000000   0.000000   0.000000   0.000000   0.000000   0.000000
    39  H    0.000000   0.000000   0.000000   0.000000   0.000000   0.000000
    40  H    0.000000   0.000000   0.000000   0.000000   0.000000   0.000000
    41  H    0.000048  -0.000001   0.000000   0.000000   0.000000   0.000000
              31         32         33         34         35         36
     1  C    0.000001  -0.000006  -0.002243  -0.000242   0.000004   0.000000
     2  N    0.000004  -0.000012   0.013201   0.000127   0.000000  -0.000005
     3  C    0.000003  -0.000001  -0.000118   0.000002   0.000000   0.000000
     4  S   -0.000268  -0.002550   0.001783  -0.000592  -0.000008   0.000001
     5  O   -0.000095   0.016194  -0.000150   0.000006   0.000000   0.000000
     6  O    0.000000  -0.000087   0.000004  -0.000004   0.000000   0.000000
     7  N    0.002030  -0.003397  -0.004672  -0.001066  -0.000145   0.000114
     8  C   -0.027126  -0.022152  -0.029856  -0.040307   0.004319  -0.006561
     9  C    0.007998   0.006298   0.004972  -0.008004   0.000036   0.001288
    10  S   -0.010579  -0.005379  -0.000200  -0.000018   0.000099   0.001921
    11  O    0.000900   0.000395   0.000001   0.000001   0.000000   0.000017
    12  O   -0.001276   0.000834   0.000004   0.000004   0.000028   0.004794
    13  C    0.326877   0.331344  -0.004563   0.005772  -0.000112  -0.000518
    14  C   -0.005745   0.002134   0.366884   0.351040  -0.032797  -0.042389
    15  C   -0.002706   0.000061  -0.037643  -0.028293   0.356219   0.363138
    16  C    0.009240   0.000012  -0.004418   0.003746  -0.029503  -0.032724
    17  C    0.012098   0.000103   0.000279  -0.000124   0.002338  -0.003449
    18  C    0.000689   0.000004  -0.000014   0.000003  -0.000234   0.000237
    19  C   -0.000075  -0.000002  -0.000005   0.000000   0.000032  -0.000006
    20  C   -0.000290  -0.000001  -0.000145   0.000004  -0.000012  -0.000159
    21  C    0.000292  -0.000006   0.004743   0.000298  -0.005379   0.004283
    22  H    0.000000   0.000001  -0.000384   0.000001   0.000001   0.000000
    23  H    0.000000   0.000000   0.000262   0.000009   0.000000   0.000000
    24  H    0.000000   0.000000  -0.000947   0.001815  -0.000009   0.000001
    25  H    0.000000   0.000001  -0.000274  -0.000002   0.000000   0.000000
    26  H    0.000008   0.000041  -0.000060  -0.000001   0.000000   0.000000
    27  H    0.000000  -0.000002   0.000068   0.000000   0.000000   0.000000
    28  H   -0.000089   0.000082  -0.000406   0.003868  -0.000001   0.000002
    29  H   -0.000224  -0.000218   0.000241   0.001881  -0.000195   0.003992
    30  H   -0.000224  -0.000239  -0.000094   0.000081   0.000003   0.000106
    31  H    0.474967  -0.013395   0.001159   0.000153   0.000121   0.000016
    32  H   -0.013395   0.424161   0.000061  -0.000103   0.000002   0.000001
    33  H    0.001159   0.000061   0.527577  -0.033822   0.000561   0.004084
    34  H    0.000153  -0.000103  -0.033822   0.625905  -0.008471   0.000358
    35  H    0.000121   0.000002   0.000561  -0.008471   0.583414  -0.031638
    36  H    0.000016   0.000001   0.004084   0.000358  -0.031638   0.560555
    37  H   -0.000462   0.000015   0.000012  -0.000014   0.000131   0.005570
    38  H    0.000032   0.000000   0.000000   0.000000   0.000003  -0.000008
    39  H    0.000000   0.000000   0.000000   0.000000   0.000000   0.000000
    40  H   -0.000001   0.000000   0.000009   0.000000  -0.000004   0.000003
    41  H    0.000039   0.000000   0.002874  -0.000200   0.003034   0.000040
              37         38         39         40         41
     1  C    0.000000   0.000000   0.000000   0.000000   0.000010
     2  N    0.000000   0.000000   0.000000   0.000000  -0.000016
     3  C    0.000000   0.000000   0.000000   0.000000   0.000009
     4  S    0.000000   0.000000   0.000000   0.000000   0.000001
     5  O    0.000000   0.000000   0.000000   0.000000   0.000000
     6  O    0.000000   0.000000   0.000000   0.000000   0.000000
     7  N    0.000000   0.000000   0.000000   0.000000   0.000002
     8  C    0.000028   0.000001   0.000000   0.000000   0.000111
     9  C    0.000109   0.000000   0.000000   0.000000   0.000001
    10  S    0.000512   0.000007   0.000000   0.000000  -0.000001
    11  O    0.000013   0.000000   0.000000   0.000000   0.000000
    12  O    0.014557   0.000002   0.000000   0.000000   0.000000
    13  C   -0.000384  -0.000012   0.000000   0.000000  -0.000021
    14  C    0.000289   0.000001   0.000000   0.000000   0.000989
    15  C   -0.010974  -0.000184   0.000007  -0.000188  -0.009384
    16  C   -0.039301   0.003618   0.000678   0.003844  -0.049168
    17  C    0.349778  -0.037936   0.004755   0.000767   0.006308
    18  C   -0.040488   0.358221  -0.042813   0.004669   0.000294
    19  C    0.004258  -0.043366   0.359753  -0.042900   0.004985
    20  C    0.000336   0.004514  -0.043394   0.357057  -0.045631
    21  C    0.005687   0.000881   0.004790  -0.041253   0.353152
    22  H    0.000000   0.000000   0.000000   0.000000   0.000053
    23  H    0.000000   0.000000   0.000000   0.000000   0.000000
    24  H    0.000000   0.000000   0.000000   0.000000  -0.000001
    25  H    0.000000   0.000000   0.000000   0.000000   0.000048
    26  H    0.000000   0.000000   0.000000   0.000000  -0.000001
    27  H    0.000000   0.000000   0.000000   0.000000   0.000000
    28  H    0.000000   0.000000   0.000000   0.000000   0.000000
    29  H   -0.000004   0.000000   0.000000   0.000000   0.000000
    30  H   -0.000001   0.000000   0.000000   0.000000   0.000000
    31  H   -0.000462   0.000032   0.000000  -0.000001   0.000039
    32  H    0.000015   0.000000   0.000000   0.000000   0.000000
    33  H    0.000012   0.000000   0.000000   0.000009   0.002874
    34  H   -0.000014   0.000000   0.000000   0.000000  -0.000200
    35  H    0.000131   0.000003   0.000000  -0.000004   0.003034
    36  H    0.005570  -0.000008   0.000000   0.000003   0.000040
    37  H    0.532945  -0.004658  -0.000156   0.000015  -0.000164
    38  H   -0.004658   0.585650  -0.005488  -0.000187   0.000018
    39  H   -0.000156  -0.005488   0.595529  -0.005565  -0.000184
    40  H    0.000015  -0.000187  -0.005565   0.601168  -0.005900
    41  H   -0.000164   0.000018  -0.000184  -0.005900   0.622411
 Mulliken charges:
               1
     1  C   -0.315142
     2  N   -0.523383
     3  C   -0.320464
     4  S    1.324977
     5  O   -0.544740
     6  O   -0.523336
     7  N   -0.709135
     8  C    0.181954
     9  C   -0.510388
    10  S    1.126672
    11  O   -0.500877
    12  O   -0.535137
    13  C   -0.523575
    14  C   -0.284008
    15  C   -0.378257
    16  C    0.156081
    17  C   -0.216872
    18  C   -0.129962
    19  C   -0.129905
    20  C   -0.128489
    21  C   -0.176974
    22  H    0.168582
    23  H    0.181424
    24  H    0.159346
    25  H    0.164157
    26  H    0.210404
    27  H    0.163873
    28  H    0.355691
    29  H    0.207964
    30  H    0.217167
    31  H    0.225931
    32  H    0.265805
    33  H    0.191236
    34  H    0.126188
    35  H    0.158162
    36  H    0.166936
    37  H    0.182350
    38  H    0.138891
    39  H    0.132091
    40  H    0.128466
    41  H    0.116293
 Sum of Mulliken charges =   0.00000
 Mulliken charges with hydrogens summed into heavy atoms:
               1
     1  C    0.194210
     2  N   -0.523383
     3  C    0.217970
     4  S    1.324977
     5  O   -0.544740
     6  O   -0.523336
     7  N   -0.353443
     8  C    0.181954
     9  C   -0.085256
    10  S    1.126672
    11  O   -0.500877
    12  O   -0.535137
    13  C   -0.031839
    14  C    0.033416
    15  C   -0.053159
    16  C    0.156081
    17  C   -0.034522
    18  C    0.008930
    19  C    0.002186
    20  C   -0.000023
    21  C   -0.060681
 Electronic spatial extent (au):  <R**2>=           7185.1310
 Charge=              0.0000 electrons
 Dipole moment (field-independent basis, Debye):
    X=             -0.4272    Y=             -6.2662    Z=              4.9712  Tot=              8.0100
 Quadrupole moment (field-independent basis, Debye-Ang):
   XX=           -152.8816   YY=           -143.8428   ZZ=           -133.4684
   XY=              1.1094   XZ=            -11.7508   YZ=             10.6392
 Traceless Quadrupole moment (field-independent basis, Debye-Ang):
   XX=             -9.4840   YY=             -0.4452   ZZ=              9.9292
   XY=              1.1094   XZ=            -11.7508   YZ=             10.6392
 Octapole moment (field-independent basis, Debye-Ang**2):
  XXX=             20.1830  YYY=            -87.8255  ZZZ=              8.0131  XYY=            -50.5682
  XXY=            -34.8526  XXZ=             -4.6715  XZZ=             -7.4694  YZZ=              6.4290
  YYZ=             23.6088  XYZ=              3.4950
 Hexadecapole moment (field-independent basis, Debye-Ang**3):
 XXXX=          -5375.4581 YYYY=          -3483.7620 ZZZZ=           -954.3628 XXXY=            103.8390
 XXXZ=           -161.4108 YYYX=            -17.5339 YYYZ=            129.4178 ZZZX=            -20.3804
 ZZZY=              5.5392 XXYY=          -1371.0692 XXZZ=           -965.9569 YYZZ=           -699.8301
 XXYZ=             52.8616 YYXZ=            -23.1738 ZZXY=             18.0591
 N-N= 2.218670306346D+03 E-N=-8.462998868359D+03  KE= 1.702516939533D+03
 No NMR shielding tensors so no spin-rotation constants.
 Leave Link  601 at Fri Oct  2 06:20:00 2020, MaxMem=  2147483648 cpu:         0.8
 (Enter /prod/apps/gaussian/g09d1/l9999.exe)
 1\1\GINC-PIRINEUS42\SP\RB3LYP\6-31G(d)\C13H20N2O4S2\UBAFAR01\02-Oct-20
 20\0\\#p b3lyp/6-31G(d)\\SM40.n.6.pdb.xyz\\0,1\C,0,6.166,0.789,-0.269\
 N,0,5.678,0.025,0.886\C,0,5.902,0.703,2.174\S,0,4.119,-0.603,0.68\O,0,
 3.709,-1.08,2.001\O,0,3.268,0.322,-0.073\N,0,4.27,-1.922,-0.331\C,0,5.
 106,-3.119,-0.097\C,0,4.528,-4.25,-1.016\S,0,4.081,-5.247,0.447\O,0,2.
 628,-5.4,0.623\O,0,4.952,-6.429,0.588\C,0,4.765,-3.777,1.287\C,0,6.599
 ,-2.839,-0.364\C,0,7.587,-4.014,-0.18\C,0,8.127,-4.208,1.224\C,0,7.824
 ,-5.359,1.962\C,0,8.341,-5.543,3.246\C,0,9.173,-4.577,3.812\C,0,9.484,
 -3.426,3.085\C,0,8.967,-3.245,1.804\H,0,7.235,0.96,-0.124\H,0,5.656,1.
 752,-0.379\H,0,6.036,0.211,-1.185\H,0,6.979,0.842,2.282\H,0,5.538,0.07
 1,2.981\H,0,5.411,1.683,2.224\H,0,4.205,-1.633,-1.305\H,0,5.258,-4.755
 ,-1.648\H,0,3.648,-3.958,-1.586\H,0,5.624,-4.028,1.909\H,0,4.007,-3.23
 9,1.853\H,0,6.899,-1.999,0.267\H,0,6.663,-2.492,-1.402\H,0,8.432,-3.82
 2,-0.852\H,0,7.141,-4.952,-0.526\H,0,7.165,-6.105,1.526\H,0,8.092,-6.4
 42,3.801\H,0,9.577,-4.719,4.809\H,0,10.135,-2.671,3.514\H,0,9.225,-2.3
 51,1.243\\Version=AM64L-G09RevD.01\State=1-A\HF=-1714.0340693\RMSD=3.8
 07e-09\Dipole=2.5190357,1.6214488,-0.9780902\Quadrupole=-10.5356688,-3
 .8005397,14.3362085,4.0667368,3.0888912,-0.4121742\PG=C01 [X(C13H20N2O
 4S2)]\\@


 A MUSTACHE HAIR ACROSS A CHIP IS LIKE A REDWOOD
 TREE FALLING THROUGH A HOUSING PROJECT.
 - AN IBM MANAGER IN EAST FISHKILL, NEW YORK
[...]
    12  O   -0.043186  -0.000478  -0.000888  -0.000773  -0.004982   0.000079
    13  C    5.724627  -0.044791  -0.003125  -0.002834  -0.007303  -0.000465
    14  C   -0.044791   5.131740   0.320970  -0.033266   0.000476  -0.000177
    15  C   -0.003125   0.320970   5.210183   0.349272  -0.052071   0.007308
    16  C   -0.002834  -0.033266   0.349272   4.664047   0.544375  -0.023584
    17  C   -0.007303   0.000476  -0.052071   0.544375   5.017716   0.510245
    18  C   -0.000465  -0.000177   0.007308  -0.023584   0.510245   4.891095
    19  C    0.000034   0.000010   0.000343  -0.034652  -0.036175   0.548624
    20  C    0.000076   0.000114   0.006102  -0.018565  -0.046938  -0.026717
    21  C    0.000048  -0.006387  -0.064633   0.542466  -0.041429  -0.047902
    22  H    0.000000   0.000259  -0.000015   0.000001   0.000000   0.000000
    23  H   -0.000001  -0.000032   0.000000   0.000000   0.000000   0.000000
    24  H    0.000028   0.001419   0.000022   0.000000   0.000000   0.000000
    25  H   -0.000004   0.000084  -0.000005   0.000002   0.000000   0.000000
    26  H    0.000044   0.000022  -0.000001   0.000001   0.000000   0.000000
    27  H   -0.000001  -0.000013   0.000000   0.000000   0.000000   0.000000
    28  H    0.004656  -0.000545  -0.000039   0.000002   0.000000   0.000000
    29  H    0.007713  -0.005248   0.000639   0.000233  -0.000013   0.000000
    30  H    0.006582   0.002666   0.000075  -0.000009   0.000001   0.000000
    31  H    0.327248  -0.005636  -0.002594   0.009203   0.012618   0.000730
    32  H    0.329893   0.002163   0.000057   0.000017   0.000105   0.000004
    33  H   -0.004638   0.367354  -0.037584  -0.004789   0.000272  -0.000012
    34  H    0.005579   0.359027  -0.027433   0.003632  -0.000118   0.000003
    35  H   -0.000114  -0.031282   0.360001  -0.029471   0.002361  -0.000228
    36  H   -0.000536  -0.042145   0.363093  -0.034475  -0.003690   0.000257
    37  H   -0.000445   0.000301  -0.011080  -0.040026   0.349960  -0.042613
    38  H   -0.000012   0.000001  -0.000179   0.003654  -0.038868   0.359089
    39  H    0.000000   0.000000   0.000007   0.000651   0.004685  -0.042630
    40  H    0.000000   0.000000  -0.000181   0.003744   0.000757   0.004602
    41  H   -0.000020   0.000947  -0.008749  -0.047592   0.006103   0.000302
              19         20         21         22         23         24
     1  C    0.000000   0.000000  -0.000008   0.376515   0.377421   0.373533
     2  N    0.000000  -0.000002  -0.000021  -0.034231  -0.043728  -0.036841
     3  C    0.000000   0.000000   0.000011  -0.004048  -0.002211   0.004891
     4  S    0.000000   0.000000  -0.000011   0.002405  -0.008313   0.002643
     5  O    0.000000   0.000000   0.000000  -0.000051  -0.000043   0.000005
     6  O    0.000000   0.000000   0.000000   0.000154   0.005949  -0.002463
     7  N    0.000000   0.000000  -0.000002  -0.000159  -0.000222   0.006481
     8  C    0.000002  -0.000012  -0.000262   0.000026  -0.000005  -0.000912
     9  C    0.000000   0.000000   0.000000  -0.000001   0.000000   0.000013
    10  S   -0.000003  -0.000002  -0.000027   0.000000   0.000000  -0.000002
    11  O    0.000000   0.000000   0.000000   0.000000   0.000000   0.000000
    12  O   -0.000001   0.000000  -0.000007   0.000000   0.000000   0.000000
    13  C    0.000034   0.000076   0.000048   0.000000  -0.000001   0.000028
    14  C    0.000010   0.000114  -0.006387   0.000259  -0.000032   0.001419
    15  C    0.000343   0.006102  -0.064633  -0.000015   0.000000   0.000022
    16  C   -0.034652  -0.018565   0.542466   0.000001   0.000000   0.000000
    17  C   -0.036175  -0.046938  -0.041429   0.000000   0.000000   0.000000
    18  C    0.548624  -0.026717  -0.047902   0.000000   0.000000   0.000000
    19  C    4.867226   0.545440  -0.036179   0.000000   0.000000   0.000000
    20  C    0.545440   4.872005   0.528080   0.000000   0.000000   0.000000
    21  C   -0.036179   0.528080   4.977347  -0.000004   0.000000   0.000001
    22  H    0.000000   0.000000  -0.000004   0.531957  -0.033807  -0.025030
    23  H    0.000000   0.000000   0.000000  -0.033807   0.550330  -0.032113
    24  H    0.000000   0.000000   0.000001  -0.025030  -0.032113   0.534183
    25  H    0.000000   0.000005   0.000028   0.004975  -0.001577   0.000063
    26  H    0.000000   0.000001   0.000006   0.000021  -0.000171  -0.000189
    27  H    0.000000   0.000000   0.000000  -0.001365   0.008242  -0.000238
    28  H    0.000000   0.000000   0.000000   0.000008   0.000020   0.000961
    29  H    0.000000   0.000000   0.000003   0.000000   0.000000  -0.000002
    30  H    0.000000   0.000000   0.000000   0.000000   0.000000  -0.000005
    31  H   -0.000086  -0.000290   0.000297   0.000000   0.000000   0.000000
    32  H   -0.000002  -0.000001  -0.000006   0.000001   0.000000   0.000000
    33  H   -0.000005  -0.000142   0.004837  -0.000356   0.000252  -0.000920
    34  H    0.000000   0.000004   0.000277   0.000000   0.000008   0.001611
    35  H    0.000030  -0.000001  -0.005426   0.000001   0.000000  -0.000008
    36  H   -0.000006  -0.000164   0.004351   0.000000   0.000000   0.000001
    37  H    0.004402   0.000289   0.005894   0.000000   0.000000   0.000000
    38  H   -0.042618   0.004518   0.000821   0.000000   0.000000   0.000000
    39  H    0.361422  -0.042602   0.004719   0.000000   0.000000   0.000000
    40  H   -0.042487   0.359149  -0.039925   0.000000   0.000000   0.000000
    41  H    0.004823  -0.043971   0.356211   0.000049   0.000000  -0.000001
              25         26         27         28         29         30
     1  C   -0.002559   0.004506  -0.002290  -0.000140   0.000000   0.000000
     2  N   -0.038562  -0.030991  -0.047397   0.000180   0.000001   0.000004
     3  C    0.377609   0.378042   0.372542  -0.000022   0.000000   0.000000
     4  S    0.001542  -0.004686  -0.002658  -0.007091  -0.000036   0.000121
     5  O    0.000343   0.011044  -0.000539   0.001473   0.000000  -0.000006
     6  O   -0.000104  -0.000046   0.001772   0.002293   0.000000  -0.000021
     7  N   -0.000078   0.000151  -0.000109   0.294633   0.002176  -0.001332
     8  C    0.000015  -0.000014   0.000003  -0.023021  -0.027027  -0.025534
     9  C    0.000000   0.000000   0.000000  -0.006437   0.337075   0.337700
    10  S    0.000000   0.000002   0.000000  -0.000119  -0.009004  -0.004136
    11  O    0.000000   0.000000   0.000000   0.000004   0.000859   0.000068
    12  O    0.000000   0.000000   0.000000   0.000001  -0.001046   0.000918
    13  C   -0.000004   0.000044  -0.000001   0.004656   0.007713   0.006582
    14  C    0.000084   0.000022  -0.000013  -0.000545  -0.005248   0.002666
    15  C   -0.000005  -0.000001   0.000000  -0.000039   0.000639   0.000075
    16  C    0.000002   0.000001   0.000000   0.000002   0.000233  -0.000009
    17  C    0.000000   0.000000   0.000000   0.000000  -0.000013   0.000001
    18  C    0.000000   0.000000   0.000000   0.000000   0.000000   0.000000
    19  C    0.000000   0.000000   0.000000   0.000000   0.000000   0.000000
    20  C    0.000005   0.000001   0.000000   0.000000   0.000000   0.000000
    21  C    0.000028   0.000006   0.000000   0.000000   0.000003   0.000000
    22  H    0.004975   0.000021  -0.001365   0.000008   0.000000   0.000000
    23  H   -0.001577  -0.000171   0.008242   0.000020   0.000000   0.000000
    24  H    0.000063  -0.000189  -0.000238   0.000961  -0.000002  -0.000005
    25  H    0.541303  -0.020532  -0.039889  -0.000001   0.000000   0.000000
    26  H   -0.020532   0.489925  -0.030132  -0.000006   0.000000   0.000000
    27  H   -0.039889  -0.030132   0.575182   0.000002   0.000000   0.000000
    28  H   -0.000001  -0.000006   0.000002   0.342418   0.000175   0.002215
    29  H    0.000000   0.000000   0.000000   0.000175   0.479752  -0.016730
    30  H    0.000000   0.000000   0.000000   0.002215  -0.016730   0.468125
    31  H    0.000000   0.000008   0.000000  -0.000078  -0.000217  -0.000213
    32  H    0.000001   0.000043  -0.000002   0.000088  -0.000210  -0.000249
    33  H   -0.000255  -0.000060   0.000065  -0.000374   0.000224  -0.000087
    34  H   -0.000002  -0.000001   0.000000   0.003309   0.001707   0.000068
    35  H    0.000000   0.000000   0.000000  -0.000001  -0.000179   0.000003
    36  H    0.000000   0.000000   0.000000   0.000001   0.004064   0.000104
    37  H    0.000000   0.000000   0.000000   0.000000  -0.000007  -0.000001
    38  H    0.000000   0.000000   0.000000   0.000000   0.000000   0.000000
    39  H    0.000000   0.000000   0.000000   0.000000   0.000000   0.000000
    40  H    0.000000   0.000000   0.000000   0.000000   0.000000   0.000000
    41  H    0.000045  -0.000001   0.000000   0.000000   0.000000   0.000000
              31         32         33         34         35         36
     1  C    0.000001  -0.000005  -0.002364  -0.000168   0.000004   0.000000
     2  N    0.000004  -0.000021   0.012708   0.000116   0.000000  -0.000005
     3  C    0.000003  -0.000001  -0.000133   0.000002   0.000000   0.000000
     4  S   -0.000250  -0.002284   0.001848  -0.000563  -0.000007   0.000001
     5  O   -0.000098   0.016744  -0.000151   0.000006   0.000000   0.000000
     6  O    0.000000  -0.000090   0.000004  -0.000003   0.000000   0.000000
     7  N    0.002017  -0.003604  -0.004786  -0.001099  -0.000139   0.000110
     8  C   -0.026476  -0.022567  -0.030582  -0.038876   0.004204  -0.006884
     9  C    0.007701   0.006314   0.004935  -0.007750   0.000035   0.001565
    10  S   -0.010434  -0.005020  -0.000202  -0.000037   0.000084   0.001758
    11  O    0.000887   0.000396   0.000001   0.000001   0.000000   0.000017
    12  O   -0.001411   0.000858   0.000004   0.000004   0.000027   0.004418
    13  C    0.327248   0.329893  -0.004638   0.005579  -0.000114  -0.000536
    14  C   -0.005636   0.002163   0.367354   0.359027  -0.031282  -0.042145
    15  C   -0.002594   0.000057  -0.037584  -0.027433   0.360001   0.363093
    16  C    0.009203   0.000017  -0.004789   0.003632  -0.029471  -0.034475
    17  C    0.012618   0.000105   0.000272  -0.000118   0.002361  -0.003690
    18  C    0.000730   0.000004  -0.000012   0.000003  -0.000228   0.000257
    19  C   -0.000086  -0.000002  -0.000005   0.000000   0.000030  -0.000006
    20  C   -0.000290  -0.000001  -0.000142   0.000004  -0.000001  -0.000164
    21  C    0.000297  -0.000006   0.004837   0.000277  -0.005426   0.004351
    22  H    0.000000   0.000001  -0.000356   0.000000   0.000001   0.000000
    23  H    0.000000   0.000000   0.000252   0.000008   0.000000   0.000000
    24  H    0.000000   0.000000  -0.000920   0.001611  -0.000008   0.000001
    25  H    0.000000   0.000001  -0.000255  -0.000002   0.000000   0.000000
    26  H    0.000008   0.000043  -0.000060  -0.000001   0.000000   0.000000
    27  H    0.000000  -0.000002   0.000065   0.000000   0.000000   0.000000
    28  H   -0.000078   0.000088  -0.000374   0.003309  -0.000001   0.000001
    29  H   -0.000217  -0.000210   0.000224   0.001707  -0.000179   0.004064
    30  H   -0.000213  -0.000249  -0.000087   0.000068   0.000003   0.000104
    31  H    0.469078  -0.013018   0.001156   0.000143   0.000114   0.000032
    32  H   -0.013018   0.433017   0.000055  -0.000099   0.000002  -0.000001
    33  H    0.001156   0.000055   0.525725  -0.031911   0.000516   0.004141
    34  H    0.000143  -0.000099  -0.031911   0.589633  -0.008146   0.000291
    35  H    0.000114   0.000002   0.000516  -0.008146   0.565842  -0.030985
    36  H    0.000032  -0.000001   0.004141   0.000291  -0.030985   0.565719
    37  H   -0.000454   0.000016   0.000013  -0.000014   0.000118   0.005587
    38  H    0.000033   0.000000   0.000000   0.000000   0.000003  -0.000008
    39  H    0.000000   0.000000   0.000000   0.000000   0.000000   0.000000
    40  H   -0.000001   0.000000   0.000008   0.000000  -0.000003   0.000003
    41  H    0.000037   0.000000   0.002766  -0.000185   0.002829   0.000041
              37         38         39         40         41
     1  C    0.000000   0.000000   0.000000   0.000000   0.000011
     2  N    0.000000   0.000000   0.000000   0.000000  -0.000015
     3  C    0.000000   0.000000   0.000000   0.000000   0.000010
     4  S    0.000000   0.000000   0.000000   0.000000   0.000001
     5  O    0.000000   0.000000   0.000000   0.000000   0.000000
     6  O    0.000000   0.000000   0.000000   0.000000   0.000000
     7  N    0.000000   0.000000   0.000000   0.000000   0.000002
     8  C    0.000028   0.000001   0.000000   0.000000   0.000102
     9  C    0.000097   0.000000   0.000000   0.000000   0.000001
    10  S    0.000619   0.000006   0.000000   0.000000  -0.000001
    11  O    0.000013   0.000000   0.000000   0.000000   0.000000
    12  O    0.014001   0.000001   0.000000   0.000000   0.000000
    13  C   -0.000445  -0.000012   0.000000   0.000000  -0.000020
    14  C    0.000301   0.000001   0.000000   0.000000   0.000947
    15  C   -0.011080  -0.000179   0.000007  -0.000181  -0.008749
    16  C   -0.040026   0.003654   0.000651   0.003744  -0.047592
    17  C    0.349960  -0.038868   0.004685   0.000757   0.006103
    18  C   -0.042613   0.359089  -0.042630   0.004602   0.000302
    19  C    0.004402  -0.042618   0.361422  -0.042487   0.004823
    20  C    0.000289   0.004518  -0.042602   0.359149  -0.043971
    21  C    0.005894   0.000821   0.004719  -0.039925   0.356211
    22  H    0.000000   0.000000   0.000000   0.000000   0.000049
    23  H    0.000000   0.000000   0.000000   0.000000   0.000000
    24  H    0.000000   0.000000   0.000000   0.000000  -0.000001
    25  H    0.000000   0.000000   0.000000   0.000000   0.000045
    26  H    0.000000   0.000000   0.000000   0.000000  -0.000001
    27  H    0.000000   0.000000   0.000000   0.000000   0.000000
    28  H    0.000000   0.000000   0.000000   0.000000   0.000000
    29  H   -0.000007   0.000000   0.000000   0.000000   0.000000
    30  H   -0.000001   0.000000   0.000000   0.000000   0.000000
    31  H   -0.000454   0.000033   0.000000  -0.000001   0.000037
    32  H    0.000016   0.000000   0.000000   0.000000   0.000000
    33  H    0.000013   0.000000   0.000000   0.000008   0.002766
    34  H   -0.000014   0.000000   0.000000   0.000000  -0.000185
    35  H    0.000118   0.000003   0.000000  -0.000003   0.002829
    36  H    0.005587  -0.000008   0.000000   0.000003   0.000041
    37  H    0.547204  -0.004761  -0.000156   0.000015  -0.000163
    38  H   -0.004761   0.581906  -0.005383  -0.000182   0.000017
    39  H   -0.000156  -0.005383   0.584562  -0.005363  -0.000177
    40  H    0.000015  -0.000182  -0.005363   0.585480  -0.005580
    41  H   -0.000163   0.000017  -0.000177  -0.005580   0.599883
 Mulliken charges:
               1
     1  C   -0.323459
     2  N   -0.523845
     3  C   -0.322591
     4  S    1.316782
     5  O   -0.559682
     6  O   -0.540710
     7  N   -0.720688
     8  C    0.180853
     9  C   -0.506243
    10  S    1.116811
    11  O   -0.528889
    12  O   -0.548928
    13  C   -0.520208
    14  C   -0.288820
    15  C   -0.378697
    16  C    0.152564
    17  C   -0.219243
    18  C   -0.138074
    19  C   -0.140144
    20  C   -0.136376
    21  C   -0.183167
    22  H    0.182694
    23  H    0.180002
    24  H    0.172867
    25  H    0.177553
    26  H    0.203014
    27  H    0.166825
    28  H    0.385437
    29  H    0.225097
    30  H    0.229673
    31  H    0.229945
    32  H    0.257407
    33  H    0.192466
    34  H    0.150985
    35  H    0.169815
    36  H    0.163348
    37  H    0.171163
    38  H    0.141959
    39  H    0.140266
    40  H    0.139964
    41  H    0.132275
 Sum of Mulliken charges =   0.00000
 Mulliken charges with hydrogens summed into heavy atoms:
               1
     1  C    0.212105
     2  N   -0.523845
     3  C    0.224801
     4  S    1.316782
     5  O   -0.559682
     6  O   -0.540710
     7  N   -0.335251
     8  C    0.180853
     9  C   -0.051473
    10  S    1.116811
    11  O   -0.528889
    12  O   -0.548928
    13  C   -0.032855
    14  C    0.054631
    15  C   -0.045534
    16  C    0.152564
    17  C   -0.048080
    18  C    0.003885
    19  C    0.000121
    20  C    0.003587
    21  C   -0.050892
 Electronic spatial extent (au):  <R**2>=           7186.0694
 Charge=              0.0000 electrons
 Dipole moment (field-independent basis, Debye):
    X=             -0.7334    Y=             -7.3110    Z=              6.2988  Tot=              9.6780
 Quadrupole moment (field-independent basis, Debye-Ang):
   XX=           -155.3714   YY=           -143.9226   ZZ=           -132.1611
   XY=              0.8628   XZ=            -13.1654   YZ=             11.7205
 Traceless Quadrupole moment (field-independent basis, Debye-Ang):
   XX=            -11.5530   YY=             -0.1043   ZZ=             11.6573
   XY=              0.8628   XZ=            -13.1654   YZ=             11.7205
 Octapole moment (field-independent basis, Debye-Ang**2):
  XXX=             20.4549  YYY=           -105.7472  ZZZ=             15.3976  XYY=            -54.5997
  XXY=            -39.6103  XXZ=             -0.0125  XZZ=             -7.5447  YZZ=              5.2071
  YYZ=             29.5300  XYZ=              3.9895
 Hexadecapole moment (field-independent basis, Debye-Ang**3):
 XXXX=          -5429.8271 YYYY=          -3492.1151 ZZZZ=           -942.3065 XXXY=            106.5298
 XXXZ=           -176.2706 YYYX=            -24.6117 YYYZ=            144.7671 ZZZX=            -26.2884
 ZZZY=              8.3310 XXYY=          -1365.2183 XXZZ=           -963.0524 YYZZ=           -695.9440
 XXYZ=             54.4086 YYXZ=            -26.3024 ZZXY=             17.5958
 N-N= 2.218654978291D+03 E-N=-8.463192676043D+03  KE= 1.702529811429D+03
 No NMR shielding tensors so no spin-rotation constants.
 Leave Link  601 at Fri Oct  2 06:25:04 2020, MaxMem=  2147483648 cpu:         0.5
 (Enter /prod/apps/gaussian/g09d1/l9999.exe)
 1\1\GINC-PIRINEUS42\SP\RB3LYP\6-31G(d)\C13H20N2O4S2\UBAFAR01\02-Oct-20
 20\0\\#p b3lyp/6-31G(d) scrf=(iefpcm,read,solvent=n-Octanol) geom=allc
 heck guess=read\\SM40.n.6.pdb.xyz\\0,1\C,0,6.166,0.789,-0.269\N,0,5.67
 8,0.025,0.886\C,0,5.902,0.703,2.174\S,0,4.119,-0.603,0.68\O,0,3.709,-1
 .08,2.001\O,0,3.268,0.322,-0.073\N,0,4.27,-1.922,-0.331\C,0,5.106,-3.1
 19,-0.097\C,0,4.528,-4.25,-1.016\S,0,4.081,-5.247,0.447\O,0,2.628,-5.4
 ,0.623\O,0,4.952,-6.429,0.588\C,0,4.765,-3.777,1.287\C,0,6.599,-2.839,
 -0.364\C,0,7.587,-4.014,-0.18\C,0,8.127,-4.208,1.224\C,0,7.824,-5.359,
 1.962\C,0,8.341,-5.543,3.246\C,0,9.173,-4.577,3.812\C,0,9.484,-3.426,3
 .085\C,0,8.967,-3.245,1.804\H,0,7.235,0.96,-0.124\H,0,5.656,1.752,-0.3
 79\H,0,6.036,0.211,-1.185\H,0,6.979,0.842,2.282\H,0,5.538,0.071,2.981\
 H,0,5.411,1.683,2.224\H,0,4.205,-1.633,-1.305\H,0,5.258,-4.755,-1.648\
 H,0,3.648,-3.958,-1.586\H,0,5.624,-4.028,1.909\H,0,4.007,-3.239,1.853\
 H,0,6.899,-1.999,0.267\H,0,6.663,-2.492,-1.402\H,0,8.432,-3.822,-0.852
 \H,0,7.141,-4.952,-0.526\H,0,7.165,-6.105,1.526\H,0,8.092,-6.442,3.801
 \H,0,9.577,-4.719,4.809\H,0,10.135,-2.671,3.514\H,0,9.225,-2.351,1.243
 \\Version=AM64L-G09RevD.01\State=1-A\HF=-1714.0643298\RMSD=5.528e-09\D
 ipole=2.9724223,1.9645858,-1.3427646\Quadrupole=-11.4719171,-4.8594127
 ,16.3313298,4.9534907,3.3107589,-0.3693549\PG=C01 [X(C13H20N2O4S2)]\\@


 THE TEST OF A FIRST RATE INTELLIGENCE IS THE ABILITY TO HOLD TWO OPPOSED
 IDEAS IN THE MIND AT THE SAME TIME, AND STILL RETAIN THE ABILITY TO FUNCTION.
 ONE SHOULD, FOR EXAMPLE, BE ABLE TO SEE THAT THINGS ARE HOPELESS AND YET BE
 DETERMINED TO MAKE THEM OTHERWISE.

                                                       -- F. SCOTT FITZGERALD
 Job cpu time:       0 days  0 hours  5 minutes  4.0 seconds.
 File lengths (MBytes):  RWF=    219 Int=      0 D2E=      0 Chk=      7 Scr=      1
 Normal termination of Gaussian 09 at Fri Oct  2 06:25:04 2020.
