 Entering Gaussian System, Link 0=g09
 Initial command:
 /prod/apps/gaussian/g09d1/l1.exe "/tmp/ubafar01/1462856/Gau-53246.inp" -scrdir="/tmp/ubafar01/1462856/"
 Entering Link 1 = /prod/apps/gaussian/g09d1/l1.exe PID=     53247.
  
 Copyright (c) 1988,1990,1992,1993,1995,1998,2003,2009,2013,
            Gaussian, Inc.  All Rights Reserved.
  
 This is part of the Gaussian(R) 09 program.  It is based on
 the Gaussian(R) 03 system (copyright 2003, Gaussian, Inc.),
 the Gaussian(R) 98 system (copyright 1998, Gaussian, Inc.),
 the Gaussian(R) 94 system (copyright 1995, Gaussian, Inc.),
 the Gaussian 92(TM) system (copyright 1992, Gaussian, Inc.),
 the Gaussian 90(TM) system (copyright 1990, Gaussian, Inc.),
 the Gaussian 88(TM) system (copyright 1988, Gaussian, Inc.),
 the Gaussian 86(TM) system (copyright 1986, Carnegie Mellon
 University), and the Gaussian 82(TM) system (copyright 1983,
 Carnegie Mellon University). Gaussian is a federally registered
 trademark of Gaussian, Inc.
  
 This software contains proprietary and confidential information,
 including trade secrets, belonging to Gaussian, Inc.
  
 This software is provided under written license and may be
 used, copied, transmitted, or stored only in accord with that
 written license.
  
 The following legend is applicable only to US Government
 contracts under FAR:
  
                    RESTRICTED RIGHTS LEGEND
  
 Use, reproduction and disclosure by the US Government is
 subject to restrictions as set forth in subparagraphs (a)
 and (c) of the Commercial Computer Software - Restricted
 Rights clause in FAR 52.227-19.
  
 Gaussian, Inc.
 340 Quinnipiac St., Bldg. 40, Wallingford CT 06492
  
  
 ---------------------------------------------------------------
 Warning -- This program may not be used in any manner that
 competes with the business of Gaussian, Inc. or will provide
 assistance to any competitor of Gaussian, Inc.  The licensee
 of this program is prohibited from giving any competitor of
 Gaussian, Inc. access to this program.  By using this program,
 the user acknowledges that Gaussian, Inc. is engaged in the
 business of creating and licensing software in the field of
 computational chemistry and represents and warrants to the
 licensee that it is not a competitor of Gaussian, Inc. and that
 it will not use this program in any manner prohibited above.
 ---------------------------------------------------------------
  

 Cite this work as:
 Gaussian 09, Revision D.01,
 M. J. Frisch, G. W. Trucks, H. B. Schlegel, G. E. Scuseria, 
 M. A. Robb, J. R. Cheeseman, G. Scalmani, V. Barone, B. Mennucci, 
 G. A. Petersson, H. Nakatsuji, M. Caricato, X. Li, H. P. Hratchian, 
 A. F. Izmaylov, J. Bloino, G. Zheng, J. L. Sonnenberg, M. Hada, 
 M. Ehara, K. Toyota, R. Fukuda, J. Hasegawa, M. Ishida, T. Nakajima, 
 Y. Honda, O. Kitao, H. Nakai, T. Vreven, J. A. Montgomery, Jr., 
 J. E. Peralta, F. Ogliaro, M. Bearpark, J. J. Heyd, E. Brothers, 
 K. N. Kudin, V. N. Staroverov, T. Keith, R. Kobayashi, J. Normand, 
 K. Raghavachari, A. Rendell, J. C. Burant, S. S. Iyengar, J. Tomasi, 
 M. Cossi, N. Rega, J. M. Millam, M. Klene, J. E. Knox, J. B. Cross, 
 V. Bakken, C. Adamo, J. Jaramillo, R. Gomperts, R. E. Stratmann, 
 O. Yazyev, A. J. Austin, R. Cammi, C. Pomelli, J. W. Ochterski, 
 R. L. Martin, K. Morokuma, V. G. Zakrzewski, G. A. Voth, 
 P. Salvador, J. J. Dannenberg, S. Dapprich, A. D. Daniels, 
 O. Farkas, J. B. Foresman, J. V. Ortiz, J. Cioslowski, 
 and D. J. Fox, Gaussian, Inc., Wallingford CT, 2013.
 
 ******************************************
 Gaussian 09:  AM64L-G09RevD.01 24-Apr-2013
                 1-Oct-2020 
 ******************************************
 %nproc=1
 Will use up to    1 processors via shared memory.
 %Chk=SM40.n.13.pdb.xyz.mst.n.w.chk
 %mem=16GB
 -----------------
 #p b3lyp/6-31G(d)
 -----------------
 1/38=1/1;
 2/12=2,17=6,18=5,40=1/2;
 3/5=1,6=6,7=1,11=2,16=1,25=1,30=1,74=-5/1,2,3;
 4//1;
 5/5=2,38=5/2;
 6/7=2,8=2,9=2,10=2,28=1/1;
 99/5=1,9=1/99;
 Leave Link    1 at Thu Oct  1 22:02:52 2020, MaxMem=  2147483648 cpu:         0.0
 (Enter /prod/apps/gaussian/g09d1/l101.exe)
 -----------------
 SM40.n.13.pdb.xyz
 -----------------
 Symbolic Z-matrix:
 Charge =  0 Multiplicity = 1
 C                     1.499    -0.435     0.713 
 N                     2.644     0.417     0.355 
 C                     2.386     1.859     0.521 
 S                     4.121    -0.104     0.949 
 O                     5.085     0.955     0.612 
 O                     4.078    -0.562     2.348 
 N                     4.278    -1.477     0.013 
 C                     5.091    -2.648     0.388 
 C                     4.629    -3.837    -0.527 
 S                     4.497    -4.907     0.943 
 O                     3.183    -5.558     1.108 
 O                     5.711    -5.73      1.13 
 C                     4.643    -3.281     1.746 
 C                     6.614    -2.462     0.233 
 C                     7.356    -1.526     1.204 
 C                     7.634    -2.089     2.585 
 C                     8.294    -3.317     2.741 
 C                     8.586    -3.818     4.008 
 C                     8.227    -3.097     5.149 
 C                     7.573    -1.873     5.009 
 C                     7.281    -1.375     3.737 
 H                     0.661    -0.139     0.08 
 H                     1.211    -0.324     1.765 
 H                     1.746    -1.476     0.506 
 H                     1.532     2.106    -0.112 
 H                     3.254     2.423     0.187 
 H                     2.148     2.125     1.558 
 H                     4.393    -1.216    -0.969 
 H                     5.34     -4.182    -1.276 
 H                     3.639    -3.679    -0.954 
 H                     5.355    -3.25      2.567 
 H                     3.66     -2.947     2.07 
 H                     6.777    -2.107    -0.789 
 H                     7.072    -3.454     0.286 
 H                     6.837    -0.568     1.289 
 H                     8.318    -1.299     0.727 
 H                     8.58     -3.886     1.862 
 H                     9.097    -4.771     4.106 
 H                     8.454    -3.487     6.136 
 H                     7.289    -1.303     5.888 
 H                     6.767    -0.424     3.634 
 
 NAtoms=     41 NQM=       41 NQMF=       0 NMMI=      0 NMMIF=      0
                NMic=       0 NMicF=      0.
                    Isotopes and Nuclear Properties:
 (Nuclear quadrupole moments (NQMom) in fm**2, nuclear magnetic moments (NMagM)
  in nuclear magnetons)

  Atom         1           2           3           4           5           6           7           8           9          10
 IAtWgt=          12          14          12          32          16          16          14          12          12          32
 AtmWgt=  12.0000000  14.0030740  12.0000000  31.9720718  15.9949146  15.9949146  14.0030740  12.0000000  12.0000000  31.9720718
 NucSpn=           0           2           0           0           0           0           2           0           0           0
 AtZEff=   0.0000000   0.0000000   0.0000000   0.0000000   0.0000000   0.0000000   0.0000000   0.0000000   0.0000000   0.0000000
 NQMom=    0.0000000   2.0440000   0.0000000   0.0000000   0.0000000   0.0000000   2.0440000   0.0000000   0.0000000   0.0000000
 NMagM=    0.0000000   0.4037610   0.0000000   0.0000000   0.0000000   0.0000000   0.4037610   0.0000000   0.0000000   0.0000000
 AtZNuc=   6.0000000   7.0000000   6.0000000  16.0000000   8.0000000   8.0000000   7.0000000   6.0000000   6.0000000  16.0000000

  Atom        11          12          13          14          15          16          17          18          19          20
 IAtWgt=          16          16          12          12          12          12          12          12          12          12
 AtmWgt=  15.9949146  15.9949146  12.0000000  12.0000000  12.0000000  12.0000000  12.0000000  12.0000000  12.0000000  12.0000000
 NucSpn=           0           0           0           0           0           0           0           0           0           0
 AtZEff=   0.0000000   0.0000000   0.0000000   0.0000000   0.0000000   0.0000000   0.0000000   0.0000000   0.0000000   0.0000000
 NQMom=    0.0000000   0.0000000   0.0000000   0.0000000   0.0000000   0.0000000   0.0000000   0.0000000   0.0000000   0.0000000
 NMagM=    0.0000000   0.0000000   0.0000000   0.0000000   0.0000000   0.0000000   0.0000000   0.0000000   0.0000000   0.0000000
 AtZNuc=   8.0000000   8.0000000   6.0000000   6.0000000   6.0000000   6.0000000   6.0000000   6.0000000   6.0000000   6.0000000

  Atom        21          22          23          24          25          26          27          28          29          30
 IAtWgt=          12           1           1           1           1           1           1           1           1           1
 AtmWgt=  12.0000000   1.0078250   1.0078250   1.0078250   1.0078250   1.0078250   1.0078250   1.0078250   1.0078250   1.0078250
 NucSpn=           0           1           1           1           1           1           1           1           1           1
 AtZEff=   0.0000000   0.0000000   0.0000000   0.0000000   0.0000000   0.0000000   0.0000000   0.0000000   0.0000000   0.0000000
 NQMom=    0.0000000   0.0000000   0.0000000   0.0000000   0.0000000   0.0000000   0.0000000   0.0000000   0.0000000   0.0000000
 NMagM=    0.0000000   2.7928460   2.7928460   2.7928460   2.7928460   2.7928460   2.7928460   2.7928460   2.7928460   2.7928460
 AtZNuc=   6.0000000   1.0000000   1.0000000   1.0000000   1.0000000   1.0000000   1.0000000   1.0000000   1.0000000   1.0000000

  Atom        31          32          33          34          35          36          37          38          39          40
 IAtWgt=           1           1           1           1           1           1           1           1           1           1
 AtmWgt=   1.0078250   1.0078250   1.0078250   1.0078250   1.0078250   1.0078250   1.0078250   1.0078250   1.0078250   1.0078250
 NucSpn=           1           1           1           1           1           1           1           1           1           1
 AtZEff=   0.0000000   0.0000000   0.0000000   0.0000000   0.0000000   0.0000000   0.0000000   0.0000000   0.0000000   0.0000000
 NQMom=    0.0000000   0.0000000   0.0000000   0.0000000   0.0000000   0.0000000   0.0000000   0.0000000   0.0000000   0.0000000
 NMagM=    2.7928460   2.7928460   2.7928460   2.7928460   2.7928460   2.7928460   2.7928460   2.7928460   2.7928460   2.7928460
 AtZNuc=   1.0000000   1.0000000   1.0000000   1.0000000   1.0000000   1.0000000   1.0000000   1.0000000   1.0000000   1.0000000

  Atom        41
 IAtWgt=           1
 AtmWgt=   1.0078250
 NucSpn=           1
 AtZEff=   0.0000000
 NQMom=    0.0000000
 NMagM=    2.7928460
 AtZNuc=   1.0000000
 Leave Link  101 at Thu Oct  1 22:02:52 2020, MaxMem=  2147483648 cpu:         0.2
 (Enter /prod/apps/gaussian/g09d1/l202.exe)
                          Input orientation:                          
 ---------------------------------------------------------------------
 Center     Atomic      Atomic             Coordinates (Angstroms)
 Number     Number       Type             X           Y           Z
 ---------------------------------------------------------------------
      1          6           0        1.499000   -0.435000    0.713000
      2          7           0        2.644000    0.417000    0.355000
      3          6           0        2.386000    1.859000    0.521000
      4         16           0        4.121000   -0.104000    0.949000
      5          8           0        5.085000    0.955000    0.612000
      6          8           0        4.078000   -0.562000    2.348000
      7          7           0        4.278000   -1.477000    0.013000
      8          6           0        5.091000   -2.648000    0.388000
      9          6           0        4.629000   -3.837000   -0.527000
     10         16           0        4.497000   -4.907000    0.943000
     11          8           0        3.183000   -5.558000    1.108000
     12          8           0        5.711000   -5.730000    1.130000
     13          6           0        4.643000   -3.281000    1.746000
     14          6           0        6.614000   -2.462000    0.233000
     15          6           0        7.356000   -1.526000    1.204000
     16          6           0        7.634000   -2.089000    2.585000
     17          6           0        8.294000   -3.317000    2.741000
     18          6           0        8.586000   -3.818000    4.008000
     19          6           0        8.227000   -3.097000    5.149000
     20          6           0        7.573000   -1.873000    5.009000
     21          6           0        7.281000   -1.375000    3.737000
     22          1           0        0.661000   -0.139000    0.080000
     23          1           0        1.211000   -0.324000    1.765000
     24          1           0        1.746000   -1.476000    0.506000
     25          1           0        1.532000    2.106000   -0.112000
     26          1           0        3.254000    2.423000    0.187000
     27          1           0        2.148000    2.125000    1.558000
     28          1           0        4.393000   -1.216000   -0.969000
     29          1           0        5.340000   -4.182000   -1.276000
     30          1           0        3.639000   -3.679000   -0.954000
     31          1           0        5.355000   -3.250000    2.567000
     32          1           0        3.660000   -2.947000    2.070000
     33          1           0        6.777000   -2.107000   -0.789000
     34          1           0        7.072000   -3.454000    0.286000
     35          1           0        6.837000   -0.568000    1.289000
     36          1           0        8.318000   -1.299000    0.727000
     37          1           0        8.580000   -3.886000    1.862000
     38          1           0        9.097000   -4.771000    4.106000
     39          1           0        8.454000   -3.487000    6.136000
     40          1           0        7.289000   -1.303000    5.888000
     41          1           0        6.767000   -0.424000    3.634000
 ---------------------------------------------------------------------
                    Distance matrix (angstroms):
                    1          2          3          4          5
     1  C    0.000000
     2  N    1.471425   0.000000
     3  C    2.466996   1.474274   0.000000
     4  S    2.653326   1.675054   2.654577   0.000000
     5  O    3.847297   2.512762   2.847823   1.471172   0.000000
     6  O    3.056239   2.643264   3.473044   1.472689   2.515757
     7  N    3.049361   2.524709   3.868672   1.669094   2.631478
     8  C    4.231484   3.922132   5.258114   2.779848   3.609961
     9  C    4.786241   4.776470   6.210778   4.046224   4.946567
    10  S    5.388848   5.667833   7.100223   4.817699   5.900707
    11  O    5.407126   6.046334   7.482758   5.536356   6.803146
    12  O    6.778780   6.913228   8.307793   5.849165   6.734198
    13  C    4.364807   4.427876   5.745805   3.316779   4.407382
    14  C    5.522894   4.905550   6.052270   3.505406   3.762628
    15  C    5.977944   5.167107   6.051910   3.542927   3.415152
    16  C    6.624072   6.012739   6.883916   4.354066   4.433516
    17  C    7.654458   7.180408   8.162343   5.563143   5.751548
    18  C    8.516295   8.160086   9.100961   6.564107   6.824320
    19  C    8.487068   8.154785   8.949726   6.592214   6.846549
    20  C    7.577396   7.155338   7.808645   5.615093   5.789761
    21  C    6.592397   6.012567   6.690474   4.401589   4.474030
    22  H    1.091123   2.077751   2.676212   3.567630   4.588206
    23  H    1.096343   2.142585   2.773743   3.030240   4.239472
    24  H    1.089743   2.100632   3.395887   2.778355   4.131576
    25  H    2.671777   2.075417   1.091336   3.565493   3.804312
    26  H    3.394829   2.103416   1.087693   2.778140   2.384997
    27  H    2.772873   2.147205   1.096708   3.038429   3.299967
    28  H    3.437197   2.734715   3.962799   2.233663   2.773385
    29  H    5.722710   5.574888   6.960532   4.802777   5.478899
    30  H    4.228714   4.413697   5.866437   4.078524   5.100709
    31  H    5.121550   5.068467   6.253236   3.746731   4.645100
    32  H    3.580714   3.910240   5.207697   3.090600   4.402498
    33  H    5.736625   4.976043   6.060209   3.753264   3.768489
    34  H    6.352560   5.881886   7.088144   4.513366   4.847033
    35  H    5.370634   4.407247   5.127529   2.776248   2.418132
    36  H    6.873533   5.939471   6.723394   4.369453   3.942845
    37  H    7.960538   7.484848   8.553885   5.917751   6.100230
    38  H    9.383120   9.089915  10.091910   7.517188   7.816090
    39  H    9.332505   9.078396   9.845231   7.558078   7.848318
    40  H    7.813971   7.426205   7.927316   5.988952   6.147549
    41  H    6.023636   5.334628   5.839180   3.783245   3.723338
                    6          7          8          9         10
     6  O    0.000000
     7  N    2.515840   0.000000
     8  C    3.036308   1.474054   0.000000
     9  C    4.392590   2.446304   1.569838   0.000000
    10  S    4.585696   3.560584   2.400821   1.822971   0.000000
    11  O    5.224810   4.364930   3.553444   2.779565   1.475677
    12  O    5.555037   4.624845   3.230122   2.738580   1.478545
    13  C    2.841582   2.528029   1.563828   2.340056   1.819341
    14  C    3.809793   2.544705   1.542125   2.531492   3.311165
    15  C    3.603237   3.300752   2.656118   3.971601   4.435444
    16  C    3.877246   4.272290   3.406778   4.665841   4.525269
    17  C    5.051646   5.191901   4.030308   4.937859   4.492005
    18  C    5.803378   6.324490   5.166074   6.018674   5.224947
    19  C    5.611241   6.678136   5.718673   6.760930   5.905881
    20  C    4.584176   5.997821   5.302319   6.570520   5.932899
    21  C    3.584620   4.785038   4.199099   5.592517   5.294536
    22  H    4.122941   3.857126   5.100475   5.457900   6.180088
    23  H    2.935340   3.715562   4.727738   5.410837   5.698892
    24  H    3.109113   2.579549   3.546341   3.866924   4.419359
    25  H    4.433051   4.515975   5.959614   6.714379   7.686769
    26  H    3.776125   4.035945   5.397223   6.448877   7.472984
    27  H    3.401319   4.460754   5.728148   6.785870   7.439425
    28  H    3.395501   1.022580   2.092672   2.668464   4.158130
    29  H    5.275454   3.179055   2.276852   1.088828   2.481982
    30  H    4.561975   2.488416   2.229850   1.089676   2.417180
    31  H    2.983963   3.290346   2.275992   3.231792   2.473699
    32  H    2.437259   2.602705   2.228517   2.911266   2.410871
    33  H    4.417284   2.699093   2.126172   2.770460   4.004775
    34  H    4.645379   3.433583   2.141121   2.603057   3.028776
    35  H    2.955266   3.000490   2.861244   4.342750   4.941886
    36  H    4.598740   4.106468   3.514008   4.650019   5.259692
    37  H    5.617221   5.265860   3.984776   4.617372   4.307887
    38  H    6.782080   7.129225   5.863334   6.503850   5.584180
    39  H    6.484901   7.679206   6.712168   7.690819   6.681429
    40  H    4.836445   6.603940   6.073733   7.392495   6.725853
    41  H    2.983884   4.518359   4.276876   5.790815   5.700146
                   11         12         13         14         15
    11  O    0.000000
    12  O    2.533940   0.000000
    13  C    2.779096   2.741839   0.000000
    14  C    4.703467   3.507113   2.616251   0.000000
    15  C    5.803462   4.514988   3.276302   1.539318   0.000000
    16  C    5.833257   4.367131   3.327291   2.590643   1.517041
    17  C    5.814731   3.884556   3.784326   3.137434   2.539664
    18  C    6.374167   4.494914   4.577364   4.469692   3.824733
    19  C    6.915789   5.423588   4.945637   5.212682   4.334710
    20  C    6.933190   5.778420   4.605924   4.906809   3.826947
    21  C    6.418936   5.312944   3.815228   3.728870   2.538605
    22  H    6.064885   7.606857   5.338918   6.392022   6.928937
    23  H    5.631624   7.062440   4.530213   6.009199   6.286537
    24  H    4.369222   5.848685   3.631561   4.974349   5.653477
    25  H    7.934173   8.967134   6.492323   6.841957   6.988723
    26  H    8.034279   8.567235   6.074160   5.929160   5.784055
    27  H    7.765450   8.635924   5.956946   6.537687   6.370116
    28  H    4.962962   5.149672   3.420227   2.816054   3.687465
    29  H    3.497067   2.884923   3.229566   2.618885   4.155598
    30  H    2.826733   3.583691   2.907992   3.426468   4.807126
    31  H    3.489001   2.888270   1.087173   2.766511   2.972195
    32  H    2.823171   3.582637   1.087576   3.512251   4.053346
    33  H    5.331496   4.236159   3.515460   1.094111   2.155192
    34  H    4.497424   2.782954   2.839290   1.093909   2.154197
    35  H    6.187453   5.285773   3.518928   2.179931   1.092863
    36  H    6.682250   5.156803   4.297943   2.121372   1.097498
    37  H    5.700150   3.488169   3.984903   2.923452   2.738748
    38  H    6.677033   4.608823   5.256217   5.147514   4.688572
    39  H    7.573194   6.133118   5.817066   6.267506   5.419940
    40  H    7.603464   6.687823   5.298109   5.811878   4.689784
    41  H    6.751569   5.961442   4.029686   3.967827   2.732439
                   16         17         18         19         20
    16  C    0.000000
    17  C    1.402826   0.000000
    18  C    2.433244   1.393397   0.000000
    19  C    2.818122   2.418957   1.396640   0.000000
    20  C    2.434369   2.783667   2.410642   1.394809   0.000000
    21  C    1.400539   2.406148   2.782933   2.419493   1.396872
    22  H    7.661609   8.685810   9.579658   9.575431   8.664730
    23  H    6.711375   7.751098   8.463434   8.268328   7.307392
    24  H    6.274277   7.159665   8.033341   8.135628   7.374859
    25  H    7.880751   9.125414  10.090941   9.978595   8.862887
    26  H    6.730004   8.054323   9.054300   8.934348   7.769238
    27  H    6.993477   8.293863   9.097780   8.781731   7.571263
    28  H    4.888469   5.778936   7.008722   7.461075   6.802980
    29  H    4.954837   5.060695   6.212058   7.126894   7.058257
    30  H    5.568900   5.954250   7.008108   7.657354   7.368539
    31  H    2.557750   2.944908   3.583081   3.865038   3.574775
    32  H    4.098056   4.696924   5.364696   5.510012   5.010266
    33  H    3.481185   4.028187   5.404740   6.192128   5.857062
    34  H    2.732118   2.745738   4.034597   5.011012   5.005726
    35  H    2.151341   3.433388   4.584153   4.819496   4.010377
    36  H    2.131694   2.851157   4.145135   4.774429   4.384065
    37  H    2.155656   1.085448   2.147085   3.398750   3.869086
    38  H    3.412760   2.149919   1.085787   2.155696   3.396526
    39  H    3.903384   3.403017   2.157630   1.085264   2.156684
    40  H    3.412716   3.869086   3.397327   2.155087   1.085448
    41  H    2.150422   3.390963   3.868834   3.401728   2.154034
                   21         22         23         24         25
    21  C    0.000000
    22  H    7.663272   0.000000
    23  H    6.468252   1.782120   0.000000
    24  H    6.409820   1.773773   1.788410   0.000000
    25  H    7.744880   2.415684   3.087243   3.641215   0.000000
    26  H    6.576020   3.646771   3.769608   4.192616   1.776281
    27  H    6.583747   3.085668   2.630289   3.772997   1.780089
    28  H    5.523790   4.023451   4.289003   3.041354   4.467153
    29  H    6.064396   6.330689   6.417202   4.838884   7.442762
    30  H    6.370091   4.740173   4.954207   3.250886   6.214068
    31  H    2.931553   6.156064   5.135895   4.518814   7.104865
    32  H    4.285057   4.564972   3.601493   2.876340   5.901044
    33  H    4.612431   6.483336   6.378273   5.233178   6.761488
    34  H    4.034269   7.220290   6.807030   5.685698   7.858982
    35  H    2.615548   6.307828   5.651370   5.230280   6.103778
    36  H    3.184532   7.771349   7.248277   6.578097   7.638569
    37  H    3.392366   8.940139   8.185317   7.372272   9.459125
    38  H    3.868699  10.432171   9.351208   8.823504  11.059560
    39  H    3.404655  10.421856   9.031681   8.985449  10.873511
    40  H    2.152220   8.889215   7.409430   7.727917   8.986898
    41  H    1.085913   7.070741   5.862789   6.008455   6.916548
                   26         27         28         29         30
    26  H    0.000000
    27  H    1.786528   0.000000
    28  H    3.984467   4.752687   0.000000
    29  H    7.079392   7.615686   3.128612   0.000000
    30  H    6.219687   6.497664   2.575871   1.802802   0.000000
    31  H    6.500887   6.339839   4.191169   3.954428   3.940322
    32  H    5.705035   5.317281   3.573398   3.942504   3.111405
    33  H    5.821083   6.696706   2.551419   2.570557   3.513610
    34  H    7.008998   7.549106   3.709543   2.443287   3.657009
    35  H    4.795662   5.413994   3.389927   4.677738   4.993653
    36  H    6.307851   7.105156   4.276556   4.603497   5.512096
    37  H    8.424689   8.808812   5.716155   4.520206   5.690886
    38  H   10.062447  10.116112   7.779542   6.589984   7.522355
    39  H    9.867051   9.603034   8.492949   8.069558   8.572584
    40  H    7.916167   7.545195   7.443980   7.963048   8.110539
    41  H    5.685806   5.669421   5.239346   6.345628   6.436548
                   31         32         33         34         35
    31  H    0.000000
    32  H    1.792162   0.000000
    33  H    3.819852   4.312212   0.000000
    34  H    2.862283   3.883484   1.748445   0.000000
    35  H    3.320050   4.045112   2.586543   3.064348   0.000000
    36  H    3.996420   5.120207   2.307770   2.528047   1.744582
    37  H    3.361866   5.013121   3.666531   2.223615   3.791504
    38  H    4.322560   6.085494   6.036582   4.519681   5.541507
    39  H    4.732624   6.309231   7.257572   6.011116   5.884612
    40  H    4.308156   5.518107   6.744693   6.004689   4.679245
    41  H    3.334443   4.297101   4.732390   4.525818   2.350460
                   36         37         38         39         40
    36  H    0.000000
    37  H    2.837153   0.000000
    38  H    4.907063   2.466992   0.000000
    39  H    5.836362   4.294433   2.486565   0.000000
    40  H    5.262583   4.954518   4.297838   2.487687   0.000000
    41  H    3.409087   4.290967   4.954603   4.299761   2.475003
                   41
    41  H    0.000000
 Stoichiometry    C13H20N2O4S2
 Framework group  C1[X(C13H20N2O4S2)]
 Deg. of freedom   117
 Full point group                 C1      NOp   1
 Largest Abelian subgroup         C1      NOp   1
 Largest concise Abelian subgroup C1      NOp   1
                         Standard orientation:                         
 ---------------------------------------------------------------------
 Center     Atomic      Atomic             Coordinates (Angstroms)
 Number     Number       Type             X           Y           Z
 ---------------------------------------------------------------------
      1          6           0       -3.883930    0.566283   -1.289060
      2          7           0       -3.746355   -0.425731   -0.211064
      3          6           0       -4.717339   -1.531940   -0.294595
      4         16           0       -2.172251   -0.897446    0.113720
      5          8           0       -2.274758   -1.986787    1.097170
      6          8           0       -1.358724   -1.143652   -1.088931
      7          7           0       -1.626011    0.541118    0.760274
      8          6           0       -0.212503    0.958876    0.777809
      9          6           0       -0.195478    2.501453    1.068596
     10         16           0        0.950529    2.744426   -0.328134
     11          8           0        0.497553    3.734624   -1.324097
     12          8           0        2.357105    2.803577    0.123683
     13          6           0        0.408678    1.038709   -0.655131
     14          6           0        0.666458    0.244352    1.824247
     15          6           0        1.016785   -1.240403    1.618635
     16          6           0        2.107570   -1.529792    0.604803
     17          6           0        3.360056   -0.904972    0.698603
     18          6           0        4.377085   -1.198195   -0.207612
     19          6           0        4.163654   -2.128687   -1.227040
     20          6           0        2.924223   -2.760017   -1.330598
     21          6           0        1.906946   -2.462184   -0.420820
     22          1           0       -4.897866    0.966085   -1.237671
     23          1           0       -3.720635    0.128097   -2.280674
     24          1           0       -3.176476    1.378482   -1.123592
     25          1           0       -5.713107   -1.086716   -0.259447
     26          1           0       -4.589709   -2.191218    0.561057
     27          1           0       -4.618049   -2.106836   -1.223252
     28          1           0       -2.102321    0.726276    1.646002
     29          1           0        0.196764    2.812084    2.035654
     30          1           0       -1.148253    2.981690    0.847269
     31          1           0        1.217022    0.348977   -0.884907
     32          1           0       -0.338246    1.040750   -1.445650
     33          1           0        0.150963    0.353042    2.783168
     34          1           0        1.596517    0.813207    1.913868
     35          1           0        0.121060   -1.818644    1.378501
     36          1           0        1.352182   -1.608608    2.596611
     37          1           0        3.539090   -0.181370    1.487619
     38          1           0        5.338861   -0.702472   -0.117164
     39          1           0        4.955433   -2.357136   -1.933225
     40          1           0        2.745975   -3.485245   -2.118297
     41          1           0        0.942252   -2.952834   -0.509333
 ---------------------------------------------------------------------
 Rotational constants (GHZ):      0.3376888      0.2130880      0.1547133
 Leave Link  202 at Thu Oct  1 22:02:52 2020, MaxMem=  2147483648 cpu:         0.0
 (Enter /prod/apps/gaussian/g09d1/l301.exe)
 Standard basis: 6-31G(d) (6D, 7F)
 Ernie: Thresh=  0.10000D-02 Tol=  0.10000D-05 Strict=F.
 There are   363 symmetry adapted cartesian basis functions of A   symmetry.
 There are   363 symmetry adapted basis functions of A   symmetry.
   363 basis functions,   716 primitive gaussians,   363 cartesian basis functions
    88 alpha electrons       88 beta electrons
       nuclear repulsion energy      2223.5473818898 Hartrees.
 IExCor=  402 DFT=T Ex+Corr=B3LYP ExCW=0 ScaHFX=  0.200000
 ScaDFX=  0.800000  0.720000  1.000000  0.810000 ScalE2=  1.000000  1.000000
 IRadAn=      0 IRanWt=     -1 IRanGd=            0 ICorTp=0 IEmpDi=  4
 NAtoms=   41 NActive=   41 NUniq=   41 SFac= 1.00D+00 NAtFMM=   60 NAOKFM=F Big=F
 Integral buffers will be    131072 words long.
 Raffenetti 2 integral format.
 Two-electron integral symmetry is turned on.
 Leave Link  301 at Thu Oct  1 22:02:52 2020, MaxMem=  2147483648 cpu:         0.0
 (Enter /prod/apps/gaussian/g09d1/l302.exe)
 NPDir=0 NMtPBC=     1 NCelOv=     1 NCel=       1 NClECP=     1 NCelD=      1
         NCelK=      1 NCelE2=     1 NClLst=     1 CellRange=     0.0.
 One-electron integrals computed using PRISM.
 NBasis=   363 RedAO= T EigKep=  4.67D-04  NBF=   363
 NBsUse=   363 1.00D-06 EigRej= -1.00D+00 NBFU=   363
 Precomputing XC quadrature grid using
 IXCGrd= 4 IRadAn=           0 IRanWt=          -1 IRanGd=           0 AccXCQ= 0.00D+00.
 Generated NRdTot=       0 NPtTot=           0 NUsed=           0 NTot=          32
 NSgBfM=   357   357   357   357   358 MxSgAt=    41 MxSgA2=    41.
 Leave Link  302 at Thu Oct  1 22:02:53 2020, MaxMem=  2147483648 cpu:         1.3
 (Enter /prod/apps/gaussian/g09d1/l303.exe)
 DipDrv:  MaxL=1.
 Leave Link  303 at Thu Oct  1 22:02:53 2020, MaxMem=  2147483648 cpu:         0.0
 (Enter /prod/apps/gaussian/g09d1/l401.exe)
 ExpMin= 1.17D-01 ExpMax= 2.19D+04 ExpMxC= 3.30D+03 IAcc=1 IRadAn=         1 AccDes= 0.00D+00
 Harris functional with IExCor=  402 and IRadAn=       1 diagonalized for initial guess.
 HarFok:  IExCor=  402 AccDes= 0.00D+00 IRadAn=         1 IDoV= 1 UseB2=F ITyADJ=14
 ICtDFT=  3500011 ScaDFX=  1.000000  1.000000  1.000000  1.000000
 FoFCou: FMM=F IPFlag=           0 FMFlag=      100000 FMFlg1=           0
         NFxFlg=           0 DoJE=T BraDBF=F KetDBF=T FulRan=T
         wScrn=  0.000000 ICntrl=     500 IOpCl=  0 I1Cent=   200000004 NGrid=           0
         NMat0=    1 NMatS0=      1 NMatT0=    0 NMatD0=    1 NMtDS0=    0 NMtDT0=    0
 Petite list used in FoFCou.
 Harris En= -1714.14593302721    
 JPrj=0 DoOrth=F DoCkMO=F.
 Leave Link  401 at Thu Oct  1 22:02:58 2020, MaxMem=  2147483648 cpu:         5.0
 (Enter /prod/apps/gaussian/g09d1/l502.exe)
 Closed shell SCF:
 Using DIIS extrapolation, IDIIS=  1040.
 Integral symmetry usage will be decided dynamically.
 IVT=      418784 IEndB=      418784 NGot=  2147483648 MDV=  2147213637
 LenX=  2147213637 LenY=  2147081427
 Requested convergence on RMS density matrix=1.00D-08 within 128 cycles.
 Requested convergence on MAX density matrix=1.00D-06.
 Requested convergence on             energy=1.00D-06.
 No special actions if energy rises.
 Fock matrices will be formed incrementally for  20 cycles.
 Integral accuracy reduced to 1.0D-05 until final iterations.

 Cycle   1  Pass 0  IDiag  1:
 FoFJK:  IHMeth= 1 ICntrl=       0 DoSepK=F KAlg= 0 I1Cent=   0 FoldK=F
 IRaf= 770000000 NMat=   1 IRICut=       1 DoRegI=T DoRafI=F ISym2E= 0.
 FoFCou: FMM=F IPFlag=           0 FMFlag=      100000 FMFlg1=           0
         NFxFlg=           0 DoJE=F BraDBF=F KetDBF=F FulRan=T
         wScrn=  0.000000 ICntrl=       0 IOpCl=  0 I1Cent=           0 NGrid=           0
         NMat0=    1 NMatS0=      1 NMatT0=    0 NMatD0=    1 NMtDS0=    0 NMtDT0=    0
 Symmetry not used in FoFCou.
 E= -1713.19102423720    
 DIIS: error= 3.43D-02 at cycle   1 NSaved=   1.
 NSaved= 1 IEnMin= 1 EnMin= -1713.19102423720     IErMin= 1 ErrMin= 3.43D-02
 ErrMax= 3.43D-02  0.00D+00 EMaxC= 1.00D-01 BMatC= 9.95D-01 BMatP= 9.95D-01
 IDIUse=3 WtCom= 6.57D-01 WtEn= 3.43D-01
 Coeff-Com:  0.100D+01
 Coeff-En:   0.100D+01
 Coeff:      0.100D+01
 Gap=     0.378 Goal=   None    Shift=    0.000
 GapD=    0.378 DampG=1.000 DampE=0.500 DampFc=0.5000 IDamp=-1.
 Damping current iteration by 5.00D-01
 RMSDP=7.15D-03 MaxDP=6.02D-01              OVMax= 2.32D-01

 Cycle   2  Pass 0  IDiag  1:
 RMSU=  3.58D-03    CP:  9.99D-01
 E= -1713.36306388143     Delta-E=       -0.172039644232 Rises=F Damp=T
 DIIS: error= 1.54D-02 at cycle   2 NSaved=   2.
 NSaved= 2 IEnMin= 2 EnMin= -1713.36306388143     IErMin= 2 ErrMin= 1.54D-02
 ErrMax= 1.54D-02  0.00D+00 EMaxC= 1.00D-01 BMatC= 1.74D-01 BMatP= 9.95D-01
 IDIUse=3 WtCom= 8.46D-01 WtEn= 1.54D-01
 Coeff-Com:  0.253D+00 0.747D+00
 Coeff-En:   0.399D+00 0.601D+00
 Coeff:      0.275D+00 0.725D+00
 Gap=     0.283 Goal=   None    Shift=    0.000
 RMSDP=2.11D-03 MaxDP=1.31D-01 DE=-1.72D-01 OVMax= 2.11D-01

 Cycle   3  Pass 0  IDiag  1:
 RMSU=  1.64D-03    CP:  9.90D-01  6.34D-01
 E= -1713.94425746212     Delta-E=       -0.581193580689 Rises=F Damp=F
 DIIS: error= 9.09D-03 at cycle   3 NSaved=   3.
 NSaved= 3 IEnMin= 3 EnMin= -1713.94425746212     IErMin= 3 ErrMin= 9.09D-03
 ErrMax= 9.09D-03  0.00D+00 EMaxC= 1.00D-01 BMatC= 1.00D-01 BMatP= 1.74D-01
 IDIUse=3 WtCom= 9.09D-01 WtEn= 9.09D-02
 Coeff-Com:  0.104D+00 0.439D+00 0.458D+00
 Coeff-En:   0.000D+00 0.000D+00 0.100D+01
 Coeff:      0.941D-01 0.399D+00 0.507D+00
 Gap=     0.239 Goal=   None    Shift=    0.000
 RMSDP=1.25D-03 MaxDP=4.20D-02 DE=-5.81D-01 OVMax= 6.59D-02

 Cycle   4  Pass 0  IDiag  1:
 RMSU=  7.48D-04    CP:  9.95D-01  7.14D-01  4.18D-01
 E= -1714.02654945788     Delta-E=       -0.082291995759 Rises=F Damp=F
 DIIS: error= 3.32D-03 at cycle   4 NSaved=   4.
 NSaved= 4 IEnMin= 4 EnMin= -1714.02654945788     IErMin= 4 ErrMin= 3.32D-03
 ErrMax= 3.32D-03  0.00D+00 EMaxC= 1.00D-01 BMatC= 1.21D-02 BMatP= 1.00D-01
 IDIUse=3 WtCom= 9.67D-01 WtEn= 3.32D-02
 Coeff-Com:  0.927D-02 0.780D-01 0.272D+00 0.641D+00
 Coeff-En:   0.000D+00 0.000D+00 0.980D-01 0.902D+00
 Coeff:      0.896D-02 0.755D-01 0.266D+00 0.650D+00
 Gap=     0.237 Goal=   None    Shift=    0.000
 RMSDP=3.75D-04 MaxDP=1.77D-02 DE=-8.23D-02 OVMax= 2.22D-02

 Cycle   5  Pass 0  IDiag  1:
 RMSU=  1.64D-04    CP:  9.95D-01  7.02D-01  5.54D-01  6.69D-01
 E= -1714.03667248839     Delta-E=       -0.010123030505 Rises=F Damp=F
 DIIS: error= 6.55D-04 at cycle   5 NSaved=   5.
 NSaved= 5 IEnMin= 5 EnMin= -1714.03667248839     IErMin= 5 ErrMin= 6.55D-04
 ErrMax= 6.55D-04  0.00D+00 EMaxC= 1.00D-01 BMatC= 7.82D-04 BMatP= 1.21D-02
 IDIUse=3 WtCom= 9.93D-01 WtEn= 6.55D-03
 Coeff-Com: -0.162D-02 0.151D-01 0.103D+00 0.328D+00 0.555D+00
 Coeff-En:   0.000D+00 0.000D+00 0.000D+00 0.000D+00 0.100D+01
 Coeff:     -0.161D-02 0.150D-01 0.103D+00 0.326D+00 0.558D+00
 Gap=     0.237 Goal=   None    Shift=    0.000
 RMSDP=9.46D-05 MaxDP=6.98D-03 DE=-1.01D-02 OVMax= 5.04D-03

 Cycle   6  Pass 0  IDiag  1:
 RMSU=  4.78D-05    CP:  9.94D-01  7.05D-01  5.48D-01  7.25D-01  5.84D-01
 E= -1714.03733976476     Delta-E=       -0.000667276373 Rises=F Damp=F
 DIIS: error= 1.81D-04 at cycle   6 NSaved=   6.
 NSaved= 6 IEnMin= 6 EnMin= -1714.03733976476     IErMin= 6 ErrMin= 1.81D-04
 ErrMax= 1.81D-04  0.00D+00 EMaxC= 1.00D-01 BMatC= 5.09D-05 BMatP= 7.82D-04
 IDIUse=3 WtCom= 9.98D-01 WtEn= 1.81D-03
 Coeff-Com: -0.145D-02 0.197D-02 0.301D-01 0.109D+00 0.275D+00 0.586D+00
 Coeff-En:   0.000D+00 0.000D+00 0.000D+00 0.000D+00 0.000D+00 0.100D+01
 Coeff:     -0.145D-02 0.197D-02 0.300D-01 0.109D+00 0.274D+00 0.586D+00
 Gap=     0.237 Goal=   None    Shift=    0.000
 RMSDP=2.41D-05 MaxDP=1.06D-03 DE=-6.67D-04 OVMax= 1.30D-03

 Cycle   7  Pass 0  IDiag  1:
 RMSU=  1.69D-05    CP:  9.94D-01  7.04D-01  5.49D-01  7.23D-01  6.21D-01
                    CP:  6.71D-01
 E= -1714.03737756043     Delta-E=       -0.000037795669 Rises=F Damp=F
 DIIS: error= 1.29D-04 at cycle   7 NSaved=   7.
 NSaved= 7 IEnMin= 7 EnMin= -1714.03737756043     IErMin= 7 ErrMin= 1.29D-04
 ErrMax= 1.29D-04  0.00D+00 EMaxC= 1.00D-01 BMatC= 8.63D-06 BMatP= 5.09D-05
 IDIUse=3 WtCom= 9.99D-01 WtEn= 1.29D-03
 Coeff-Com: -0.784D-03 0.374D-04 0.104D-01 0.414D-01 0.129D+00 0.365D+00
 Coeff-Com:  0.456D+00
 Coeff-En:   0.000D+00 0.000D+00 0.000D+00 0.000D+00 0.000D+00 0.648D-01
 Coeff-En:   0.935D+00
 Coeff:     -0.783D-03 0.374D-04 0.104D-01 0.413D-01 0.129D+00 0.364D+00
 Coeff:      0.456D+00
 Gap=     0.237 Goal=   None    Shift=    0.000
 RMSDP=9.73D-06 MaxDP=4.49D-04 DE=-3.78D-05 OVMax= 5.73D-04

 Initial convergence to 1.0D-05 achieved.  Increase integral accuracy.
 Cycle   8  Pass 1  IDiag  1:
 E= -1714.03732193285     Delta-E=        0.000055627582 Rises=F Damp=F
 DIIS: error= 4.79D-05 at cycle   1 NSaved=   1.
 NSaved= 1 IEnMin= 1 EnMin= -1714.03732193285     IErMin= 1 ErrMin= 4.79D-05
 ErrMax= 4.79D-05  0.00D+00 EMaxC= 1.00D-01 BMatC= 1.46D-06 BMatP= 1.46D-06
 IDIUse=1 WtCom= 1.00D+00 WtEn= 0.00D+00
 Coeff-Com:  0.100D+01
 Coeff:      0.100D+01
 Gap=     0.237 Goal=   None    Shift=    0.000
 RMSDP=9.73D-06 MaxDP=4.49D-04 DE= 5.56D-05 OVMax= 5.21D-04

 Cycle   9  Pass 1  IDiag  1:
 RMSU=  1.94D-05    CP:  1.00D+00
 E= -1714.03732037404     Delta-E=        0.000001558803 Rises=F Damp=F
 DIIS: error= 1.08D-04 at cycle   2 NSaved=   2.
 NSaved= 2 IEnMin= 1 EnMin= -1714.03732193285     IErMin= 1 ErrMin= 4.79D-05
 ErrMax= 1.08D-04  0.00D+00 EMaxC= 1.00D-01 BMatC= 3.75D-06 BMatP= 1.46D-06
 IDIUse=3 WtCom= 4.90D-01 WtEn= 5.10D-01
 Coeff-Com:  0.633D+00 0.367D+00
 Coeff-En:   0.683D+00 0.317D+00
 Coeff:      0.658D+00 0.342D+00
 Gap=     0.237 Goal=   None    Shift=    0.000
 RMSDP=5.40D-06 MaxDP=2.74D-04 DE= 1.56D-06 OVMax= 4.05D-04

 Cycle  10  Pass 1  IDiag  1:
 RMSU=  5.06D-06    CP:  1.00D+00  9.04D-01
 E= -1714.03732324132     Delta-E=       -0.000002867276 Rises=F Damp=F
 DIIS: error= 1.56D-05 at cycle   3 NSaved=   3.
 NSaved= 3 IEnMin= 3 EnMin= -1714.03732324132     IErMin= 3 ErrMin= 1.56D-05
 ErrMax= 1.56D-05  0.00D+00 EMaxC= 1.00D-01 BMatC= 7.40D-08 BMatP= 1.46D-06
 IDIUse=1 WtCom= 1.00D+00 WtEn= 0.00D+00
 Coeff-Com:  0.775D-01 0.124D+00 0.798D+00
 Coeff:      0.775D-01 0.124D+00 0.798D+00
 Gap=     0.237 Goal=   None    Shift=    0.000
 RMSDP=1.20D-06 MaxDP=5.08D-05 DE=-2.87D-06 OVMax= 7.93D-05

 Cycle  11  Pass 1  IDiag  1:
 RMSU=  1.05D-06    CP:  1.00D+00  9.19D-01  9.04D-01
 E= -1714.03732326939     Delta-E=       -0.000000028072 Rises=F Damp=F
 DIIS: error= 6.72D-06 at cycle   4 NSaved=   4.
 NSaved= 4 IEnMin= 4 EnMin= -1714.03732326939     IErMin= 4 ErrMin= 6.72D-06
 ErrMax= 6.72D-06  0.00D+00 EMaxC= 1.00D-01 BMatC= 3.77D-08 BMatP= 7.40D-08
 IDIUse=1 WtCom= 1.00D+00 WtEn= 0.00D+00
 Coeff-Com: -0.246D-02 0.466D-01 0.491D+00 0.465D+00
 Coeff:     -0.246D-02 0.466D-01 0.491D+00 0.465D+00
 Gap=     0.237 Goal=   None    Shift=    0.000
 RMSDP=5.97D-07 MaxDP=3.02D-05 DE=-2.81D-08 OVMax= 3.23D-05

 Cycle  12  Pass 1  IDiag  1:
 RMSU=  2.66D-07    CP:  1.00D+00  9.22D-01  9.17D-01  4.98D-01
 E= -1714.03732329973     Delta-E=       -0.000000030344 Rises=F Damp=F
 DIIS: error= 1.85D-06 at cycle   5 NSaved=   5.
 NSaved= 5 IEnMin= 5 EnMin= -1714.03732329973     IErMin= 5 ErrMin= 1.85D-06
 ErrMax= 1.85D-06  0.00D+00 EMaxC= 1.00D-01 BMatC= 2.30D-09 BMatP= 3.77D-08
 IDIUse=1 WtCom= 1.00D+00 WtEn= 0.00D+00
 Coeff-Com: -0.588D-02 0.219D-01 0.259D+00 0.285D+00 0.440D+00
 Coeff:     -0.588D-02 0.219D-01 0.259D+00 0.285D+00 0.440D+00
 Gap=     0.237 Goal=   None    Shift=    0.000
 RMSDP=1.52D-07 MaxDP=8.52D-06 DE=-3.03D-08 OVMax= 1.03D-05

 Cycle  13  Pass 1  IDiag  1:
 RMSU=  9.44D-08    CP:  1.00D+00  9.22D-01  9.18D-01  5.20D-01  5.60D-01
 E= -1714.03732330143     Delta-E=       -0.000000001697 Rises=F Damp=F
 DIIS: error= 4.72D-07 at cycle   6 NSaved=   6.
 NSaved= 6 IEnMin= 6 EnMin= -1714.03732330143     IErMin= 6 ErrMin= 4.72D-07
 ErrMax= 4.72D-07  0.00D+00 EMaxC= 1.00D-01 BMatC= 1.53D-10 BMatP= 2.30D-09
 IDIUse=1 WtCom= 1.00D+00 WtEn= 0.00D+00
 Coeff-Com: -0.303D-02 0.754D-02 0.962D-01 0.114D+00 0.252D+00 0.533D+00
 Coeff:     -0.303D-02 0.754D-02 0.962D-01 0.114D+00 0.252D+00 0.533D+00
 Gap=     0.237 Goal=   None    Shift=    0.000
 RMSDP=3.79D-08 MaxDP=1.48D-06 DE=-1.70D-09 OVMax= 1.95D-06

 Cycle  14  Pass 1  IDiag  1:
 RMSU=  2.96D-08    CP:  1.00D+00  9.22D-01  9.18D-01  5.15D-01  6.11D-01
                    CP:  8.04D-01
 E= -1714.03732330158     Delta-E=       -0.000000000146 Rises=F Damp=F
 DIIS: error= 1.50D-07 at cycle   7 NSaved=   7.
 NSaved= 7 IEnMin= 7 EnMin= -1714.03732330158     IErMin= 7 ErrMin= 1.50D-07
 ErrMax= 1.50D-07  0.00D+00 EMaxC= 1.00D-01 BMatC= 1.18D-11 BMatP= 1.53D-10
 IDIUse=1 WtCom= 1.00D+00 WtEn= 0.00D+00
 Coeff-Com: -0.734D-03 0.110D-02 0.165D-01 0.220D-01 0.708D-01 0.265D+00
 Coeff-Com:  0.625D+00
 Coeff:     -0.734D-03 0.110D-02 0.165D-01 0.220D-01 0.708D-01 0.265D+00
 Coeff:      0.625D+00
 Gap=     0.237 Goal=   None    Shift=    0.000
 RMSDP=1.41D-08 MaxDP=9.73D-07 DE=-1.46D-10 OVMax= 7.20D-07

 Cycle  15  Pass 1  IDiag  1:
 RMSU=  1.02D-08    CP:  1.00D+00  9.22D-01  9.18D-01  5.17D-01  6.21D-01
                    CP:  8.44D-01  7.22D-01
 E= -1714.03732330153     Delta-E=        0.000000000047 Rises=F Damp=F
 DIIS: error= 5.97D-08 at cycle   8 NSaved=   8.
 NSaved= 8 IEnMin= 7 EnMin= -1714.03732330158     IErMin= 8 ErrMin= 5.97D-08
 ErrMax= 5.97D-08  0.00D+00 EMaxC= 1.00D-01 BMatC= 3.48D-12 BMatP= 1.18D-11
 IDIUse=1 WtCom= 1.00D+00 WtEn= 0.00D+00
 Coeff-Com: -0.669D-04-0.324D-03-0.248D-02-0.126D-02 0.110D-01 0.972D-01
 Coeff-Com:  0.407D+00 0.489D+00
 Coeff:     -0.669D-04-0.324D-03-0.248D-02-0.126D-02 0.110D-01 0.972D-01
 Coeff:      0.407D+00 0.489D+00
 Gap=     0.237 Goal=   None    Shift=    0.000
 RMSDP=5.89D-09 MaxDP=2.31D-07 DE= 4.68D-11 OVMax= 4.26D-07

 SCF Done:  E(RB3LYP) =  -1714.03732330     A.U. after   15 cycles
            NFock= 15  Conv=0.59D-08     -V/T= 2.0068
 KE= 1.702518026493D+03 PE=-8.473374130930D+03 EE= 2.833271399245D+03
 Leave Link  502 at Thu Oct  1 22:09:39 2020, MaxMem=  2147483648 cpu:       400.7
 (Enter /prod/apps/gaussian/g09d1/l601.exe)
 Copying SCF densities to generalized density rwf, IOpCl= 0 IROHF=0.

 **********************************************************************

            Population analysis using the SCF density.

 **********************************************************************

 Orbital symmetries:
       Occupied  (A) (A) (A) (A) (A) (A) (A) (A) (A) (A) (A) (A)
                 (A) (A) (A) (A) (A) (A) (A) (A) (A) (A) (A) (A)
                 (A) (A) (A) (A) (A) (A) (A) (A) (A) (A) (A) (A)
                 (A) (A) (A) (A) (A) (A) (A) (A) (A) (A) (A) (A)
                 (A) (A) (A) (A) (A) (A) (A) (A) (A) (A) (A) (A)
                 (A) (A) (A) (A) (A) (A) (A) (A) (A) (A) (A) (A)
                 (A) (A) (A) (A) (A) (A) (A) (A) (A) (A) (A) (A)
                 (A) (A) (A) (A)
       Virtual   (A) (A) (A) (A) (A) (A) (A) (A) (A) (A) (A) (A)
                 (A) (A) (A) (A) (A) (A) (A) (A) (A) (A) (A) (A)
                 (A) (A) (A) (A) (A) (A) (A) (A) (A) (A) (A) (A)
                 (A) (A) (A) (A) (A) (A) (A) (A) (A) (A) (A) (A)
                 (A) (A) (A) (A) (A) (A) (A) (A) (A) (A) (A) (A)
                 (A) (A) (A) (A) (A) (A) (A) (A) (A) (A) (A) (A)
                 (A) (A) (A) (A) (A) (A) (A) (A) (A) (A) (A) (A)
                 (A) (A) (A) (A) (A) (A) (A) (A) (A) (A) (A) (A)
                 (A) (A) (A) (A) (A) (A) (A) (A) (A) (A) (A) (A)
                 (A) (A) (A) (A) (A) (A) (A) (A) (A) (A) (A) (A)
                 (A) (A) (A) (A) (A) (A) (A) (A) (A) (A) (A) (A)
                 (A) (A) (A) (A) (A) (A) (A) (A) (A) (A) (A) (A)
                 (A) (A) (A) (A) (A) (A) (A) (A) (A) (A) (A) (A)
                 (A) (A) (A) (A) (A) (A) (A) (A) (A) (A) (A) (A)
                 (A) (A) (A) (A) (A) (A) (A) (A) (A) (A) (A) (A)
                 (A) (A) (A) (A) (A) (A) (A) (A) (A) (A) (A) (A)
                 (A) (A) (A) (A) (A) (A) (A) (A) (A) (A) (A) (A)
                 (A) (A) (A) (A) (A) (A) (A) (A) (A) (A) (A) (A)
                 (A) (A) (A) (A) (A) (A) (A) (A) (A) (A) (A) (A)
                 (A) (A) (A) (A) (A) (A) (A) (A) (A) (A) (A) (A)
                 (A) (A) (A) (A) (A) (A) (A) (A) (A) (A) (A) (A)
                 (A) (A) (A) (A) (A) (A) (A) (A) (A) (A) (A) (A)
                 (A) (A) (A) (A) (A) (A) (A) (A) (A) (A) (A)
 The electronic state is 1-A.
 Alpha  occ. eigenvalues --  -89.14404 -89.08877 -19.15682 -19.15584 -19.14223
 Alpha  occ. eigenvalues --  -19.13985 -14.39350 -14.39006 -10.28548 -10.23739
 Alpha  occ. eigenvalues --  -10.23682 -10.23501 -10.22610 -10.20833 -10.19264
 Alpha  occ. eigenvalues --  -10.19240 -10.18480 -10.18425 -10.18347 -10.18307
 Alpha  occ. eigenvalues --  -10.18120  -8.16624  -8.11928  -6.13115  -6.13058
 Alpha  occ. eigenvalues --   -6.13001  -6.08343  -6.08291  -6.08212  -1.13343
 Alpha  occ. eigenvalues --   -1.09324  -1.01158  -0.98866  -0.96499  -0.95052
 Alpha  occ. eigenvalues --   -0.86487  -0.85015  -0.79330  -0.74596  -0.73931
 Alpha  occ. eigenvalues --   -0.73753  -0.72707  -0.72418  -0.67253  -0.63455
 Alpha  occ. eigenvalues --   -0.60965  -0.59880  -0.57962  -0.57642  -0.55781
 Alpha  occ. eigenvalues --   -0.52748  -0.52056  -0.50692  -0.50228  -0.49407
 Alpha  occ. eigenvalues --   -0.48566  -0.47332  -0.46764  -0.46239  -0.45553
 Alpha  occ. eigenvalues --   -0.44909  -0.44139  -0.43606  -0.43373  -0.42628
 Alpha  occ. eigenvalues --   -0.42407  -0.41657  -0.41149  -0.40403  -0.40219
 Alpha  occ. eigenvalues --   -0.38675  -0.37423  -0.37018  -0.35425  -0.35268
 Alpha  occ. eigenvalues --   -0.34567  -0.33646  -0.33163  -0.33000  -0.31929
 Alpha  occ. eigenvalues --   -0.31203  -0.30904  -0.29374  -0.29102  -0.28429
 Alpha  occ. eigenvalues --   -0.26842  -0.24407  -0.23717
 Alpha virt. eigenvalues --    0.00016   0.00541   0.02552   0.03383   0.05098
 Alpha virt. eigenvalues --    0.06178   0.06334   0.07058   0.08213   0.08591
 Alpha virt. eigenvalues --    0.09193   0.09344   0.09828   0.10589   0.11194
 Alpha virt. eigenvalues --    0.12202   0.13064   0.13668   0.14066   0.15013
 Alpha virt. eigenvalues --    0.15069   0.15628   0.16220   0.16726   0.17299
 Alpha virt. eigenvalues --    0.17484   0.17775   0.18080   0.18398   0.19067
 Alpha virt. eigenvalues --    0.20367   0.20609   0.21363   0.22166   0.23433
 Alpha virt. eigenvalues --    0.24553   0.25551   0.27888   0.29280   0.31208
 Alpha virt. eigenvalues --    0.32864   0.34708   0.34949   0.35848   0.36109
 Alpha virt. eigenvalues --    0.36943   0.39691   0.41628   0.42889   0.44812
 Alpha virt. eigenvalues --    0.46113   0.46947   0.47624   0.48487   0.51036
 Alpha virt. eigenvalues --    0.52002   0.52332   0.52887   0.53999   0.55033
 Alpha virt. eigenvalues --    0.55514   0.56091   0.57706   0.58244   0.58406
 Alpha virt. eigenvalues --    0.59028   0.59721   0.60085   0.60929   0.61200
 Alpha virt. eigenvalues --    0.61656   0.62063   0.62374   0.63564   0.64897
 Alpha virt. eigenvalues --    0.65463   0.66039   0.67511   0.68164   0.69502
 Alpha virt. eigenvalues --    0.71621   0.72164   0.73099   0.74034   0.76378
 Alpha virt. eigenvalues --    0.76932   0.78367   0.79148   0.80623   0.80866
 Alpha virt. eigenvalues --    0.81580   0.82491   0.83100   0.83238   0.84035
 Alpha virt. eigenvalues --    0.84394   0.84938   0.85154   0.85552   0.86567
 Alpha virt. eigenvalues --    0.86862   0.87719   0.88302   0.88859   0.89015
 Alpha virt. eigenvalues --    0.89822   0.90908   0.91190   0.91966   0.92791
 Alpha virt. eigenvalues --    0.93463   0.94747   0.94894   0.95775   0.96266
 Alpha virt. eigenvalues --    0.97305   0.97984   0.98867   1.00108   1.02083
 Alpha virt. eigenvalues --    1.02131   1.03317   1.05006   1.05610   1.06416
 Alpha virt. eigenvalues --    1.07295   1.07991   1.09052   1.10185   1.11932
 Alpha virt. eigenvalues --    1.12370   1.13032   1.16238   1.16455   1.17354
 Alpha virt. eigenvalues --    1.17979   1.19183   1.19636   1.20646   1.21967
 Alpha virt. eigenvalues --    1.23893   1.24778   1.26164   1.26761   1.28657
 Alpha virt. eigenvalues --    1.29684   1.32022   1.36663   1.37453   1.40593
 Alpha virt. eigenvalues --    1.42459   1.43898   1.44336   1.45199   1.47511
 Alpha virt. eigenvalues --    1.48518   1.49361   1.50301   1.52045   1.53520
 Alpha virt. eigenvalues --    1.54402   1.55857   1.61732   1.63999   1.67171
 Alpha virt. eigenvalues --    1.69482   1.72406   1.73157   1.74540   1.75540
 Alpha virt. eigenvalues --    1.78230   1.78870   1.79093   1.80103   1.80699
 Alpha virt. eigenvalues --    1.80894   1.81613   1.81943   1.82449   1.83160
 Alpha virt. eigenvalues --    1.84143   1.85134   1.86418   1.87879   1.88922
 Alpha virt. eigenvalues --    1.89801   1.91215   1.91717   1.92324   1.93609
 Alpha virt. eigenvalues --    1.94618   1.95604   1.96277   1.97586   1.98209
 Alpha virt. eigenvalues --    1.99051   2.00209   2.02876   2.03273   2.05434
 Alpha virt. eigenvalues --    2.06369   2.06764   2.08060   2.08710   2.11402
 Alpha virt. eigenvalues --    2.12154   2.12901   2.13691   2.14955   2.15096
 Alpha virt. eigenvalues --    2.17328   2.17967   2.18485   2.20195   2.21758
 Alpha virt. eigenvalues --    2.22989   2.23720   2.27522   2.28178   2.28866
 Alpha virt. eigenvalues --    2.31093   2.31831   2.32010   2.33049   2.35301
 Alpha virt. eigenvalues --    2.37764   2.37923   2.40493   2.40872   2.42260
 Alpha virt. eigenvalues --    2.46187   2.49099   2.49546   2.54970   2.58408
 Alpha virt. eigenvalues --    2.58890   2.60370   2.65138   2.67950   2.70382
 Alpha virt. eigenvalues --    2.70416   2.71869   2.73250   2.74197   2.75277
 Alpha virt. eigenvalues --    2.76215   2.77618   2.80122   2.82720   2.83101
 Alpha virt. eigenvalues --    2.86246   2.90190   3.06772   3.41586   3.79244
 Alpha virt. eigenvalues --    3.81276   3.87524   3.95600   3.96190   4.03862
 Alpha virt. eigenvalues --    4.04608   4.10301   4.12590   4.14805   4.18526
 Alpha virt. eigenvalues --    4.20861   4.24387   4.25180   4.30490   4.34074
 Alpha virt. eigenvalues --    4.38343   4.43572   4.55280   4.70121   4.74083
          Condensed to atoms (all electrons):
               1          2          3          4          5          6
     1  C    4.991872   0.269408  -0.049189  -0.009344   0.001611   0.003219
     2  N    0.269408   7.206682   0.290858   0.141968  -0.056454  -0.054125
     3  C   -0.049189   0.290858   4.987855  -0.029308  -0.003218  -0.002231
     4  S   -0.009344   0.141968  -0.029308  13.649634   0.413388   0.410260
     5  O    0.001611  -0.056454  -0.003218   0.413388   8.260631  -0.046932
     6  O    0.003219  -0.054125  -0.002231   0.410260  -0.046932   8.279419
     7  N   -0.010205  -0.048504   0.002264   0.125628  -0.053251  -0.053442
     8  C   -0.000444   0.003087  -0.000036  -0.024639  -0.001788   0.002170
     9  C    0.000053  -0.000132   0.000001   0.001395  -0.000060  -0.000019
    10  S   -0.000045   0.000012   0.000000  -0.000047  -0.000001   0.000473
    11  O    0.000000   0.000000   0.000000  -0.000026   0.000000   0.000000
    12  O    0.000000   0.000000   0.000000  -0.000004   0.000000   0.000000
    13  C   -0.000078   0.000031  -0.000004  -0.006431  -0.000153   0.002037
    14  C   -0.000011  -0.000113   0.000003  -0.002900   0.002031  -0.002157
    15  C    0.000002  -0.000031   0.000000   0.003545  -0.009287   0.002033
    16  C    0.000000   0.000000   0.000000  -0.000150   0.000381  -0.001095
    17  C    0.000000   0.000000   0.000000  -0.000007  -0.000001  -0.000001
    18  C    0.000000   0.000000   0.000000  -0.000001   0.000000   0.000000
    19  C    0.000000   0.000000   0.000000   0.000001   0.000000   0.000000
    20  C    0.000000   0.000000   0.000000   0.000002  -0.000001   0.000012
    21  C    0.000000   0.000000   0.000000  -0.000023  -0.000187   0.000436
    22  H    0.374804  -0.035392  -0.003795   0.002874  -0.000048   0.000039
    23  H    0.376907  -0.046164  -0.001653  -0.006845  -0.000039   0.004817
    24  H    0.375142  -0.033411   0.004649  -0.003609   0.000028  -0.002042
    25  H   -0.002901  -0.039479   0.377491   0.001673   0.000321  -0.000102
    26  H    0.004345  -0.030570   0.378352  -0.003712   0.011379  -0.000095
    27  H   -0.001813  -0.047330   0.372542  -0.002126  -0.000566   0.001988
    28  H    0.000096   0.002896  -0.000108  -0.006291  -0.000254   0.001850
    29  H    0.000000   0.000001   0.000000  -0.000058   0.000001   0.000000
    30  H   -0.000046  -0.000048   0.000001   0.000127   0.000002  -0.000010
    31  H    0.000003   0.000000   0.000000  -0.000021  -0.000002  -0.000482
    32  H    0.000258  -0.000369   0.000005   0.000777   0.000034   0.003539
    33  H    0.000000  -0.000003   0.000000  -0.000632   0.000071   0.000002
    34  H    0.000000   0.000000   0.000000   0.000129  -0.000004  -0.000018
    35  H   -0.000003   0.000069   0.000003   0.008911   0.018364  -0.003311
    36  H    0.000000   0.000000   0.000000  -0.000299   0.000089   0.000034
    37  H    0.000000   0.000000   0.000000   0.000000   0.000000   0.000000
    38  H    0.000000   0.000000   0.000000   0.000000   0.000000   0.000000
    39  H    0.000000   0.000000   0.000000   0.000000   0.000000   0.000000
    40  H    0.000000   0.000000   0.000000  -0.000001   0.000000  -0.000002
    41  H    0.000000   0.000002   0.000000   0.000717   0.000073   0.003159
               7          8          9         10         11         12
     1  C   -0.010205  -0.000444   0.000053  -0.000045   0.000000   0.000000
     2  N   -0.048504   0.003087  -0.000132   0.000012   0.000000   0.000000
     3  C    0.002264  -0.000036   0.000001   0.000000   0.000000   0.000000
     4  S    0.125628  -0.024639   0.001395  -0.000047  -0.000026  -0.000004
     5  O   -0.053251  -0.001788  -0.000060  -0.000001   0.000000   0.000000
     6  O   -0.053442   0.002170  -0.000019   0.000473   0.000000   0.000000
     7  N    7.366352   0.263482  -0.052908   0.003952  -0.000149  -0.000030
     8  C    0.263482   4.849825   0.341522  -0.093330   0.002686   0.000742
     9  C   -0.052908   0.341522   5.782831   0.096800  -0.044837  -0.044452
    10  S    0.003952  -0.093330   0.096800  13.912133   0.437186   0.407335
    11  O   -0.000149   0.002686  -0.044837   0.437186   8.207164  -0.046736
    12  O   -0.000030   0.000742  -0.044452   0.407335  -0.046736   8.250679
    13  C   -0.046895   0.353615  -0.182222   0.140316  -0.046030  -0.044925
    14  C   -0.070386   0.357895  -0.059771   0.006012  -0.000067  -0.002686
    15  C    0.000112  -0.030106   0.003988  -0.000227   0.000000   0.000051
    16  C   -0.000395  -0.004199  -0.000101  -0.000178   0.000000  -0.000152
    17  C   -0.000002  -0.001070  -0.000050   0.000376   0.000000   0.000481
    18  C    0.000000  -0.000020   0.000001   0.000010   0.000000  -0.000089
    19  C    0.000000   0.000003   0.000000   0.000002   0.000000   0.000001
    20  C    0.000000   0.000005   0.000000  -0.000005   0.000000   0.000000
    21  C    0.000022   0.000843  -0.000004   0.000050   0.000000   0.000001
    22  H   -0.000019  -0.000006  -0.000002   0.000001   0.000000   0.000000
    23  H    0.000056   0.000098  -0.000003  -0.000002   0.000000   0.000000
    24  H    0.012983  -0.000684  -0.000095   0.000176   0.000005   0.000000
    25  H   -0.000089   0.000000   0.000000   0.000000   0.000000   0.000000
    26  H    0.000055  -0.000005   0.000000   0.000000   0.000000   0.000000
    27  H   -0.000057   0.000007   0.000000   0.000000   0.000000   0.000000
    28  H    0.288915  -0.024480  -0.006002  -0.000001   0.000003   0.000001
    29  H    0.001250  -0.026853   0.340607  -0.008582   0.000659  -0.000567
    30  H    0.000719  -0.026589   0.324546   0.002159  -0.000299   0.001102
    31  H    0.001213  -0.022415   0.008577  -0.012874   0.000585  -0.000116
    32  H   -0.003721  -0.022997   0.003271  -0.003892   0.000278   0.001183
    33  H   -0.004906  -0.036314  -0.005737  -0.000260   0.000001   0.000082
    34  H    0.005093  -0.030708  -0.003986   0.005695   0.000021   0.006531
    35  H    0.000666  -0.007561   0.000047  -0.000060   0.000000  -0.000001
    36  H   -0.000050   0.004965  -0.000161   0.000032   0.000000  -0.000001
    37  H    0.000000   0.000248  -0.000009   0.000064   0.000000   0.000282
    38  H    0.000000   0.000000   0.000000   0.000002   0.000000  -0.000002
    39  H    0.000000   0.000000   0.000000   0.000000   0.000000   0.000000
    40  H    0.000000   0.000000   0.000000   0.000000   0.000000   0.000000
    41  H   -0.000002   0.000007   0.000000   0.000002   0.000000   0.000000
              13         14         15         16         17         18
     1  C   -0.000078  -0.000011   0.000002   0.000000   0.000000   0.000000
     2  N    0.000031  -0.000113  -0.000031   0.000000   0.000000   0.000000
     3  C   -0.000004   0.000003   0.000000   0.000000   0.000000   0.000000
     4  S   -0.006431  -0.002900   0.003545  -0.000150  -0.000007  -0.000001
     5  O   -0.000153   0.002031  -0.009287   0.000381  -0.000001   0.000000
     6  O    0.002037  -0.002157   0.002033  -0.001095  -0.000001   0.000000
     7  N   -0.046895  -0.070386   0.000112  -0.000395  -0.000002   0.000000
     8  C    0.353615   0.357895  -0.030106  -0.004199  -0.001070  -0.000020
     9  C   -0.182222  -0.059771   0.003988  -0.000101  -0.000050   0.000001
    10  S    0.140316   0.006012  -0.000227  -0.000178   0.000376   0.000010
    11  O   -0.046030  -0.000067   0.000000   0.000000   0.000000   0.000000
    12  O   -0.044925  -0.002686   0.000051  -0.000152   0.000481  -0.000089
    13  C    5.684156  -0.055642  -0.002185  -0.002612  -0.001552  -0.000024
    14  C   -0.055642   5.182245   0.327162  -0.029487  -0.004263   0.000257
    15  C   -0.002185   0.327162   5.231037   0.337204  -0.067733   0.006078
    16  C   -0.002612  -0.029487   0.337204   4.678417   0.533168  -0.017829
    17  C   -0.001552  -0.004263  -0.067733   0.533168   4.980706   0.531038
    18  C   -0.000024   0.000257   0.006078  -0.017829   0.531038   4.853450
    19  C    0.000051   0.000002   0.000369  -0.035308  -0.035697   0.547205
    20  C   -0.000033  -0.000200   0.007352  -0.022206  -0.047111  -0.025852
    21  C   -0.002417   0.000826  -0.046160   0.548339  -0.044459  -0.046059
    22  H    0.000003   0.000000   0.000000   0.000000   0.000000   0.000000
    23  H   -0.000062   0.000000   0.000000   0.000000   0.000000   0.000000
    24  H    0.000041   0.000038  -0.000001   0.000000   0.000000   0.000000
    25  H    0.000000   0.000000   0.000000   0.000000   0.000000   0.000000
    26  H    0.000000   0.000000   0.000001   0.000000   0.000000   0.000000
    27  H   -0.000001   0.000000   0.000000   0.000000   0.000000   0.000000
    28  H    0.004944  -0.001829  -0.000212   0.000004   0.000000   0.000000
    29  H    0.009456  -0.003456   0.000200   0.000010  -0.000001   0.000000
    30  H    0.003378   0.004334  -0.000112   0.000001   0.000000   0.000000
    31  H    0.343817  -0.005462  -0.001477   0.010441   0.002670   0.000066
    32  H    0.328708   0.003940  -0.000114   0.000101   0.000074   0.000001
    33  H    0.005759   0.349500  -0.029452   0.003912   0.000179   0.000001
    34  H   -0.003648   0.356907  -0.036530  -0.007155   0.003521  -0.000120
    35  H   -0.000144  -0.034005   0.351238  -0.029632   0.004189  -0.000134
    36  H   -0.000062  -0.036372   0.355087  -0.030227  -0.004522  -0.000070
    37  H   -0.000063   0.000216  -0.008920  -0.049823   0.354983  -0.041033
    38  H   -0.000002   0.000003  -0.000187   0.003712  -0.039580   0.358091
    39  H    0.000000   0.000000   0.000007   0.000692   0.004872  -0.043006
    40  H   -0.000003   0.000001  -0.000180   0.003772   0.000819   0.004624
    41  H   -0.000019   0.000239  -0.011105  -0.039283   0.006176   0.000324
              19         20         21         22         23         24
     1  C    0.000000   0.000000   0.000000   0.374804   0.376907   0.375142
     2  N    0.000000   0.000000   0.000000  -0.035392  -0.046164  -0.033411
     3  C    0.000000   0.000000   0.000000  -0.003795  -0.001653   0.004649
     4  S    0.000001   0.000002  -0.000023   0.002874  -0.006845  -0.003609
     5  O    0.000000  -0.000001  -0.000187  -0.000048  -0.000039   0.000028
     6  O    0.000000   0.000012   0.000436   0.000039   0.004817  -0.002042
     7  N    0.000000   0.000000   0.000022  -0.000019   0.000056   0.012983
     8  C    0.000003   0.000005   0.000843  -0.000006   0.000098  -0.000684
     9  C    0.000000   0.000000  -0.000004  -0.000002  -0.000003  -0.000095
    10  S    0.000002  -0.000005   0.000050   0.000001  -0.000002   0.000176
    11  O    0.000000   0.000000   0.000000   0.000000   0.000000   0.000005
    12  O    0.000001   0.000000   0.000001   0.000000   0.000000   0.000000
    13  C    0.000051  -0.000033  -0.002417   0.000003  -0.000062   0.000041
    14  C    0.000002  -0.000200   0.000826   0.000000   0.000000   0.000038
    15  C    0.000369   0.007352  -0.046160   0.000000   0.000000  -0.000001
    16  C   -0.035308  -0.022206   0.548339   0.000000   0.000000   0.000000
    17  C   -0.035697  -0.047111  -0.044459   0.000000   0.000000   0.000000
    18  C    0.547205  -0.025852  -0.046059   0.000000   0.000000   0.000000
    19  C    4.859460   0.549421  -0.034910   0.000000   0.000000   0.000000
    20  C    0.549421   4.878718   0.514270   0.000000   0.000000   0.000000
    21  C   -0.034910   0.514270   4.970648   0.000000   0.000000   0.000000
    22  H    0.000000   0.000000   0.000000   0.546844  -0.036955  -0.022743
    23  H    0.000000   0.000000   0.000000  -0.036955   0.560637  -0.030897
    24  H    0.000000   0.000000   0.000000  -0.022743  -0.030897   0.511762
    25  H    0.000000   0.000000   0.000000   0.005366  -0.001841   0.000082
    26  H    0.000000   0.000000   0.000000   0.000020  -0.000175  -0.000185
    27  H    0.000000   0.000000   0.000000  -0.001420   0.008045  -0.000217
    28  H    0.000000   0.000000   0.000001  -0.000014   0.000004  -0.000293
    29  H    0.000000   0.000000   0.000000   0.000000   0.000000  -0.000001
    30  H    0.000000   0.000000   0.000000  -0.000001  -0.000003   0.000705
    31  H   -0.000051   0.000221   0.003742   0.000000   0.000000   0.000001
    32  H   -0.000002  -0.000016  -0.000013  -0.000005   0.000171   0.001029
    33  H    0.000000   0.000002  -0.000112   0.000000   0.000000   0.000000
    34  H   -0.000002   0.000005   0.000190   0.000000   0.000000  -0.000001
    35  H   -0.000002   0.000145  -0.003913   0.000000   0.000000  -0.000001
    36  H    0.000041  -0.000241   0.000693   0.000000   0.000000   0.000000
    37  H    0.004818   0.000366   0.006018   0.000000   0.000000   0.000000
    38  H   -0.043539   0.004660   0.000791   0.000000   0.000000   0.000000
    39  H    0.359185  -0.043746   0.004688   0.000000   0.000000   0.000000
    40  H   -0.044042   0.357169  -0.038999   0.000000   0.000000   0.000000
    41  H    0.004631  -0.044937   0.355580   0.000000   0.000000   0.000000
              25         26         27         28         29         30
     1  C   -0.002901   0.004345  -0.001813   0.000096   0.000000  -0.000046
     2  N   -0.039479  -0.030570  -0.047330   0.002896   0.000001  -0.000048
     3  C    0.377491   0.378352   0.372542  -0.000108   0.000000   0.000001
     4  S    0.001673  -0.003712  -0.002126  -0.006291  -0.000058   0.000127
     5  O    0.000321   0.011379  -0.000566  -0.000254   0.000001   0.000002
     6  O   -0.000102  -0.000095   0.001988   0.001850   0.000000  -0.000010
     7  N   -0.000089   0.000055  -0.000057   0.288915   0.001250   0.000719
     8  C    0.000000  -0.000005   0.000007  -0.024480  -0.026853  -0.026589
     9  C    0.000000   0.000000   0.000000  -0.006002   0.340607   0.324546
    10  S    0.000000   0.000000   0.000000  -0.000001  -0.008582   0.002159
    11  O    0.000000   0.000000   0.000000   0.000003   0.000659  -0.000299
    12  O    0.000000   0.000000   0.000000   0.000001  -0.000567   0.001102
    13  C    0.000000   0.000000  -0.000001   0.004944   0.009456   0.003378
    14  C    0.000000   0.000000   0.000000  -0.001829  -0.003456   0.004334
    15  C    0.000000   0.000001   0.000000  -0.000212   0.000200  -0.000112
    16  C    0.000000   0.000000   0.000000   0.000004   0.000010   0.000001
    17  C    0.000000   0.000000   0.000000   0.000000  -0.000001   0.000000
    18  C    0.000000   0.000000   0.000000   0.000000   0.000000   0.000000
    19  C    0.000000   0.000000   0.000000   0.000000   0.000000   0.000000
    20  C    0.000000   0.000000   0.000000   0.000000   0.000000   0.000000
    21  C    0.000000   0.000000   0.000000   0.000001   0.000000   0.000000
    22  H    0.005366   0.000020  -0.001420  -0.000014   0.000000  -0.000001
    23  H   -0.001841  -0.000175   0.008045   0.000004   0.000000  -0.000003
    24  H    0.000082  -0.000185  -0.000217  -0.000293  -0.000001   0.000705
    25  H    0.553384  -0.020531  -0.041730   0.000003   0.000000   0.000000
    26  H   -0.020531   0.480580  -0.029326  -0.000009   0.000000   0.000000
    27  H   -0.041730  -0.029326   0.576164   0.000004   0.000000   0.000000
    28  H    0.000003  -0.000009   0.000004   0.380461   0.000528   0.000772
    29  H    0.000000   0.000000   0.000000   0.000528   0.495352  -0.020855
    30  H    0.000000   0.000000   0.000000   0.000772  -0.020855   0.500687
    31  H    0.000000   0.000000   0.000000  -0.000092  -0.000248  -0.000219
    32  H    0.000000   0.000000   0.000000   0.000028  -0.000265   0.000097
    33  H    0.000000   0.000000   0.000000   0.004491   0.003510  -0.000087
    34  H    0.000000   0.000000   0.000000  -0.000081  -0.000242   0.000212
    35  H    0.000000  -0.000001   0.000000   0.000032   0.000003   0.000003
    36  H    0.000000   0.000000   0.000000   0.000006  -0.000015   0.000002
    37  H    0.000000   0.000000   0.000000   0.000000   0.000000   0.000000
    38  H    0.000000   0.000000   0.000000   0.000000   0.000000   0.000000
    39  H    0.000000   0.000000   0.000000   0.000000   0.000000   0.000000
    40  H    0.000000   0.000000   0.000000   0.000000   0.000000   0.000000
    41  H    0.000000   0.000000   0.000000  -0.000001   0.000000   0.000000
              31         32         33         34         35         36
     1  C    0.000003   0.000258   0.000000   0.000000  -0.000003   0.000000
     2  N    0.000000  -0.000369  -0.000003   0.000000   0.000069   0.000000
     3  C    0.000000   0.000005   0.000000   0.000000   0.000003   0.000000
     4  S   -0.000021   0.000777  -0.000632   0.000129   0.008911  -0.000299
     5  O   -0.000002   0.000034   0.000071  -0.000004   0.018364   0.000089
     6  O   -0.000482   0.003539   0.000002  -0.000018  -0.003311   0.000034
     7  N    0.001213  -0.003721  -0.004906   0.005093   0.000666  -0.000050
     8  C   -0.022415  -0.022997  -0.036314  -0.030708  -0.007561   0.004965
     9  C    0.008577   0.003271  -0.005737  -0.003986   0.000047  -0.000161
    10  S   -0.012874  -0.003892  -0.000260   0.005695  -0.000060   0.000032
    11  O    0.000585   0.000278   0.000001   0.000021   0.000000   0.000000
    12  O   -0.000116   0.001183   0.000082   0.006531  -0.000001  -0.000001
    13  C    0.343817   0.328708   0.005759  -0.003648  -0.000144  -0.000062
    14  C   -0.005462   0.003940   0.349500   0.356907  -0.034005  -0.036372
    15  C   -0.001477  -0.000114  -0.029452  -0.036530   0.351238   0.355087
    16  C    0.010441   0.000101   0.003912  -0.007155  -0.029632  -0.030227
    17  C    0.002670   0.000074   0.000179   0.003521   0.004189  -0.004522
    18  C    0.000066   0.000001   0.000001  -0.000120  -0.000134  -0.000070
    19  C   -0.000051  -0.000002   0.000000  -0.000002  -0.000002   0.000041
    20  C    0.000221  -0.000016   0.000002   0.000005   0.000145  -0.000241
    21  C    0.003742  -0.000013  -0.000112   0.000190  -0.003913   0.000693
    22  H    0.000000  -0.000005   0.000000   0.000000   0.000000   0.000000
    23  H    0.000000   0.000171   0.000000   0.000000   0.000000   0.000000
    24  H    0.000001   0.001029   0.000000  -0.000001  -0.000001   0.000000
    25  H    0.000000   0.000000   0.000000   0.000000   0.000000   0.000000
    26  H    0.000000   0.000000   0.000000   0.000000  -0.000001   0.000000
    27  H    0.000000   0.000000   0.000000   0.000000   0.000000   0.000000
    28  H   -0.000092   0.000028   0.004491  -0.000081   0.000032   0.000006
    29  H   -0.000248  -0.000265   0.003510  -0.000242   0.000003  -0.000015
    30  H   -0.000219   0.000097  -0.000087   0.000212   0.000003   0.000002
    31  H    0.442079  -0.014507   0.000160  -0.000433  -0.000009   0.000074
    32  H   -0.014507   0.479082  -0.000108   0.000008  -0.000002   0.000003
    33  H    0.000160  -0.000108   0.612433  -0.030683  -0.000741  -0.006117
    34  H   -0.000433   0.000008  -0.030683   0.549232   0.004394  -0.001642
    35  H   -0.000009  -0.000002  -0.000741   0.004394   0.516444  -0.028820
    36  H    0.000074   0.000003  -0.006117  -0.001642  -0.028820   0.587913
    37  H    0.000081   0.000000  -0.000178   0.004729   0.000011   0.001734
    38  H    0.000005   0.000000   0.000000   0.000010   0.000002  -0.000001
    39  H   -0.000001   0.000000   0.000000   0.000000   0.000000   0.000000
    40  H    0.000010   0.000000   0.000000   0.000000  -0.000008   0.000004
    41  H    0.000025   0.000004  -0.000010   0.000003   0.005825   0.000212
              37         38         39         40         41
     1  C    0.000000   0.000000   0.000000   0.000000   0.000000
     2  N    0.000000   0.000000   0.000000   0.000000   0.000002
     3  C    0.000000   0.000000   0.000000   0.000000   0.000000
     4  S    0.000000   0.000000   0.000000  -0.000001   0.000717
     5  O    0.000000   0.000000   0.000000   0.000000   0.000073
     6  O    0.000000   0.000000   0.000000  -0.000002   0.003159
     7  N    0.000000   0.000000   0.000000   0.000000  -0.000002
     8  C    0.000248   0.000000   0.000000   0.000000   0.000007
     9  C   -0.000009   0.000000   0.000000   0.000000   0.000000
    10  S    0.000064   0.000002   0.000000   0.000000   0.000002
    11  O    0.000000   0.000000   0.000000   0.000000   0.000000
    12  O    0.000282  -0.000002   0.000000   0.000000   0.000000
    13  C   -0.000063  -0.000002   0.000000  -0.000003  -0.000019
    14  C    0.000216   0.000003   0.000000   0.000001   0.000239
    15  C   -0.008920  -0.000187   0.000007  -0.000180  -0.011105
    16  C   -0.049823   0.003712   0.000692   0.003772  -0.039283
    17  C    0.354983  -0.039580   0.004872   0.000819   0.006176
    18  C   -0.041033   0.358091  -0.043006   0.004624   0.000324
    19  C    0.004818  -0.043539   0.359185  -0.044042   0.004631
    20  C    0.000366   0.004660  -0.043746   0.357169  -0.044937
    21  C    0.006018   0.000791   0.004688  -0.038999   0.355580
    22  H    0.000000   0.000000   0.000000   0.000000   0.000000
    23  H    0.000000   0.000000   0.000000   0.000000   0.000000
    24  H    0.000000   0.000000   0.000000   0.000000   0.000000
    25  H    0.000000   0.000000   0.000000   0.000000   0.000000
    26  H    0.000000   0.000000   0.000000   0.000000   0.000000
    27  H    0.000000   0.000000   0.000000   0.000000   0.000000
    28  H    0.000000   0.000000   0.000000   0.000000  -0.000001
    29  H    0.000000   0.000000   0.000000   0.000000   0.000000
    30  H    0.000000   0.000000   0.000000   0.000000   0.000000
    31  H    0.000081   0.000005  -0.000001   0.000010   0.000025
    32  H    0.000000   0.000000   0.000000   0.000000   0.000004
    33  H   -0.000178   0.000000   0.000000   0.000000  -0.000010
    34  H    0.004729   0.000010   0.000000   0.000000   0.000003
    35  H    0.000011   0.000002   0.000000  -0.000008   0.005825
    36  H    0.001734  -0.000001   0.000000   0.000004   0.000212
    37  H    0.600852  -0.005692  -0.000182   0.000018  -0.000172
    38  H   -0.005692   0.594217  -0.005545  -0.000188   0.000016
    39  H   -0.000182  -0.005545   0.599774  -0.005628  -0.000169
    40  H    0.000018  -0.000188  -0.005628   0.597446  -0.005316
    41  H   -0.000172   0.000016  -0.000169  -0.005316   0.574905
 Mulliken charges:
               1
     1  C   -0.323644
     2  N   -0.522889
     3  C   -0.324481
     4  S    1.335444
     5  O   -0.536159
     6  O   -0.549426
     7  N   -0.727755
     8  C    0.173044
     9  C   -0.503090
    10  S    1.106719
    11  O   -0.510445
    12  O   -0.528711
    13  C   -0.481107
    14  C   -0.282803
    15  C   -0.381449
    16  C    0.149675
    17  C   -0.177203
    18  C   -0.126908
    19  C   -0.131638
    20  C   -0.127999
    21  C   -0.189880
    22  H    0.170449
    23  H    0.173902
    24  H    0.187539
    25  H    0.168356
    26  H    0.209877
    27  H    0.165837
    28  H    0.354628
    29  H    0.209565
    30  H    0.209420
    31  H    0.244640
    32  H    0.223420
    33  H    0.135234
    34  H    0.178571
    35  H    0.197999
    36  H    0.157713
    37  H    0.131652
    38  H    0.133227
    39  H    0.129059
    40  H    0.130503
    41  H    0.149113
 Sum of Mulliken charges =   0.00000
 Mulliken charges with hydrogens summed into heavy atoms:
               1
     1  C    0.208246
     2  N   -0.522889
     3  C    0.219588
     4  S    1.335444
     5  O   -0.536159
     6  O   -0.549426
     7  N   -0.373126
     8  C    0.173044
     9  C   -0.084105
    10  S    1.106719
    11  O   -0.510445
    12  O   -0.528711
    13  C   -0.013047
    14  C    0.031002
    15  C   -0.025736
    16  C    0.149675
    17  C   -0.045551
    18  C    0.006319
    19  C   -0.002579
    20  C    0.002505
    21  C   -0.040767
 Electronic spatial extent (au):  <R**2>=           7255.7375
 Charge=              0.0000 electrons
 Dipole moment (field-independent basis, Debye):
    X=             -5.0974    Y=             -0.9934    Z=              2.2150  Tot=              5.6459
 Quadrupole moment (field-independent basis, Debye-Ang):
   XX=           -122.5371   YY=           -157.8692   ZZ=           -134.0628
   XY=            -11.5440   XZ=              2.8735   YZ=             13.3643
 Traceless Quadrupole moment (field-independent basis, Debye-Ang):
   XX=             15.6193   YY=            -19.7129   ZZ=              4.0935
   XY=            -11.5440   XZ=              2.8735   YZ=             13.3643
 Octapole moment (field-independent basis, Debye-Ang**2):
  XXX=           -112.1035  YYY=            -42.1408  ZZZ=              7.8176  XYY=            -45.1275
  XXY=            -19.5244  XXZ=            -33.5399  XZZ=             -6.0210  YZZ=              5.3836
  YYZ=             18.9186  XYZ=              5.4824
 Hexadecapole moment (field-independent basis, Debye-Ang**3):
 XXXX=          -4909.7747 YYYY=          -3305.6066 ZZZZ=           -924.7809 XXXY=             87.6616
 XXXZ=             28.2751 YYYX=            -19.3763 YYYZ=            162.7104 ZZZX=             -5.5675
 ZZZY=             18.4575 XXYY=          -1492.2298 XXZZ=          -1038.8249 YYZZ=           -673.3211
 XXYZ=             50.0743 YYXZ=            -13.5432 ZZXY=            -12.8053
 N-N= 2.223547381890D+03 E-N=-8.473374126451D+03  KE= 1.702518026494D+03
 No NMR shielding tensors so no spin-rotation constants.
 Leave Link  601 at Thu Oct  1 22:09:39 2020, MaxMem=  2147483648 cpu:         0.3
 (Enter /prod/apps/gaussian/g09d1/l9999.exe)
 1\1\GINC-PIRINEUS15\SP\RB3LYP\6-31G(d)\C13H20N2O4S2\UBAFAR01\01-Oct-20
 20\0\\#p b3lyp/6-31G(d)\\SM40.n.13.pdb.xyz\\0,1\C,0,1.499,-0.435,0.713
 \N,0,2.644,0.417,0.355\C,0,2.386,1.859,0.521\S,0,4.121,-0.104,0.949\O,
 0,5.085,0.955,0.612\O,0,4.078,-0.562,2.348\N,0,4.278,-1.477,0.013\C,0,
 5.091,-2.648,0.388\C,0,4.629,-3.837,-0.527\S,0,4.497,-4.907,0.943\O,0,
 3.183,-5.558,1.108\O,0,5.711,-5.73,1.13\C,0,4.643,-3.281,1.746\C,0,6.6
 14,-2.462,0.233\C,0,7.356,-1.526,1.204\C,0,7.634,-2.089,2.585\C,0,8.29
 4,-3.317,2.741\C,0,8.586,-3.818,4.008\C,0,8.227,-3.097,5.149\C,0,7.573
 ,-1.873,5.009\C,0,7.281,-1.375,3.737\H,0,0.661,-0.139,0.08\H,0,1.211,-
 0.324,1.765\H,0,1.746,-1.476,0.506\H,0,1.532,2.106,-0.112\H,0,3.254,2.
 423,0.187\H,0,2.148,2.125,1.558\H,0,4.393,-1.216,-0.969\H,0,5.34,-4.18
 2,-1.276\H,0,3.639,-3.679,-0.954\H,0,5.355,-3.25,2.567\H,0,3.66,-2.947
 ,2.07\H,0,6.777,-2.107,-0.789\H,0,7.072,-3.454,0.286\H,0,6.837,-0.568,
 1.289\H,0,8.318,-1.299,0.727\H,0,8.58,-3.886,1.862\H,0,9.097,-4.771,4.
 106\H,0,8.454,-3.487,6.136\H,0,7.289,-1.303,5.888\H,0,6.767,-0.424,3.6
 34\\Version=AM64L-G09RevD.01\State=1-A\HF=-1714.0373233\RMSD=5.890e-09
 \Dipole=-0.7098679,1.6265282,-1.3358838\Quadrupole=5.8535924,-15.59880
 77,9.7452153,-12.5851398,3.2444272,-1.1040426\PG=C01 [X(C13H20N2O4S2)]
 \\@


 PERICLES, SOPHOCLES,
 PELOPONESIAN WAR,
 FRENCH VERBS, LATIN VERBS
 H2SO4.
 Job cpu time:       0 days  0 hours  6 minutes 47.8 seconds.
 File lengths (MBytes):  RWF=     73 Int=      0 D2E=      0 Chk=      6 Scr=      1
 Normal termination of Gaussian 09 at Thu Oct  1 22:09:39 2020.
 Initial command:
 /prod/apps/gaussian/g09d1/l1.exe "/tmp/ubafar01/1462856/Gau-53246.inp" -scrdir="/tmp/ubafar01/1462856/"
 Entering Link 1 = /prod/apps/gaussian/g09d1/l1.exe PID=     53769.
  
 Copyright (c) 1988,1990,1992,1993,1995,1998,2003,2009,2013,
            Gaussian, Inc.  All Rights Reserved.
  
 This is part of the Gaussian(R) 09 program.  It is based on
 the Gaussian(R) 03 system (copyright 2003, Gaussian, Inc.),
 the Gaussian(R) 98 system (copyright 1998, Gaussian, Inc.),
 the Gaussian(R) 94 system (copyright 1995, Gaussian, Inc.),
 the Gaussian 92(TM) system (copyright 1992, Gaussian, Inc.),
[...]
     8  C    0.344924   0.356314  -0.029588  -0.004091  -0.001059  -0.000018
     9  C   -0.172094  -0.060319   0.004063  -0.000103  -0.000054   0.000001
    10  S    0.142299   0.008635  -0.000365  -0.000203   0.000414   0.000019
    11  O   -0.045944  -0.000070   0.000000   0.000000   0.000000   0.000000
    12  O   -0.044931  -0.002412   0.000049  -0.000146   0.000470  -0.000089
    13  C    5.685279  -0.056712  -0.002535  -0.002551  -0.001614  -0.000043
    14  C   -0.056712   5.167953   0.330927  -0.030492  -0.004081   0.000261
    15  C   -0.002535   0.330927   5.220758   0.339993  -0.067378   0.006046
    16  C   -0.002551  -0.030492   0.339993   4.683490   0.532040  -0.019369
    17  C   -0.001614  -0.004081  -0.067378   0.532040   5.003391   0.524217
    18  C   -0.000043   0.000261   0.006046  -0.019369   0.524217   4.886989
    19  C    0.000050   0.000001   0.000303  -0.035469  -0.037418   0.542953
    20  C   -0.000037  -0.000199   0.007327  -0.022672  -0.047293  -0.028713
    21  C   -0.002395   0.000889  -0.046552   0.544892  -0.045953  -0.045946
    22  H    0.000003   0.000000   0.000000   0.000000   0.000000   0.000000
    23  H   -0.000061   0.000000   0.000000   0.000000   0.000000   0.000000
    24  H   -0.000002   0.000036  -0.000001   0.000000   0.000000   0.000000
    25  H    0.000000   0.000000   0.000000   0.000000   0.000000   0.000000
    26  H    0.000000   0.000000   0.000001   0.000000   0.000000   0.000000
    27  H   -0.000001   0.000000   0.000000   0.000000   0.000000   0.000000
    28  H    0.004139  -0.001146  -0.000213   0.000003   0.000000   0.000000
    29  H    0.008903  -0.002972   0.000191   0.000010  -0.000001   0.000000
    30  H    0.003338   0.004139  -0.000103   0.000000   0.000000   0.000000
    31  H    0.342166  -0.005657  -0.001426   0.010070   0.002703   0.000115
    32  H    0.330287   0.003874  -0.000119   0.000086   0.000068   0.000001
    33  H    0.005443   0.359989  -0.028774   0.003869   0.000165   0.000000
    34  H   -0.003524   0.356853  -0.037252  -0.007948   0.003878  -0.000084
    35  H   -0.000121  -0.034627   0.347581  -0.030629   0.004480  -0.000146
    36  H   -0.000062  -0.034091   0.358910  -0.029603  -0.004947  -0.000067
    37  H   -0.000063   0.000336  -0.008524  -0.046580   0.358070  -0.041872
    38  H   -0.000002   0.000003  -0.000176   0.003603  -0.039515   0.361215
    39  H    0.000000   0.000000   0.000007   0.000622   0.004726  -0.042090
    40  H   -0.000003   0.000001  -0.000168   0.003730   0.000720   0.004580
    41  H   -0.000021   0.000239  -0.011122  -0.040314   0.006349   0.000237
              19         20         21         22         23         24
     1  C    0.000000   0.000000   0.000000   0.378310   0.377780   0.374396
     2  N    0.000000   0.000000   0.000000  -0.033791  -0.046168  -0.033783
     3  C    0.000000   0.000000   0.000000  -0.003627  -0.001741   0.004578
     4  S    0.000001   0.000000  -0.000068   0.002923  -0.007406  -0.002764
     5  O    0.000000  -0.000001  -0.000198  -0.000047  -0.000036   0.000031
     6  O    0.000000   0.000009   0.000350   0.000035   0.004815  -0.002059
     7  N    0.000000   0.000000   0.000021  -0.000001   0.000036   0.012411
     8  C    0.000002   0.000005   0.000839  -0.000004   0.000099  -0.000719
     9  C    0.000000   0.000000  -0.000004  -0.000001  -0.000003  -0.000067
    10  S    0.000002  -0.000005   0.000053   0.000001  -0.000002   0.000161
    11  O    0.000000   0.000000   0.000000   0.000000   0.000000   0.000002
    12  O    0.000001   0.000000   0.000001   0.000000   0.000000   0.000000
    13  C    0.000050  -0.000037  -0.002395   0.000003  -0.000061  -0.000002
    14  C    0.000001  -0.000199   0.000889   0.000000   0.000000   0.000036
    15  C    0.000303   0.007327  -0.046552   0.000000   0.000000  -0.000001
    16  C   -0.035469  -0.022672   0.544892   0.000000   0.000000   0.000000
    17  C   -0.037418  -0.047293  -0.045953   0.000000   0.000000   0.000000
    18  C    0.542953  -0.028713  -0.045946   0.000000   0.000000   0.000000
    19  C    4.886078   0.545576  -0.037102   0.000000   0.000000   0.000000
    20  C    0.545576   4.906896   0.509505   0.000000   0.000000   0.000000
    21  C   -0.037102   0.509505   4.994592   0.000000   0.000000   0.000000
    22  H    0.000000   0.000000   0.000000   0.520258  -0.034371  -0.021612
    23  H    0.000000   0.000000   0.000000  -0.034371   0.558345  -0.031311
    24  H    0.000000   0.000000   0.000000  -0.021612  -0.031311   0.508952
    25  H    0.000000   0.000000   0.000000   0.004913  -0.001721   0.000075
    26  H    0.000000   0.000000   0.000000   0.000024  -0.000165  -0.000191
    27  H    0.000000   0.000000   0.000000  -0.001316   0.007707  -0.000205
    28  H    0.000000   0.000000   0.000001  -0.000013   0.000005  -0.000167
    29  H    0.000000   0.000000   0.000000   0.000000   0.000000  -0.000001
    30  H    0.000000   0.000000   0.000000  -0.000001  -0.000002   0.000654
    31  H   -0.000038   0.000226   0.003751   0.000000   0.000000   0.000001
    32  H   -0.000002  -0.000016  -0.000013  -0.000006   0.000166   0.001038
    33  H    0.000000   0.000002  -0.000103   0.000000   0.000000   0.000000
    34  H   -0.000003   0.000006   0.000159   0.000000   0.000000  -0.000001
    35  H   -0.000001   0.000152  -0.004705   0.000000   0.000000  -0.000001
    36  H    0.000040  -0.000241   0.000904   0.000000   0.000000   0.000000
    37  H    0.004691   0.000307   0.005931   0.000000   0.000000   0.000000
    38  H   -0.042336   0.004600   0.000731   0.000000   0.000000   0.000000
    39  H    0.362956  -0.042446   0.004576   0.000000   0.000000   0.000000
    40  H   -0.042644   0.360695  -0.038672   0.000000   0.000000   0.000000
    41  H    0.004751  -0.046079   0.356443   0.000000   0.000000   0.000000
              25         26         27         28         29         30
     1  C   -0.002737   0.004357  -0.001621   0.000036   0.000000  -0.000035
     2  N   -0.037588  -0.032201  -0.046625   0.002175   0.000001  -0.000049
     3  C    0.380761   0.377206   0.373449  -0.000068   0.000000   0.000001
     4  S    0.001886  -0.003740  -0.002494  -0.005096  -0.000049   0.000121
     5  O    0.000296   0.011081  -0.000523  -0.000375   0.000001   0.000002
     6  O   -0.000097  -0.000089   0.001949   0.001461   0.000000  -0.000008
     7  N   -0.000091   0.000052  -0.000055   0.292135   0.001100   0.000372
     8  C    0.000000  -0.000006   0.000007  -0.020588  -0.026503  -0.024850
     9  C    0.000000   0.000000   0.000000  -0.005709   0.346468   0.329325
    10  S    0.000000   0.000000   0.000000  -0.000049  -0.010553   0.000235
    11  O    0.000000   0.000000   0.000000   0.000001   0.000648  -0.000355
    12  O    0.000000   0.000000   0.000000   0.000001  -0.000639   0.001069
    13  C    0.000000   0.000000  -0.000001   0.004139   0.008903   0.003338
    14  C    0.000000   0.000000   0.000000  -0.001146  -0.002972   0.004139
    15  C    0.000000   0.000001   0.000000  -0.000213   0.000191  -0.000103
    16  C    0.000000   0.000000   0.000000   0.000003   0.000010   0.000000
    17  C    0.000000   0.000000   0.000000   0.000000  -0.000001   0.000000
    18  C    0.000000   0.000000   0.000000   0.000000   0.000000   0.000000
    19  C    0.000000   0.000000   0.000000   0.000000   0.000000   0.000000
    20  C    0.000000   0.000000   0.000000   0.000000   0.000000   0.000000
    21  C    0.000000   0.000000   0.000000   0.000001   0.000000   0.000000
    22  H    0.004913   0.000024  -0.001316  -0.000013   0.000000  -0.000001
    23  H   -0.001721  -0.000165   0.007707   0.000005   0.000000  -0.000002
    24  H    0.000075  -0.000191  -0.000205  -0.000167  -0.000001   0.000654
    25  H    0.525517  -0.020232  -0.038333   0.000000   0.000000   0.000000
    26  H   -0.020232   0.495995  -0.030191  -0.000011   0.000000   0.000000
    27  H   -0.038333  -0.030191   0.566525   0.000003   0.000000   0.000000
    28  H    0.000000  -0.000011   0.000003   0.312918   0.000400   0.000562
    29  H    0.000000   0.000000   0.000000   0.000400   0.459752  -0.015705
    30  H    0.000000   0.000000   0.000000   0.000562  -0.015705   0.467361
    31  H    0.000000   0.000000   0.000000  -0.000075  -0.000251  -0.000211
    32  H    0.000000   0.000000   0.000000   0.000032  -0.000233   0.000100
    33  H    0.000000   0.000000   0.000000   0.003445   0.003079  -0.000060
    34  H    0.000000   0.000000   0.000000  -0.000061  -0.000248   0.000178
    35  H    0.000000  -0.000001   0.000000   0.000029   0.000003   0.000003
    36  H    0.000000   0.000000   0.000000   0.000006  -0.000015   0.000002
    37  H    0.000000   0.000000   0.000000   0.000000   0.000000   0.000000
    38  H    0.000000   0.000000   0.000000   0.000000   0.000000   0.000000
    39  H    0.000000   0.000000   0.000000   0.000000   0.000000   0.000000
    40  H    0.000000   0.000000   0.000000   0.000000   0.000000   0.000000
    41  H    0.000000   0.000000   0.000000  -0.000001   0.000000   0.000000
              31         32         33         34         35         36
     1  C    0.000003   0.000325   0.000000   0.000000  -0.000003   0.000000
     2  N    0.000000  -0.000366  -0.000004   0.000000   0.000077   0.000000
     3  C    0.000000   0.000006   0.000000   0.000000   0.000003   0.000000
     4  S    0.000012   0.000775  -0.000511   0.000131   0.009012  -0.000289
     5  O   -0.000002   0.000036   0.000068  -0.000004   0.019151   0.000088
     6  O   -0.000487   0.003674   0.000003  -0.000017  -0.003261   0.000034
     7  N    0.001353  -0.003244  -0.004114   0.005007   0.000446  -0.000057
     8  C   -0.023222  -0.022518  -0.034198  -0.031594  -0.007856   0.004725
     9  C    0.008559   0.002777  -0.005507  -0.004310   0.000037  -0.000151
    10  S   -0.012416  -0.003010  -0.000344   0.005668  -0.000047   0.000033
    11  O    0.000608   0.000134   0.000001   0.000017   0.000000   0.000000
    12  O   -0.000232   0.001138   0.000073   0.005726  -0.000001  -0.000001
    13  C    0.342166   0.330287   0.005443  -0.003524  -0.000121  -0.000062
    14  C   -0.005657   0.003874   0.359989   0.356853  -0.034627  -0.034091
    15  C   -0.001426  -0.000119  -0.028774  -0.037252   0.347581   0.358910
    16  C    0.010070   0.000086   0.003869  -0.007948  -0.030629  -0.029603
    17  C    0.002703   0.000068   0.000165   0.003878   0.004480  -0.004947
    18  C    0.000115   0.000001   0.000000  -0.000084  -0.000146  -0.000067
    19  C   -0.000038  -0.000002   0.000000  -0.000003  -0.000001   0.000040
    20  C    0.000226  -0.000016   0.000002   0.000006   0.000152  -0.000241
    21  C    0.003751  -0.000013  -0.000103   0.000159  -0.004705   0.000904
    22  H    0.000000  -0.000006   0.000000   0.000000   0.000000   0.000000
    23  H    0.000000   0.000166   0.000000   0.000000   0.000000   0.000000
    24  H    0.000001   0.001038   0.000000  -0.000001  -0.000001   0.000000
    25  H    0.000000   0.000000   0.000000   0.000000   0.000000   0.000000
    26  H    0.000000   0.000000   0.000000   0.000000  -0.000001   0.000000
    27  H    0.000000   0.000000   0.000000   0.000000   0.000000   0.000000
    28  H   -0.000075   0.000032   0.003445  -0.000061   0.000029   0.000006
    29  H   -0.000251  -0.000233   0.003079  -0.000248   0.000003  -0.000015
    30  H   -0.000211   0.000100  -0.000060   0.000178   0.000003   0.000002
    31  H    0.449836  -0.013916   0.000146  -0.000428  -0.000002   0.000064
    32  H   -0.013916   0.465549  -0.000100  -0.000004  -0.000004   0.000003
    33  H    0.000146  -0.000100   0.564061  -0.028105  -0.000682  -0.005909
    34  H   -0.000428  -0.000004  -0.028105   0.554339   0.004606  -0.001709
    35  H   -0.000002  -0.000004  -0.000682   0.004606   0.538680  -0.029335
    36  H    0.000064   0.000003  -0.005909  -0.001709  -0.029335   0.569299
    37  H    0.000079   0.000000  -0.000159   0.004616   0.000019   0.001607
    38  H    0.000005   0.000000   0.000000   0.000009   0.000002  -0.000001
    39  H   -0.000001   0.000000   0.000000   0.000000   0.000000   0.000000
    40  H    0.000009   0.000000   0.000000   0.000000  -0.000008   0.000003
    41  H    0.000024   0.000003  -0.000009   0.000002   0.005888   0.000206
              37         38         39         40         41
     1  C    0.000000   0.000000   0.000000   0.000000   0.000000
     2  N    0.000000   0.000000   0.000000   0.000000   0.000003
     3  C    0.000000   0.000000   0.000000   0.000000  -0.000001
     4  S    0.000000   0.000000   0.000000  -0.000001   0.000941
     5  O    0.000000   0.000000   0.000000   0.000000   0.000089
     6  O    0.000000   0.000000   0.000000  -0.000002   0.003482
     7  N    0.000000   0.000000   0.000000   0.000000  -0.000002
     8  C    0.000206   0.000000   0.000000   0.000000   0.000003
     9  C   -0.000011   0.000000   0.000000   0.000000   0.000000
    10  S    0.000092   0.000002   0.000000   0.000000   0.000002
    11  O    0.000000   0.000000   0.000000   0.000000   0.000000
    12  O    0.000299  -0.000002   0.000000   0.000000   0.000000
    13  C   -0.000063  -0.000002   0.000000  -0.000003  -0.000021
    14  C    0.000336   0.000003   0.000000   0.000001   0.000239
    15  C   -0.008524  -0.000176   0.000007  -0.000168  -0.011122
    16  C   -0.046580   0.003603   0.000622   0.003730  -0.040314
    17  C    0.358070  -0.039515   0.004726   0.000720   0.006349
    18  C   -0.041872   0.361215  -0.042090   0.004580   0.000237
    19  C    0.004691  -0.042336   0.362956  -0.042644   0.004751
    20  C    0.000307   0.004600  -0.042446   0.360695  -0.046079
    21  C    0.005931   0.000731   0.004576  -0.038672   0.356443
    22  H    0.000000   0.000000   0.000000   0.000000   0.000000
    23  H    0.000000   0.000000   0.000000   0.000000   0.000000
    24  H    0.000000   0.000000   0.000000   0.000000   0.000000
    25  H    0.000000   0.000000   0.000000   0.000000   0.000000
    26  H    0.000000   0.000000   0.000000   0.000000   0.000000
    27  H    0.000000   0.000000   0.000000   0.000000   0.000000
    28  H    0.000000   0.000000   0.000000   0.000000  -0.000001
    29  H    0.000000   0.000000   0.000000   0.000000   0.000000
    30  H    0.000000   0.000000   0.000000   0.000000   0.000000
    31  H    0.000079   0.000005  -0.000001   0.000009   0.000024
    32  H    0.000000   0.000000   0.000000   0.000000   0.000003
    33  H   -0.000159   0.000000   0.000000   0.000000  -0.000009
    34  H    0.004616   0.000009   0.000000   0.000000   0.000002
    35  H    0.000019   0.000002   0.000000  -0.000008   0.005888
    36  H    0.001607  -0.000001   0.000000   0.000003   0.000206
    37  H    0.578915  -0.005299  -0.000169   0.000017  -0.000165
    38  H   -0.005299   0.574156  -0.005237  -0.000176   0.000016
    39  H   -0.000169  -0.005237   0.574860  -0.005297  -0.000162
    40  H    0.000017  -0.000176  -0.005297   0.574329  -0.005243
    41  H   -0.000165   0.000016  -0.000162  -0.005243   0.576791
 Mulliken charges:
               1
     1  C   -0.325699
     2  N   -0.528168
     3  C   -0.325308
     4  S    1.341286
     5  O   -0.570629
     6  O   -0.579162
     7  N   -0.735815
     8  C    0.169393
     9  C   -0.487629
    10  S    1.103060
    11  O   -0.556373
    12  O   -0.570802
    13  C   -0.481143
    14  C   -0.284740
    15  C   -0.377343
    16  C    0.148979
    17  C   -0.192374
    18  C   -0.148194
    19  C   -0.152394
    20  C   -0.147605
    21  C   -0.201928
    22  H    0.188323
    23  H    0.174036
    24  H    0.190546
    25  H    0.187351
    26  H    0.198111
    27  H    0.171724
    28  H    0.416221
    29  H    0.236615
    30  H    0.233920
    31  H    0.238634
    32  H    0.233478
    33  H    0.168236
    34  H    0.174095
    35  H    0.181259
    36  H    0.170552
    37  H    0.147656
    38  H    0.148402
    39  H    0.147655
    40  H    0.148129
    41  H    0.147647
 Sum of Mulliken charges =   0.00000
 Mulliken charges with hydrogens summed into heavy atoms:
               1
     1  C    0.227205
     2  N   -0.528168
     3  C    0.231878
     4  S    1.341286
     5  O   -0.570629
     6  O   -0.579162
     7  N   -0.319595
     8  C    0.169393
     9  C   -0.017094
    10  S    1.103060
    11  O   -0.556373
    12  O   -0.570802
    13  C   -0.009031
    14  C    0.057591
    15  C   -0.025532
    16  C    0.148979
    17  C   -0.044717
    18  C    0.000208
    19  C   -0.004739
    20  C    0.000524
    21  C   -0.054281
 Electronic spatial extent (au):  <R**2>=           7255.0306
 Charge=              0.0000 electrons
 Dipole moment (field-independent basis, Debye):
    X=             -6.6952    Y=             -0.5278    Z=              3.4576  Tot=              7.5538
 Quadrupole moment (field-independent basis, Debye-Ang):
   XX=           -119.8777   YY=           -161.7140   ZZ=           -131.9266
   XY=            -15.0442   XZ=              3.2165   YZ=             16.3687
 Traceless Quadrupole moment (field-independent basis, Debye-Ang):
   XX=             17.9618   YY=            -23.8746   ZZ=              5.9128
   XY=            -15.0442   XZ=              3.2165   YZ=             16.3687
 Octapole moment (field-independent basis, Debye-Ang**2):
  XXX=           -137.1076  YYY=            -49.7795  ZZZ=             15.1123  XYY=            -52.5405
  XXY=            -19.6317  XXZ=            -36.4448  XZZ=             -7.2402  YZZ=              6.4283
  YYZ=             25.5857  XYZ=              5.2643
 Hexadecapole moment (field-independent basis, Debye-Ang**3):
 XXXX=          -4772.1759 YYYY=          -3366.3819 ZZZZ=           -904.3792 XXXY=             70.0238
 XXXZ=             42.5084 YYYX=            -52.7809 YYYZ=            199.5146 ZZZX=             -5.5990
 ZZZY=             31.0707 XXYY=          -1505.1482 XXZZ=          -1025.1430 YYZZ=           -673.4123
 XXYZ=             60.0498 YYXZ=            -11.6583 ZZXY=            -22.1930
 N-N= 2.223551005117D+03 E-N=-8.473696039375D+03  KE= 1.702530011527D+03
 No NMR shielding tensors so no spin-rotation constants.
 Leave Link  601 at Thu Oct  1 22:14:50 2020, MaxMem=  2147483648 cpu:         0.4
 (Enter /prod/apps/gaussian/g09d1/l9999.exe)
 1\1\GINC-PIRINEUS15\SP\RB3LYP\6-31G(d)\C13H20N2O4S2\UBAFAR01\01-Oct-20
 20\0\\#p b3lyp/6-31G(d) scrf=(iefpcm,read,solvent=Water) geom=allcheck
  guess=read\\SM40.n.13.pdb.xyz\\0,1\C,0,1.499,-0.435,0.713\N,0,2.644,0
 .417,0.355\C,0,2.386,1.859,0.521\S,0,4.121,-0.104,0.949\O,0,5.085,0.95
 5,0.612\O,0,4.078,-0.562,2.348\N,0,4.278,-1.477,0.013\C,0,5.091,-2.648
 ,0.388\C,0,4.629,-3.837,-0.527\S,0,4.497,-4.907,0.943\O,0,3.183,-5.558
 ,1.108\O,0,5.711,-5.73,1.13\C,0,4.643,-3.281,1.746\C,0,6.614,-2.462,0.
 233\C,0,7.356,-1.526,1.204\C,0,7.634,-2.089,2.585\C,0,8.294,-3.317,2.7
 41\C,0,8.586,-3.818,4.008\C,0,8.227,-3.097,5.149\C,0,7.573,-1.873,5.00
 9\C,0,7.281,-1.375,3.737\H,0,0.661,-0.139,0.08\H,0,1.211,-0.324,1.765\
 H,0,1.746,-1.476,0.506\H,0,1.532,2.106,-0.112\H,0,3.254,2.423,0.187\H,
 0,2.148,2.125,1.558\H,0,4.393,-1.216,-0.969\H,0,5.34,-4.182,-1.276\H,0
 ,3.639,-3.679,-0.954\H,0,5.355,-3.25,2.567\H,0,3.66,-2.947,2.07\H,0,6.
 777,-2.107,-0.789\H,0,7.072,-3.454,0.286\H,0,6.837,-0.568,1.289\H,0,8.
 318,-1.299,0.727\H,0,8.58,-3.886,1.862\H,0,9.097,-4.771,4.106\H,0,8.45
 4,-3.487,6.136\H,0,7.289,-1.303,5.888\H,0,6.767,-0.424,3.634\\Version=
 AM64L-G09RevD.01\State=1-A\HF=-1714.0628763\RMSD=6.156e-09\Dipole=-0.9
 331668,1.9247479,-2.0631565\Quadrupole=7.2266532,-19.8736553,12.647002
 1,-14.6774006,3.8458904,-1.2267835\PG=C01 [X(C13H20N2O4S2)]\\@


 ANYONE WHO IS NOT SHOCKED BY QUANTUM THEORY HAS
 NOT UNDERSTOOD IT. -- NIELS BOHR(1885-1962)
 Job cpu time:       0 days  0 hours  5 minutes 10.0 seconds.
 File lengths (MBytes):  RWF=    218 Int=      0 D2E=      0 Chk=      7 Scr=      1
 Normal termination of Gaussian 09 at Thu Oct  1 22:14:50 2020.
