 Entering Gaussian System, Link 0=g09
 Initial command:
 /prod/apps/gaussian/g09d1/l1.exe "/tmp/ubafar01/1462863/Gau-186276.inp" -scrdir="/tmp/ubafar01/1462863/"
 Entering Link 1 = /prod/apps/gaussian/g09d1/l1.exe PID=    186277.
  
 Copyright (c) 1988,1990,1992,1993,1995,1998,2003,2009,2013,
            Gaussian, Inc.  All Rights Reserved.
  
 This is part of the Gaussian(R) 09 program.  It is based on
 the Gaussian(R) 03 system (copyright 2003, Gaussian, Inc.),
 the Gaussian(R) 98 system (copyright 1998, Gaussian, Inc.),
 the Gaussian(R) 94 system (copyright 1995, Gaussian, Inc.),
 the Gaussian 92(TM) system (copyright 1992, Gaussian, Inc.),
 the Gaussian 90(TM) system (copyright 1990, Gaussian, Inc.),
 the Gaussian 88(TM) system (copyright 1988, Gaussian, Inc.),
 the Gaussian 86(TM) system (copyright 1986, Carnegie Mellon
 University), and the Gaussian 82(TM) system (copyright 1983,
 Carnegie Mellon University). Gaussian is a federally registered
 trademark of Gaussian, Inc.
  
 This software contains proprietary and confidential information,
 including trade secrets, belonging to Gaussian, Inc.
  
 This software is provided under written license and may be
 used, copied, transmitted, or stored only in accord with that
 written license.
  
 The following legend is applicable only to US Government
 contracts under FAR:
  
                    RESTRICTED RIGHTS LEGEND
  
 Use, reproduction and disclosure by the US Government is
 subject to restrictions as set forth in subparagraphs (a)
 and (c) of the Commercial Computer Software - Restricted
 Rights clause in FAR 52.227-19.
  
 Gaussian, Inc.
 340 Quinnipiac St., Bldg. 40, Wallingford CT 06492
  
  
 ---------------------------------------------------------------
 Warning -- This program may not be used in any manner that
 competes with the business of Gaussian, Inc. or will provide
 assistance to any competitor of Gaussian, Inc.  The licensee
 of this program is prohibited from giving any competitor of
 Gaussian, Inc. access to this program.  By using this program,
 the user acknowledges that Gaussian, Inc. is engaged in the
 business of creating and licensing software in the field of
 computational chemistry and represents and warrants to the
 licensee that it is not a competitor of Gaussian, Inc. and that
 it will not use this program in any manner prohibited above.
 ---------------------------------------------------------------
  

 Cite this work as:
 Gaussian 09, Revision D.01,
 M. J. Frisch, G. W. Trucks, H. B. Schlegel, G. E. Scuseria, 
 M. A. Robb, J. R. Cheeseman, G. Scalmani, V. Barone, B. Mennucci, 
 G. A. Petersson, H. Nakatsuji, M. Caricato, X. Li, H. P. Hratchian, 
 A. F. Izmaylov, J. Bloino, G. Zheng, J. L. Sonnenberg, M. Hada, 
 M. Ehara, K. Toyota, R. Fukuda, J. Hasegawa, M. Ishida, T. Nakajima, 
 Y. Honda, O. Kitao, H. Nakai, T. Vreven, J. A. Montgomery, Jr., 
 J. E. Peralta, F. Ogliaro, M. Bearpark, J. J. Heyd, E. Brothers, 
 K. N. Kudin, V. N. Staroverov, T. Keith, R. Kobayashi, J. Normand, 
 K. Raghavachari, A. Rendell, J. C. Burant, S. S. Iyengar, J. Tomasi, 
 M. Cossi, N. Rega, J. M. Millam, M. Klene, J. E. Knox, J. B. Cross, 
 V. Bakken, C. Adamo, J. Jaramillo, R. Gomperts, R. E. Stratmann, 
 O. Yazyev, A. J. Austin, R. Cammi, C. Pomelli, J. W. Ochterski, 
 R. L. Martin, K. Morokuma, V. G. Zakrzewski, G. A. Voth, 
 P. Salvador, J. J. Dannenberg, S. Dapprich, A. D. Daniels, 
 O. Farkas, J. B. Foresman, J. V. Ortiz, J. Cioslowski, 
 and D. J. Fox, Gaussian, Inc., Wallingford CT, 2013.
 
 ******************************************
 Gaussian 09:  AM64L-G09RevD.01 24-Apr-2013
                 1-Oct-2020 
 ******************************************
 %nproc=1
 Will use up to    1 processors via shared memory.
 %Chk=SM40.n.30.pdb.xyz.mst.n.w.chk
 %mem=16GB
 -----------------
 #p b3lyp/6-31G(d)
 -----------------
 1/38=1/1;
 2/12=2,17=6,18=5,40=1/2;
 3/5=1,6=6,7=1,11=2,16=1,25=1,30=1,74=-5/1,2,3;
 4//1;
 5/5=2,38=5/2;
 6/7=2,8=2,9=2,10=2,28=1/1;
 99/5=1,9=1/99;
 Leave Link    1 at Thu Oct  1 22:28:47 2020, MaxMem=  2147483648 cpu:         0.0
 (Enter /prod/apps/gaussian/g09d1/l101.exe)
 -----------------
 SM40.n.30.pdb.xyz
 -----------------
 Symbolic Z-matrix:
 Charge =  0 Multiplicity = 1
 C                     3.367     0.782    -1.119 
 N                     3.274    -0.367    -0.202 
 C                     2.573    -0.069     1.057 
 S                     2.791    -1.795    -0.935 
 O                     1.326    -1.938    -0.977 
 O                     3.543    -1.886    -2.194 
 N                     3.301    -2.932     0.187 
 C                     4.637    -3.57      0.088 
 C                     4.776    -4.484    -1.182 
 S                     4.38     -5.952    -0.177 
 O                     2.955    -6.332    -0.293 
 O                     5.395    -7.023    -0.225 
 C                     4.65     -4.719     1.15 
 C                     5.728    -2.495     0.236 
 C                     7.201    -2.952     0.231 
 C                     7.725    -3.552     1.522 
 C                     8.325    -4.818     1.531 
 C                     8.84     -5.363     2.711 
 C                     8.763    -4.642     3.904 
 C                     8.169    -3.377     3.908 
 C                     7.657    -2.839     2.728 
 H                     3.903     1.571    -0.59 
 H                     2.383     1.162    -1.42 
 H                     3.935     0.495    -2.002 
 H                     3.12      0.737     1.55 
 H                     2.591    -0.952     1.695 
 H                     1.537     0.248     0.892 
 H                     2.538    -3.602     0.301 
 H                     5.796    -4.568    -1.559 
 H                     4.082    -4.283    -1.994 
 H                     5.627    -4.878     1.604 
 H                     3.865    -4.687     1.905 
 H                     5.521    -1.938     1.154 
 H                     5.588    -1.796    -0.59 
 H                     7.794    -2.058     0. 
 H                     7.39     -3.649    -0.591 
 H                     8.383    -5.381     0.604 
 H                     9.299    -6.346     2.695 
 H                     9.161    -5.061     4.822 
 H                     8.107    -2.809     4.831 
 H                     7.2      -1.853     2.741 
 
 NAtoms=     41 NQM=       41 NQMF=       0 NMMI=      0 NMMIF=      0
                NMic=       0 NMicF=      0.
                    Isotopes and Nuclear Properties:
 (Nuclear quadrupole moments (NQMom) in fm**2, nuclear magnetic moments (NMagM)
  in nuclear magnetons)

  Atom         1           2           3           4           5           6           7           8           9          10
 IAtWgt=          12          14          12          32          16          16          14          12          12          32
 AtmWgt=  12.0000000  14.0030740  12.0000000  31.9720718  15.9949146  15.9949146  14.0030740  12.0000000  12.0000000  31.9720718
 NucSpn=           0           2           0           0           0           0           2           0           0           0
 AtZEff=   0.0000000   0.0000000   0.0000000   0.0000000   0.0000000   0.0000000   0.0000000   0.0000000   0.0000000   0.0000000
 NQMom=    0.0000000   2.0440000   0.0000000   0.0000000   0.0000000   0.0000000   2.0440000   0.0000000   0.0000000   0.0000000
 NMagM=    0.0000000   0.4037610   0.0000000   0.0000000   0.0000000   0.0000000   0.4037610   0.0000000   0.0000000   0.0000000
 AtZNuc=   6.0000000   7.0000000   6.0000000  16.0000000   8.0000000   8.0000000   7.0000000   6.0000000   6.0000000  16.0000000

  Atom        11          12          13          14          15          16          17          18          19          20
 IAtWgt=          16          16          12          12          12          12          12          12          12          12
 AtmWgt=  15.9949146  15.9949146  12.0000000  12.0000000  12.0000000  12.0000000  12.0000000  12.0000000  12.0000000  12.0000000
 NucSpn=           0           0           0           0           0           0           0           0           0           0
 AtZEff=   0.0000000   0.0000000   0.0000000   0.0000000   0.0000000   0.0000000   0.0000000   0.0000000   0.0000000   0.0000000
 NQMom=    0.0000000   0.0000000   0.0000000   0.0000000   0.0000000   0.0000000   0.0000000   0.0000000   0.0000000   0.0000000
 NMagM=    0.0000000   0.0000000   0.0000000   0.0000000   0.0000000   0.0000000   0.0000000   0.0000000   0.0000000   0.0000000
 AtZNuc=   8.0000000   8.0000000   6.0000000   6.0000000   6.0000000   6.0000000   6.0000000   6.0000000   6.0000000   6.0000000

  Atom        21          22          23          24          25          26          27          28          29          30
 IAtWgt=          12           1           1           1           1           1           1           1           1           1
 AtmWgt=  12.0000000   1.0078250   1.0078250   1.0078250   1.0078250   1.0078250   1.0078250   1.0078250   1.0078250   1.0078250
 NucSpn=           0           1           1           1           1           1           1           1           1           1
 AtZEff=   0.0000000   0.0000000   0.0000000   0.0000000   0.0000000   0.0000000   0.0000000   0.0000000   0.0000000   0.0000000
 NQMom=    0.0000000   0.0000000   0.0000000   0.0000000   0.0000000   0.0000000   0.0000000   0.0000000   0.0000000   0.0000000
 NMagM=    0.0000000   2.7928460   2.7928460   2.7928460   2.7928460   2.7928460   2.7928460   2.7928460   2.7928460   2.7928460
 AtZNuc=   6.0000000   1.0000000   1.0000000   1.0000000   1.0000000   1.0000000   1.0000000   1.0000000   1.0000000   1.0000000

  Atom        31          32          33          34          35          36          37          38          39          40
 IAtWgt=           1           1           1           1           1           1           1           1           1           1
 AtmWgt=   1.0078250   1.0078250   1.0078250   1.0078250   1.0078250   1.0078250   1.0078250   1.0078250   1.0078250   1.0078250
 NucSpn=           1           1           1           1           1           1           1           1           1           1
 AtZEff=   0.0000000   0.0000000   0.0000000   0.0000000   0.0000000   0.0000000   0.0000000   0.0000000   0.0000000   0.0000000
 NQMom=    0.0000000   0.0000000   0.0000000   0.0000000   0.0000000   0.0000000   0.0000000   0.0000000   0.0000000   0.0000000
 NMagM=    2.7928460   2.7928460   2.7928460   2.7928460   2.7928460   2.7928460   2.7928460   2.7928460   2.7928460   2.7928460
 AtZNuc=   1.0000000   1.0000000   1.0000000   1.0000000   1.0000000   1.0000000   1.0000000   1.0000000   1.0000000   1.0000000

  Atom        41
 IAtWgt=           1
 AtmWgt=   1.0078250
 NucSpn=           1
 AtZEff=   0.0000000
 NQMom=    0.0000000
 NMagM=    2.7928460
 AtZNuc=   1.0000000
 Leave Link  101 at Thu Oct  1 22:28:47 2020, MaxMem=  2147483648 cpu:         0.1
 (Enter /prod/apps/gaussian/g09d1/l202.exe)
                          Input orientation:                          
 ---------------------------------------------------------------------
 Center     Atomic      Atomic             Coordinates (Angstroms)
 Number     Number       Type             X           Y           Z
 ---------------------------------------------------------------------
      1          6           0        3.367000    0.782000   -1.119000
      2          7           0        3.274000   -0.367000   -0.202000
      3          6           0        2.573000   -0.069000    1.057000
      4         16           0        2.791000   -1.795000   -0.935000
      5          8           0        1.326000   -1.938000   -0.977000
      6          8           0        3.543000   -1.886000   -2.194000
      7          7           0        3.301000   -2.932000    0.187000
      8          6           0        4.637000   -3.570000    0.088000
      9          6           0        4.776000   -4.484000   -1.182000
     10         16           0        4.380000   -5.952000   -0.177000
     11          8           0        2.955000   -6.332000   -0.293000
     12          8           0        5.395000   -7.023000   -0.225000
     13          6           0        4.650000   -4.719000    1.150000
     14          6           0        5.728000   -2.495000    0.236000
     15          6           0        7.201000   -2.952000    0.231000
     16          6           0        7.725000   -3.552000    1.522000
     17          6           0        8.325000   -4.818000    1.531000
     18          6           0        8.840000   -5.363000    2.711000
     19          6           0        8.763000   -4.642000    3.904000
     20          6           0        8.169000   -3.377000    3.908000
     21          6           0        7.657000   -2.839000    2.728000
     22          1           0        3.903000    1.571000   -0.590000
     23          1           0        2.383000    1.162000   -1.420000
     24          1           0        3.935000    0.495000   -2.002000
     25          1           0        3.120000    0.737000    1.550000
     26          1           0        2.591000   -0.952000    1.695000
     27          1           0        1.537000    0.248000    0.892000
     28          1           0        2.538000   -3.602000    0.301000
     29          1           0        5.796000   -4.568000   -1.559000
     30          1           0        4.082000   -4.283000   -1.994000
     31          1           0        5.627000   -4.878000    1.604000
     32          1           0        3.865000   -4.687000    1.905000
     33          1           0        5.521000   -1.938000    1.154000
     34          1           0        5.588000   -1.796000   -0.590000
     35          1           0        7.794000   -2.058000    0.000000
     36          1           0        7.390000   -3.649000   -0.591000
     37          1           0        8.383000   -5.381000    0.604000
     38          1           0        9.299000   -6.346000    2.695000
     39          1           0        9.161000   -5.061000    4.822000
     40          1           0        8.107000   -2.809000    4.831000
     41          1           0        7.200000   -1.853000    2.741000
 ---------------------------------------------------------------------
                    Distance matrix (angstroms):
                    1          2          3          4          5
     1  C    0.000000
     2  N    1.473003   0.000000
     3  C    2.467714   1.471491   0.000000
     4  S    2.646991   1.676234   2.644743   0.000000
     5  O    3.403564   2.619803   3.030730   1.472562   0.000000
     6  O    2.881809   2.519481   3.848557   1.469308   2.529601
     7  N    3.937485   2.594470   3.079554   1.676828   2.498711
     8  C    4.691445   3.493004   4.178045   2.757693   3.841923
     9  C    5.451606   4.490667   5.418354   3.351411   4.292626
    10  S    6.874612   5.693513   6.276758   4.514436   5.106771
    11  O    7.173633   5.974217   6.418224   4.585131   4.735898
    12  O    8.113572   6.985807   7.613496   5.883613   6.555874
    13  C    6.087319   4.760376   5.093631   4.043870   4.827739
    14  C    4.260173   3.277552   4.063686   3.238396   4.599915
    15  C    5.519494   4.721339   5.514739   4.705986   6.083016
    16  C    6.689589   5.738275   6.236234   5.785175   7.056713
    17  C    7.935002   6.951783   7.474168   6.770882   7.973109
    18  C    9.076544   8.026577   8.368837   7.912922   9.043902
    19  C    9.152438   8.078613   8.205720   8.196714   9.297567
    20  C    8.101063   7.064929   7.098329   7.408121   8.529982
    21  C    6.805523   5.822918   6.025960   6.179439   7.390561
    22  H    1.090714   2.074133   2.677893   3.561674   4.370787
    23  H    1.096931   2.148312   2.772542   3.024159   3.305072
    24  H    1.088431   2.102371   3.395677   2.773324   3.711737
    25  H    2.680783   2.076544   1.091739   3.562933   4.093872
    26  H    3.395221   2.099363   1.089521   2.769034   3.116409
    27  H    2.770952   2.142949   1.095906   3.014016   2.883796
    28  H    4.682211   3.355582   3.613150   2.203850   2.423040
    29  H    5.892040   5.084322   6.121453   4.136294   5.218862
    30  H    5.189516   4.381687   5.416962   2.996382   3.758836
    31  H    6.675173   5.398830   5.722989   4.898398   5.814100
    32  H    6.269174   4.842637   4.869732   4.193178   4.723288
    33  H    4.147848   3.058723   3.491887   3.440533   4.705230
    34  H    3.443656   2.747213   3.845174   2.818197   4.281889
    35  H    5.377368   4.830185   5.686142   5.096411   6.542473
    36  H    6.008084   5.278665   6.223809   4.970559   6.312576
    37  H    8.130901   7.203590   7.885344   6.818972   8.009685
    38  H   10.027143   8.968928   9.344670   8.731699   9.822565
    39  H   10.149215   9.051573   9.082788   9.186224  10.235661
    40  H    8.412216   7.392722   7.237115   7.907895   8.970700
    41  H    6.044395   5.126687   5.237141   5.740699   6.952311
                    6          7          8          9         10
     6  O    0.000000
     7  N    2.611865   0.000000
     8  C    3.039772   1.483826   0.000000
     9  C    3.048612   2.541356   1.570865   0.000000
    10  S    4.615324   3.227559   2.410435   1.822598   0.000000
    11  O    4.870982   3.451104   3.256214   2.742529   1.479352
    12  O    5.804794   4.614202   3.549048   2.783079   1.476337
    13  C    4.520362   2.437322   1.564677   2.347195   1.831425
    14  C    3.324155   2.466516   1.538769   2.621669   3.733433
    15  C    4.516408   3.900299   2.641301   3.197533   4.138177
    16  C    5.837237   4.662446   3.404765   4.108143   4.453720
    17  C    6.733481   5.532080   4.152240   4.479657   4.445925
    18  C    8.012912   6.554453   5.268794   5.695980   5.345939
    19  C    8.487022   6.824488   5.721444   6.464405   6.130363
    20  C    7.801113   6.143394   5.206215   6.216591   6.137945
    21  C    6.485313   5.043815   4.077298   5.127795   5.372944
    22  H    3.827958   4.609028   5.237205   6.146187   7.549412
    23  H    3.351862   4.492884   5.454026   6.136808   7.492800
    24  H    2.420679   4.115581   4.624406   5.115674   6.715092
    25  H    4.590925   3.918174   4.794683   6.120866   7.022311
    26  H    4.111324   2.588158   3.690866   5.052364   5.630711
    27  H    4.254573   3.704203   4.983326   6.097903   6.904014
    28  H    3.190565   1.021795   2.110022   2.825926   3.023896
    29  H    3.559826   3.456883   2.247642   1.090681   2.414630
    30  H    2.464981   2.681776   2.269607   1.086914   2.485127
    31  H    5.264971   3.347399   2.233656   2.939597   2.424963
    32  H    4.975046   2.519850   2.268295   3.225011   2.490015
    33  H    3.888996   2.617542   2.140382   3.534691   4.380141
    34  H    2.600566   2.669194   2.123949   2.869695   4.347662
    35  H    4.786880   4.581036   3.501505   4.048571   5.181695
    36  H    4.525173   4.223659   2.836598   2.807045   3.812520
    37  H    6.593135   5.656696   4.192671   4.123694   4.118253
    38  H    8.770716   7.343124   6.019707   6.241450   5.709657
    39  H    9.532408   7.768878   6.715684   7.457156   6.974370
    40  H    8.428087   6.684273   5.925881   7.075122   6.989209
    41  H    6.142391   4.784282   4.068841   5.309225   5.767922
                   11         12         13         14         15
    11  O    0.000000
    12  O    2.536869   0.000000
    13  C    2.749008   2.784612   0.000000
    14  C    4.763606   4.563573   2.635082   0.000000
    15  C    5.452292   4.476898   3.236426   1.542272   0.000000
    16  C    5.811671   4.530866   3.309969   2.599818   1.516989
    17  C    5.869929   4.065767   3.696023   3.717225   2.536796
    18  C    6.678039   4.821174   4.517472   4.902611   3.827485
    19  C    7.362321   5.836200   4.950476   5.222553   4.334383
    20  C    7.318895   6.170096   4.668071   4.496664   3.825961
    21  C    6.590622   5.598456   3.881563   3.170085   2.540810
    22  H    7.965194   8.730185   6.568844   4.532688   5.657594
    23  H    7.599826   8.803090   6.806640   5.225420   6.547054
    24  H    7.105562   7.861912   6.134503   4.142897   5.247366
    25  H    7.307163   8.279121   5.680567   4.355925   5.657123
    26  H    5.747090   6.957432   4.327447   3.788179   5.234061
    27  H    6.834570   8.306581   5.867574   5.051620   6.538946
    28  H    2.824823   4.488025   2.535554   3.377244   4.708606
    29  H    3.575714   2.822655   2.945301   2.742987   2.790982
    30  H    2.891700   3.515811   3.224509   3.298357   4.055903
    31  H    3.585012   2.828443   1.089002   2.749603   2.841141
    32  H    2.892288   3.512079   1.089621   3.325837   4.115993
    33  H    5.290123   5.270175   2.914210   1.093536   2.168531
    34  H    5.253208   5.243282   3.528650   1.091090   2.147591
    35  H    6.462882   5.518791   4.276465   2.124858   1.097381
    36  H    5.191967   3.936732   3.418125   2.185838   1.094173
    37  H    5.583206   3.508782   3.830359   3.938711   2.726957
    38  H    7.012466   4.921986   5.162108   5.799045   4.689577
    39  H    8.142058   6.595787   5.826634   6.277041   5.419111
    40  H    8.075271   7.118699   5.398955   5.183846   4.690553
    41  H    6.876527   6.227687   4.153039   2.975563   2.740055
                   16         17         18         19         20
    16  C    0.000000
    17  C    1.401013   0.000000
    18  C    2.436528   1.398088   0.000000
    19  C    2.817706   2.419494   1.396073   0.000000
    20  C    2.433261   2.784052   2.413969   1.397525   0.000000
    21  C    1.402651   2.407379   2.787535   2.420128   1.394270
    22  H    6.731520   8.054318   9.129673   9.078381   7.931801
    23  H    7.708056   8.931750  10.066461  10.135867   9.081184
    24  H    6.569694   7.744815   8.977057   9.196694   8.236944
    25  H    6.293038   7.612517   8.442530   8.143611   6.926584
    26  H    5.757420   6.917486   7.716163   7.522590   6.472409
    27  H    7.288912   8.494093   9.387539   9.230348   8.137586
    28  H    5.329006   6.039944   6.973122   7.267313   6.690982
    29  H    3.774369   4.000805   5.303853   6.217148   6.077639
    30  H    5.115473   5.542102   6.778052   7.538372   7.235883
    31  H    2.483265   2.699654   3.432789   3.896177   3.744754
    32  H    4.041598   4.477570   5.085001   5.290409   4.924685
    33  H    2.756454   4.037195   5.017034   5.038321   4.082541
    34  H    3.480065   4.595900   5.847700   6.194867   5.421543
    35  H    2.133842   3.200550   4.400757   4.780924   4.141600
    36  H    2.141589   2.596858   3.992931   4.803770   4.574038
    37  H    2.149635   1.086122   2.156066   3.403016   3.870172
    38  H    3.414651   2.153684   1.085000   2.156987   3.400475
    39  H    3.902458   3.404207   2.156517   1.084753   2.157618
    40  H    3.412837   3.869574   3.399207   2.156282   1.085540
    41  H    2.155965   3.394252   3.874352   3.402067   2.150215
                   21         22         23         24         25
    21  C    0.000000
    22  H    6.674559   0.000000
    23  H    7.812105   1.779489   0.000000
    24  H    6.880533   1.775540   1.786706   0.000000
    25  H    5.895747   2.426571   3.089449   3.652327   0.000000
    26  H    5.503836   3.648027   3.770343   4.191414   1.775834
    27  H    7.096116   3.089435   2.626110   3.766517   1.782687
    28  H    5.716350   5.423747   5.067698   4.903145   4.552543
    29  H    4.983084   6.496902   6.670891   5.412351   6.705959
    30  H    6.096150   6.022672   5.732722   4.780267   6.219789
    31  H    3.088980   7.026764   7.493311   6.688440   6.149487
    32  H    4.297871   6.737138   6.889321   6.490198   5.486422
    33  H    2.802102   4.239403   5.107105   4.288965   3.616247
    34  H    4.046941   3.765091   4.439672   3.158296   4.133608
    35  H    2.840900   5.353281   6.454744   5.041596   5.662226
    36  H    3.426828   6.277545   6.993069   5.576799   6.484888
    37  H    3.391197   8.356216   9.105351   7.816861   8.125516
    38  H    3.872506  10.128521  11.006105   9.880971   9.468894
    39  H    3.403548  10.045881  11.118884  10.234607   8.989798
    40  H    2.150816   8.139119   9.359915   8.660940   6.943288
    41  H    1.086837   5.804270   7.043269   6.218471   4.977246
                   26         27         28         29         30
    26  H    0.000000
    27  H    1.787659   0.000000
    28  H    2.994753   4.021664   0.000000
    29  H    5.825461   6.880432   3.873928   0.000000
    30  H    5.189158   5.944408   2.848635   1.791158   0.000000
    31  H    4.963774   6.596281   3.587186   3.182645   3.960638
    32  H    3.951886   5.549773   2.347546   3.967646   3.925876
    33  H    3.138435   4.551867   3.520624   3.788521   4.180867
    34  H    3.862068   4.773349   3.654862   2.943843   3.228687
    35  H    5.582783   6.727804   5.486353   3.566873   4.765040
    36  H    5.960705   7.186342   4.933536   2.079043   3.648730
    37  H    7.372488   8.867711   6.117244   3.468733   5.143327
    38  H    8.665593  10.343128   7.679316   5.790407   7.311619
    39  H    8.356250  10.087406   8.150598   7.230729   8.535771
    40  H    6.611293   8.247780   7.222431   7.019039   8.059400
    41  H    4.811320   6.316848   5.544984   5.275646   6.168229
                   31         32         33         34         35
    31  H    0.000000
    32  H    1.797700   0.000000
    33  H    2.976128   3.295958   0.000000
    34  H    3.783369   4.189467   1.751054   0.000000
    35  H    3.901423   5.096833   2.551988   2.298517   0.000000
    36  H    3.071911   4.442194   3.076639   2.584727   1.744643
    37  H    2.974650   4.752532   4.510853   4.699988   3.428420
    38  H    4.102303   5.736265   6.006532   6.727945   5.283464
    39  H    4.783113   6.057754   6.037959   7.260599   5.842806
    40  H    4.565599   5.484790   4.578904   6.062901   4.899034
    41  H    3.594123   4.455634   2.311890   3.700994   2.812106
                   36         37         38         39         40
    36  H    0.000000
    37  H    2.326778   0.000000
    38  H    4.660031   2.478419   0.000000
    39  H    5.867772   4.301071   2.488855   0.000000
    40  H    5.533333   4.955693   4.300434   2.486464   0.000000
    41  H    3.789979   4.291042   4.959331   4.297365   2.470766
                   41
    41  H    0.000000
 Stoichiometry    C13H20N2O4S2
 Framework group  C1[X(C13H20N2O4S2)]
 Deg. of freedom   117
 Full point group                 C1      NOp   1
 Largest Abelian subgroup         C1      NOp   1
 Largest concise Abelian subgroup C1      NOp   1
                         Standard orientation:                         
 ---------------------------------------------------------------------
 Center     Atomic      Atomic             Coordinates (Angstroms)
 Number     Number       Type             X           Y           Z
 ---------------------------------------------------------------------
      1          6           0       -3.926172   -2.363783    0.828203
      2          7           0       -3.000432   -1.704164   -0.108626
      3          6           0       -3.107028   -2.190964   -1.493166
      4         16           0       -2.955040   -0.034297    0.030105
      5          8           0       -3.979143    0.626658   -0.796206
      6          8           0       -2.916380    0.258021    1.469522
      7          7           0       -1.500229    0.321113   -0.724191
      8          6           0       -0.235978    0.425413    0.045570
      9          6           0       -0.234050    1.641650    1.039742
     10         16           0        0.670445    2.647317   -0.181892
     11          8           0       -0.236444    3.524217   -0.954600
     12          8           0        1.941797    3.215372    0.308564
     13          6           0        0.832409    0.991522   -0.947548
     14          6           0        0.085227   -0.936356    0.686056
     15          6           0        1.399986   -1.071188    1.480936
     16          6           0        2.666813   -1.242942    0.664293
     17          6           0        3.757489   -0.382544    0.845895
     18          6           0        4.940192   -0.555308    0.120625
     19          6           0        5.047913   -1.599772   -0.799436
     20          6           0        3.967958   -2.466450   -0.988222
     21          6           0        2.791029   -2.288796   -0.262091
     22          1           0       -3.697897   -3.430112    0.806072
     23          1           0       -4.978186   -2.220501    0.552534
     24          1           0       -3.755472   -1.983207    1.833541
     25          1           0       -2.895366   -3.261877   -1.477759
     26          1           0       -2.359487   -1.690385   -2.107707
     27          1           0       -4.104594   -2.027677   -1.916497
     28          1           0       -1.669602    1.120313   -1.337915
     29          1           0        0.391431    1.493731    1.920922
     30          1           0       -1.209189    2.029989    1.322016
     31          1           0        1.834863    0.603809   -0.772360
     32          1           0        0.574873    0.954708   -2.005656
     33          1           0        0.058253   -1.689179   -0.106630
     34          1           0       -0.742151   -1.164518    1.359750
     35          1           0        1.277952   -1.955526    2.119137
     36          1           0        1.527836   -0.229574    2.168361
     37          1           0        3.673844    0.432042    1.559418
     38          1           0        5.771752    0.124037    0.276266
     39          1           0        5.963521   -1.737480   -1.364581
     40          1           0        4.044328   -3.282330   -1.700194
     41          1           0        1.958076   -2.970259   -0.413785
 ---------------------------------------------------------------------
 Rotational constants (GHZ):      0.3771140      0.1797550      0.1376113
 Leave Link  202 at Thu Oct  1 22:28:47 2020, MaxMem=  2147483648 cpu:         0.0
 (Enter /prod/apps/gaussian/g09d1/l301.exe)
 Standard basis: 6-31G(d) (6D, 7F)
 Ernie: Thresh=  0.10000D-02 Tol=  0.10000D-05 Strict=F.
 There are   363 symmetry adapted cartesian basis functions of A   symmetry.
 There are   363 symmetry adapted basis functions of A   symmetry.
   363 basis functions,   716 primitive gaussians,   363 cartesian basis functions
    88 alpha electrons       88 beta electrons
       nuclear repulsion energy      2191.3254022011 Hartrees.
 IExCor=  402 DFT=T Ex+Corr=B3LYP ExCW=0 ScaHFX=  0.200000
 ScaDFX=  0.800000  0.720000  1.000000  0.810000 ScalE2=  1.000000  1.000000
 IRadAn=      0 IRanWt=     -1 IRanGd=            0 ICorTp=0 IEmpDi=  4
 NAtoms=   41 NActive=   41 NUniq=   41 SFac= 1.00D+00 NAtFMM=   60 NAOKFM=F Big=F
 Integral buffers will be    131072 words long.
 Raffenetti 2 integral format.
 Two-electron integral symmetry is turned on.
 Leave Link  301 at Thu Oct  1 22:28:47 2020, MaxMem=  2147483648 cpu:         0.0
 (Enter /prod/apps/gaussian/g09d1/l302.exe)
 NPDir=0 NMtPBC=     1 NCelOv=     1 NCel=       1 NClECP=     1 NCelD=      1
         NCelK=      1 NCelE2=     1 NClLst=     1 CellRange=     0.0.
 One-electron integrals computed using PRISM.
 NBasis=   363 RedAO= T EigKep=  4.70D-04  NBF=   363
 NBsUse=   363 1.00D-06 EigRej= -1.00D+00 NBFU=   363
 Precomputing XC quadrature grid using
 IXCGrd= 4 IRadAn=           0 IRanWt=          -1 IRanGd=           0 AccXCQ= 0.00D+00.
 Generated NRdTot=       0 NPtTot=           0 NUsed=           0 NTot=          32
 NSgBfM=   359   359   359   359   359 MxSgAt=    41 MxSgA2=    41.
 Leave Link  302 at Thu Oct  1 22:28:48 2020, MaxMem=  2147483648 cpu:         1.3
 (Enter /prod/apps/gaussian/g09d1/l303.exe)
 DipDrv:  MaxL=1.
 Leave Link  303 at Thu Oct  1 22:28:49 2020, MaxMem=  2147483648 cpu:         0.0
 (Enter /prod/apps/gaussian/g09d1/l401.exe)
 ExpMin= 1.17D-01 ExpMax= 2.19D+04 ExpMxC= 3.30D+03 IAcc=1 IRadAn=         1 AccDes= 0.00D+00
 Harris functional with IExCor=  402 and IRadAn=       1 diagonalized for initial guess.
 HarFok:  IExCor=  402 AccDes= 0.00D+00 IRadAn=         1 IDoV= 1 UseB2=F ITyADJ=14
 ICtDFT=  3500011 ScaDFX=  1.000000  1.000000  1.000000  1.000000
 FoFCou: FMM=F IPFlag=           0 FMFlag=      100000 FMFlg1=           0
         NFxFlg=           0 DoJE=T BraDBF=F KetDBF=T FulRan=T
         wScrn=  0.000000 ICntrl=     500 IOpCl=  0 I1Cent=   200000004 NGrid=           0
         NMat0=    1 NMatS0=      1 NMatT0=    0 NMatD0=    1 NMtDS0=    0 NMtDT0=    0
 Petite list used in FoFCou.
 Harris En= -1714.14501684205    
 JPrj=0 DoOrth=F DoCkMO=F.
 Leave Link  401 at Thu Oct  1 22:28:53 2020, MaxMem=  2147483648 cpu:         4.9
 (Enter /prod/apps/gaussian/g09d1/l502.exe)
 Closed shell SCF:
 Using DIIS extrapolation, IDIIS=  1040.
 Integral symmetry usage will be decided dynamically.
 IVT=      418784 IEndB=      418784 NGot=  2147483648 MDV=  2147213637
 LenX=  2147213637 LenY=  2147081427
 Requested convergence on RMS density matrix=1.00D-08 within 128 cycles.
 Requested convergence on MAX density matrix=1.00D-06.
 Requested convergence on             energy=1.00D-06.
 No special actions if energy rises.
 Fock matrices will be formed incrementally for  20 cycles.
 Integral accuracy reduced to 1.0D-05 until final iterations.

 Cycle   1  Pass 0  IDiag  1:
 FoFJK:  IHMeth= 1 ICntrl=       0 DoSepK=F KAlg= 0 I1Cent=   0 FoldK=F
 IRaf= 770000000 NMat=   1 IRICut=       1 DoRegI=T DoRafI=F ISym2E= 0.
 FoFCou: FMM=F IPFlag=           0 FMFlag=      100000 FMFlg1=           0
         NFxFlg=           0 DoJE=F BraDBF=F KetDBF=F FulRan=T
         wScrn=  0.000000 ICntrl=       0 IOpCl=  0 I1Cent=           0 NGrid=           0
         NMat0=    1 NMatS0=      1 NMatT0=    0 NMatD0=    1 NMtDS0=    0 NMtDT0=    0
 Symmetry not used in FoFCou.
 E= -1713.19600951569    
 DIIS: error= 3.67D-02 at cycle   1 NSaved=   1.
 NSaved= 1 IEnMin= 1 EnMin= -1713.19600951569     IErMin= 1 ErrMin= 3.67D-02
 ErrMax= 3.67D-02  0.00D+00 EMaxC= 1.00D-01 BMatC= 9.94D-01 BMatP= 9.94D-01
 IDIUse=3 WtCom= 6.33D-01 WtEn= 3.67D-01
 Coeff-Com:  0.100D+01
 Coeff-En:   0.100D+01
 Coeff:      0.100D+01
 Gap=     0.343 Goal=   None    Shift=    0.000
 GapD=    0.343 DampG=1.000 DampE=0.500 DampFc=0.5000 IDamp=-1.
 Damping current iteration by 5.00D-01
 RMSDP=7.04D-03 MaxDP=5.99D-01              OVMax= 2.44D-01

 Cycle   2  Pass 0  IDiag  1:
 RMSU=  3.52D-03    CP:  9.99D-01
 E= -1713.36799751590     Delta-E=       -0.171988000207 Rises=F Damp=T
 DIIS: error= 1.62D-02 at cycle   2 NSaved=   2.
 NSaved= 2 IEnMin= 2 EnMin= -1713.36799751590     IErMin= 2 ErrMin= 1.62D-02
 ErrMax= 1.62D-02  0.00D+00 EMaxC= 1.00D-01 BMatC= 1.74D-01 BMatP= 9.94D-01
 IDIUse=3 WtCom= 8.38D-01 WtEn= 1.62D-01
 Coeff-Com:  0.253D+00 0.747D+00
 Coeff-En:   0.399D+00 0.601D+00
 Coeff:      0.277D+00 0.723D+00
 Gap=     0.297 Goal=   None    Shift=    0.000
 RMSDP=2.08D-03 MaxDP=1.27D-01 DE=-1.72D-01 OVMax= 2.01D-01

 Cycle   3  Pass 0  IDiag  1:
 RMSU=  1.64D-03    CP:  9.90D-01  6.41D-01
 E= -1713.94524289800     Delta-E=       -0.577245382100 Rises=F Damp=F
 DIIS: error= 9.30D-03 at cycle   3 NSaved=   3.
 NSaved= 3 IEnMin= 3 EnMin= -1713.94524289800     IErMin= 3 ErrMin= 9.30D-03
 ErrMax= 9.30D-03  0.00D+00 EMaxC= 1.00D-01 BMatC= 1.01D-01 BMatP= 1.74D-01
 IDIUse=3 WtCom= 9.07D-01 WtEn= 9.30D-02
 Coeff-Com:  0.105D+00 0.439D+00 0.456D+00
 Coeff-En:   0.000D+00 0.000D+00 0.100D+01
 Coeff:      0.957D-01 0.398D+00 0.506D+00
 Gap=     0.239 Goal=   None    Shift=    0.000
 RMSDP=1.29D-03 MaxDP=3.62D-02 DE=-5.77D-01 OVMax= 7.44D-02

 Cycle   4  Pass 0  IDiag  1:
 RMSU=  7.58D-04    CP:  9.95D-01  7.20D-01  3.93D-01
 E= -1714.02724828048     Delta-E=       -0.082005382488 Rises=F Damp=F
 DIIS: error= 2.86D-03 at cycle   4 NSaved=   4.
 NSaved= 4 IEnMin= 4 EnMin= -1714.02724828048     IErMin= 4 ErrMin= 2.86D-03
 ErrMax= 2.86D-03  0.00D+00 EMaxC= 1.00D-01 BMatC= 1.34D-02 BMatP= 1.01D-01
 IDIUse=3 WtCom= 9.71D-01 WtEn= 2.86D-02
 Coeff-Com:  0.116D-01 0.823D-01 0.280D+00 0.626D+00
 Coeff-En:   0.000D+00 0.000D+00 0.116D+00 0.884D+00
 Coeff:      0.113D-01 0.799D-01 0.275D+00 0.634D+00
 Gap=     0.237 Goal=   None    Shift=    0.000
 RMSDP=4.12D-04 MaxDP=1.54D-02 DE=-8.20D-02 OVMax= 2.36D-02

 Cycle   5  Pass 0  IDiag  1:
 RMSU=  1.83D-04    CP:  9.95D-01  7.06D-01  5.41D-01  6.39D-01
 E= -1714.03840841035     Delta-E=       -0.011160129864 Rises=F Damp=F
 DIIS: error= 8.40D-04 at cycle   5 NSaved=   5.
 NSaved= 5 IEnMin= 5 EnMin= -1714.03840841035     IErMin= 5 ErrMin= 8.40D-04
 ErrMax= 8.40D-04  0.00D+00 EMaxC= 1.00D-01 BMatC= 1.05D-03 BMatP= 1.34D-02
 IDIUse=3 WtCom= 9.92D-01 WtEn= 8.40D-03
 Coeff-Com: -0.794D-03 0.173D-01 0.116D+00 0.343D+00 0.525D+00
 Coeff-En:   0.000D+00 0.000D+00 0.000D+00 0.000D+00 0.100D+01
 Coeff:     -0.787D-03 0.171D-01 0.115D+00 0.340D+00 0.529D+00
 Gap=     0.238 Goal=   None    Shift=    0.000
 RMSDP=1.15D-04 MaxDP=6.83D-03 DE=-1.12D-02 OVMax= 7.59D-03

 Cycle   6  Pass 0  IDiag  1:
 RMSU=  5.76D-05    CP:  9.94D-01  7.09D-01  5.34D-01  7.03D-01  5.36D-01
 E= -1714.03926792678     Delta-E=       -0.000859516432 Rises=F Damp=F
 DIIS: error= 3.63D-04 at cycle   6 NSaved=   6.
 NSaved= 6 IEnMin= 6 EnMin= -1714.03926792678     IErMin= 6 ErrMin= 3.63D-04
 ErrMax= 3.63D-04  0.00D+00 EMaxC= 1.00D-01 BMatC= 1.27D-04 BMatP= 1.05D-03
 IDIUse=3 WtCom= 9.96D-01 WtEn= 3.63D-03
 Coeff-Com: -0.136D-02 0.367D-02 0.440D-01 0.144D+00 0.316D+00 0.493D+00
 Coeff-En:   0.000D+00 0.000D+00 0.000D+00 0.000D+00 0.431D-01 0.957D+00
 Coeff:     -0.135D-02 0.366D-02 0.438D-01 0.144D+00 0.315D+00 0.495D+00
 Gap=     0.237 Goal=   None    Shift=    0.000
 RMSDP=3.74D-05 MaxDP=1.70D-03 DE=-8.60D-04 OVMax= 2.83D-03

 Cycle   7  Pass 0  IDiag  1:
 RMSU=  2.41D-05    CP:  9.94D-01  7.09D-01  5.35D-01  7.01D-01  5.95D-01
                    CP:  5.42D-01
 E= -1714.03936236281     Delta-E=       -0.000094436034 Rises=F Damp=F
 DIIS: error= 1.51D-04 at cycle   7 NSaved=   7.
 NSaved= 7 IEnMin= 7 EnMin= -1714.03936236281     IErMin= 7 ErrMin= 1.51D-04
 ErrMax= 1.51D-04  0.00D+00 EMaxC= 1.00D-01 BMatC= 1.74D-05 BMatP= 1.27D-04
 IDIUse=3 WtCom= 9.98D-01 WtEn= 1.51D-03
 Coeff-Com: -0.777D-03 0.960D-05 0.126D-01 0.458D-01 0.134D+00 0.318D+00
 Coeff-Com:  0.491D+00
 Coeff-En:   0.000D+00 0.000D+00 0.000D+00 0.000D+00 0.000D+00 0.956D-01
 Coeff-En:   0.904D+00
 Coeff:     -0.775D-03 0.958D-05 0.125D-01 0.458D-01 0.134D+00 0.317D+00
 Coeff:      0.491D+00
 Gap=     0.237 Goal=   None    Shift=    0.000
 RMSDP=1.24D-05 MaxDP=5.77D-04 DE=-9.44D-05 OVMax= 7.29D-04

 Cycle   8  Pass 0  IDiag  1:
 RMSU=  6.01D-06    CP:  9.94D-01  7.09D-01  5.36D-01  7.01D-01  5.98D-01
                    CP:  6.12D-01  5.83D-01
 E= -1714.03937691781     Delta-E=       -0.000014554992 Rises=F Damp=F
 DIIS: error= 2.99D-05 at cycle   8 NSaved=   8.
 NSaved= 8 IEnMin= 8 EnMin= -1714.03937691781     IErMin= 8 ErrMin= 2.99D-05
 ErrMax= 2.99D-05  0.00D+00 EMaxC= 1.00D-01 BMatC= 7.33D-07 BMatP= 1.74D-05
 IDIUse=1 WtCom= 1.00D+00 WtEn= 0.00D+00
 Coeff-Com: -0.262D-03-0.300D-03 0.206D-02 0.901D-02 0.383D-01 0.113D+00
 Coeff-Com:  0.241D+00 0.597D+00
 Coeff:     -0.262D-03-0.300D-03 0.206D-02 0.901D-02 0.383D-01 0.113D+00
 Coeff:      0.241D+00 0.597D+00
 Gap=     0.237 Goal=   None    Shift=    0.000
 RMSDP=3.29D-06 MaxDP=1.59D-04 DE=-1.46D-05 OVMax= 2.22D-04

 Initial convergence to 1.0D-05 achieved.  Increase integral accuracy.
 Cycle   9  Pass 1  IDiag  1:
 E= -1714.03923746047     Delta-E=        0.000139457339 Rises=F Damp=F
 DIIS: error= 5.71D-05 at cycle   1 NSaved=   1.
 NSaved= 1 IEnMin= 1 EnMin= -1714.03923746047     IErMin= 1 ErrMin= 5.71D-05
 ErrMax= 5.71D-05  0.00D+00 EMaxC= 1.00D-01 BMatC= 1.01D-06 BMatP= 1.01D-06
 IDIUse=1 WtCom= 1.00D+00 WtEn= 0.00D+00
 Coeff-Com:  0.100D+01
 Coeff:      0.100D+01
 Gap=     0.237 Goal=   None    Shift=    0.000
 RMSDP=3.29D-06 MaxDP=1.59D-04 DE= 1.39D-04 OVMax= 3.63D-04

 Cycle  10  Pass 1  IDiag  1:
 RMSU=  2.67D-05    CP:  1.00D+00
 E= -1714.03923800832     Delta-E=       -0.000000547850 Rises=F Damp=F
 DIIS: error= 3.27D-05 at cycle   2 NSaved=   2.
 NSaved= 2 IEnMin= 2 EnMin= -1714.03923800832     IErMin= 2 ErrMin= 3.27D-05
 ErrMax= 3.27D-05  0.00D+00 EMaxC= 1.00D-01 BMatC= 6.31D-07 BMatP= 1.01D-06
 IDIUse=1 WtCom= 1.00D+00 WtEn= 0.00D+00
 Coeff-Com:  0.415D+00 0.585D+00
 Coeff:      0.415D+00 0.585D+00
 Gap=     0.237 Goal=   None    Shift=    0.000
 RMSDP=4.03D-06 MaxDP=1.78D-04 DE=-5.48D-07 OVMax= 4.16D-04

 Cycle  11  Pass 1  IDiag  1:
 RMSU=  4.02D-06    CP:  1.00D+00  9.92D-01
 E= -1714.03923817877     Delta-E=       -0.000000170457 Rises=F Damp=F
 DIIS: error= 3.08D-05 at cycle   3 NSaved=   3.
 NSaved= 3 IEnMin= 3 EnMin= -1714.03923817877     IErMin= 3 ErrMin= 3.08D-05
 ErrMax= 3.08D-05  0.00D+00 EMaxC= 1.00D-01 BMatC= 4.69D-07 BMatP= 6.31D-07
 IDIUse=1 WtCom= 1.00D+00 WtEn= 0.00D+00
 Coeff-Com: -0.712D-03 0.463D+00 0.538D+00
 Coeff:     -0.712D-03 0.463D+00 0.538D+00
 Gap=     0.237 Goal=   None    Shift=    0.000
 RMSDP=1.91D-06 MaxDP=9.33D-05 DE=-1.70D-07 OVMax= 1.58D-04

 Cycle  12  Pass 1  IDiag  1:
 RMSU=  6.38D-07    CP:  1.00D+00  1.01D+00  5.60D-01
 E= -1714.03923859120     Delta-E=       -0.000000412422 Rises=F Damp=F
 DIIS: error= 4.86D-06 at cycle   4 NSaved=   4.
 NSaved= 4 IEnMin= 4 EnMin= -1714.03923859120     IErMin= 4 ErrMin= 4.86D-06
 ErrMax= 4.86D-06  0.00D+00 EMaxC= 1.00D-01 BMatC= 1.37D-08 BMatP= 4.69D-07
 IDIUse=1 WtCom= 1.00D+00 WtEn= 0.00D+00
 Coeff-Com: -0.910D-02 0.274D+00 0.335D+00 0.400D+00
 Coeff:     -0.910D-02 0.274D+00 0.335D+00 0.400D+00
 Gap=     0.237 Goal=   None    Shift=    0.000
 RMSDP=3.85D-07 MaxDP=1.63D-05 DE=-4.12D-07 OVMax= 3.41D-05

 Cycle  13  Pass 1  IDiag  1:
 RMSU=  2.02D-07    CP:  1.00D+00  1.01D+00  5.53D-01  4.88D-01
 E= -1714.03923860310     Delta-E=       -0.000000011899 Rises=F Damp=F
 DIIS: error= 1.45D-06 at cycle   5 NSaved=   5.
 NSaved= 5 IEnMin= 5 EnMin= -1714.03923860310     IErMin= 5 ErrMin= 1.45D-06
 ErrMax= 1.45D-06  0.00D+00 EMaxC= 1.00D-01 BMatC= 7.18D-10 BMatP= 1.37D-08
 IDIUse=1 WtCom= 1.00D+00 WtEn= 0.00D+00
 Coeff-Com: -0.512D-02 0.121D+00 0.150D+00 0.234D+00 0.500D+00
 Coeff:     -0.512D-02 0.121D+00 0.150D+00 0.234D+00 0.500D+00
 Gap=     0.237 Goal=   None    Shift=    0.000
 RMSDP=9.34D-08 MaxDP=3.05D-06 DE=-1.19D-08 OVMax= 1.04D-05

 Cycle  14  Pass 1  IDiag  1:
 RMSU=  7.02D-08    CP:  1.00D+00  1.01D+00  5.57D-01  5.16D-01  7.22D-01
 E= -1714.03923860372     Delta-E=       -0.000000000628 Rises=F Damp=F
 DIIS: error= 2.49D-07 at cycle   6 NSaved=   6.
 NSaved= 6 IEnMin= 6 EnMin= -1714.03923860372     IErMin= 6 ErrMin= 2.49D-07
 ErrMax= 2.49D-07  0.00D+00 EMaxC= 1.00D-01 BMatC= 4.40D-11 BMatP= 7.18D-10
 IDIUse=1 WtCom= 1.00D+00 WtEn= 0.00D+00
 Coeff-Com: -0.136D-02 0.241D-01 0.310D-01 0.637D-01 0.240D+00 0.642D+00
 Coeff:     -0.136D-02 0.241D-01 0.310D-01 0.637D-01 0.240D+00 0.642D+00
 Gap=     0.237 Goal=   None    Shift=    0.000
 RMSDP=2.49D-08 MaxDP=1.37D-06 DE=-6.28D-10 OVMax= 2.23D-06

 Cycle  15  Pass 1  IDiag  1:
 RMSU=  1.83D-08    CP:  1.00D+00  1.01D+00  5.57D-01  5.20D-01  7.70D-01
                    CP:  8.09D-01
 E= -1714.03923860384     Delta-E=       -0.000000000114 Rises=F Damp=F
 DIIS: error= 6.63D-08 at cycle   7 NSaved=   7.
 NSaved= 7 IEnMin= 7 EnMin= -1714.03923860384     IErMin= 7 ErrMin= 6.63D-08
 ErrMax= 6.63D-08  0.00D+00 EMaxC= 1.00D-01 BMatC= 5.54D-12 BMatP= 4.40D-11
 IDIUse=1 WtCom= 1.00D+00 WtEn= 0.00D+00
 Coeff-Com: -0.233D-03 0.121D-02 0.203D-02 0.110D-01 0.749D-01 0.331D+00
 Coeff-Com:  0.580D+00
 Coeff:     -0.233D-03 0.121D-02 0.203D-02 0.110D-01 0.749D-01 0.331D+00
 Coeff:      0.580D+00
 Gap=     0.237 Goal=   None    Shift=    0.000
 RMSDP=9.01D-09 MaxDP=5.70D-07 DE=-1.14D-10 OVMax= 6.24D-07

 SCF Done:  E(RB3LYP) =  -1714.03923860     A.U. after   15 cycles
            NFock= 15  Conv=0.90D-08     -V/T= 2.0068
 KE= 1.702493636959D+03 PE=-8.408245484252D+03 EE= 2.800387206488D+03
 Leave Link  502 at Thu Oct  1 22:35:15 2020, MaxMem=  2147483648 cpu:       381.3
 (Enter /prod/apps/gaussian/g09d1/l601.exe)
 Copying SCF densities to generalized density rwf, IOpCl= 0 IROHF=0.

 **********************************************************************

            Population analysis using the SCF density.

 **********************************************************************

 Orbital symmetries:
       Occupied  (A) (A) (A) (A) (A) (A) (A) (A) (A) (A) (A) (A)
                 (A) (A) (A) (A) (A) (A) (A) (A) (A) (A) (A) (A)
                 (A) (A) (A) (A) (A) (A) (A) (A) (A) (A) (A) (A)
                 (A) (A) (A) (A) (A) (A) (A) (A) (A) (A) (A) (A)
                 (A) (A) (A) (A) (A) (A) (A) (A) (A) (A) (A) (A)
                 (A) (A) (A) (A) (A) (A) (A) (A) (A) (A) (A) (A)
                 (A) (A) (A) (A) (A) (A) (A) (A) (A) (A) (A) (A)
                 (A) (A) (A) (A)
       Virtual   (A) (A) (A) (A) (A) (A) (A) (A) (A) (A) (A) (A)
                 (A) (A) (A) (A) (A) (A) (A) (A) (A) (A) (A) (A)
                 (A) (A) (A) (A) (A) (A) (A) (A) (A) (A) (A) (A)
                 (A) (A) (A) (A) (A) (A) (A) (A) (A) (A) (A) (A)
                 (A) (A) (A) (A) (A) (A) (A) (A) (A) (A) (A) (A)
                 (A) (A) (A) (A) (A) (A) (A) (A) (A) (A) (A) (A)
                 (A) (A) (A) (A) (A) (A) (A) (A) (A) (A) (A) (A)
                 (A) (A) (A) (A) (A) (A) (A) (A) (A) (A) (A) (A)
                 (A) (A) (A) (A) (A) (A) (A) (A) (A) (A) (A) (A)
                 (A) (A) (A) (A) (A) (A) (A) (A) (A) (A) (A) (A)
                 (A) (A) (A) (A) (A) (A) (A) (A) (A) (A) (A) (A)
                 (A) (A) (A) (A) (A) (A) (A) (A) (A) (A) (A) (A)
                 (A) (A) (A) (A) (A) (A) (A) (A) (A) (A) (A) (A)
                 (A) (A) (A) (A) (A) (A) (A) (A) (A) (A) (A) (A)
                 (A) (A) (A) (A) (A) (A) (A) (A) (A) (A) (A) (A)
                 (A) (A) (A) (A) (A) (A) (A) (A) (A) (A) (A) (A)
                 (A) (A) (A) (A) (A) (A) (A) (A) (A) (A) (A) (A)
                 (A) (A) (A) (A) (A) (A) (A) (A) (A) (A) (A) (A)
                 (A) (A) (A) (A) (A) (A) (A) (A) (A) (A) (A) (A)
                 (A) (A) (A) (A) (A) (A) (A) (A) (A) (A) (A) (A)
                 (A) (A) (A) (A) (A) (A) (A) (A) (A) (A) (A) (A)
                 (A) (A) (A) (A) (A) (A) (A) (A) (A) (A) (A) (A)
                 (A) (A) (A) (A) (A) (A) (A) (A) (A) (A) (A)
 The electronic state is 1-A.
 Alpha  occ. eigenvalues --  -89.13894 -89.09045 -19.15541 -19.15091 -19.14436
 Alpha  occ. eigenvalues --  -19.14344 -14.38748 -14.38561 -10.28501 -10.23481
 Alpha  occ. eigenvalues --  -10.23417 -10.23366 -10.22992 -10.21122 -10.21092
 Alpha  occ. eigenvalues --  -10.20949 -10.20183 -10.20054 -10.20030 -10.19918
 Alpha  occ. eigenvalues --  -10.19860  -8.16151  -8.12105  -6.12641  -6.12575
 Alpha  occ. eigenvalues --   -6.12528  -6.08524  -6.08457  -6.08393  -1.13021
 Alpha  occ. eigenvalues --   -1.09520  -1.00948  -0.99134  -0.95927  -0.94909
 Alpha  occ. eigenvalues --   -0.86912  -0.85574  -0.80455  -0.75480  -0.75095
 Alpha  occ. eigenvalues --   -0.73961  -0.73018  -0.72155  -0.68625  -0.63409
 Alpha  occ. eigenvalues --   -0.61650  -0.60327  -0.59233  -0.57418  -0.54768
 Alpha  occ. eigenvalues --   -0.53367  -0.52467  -0.51728  -0.50201  -0.49601
 Alpha  occ. eigenvalues --   -0.49084  -0.47531  -0.47139  -0.46602  -0.46124
 Alpha  occ. eigenvalues --   -0.45163  -0.44843  -0.44751  -0.43217  -0.42847
 Alpha  occ. eigenvalues --   -0.42650  -0.42209  -0.42032  -0.41020  -0.40319
 Alpha  occ. eigenvalues --   -0.39867  -0.38084  -0.36995  -0.36288  -0.35723
 Alpha  occ. eigenvalues --   -0.34969  -0.34729  -0.34537  -0.32699  -0.31550
 Alpha  occ. eigenvalues --   -0.31234  -0.30947  -0.29841  -0.29610  -0.28476
 Alpha  occ. eigenvalues --   -0.26446  -0.26104  -0.25308
 Alpha virt. eigenvalues --   -0.01563  -0.01206   0.03042   0.03925   0.05116
 Alpha virt. eigenvalues --    0.05592   0.06319   0.06844   0.07243   0.08541
 Alpha virt. eigenvalues --    0.08695   0.09021   0.09541   0.10209   0.11277
 Alpha virt. eigenvalues --    0.12369   0.12583   0.13020   0.14125   0.14735
 Alpha virt. eigenvalues --    0.15006   0.15446   0.15803   0.15996   0.16373
 Alpha virt. eigenvalues --    0.16762   0.17339   0.18021   0.18536   0.18993
 Alpha virt. eigenvalues --    0.19665   0.20303   0.20699   0.21312   0.22564
 Alpha virt. eigenvalues --    0.24391   0.25227   0.26538   0.29136   0.29562
 Alpha virt. eigenvalues --    0.31236   0.33429   0.34401   0.35234   0.35991
 Alpha virt. eigenvalues --    0.36572   0.39288   0.42318   0.43790   0.44455
 Alpha virt. eigenvalues --    0.46065   0.46611   0.47505   0.48162   0.48914
 Alpha virt. eigenvalues --    0.49990   0.51205   0.52368   0.53286   0.53960
 Alpha virt. eigenvalues --    0.54236   0.55328   0.56115   0.56482   0.57250
 Alpha virt. eigenvalues --    0.58129   0.58364   0.59383   0.59684   0.60377
 Alpha virt. eigenvalues --    0.60683   0.60829   0.61407   0.63607   0.63744
 Alpha virt. eigenvalues --    0.64459   0.65544   0.67200   0.68230   0.71283
 Alpha virt. eigenvalues --    0.71768   0.73138   0.73505   0.74156   0.75481
 Alpha virt. eigenvalues --    0.76715   0.76887   0.78345   0.79078   0.79752
 Alpha virt. eigenvalues --    0.80464   0.81446   0.82239   0.82415   0.83102
 Alpha virt. eigenvalues --    0.83626   0.84006   0.84268   0.85088   0.85222
 Alpha virt. eigenvalues --    0.86327   0.86959   0.87788   0.88424   0.89813
 Alpha virt. eigenvalues --    0.90362   0.90642   0.91072   0.91674   0.92468
 Alpha virt. eigenvalues --    0.93201   0.93283   0.94662   0.95428   0.95854
 Alpha virt. eigenvalues --    0.96426   0.97727   0.99154   1.00122   1.01030
 Alpha virt. eigenvalues --    1.02710   1.03933   1.04367   1.05663   1.06276
 Alpha virt. eigenvalues --    1.06994   1.08180   1.08821   1.09415   1.10189
 Alpha virt. eigenvalues --    1.11208   1.11835   1.14093   1.14756   1.15707
 Alpha virt. eigenvalues --    1.16704   1.17258   1.18764   1.19854   1.21086
 Alpha virt. eigenvalues --    1.22866   1.23059   1.25518   1.26652   1.29406
 Alpha virt. eigenvalues --    1.30980   1.33165   1.34545   1.37510   1.40985
 Alpha virt. eigenvalues --    1.42096   1.42901   1.43237   1.44680   1.46877
 Alpha virt. eigenvalues --    1.47594   1.48707   1.49345   1.50360   1.52324
 Alpha virt. eigenvalues --    1.54873   1.55561   1.58819   1.66267   1.66977
 Alpha virt. eigenvalues --    1.68058   1.70623   1.71197   1.73283   1.74415
 Alpha virt. eigenvalues --    1.76686   1.77704   1.79088   1.80207   1.80224
 Alpha virt. eigenvalues --    1.80931   1.81079   1.81770   1.81887   1.83228
 Alpha virt. eigenvalues --    1.83704   1.84927   1.85035   1.86509   1.86787
 Alpha virt. eigenvalues --    1.89168   1.90691   1.91174   1.92337   1.93461
 Alpha virt. eigenvalues --    1.94914   1.95014   1.96788   1.97153   1.98030
 Alpha virt. eigenvalues --    2.00913   2.01516   2.03140   2.03808   2.05273
 Alpha virt. eigenvalues --    2.06206   2.06840   2.07743   2.08781   2.09602
 Alpha virt. eigenvalues --    2.11131   2.12897   2.13435   2.13993   2.15147
 Alpha virt. eigenvalues --    2.15463   2.16616   2.17530   2.18831   2.19371
 Alpha virt. eigenvalues --    2.21810   2.23059   2.23649   2.26388   2.28307
 Alpha virt. eigenvalues --    2.30115   2.30379   2.31066   2.31911   2.35834
 Alpha virt. eigenvalues --    2.36652   2.37744   2.39988   2.41476   2.43649
 Alpha virt. eigenvalues --    2.45490   2.46891   2.49476   2.54431   2.57227
 Alpha virt. eigenvalues --    2.57754   2.59936   2.63341   2.64999   2.69719
 Alpha virt. eigenvalues --    2.70281   2.71264   2.72859   2.73072   2.73961
 Alpha virt. eigenvalues --    2.75168   2.76923   2.79525   2.82230   2.83234
 Alpha virt. eigenvalues --    2.87700   2.88906   3.04825   3.39674   3.78943
 Alpha virt. eigenvalues --    3.81517   3.90058   3.95017   4.01361   4.04327
 Alpha virt. eigenvalues --    4.06929   4.08462   4.10500   4.11357   4.17867
 Alpha virt. eigenvalues --    4.20215   4.23742   4.25478   4.32212   4.33127
 Alpha virt. eigenvalues --    4.34339   4.43477   4.50621   4.68544   4.74818
          Condensed to atoms (all electrons):
               1          2          3          4          5          6
     1  C    4.987323   0.293011  -0.049349  -0.026504  -0.002387  -0.003612
     2  N    0.293011   7.214358   0.274708   0.126326  -0.058008  -0.051836
     3  C   -0.049349   0.274708   4.992440  -0.010675   0.001848   0.001708
     4  S   -0.026504   0.126326  -0.010675  13.609702   0.453936   0.389326
     5  O   -0.002387  -0.058008   0.001848   0.453936   8.220967  -0.044994
     6  O   -0.003612  -0.051836   0.001708   0.389326  -0.044994   8.303371
     7  N    0.002288  -0.040866  -0.010170   0.119910  -0.057978  -0.053209
     8  C    0.000052  -0.007979   0.000589   0.008621   0.002079   0.007800
     9  C    0.000016  -0.000328  -0.000014  -0.004752  -0.000024  -0.002420
    10  S   -0.000001   0.000022   0.000002   0.000265  -0.000053  -0.000018
    11  O    0.000000   0.000000   0.000000  -0.000096  -0.000001   0.000000
    12  O    0.000000   0.000000   0.000000   0.000000   0.000000   0.000000
    13  C    0.000002  -0.000184   0.000005   0.000756  -0.000106   0.000139
    14  C   -0.000090   0.006676  -0.000325  -0.008322  -0.000091  -0.008079
    15  C   -0.000004   0.000286  -0.000011  -0.000268   0.000000  -0.000008
    16  C    0.000000  -0.000003   0.000000  -0.000003   0.000000  -0.000001
    17  C    0.000000   0.000000   0.000000   0.000000   0.000000   0.000000
    18  C    0.000000   0.000000   0.000000   0.000000   0.000000   0.000000
    19  C    0.000000   0.000000   0.000000   0.000000   0.000000   0.000000
    20  C    0.000000   0.000000   0.000000   0.000000   0.000000   0.000000
    21  C    0.000000  -0.000001  -0.000001  -0.000004   0.000000   0.000000
    22  H    0.377817  -0.039558  -0.003075   0.002009  -0.000112   0.000241
    23  H    0.372007  -0.047138  -0.002354  -0.002855   0.002573  -0.000543
    24  H    0.378056  -0.031037   0.004564  -0.005056  -0.000196   0.012041
    25  H   -0.003874  -0.035986   0.373270   0.003220   0.000047  -0.000050
    26  H    0.004683  -0.033113   0.374870  -0.003469  -0.001745   0.000028
    27  H   -0.001962  -0.045524   0.374394  -0.007057   0.005483  -0.000042
    28  H   -0.000045   0.002261  -0.000186  -0.016285   0.006560  -0.000007
    29  H    0.000000   0.000001   0.000000   0.000035  -0.000002  -0.000240
    30  H    0.000007   0.000015  -0.000002   0.001253  -0.000389   0.010032
    31  H    0.000000   0.000002  -0.000001   0.000010   0.000000   0.000001
    32  H    0.000000  -0.000012  -0.000019   0.000193  -0.000010   0.000006
    33  H    0.000062   0.000561   0.000143  -0.000619   0.000004   0.000151
    34  H   -0.000071  -0.002681   0.000080   0.011428   0.000026   0.008198
    35  H    0.000000   0.000013   0.000000  -0.000025   0.000000  -0.000002
    36  H    0.000000  -0.000002   0.000000  -0.000008   0.000000   0.000012
    37  H    0.000000   0.000000   0.000000   0.000000   0.000000   0.000000
    38  H    0.000000   0.000000   0.000000   0.000000   0.000000   0.000000
    39  H    0.000000   0.000000   0.000000   0.000000   0.000000   0.000000
    40  H    0.000000   0.000000   0.000000   0.000000   0.000000   0.000000
    41  H    0.000000  -0.000003   0.000001  -0.000001   0.000000   0.000000
               7          8          9         10         11         12
     1  C    0.002288   0.000052   0.000016  -0.000001   0.000000   0.000000
     2  N   -0.040866  -0.007979  -0.000328   0.000022   0.000000   0.000000
     3  C   -0.010170   0.000589  -0.000014   0.000002   0.000000   0.000000
     4  S    0.119910   0.008621  -0.004752   0.000265  -0.000096   0.000000
     5  O   -0.057978   0.002079  -0.000024  -0.000053  -0.000001   0.000000
     6  O   -0.053209   0.007800  -0.002420  -0.000018   0.000000   0.000000
     7  N    7.426323   0.205735  -0.072188   0.009529  -0.002100  -0.000037
     8  C    0.205735   4.878746   0.348468  -0.100349   0.001148   0.002074
     9  C   -0.072188   0.348468   5.756389   0.123393  -0.043883  -0.045278
    10  S    0.009529  -0.100349   0.123393  13.921166   0.406406   0.429993
    11  O   -0.002100   0.001148  -0.043883   0.406406   8.250055  -0.046248
    12  O   -0.000037   0.002074  -0.045278   0.429993  -0.046248   8.214003
    13  C   -0.049667   0.328980  -0.198476   0.126474  -0.045605  -0.044538
    14  C   -0.048060   0.379084  -0.045707   0.003049  -0.000057  -0.000187
    15  C    0.003271  -0.030624  -0.006268  -0.000155  -0.000002   0.000048
    16  C   -0.000034  -0.003218  -0.000575   0.000066   0.000000  -0.000120
    17  C   -0.000004   0.000812  -0.000074   0.000730   0.000000  -0.000191
    18  C    0.000000   0.000004   0.000000  -0.000016   0.000000  -0.000008
    19  C    0.000000   0.000004   0.000000   0.000001   0.000000   0.000000
    20  C    0.000000  -0.000028   0.000001  -0.000007   0.000000   0.000000
    21  C   -0.000017  -0.000992   0.000003   0.000051   0.000000   0.000001
    22  H   -0.000077   0.000004   0.000000   0.000000   0.000000   0.000000
    23  H   -0.000083  -0.000013   0.000000   0.000000   0.000000   0.000000
    24  H    0.000125   0.000020   0.000000   0.000000   0.000000   0.000000
    25  H   -0.000013   0.000021   0.000000   0.000000   0.000000   0.000000
    26  H    0.014388   0.000230   0.000033  -0.000004   0.000000   0.000000
    27  H   -0.000208  -0.000053   0.000000   0.000000   0.000000   0.000000
    28  H    0.295442  -0.025474  -0.001806   0.010055   0.006855   0.000021
    29  H    0.004110  -0.024878   0.321837  -0.005508   0.001245   0.001272
    30  H   -0.005630  -0.019305   0.342083  -0.009391  -0.000353   0.000563
    31  H    0.002873  -0.022769   0.005028  -0.003270   0.001131   0.000603
    32  H   -0.001777  -0.025216   0.010459  -0.011900  -0.000447   0.000688
    33  H    0.000499  -0.035552   0.005643  -0.000179   0.000001   0.000002
    34  H   -0.005053  -0.034995  -0.006540  -0.000068   0.000001   0.000002
    35  H   -0.000091   0.004546   0.000126   0.000024   0.000000   0.000000
    36  H    0.000038  -0.008186   0.001755  -0.000474   0.000001  -0.000057
    37  H    0.000000  -0.000012  -0.000131   0.000871   0.000001   0.001021
    38  H    0.000000   0.000000   0.000000  -0.000001   0.000000  -0.000002
    39  H    0.000000   0.000000   0.000000   0.000000   0.000000   0.000000
    40  H    0.000000   0.000000   0.000000   0.000000   0.000000   0.000000
    41  H   -0.000006   0.000182   0.000000   0.000002   0.000000   0.000000
              13         14         15         16         17         18
     1  C    0.000002  -0.000090  -0.000004   0.000000   0.000000   0.000000
     2  N   -0.000184   0.006676   0.000286  -0.000003   0.000000   0.000000
     3  C    0.000005  -0.000325  -0.000011   0.000000   0.000000   0.000000
     4  S    0.000756  -0.008322  -0.000268  -0.000003   0.000000   0.000000
     5  O   -0.000106  -0.000091   0.000000   0.000000   0.000000   0.000000
     6  O    0.000139  -0.008079  -0.000008  -0.000001   0.000000   0.000000
     7  N   -0.049667  -0.048060   0.003271  -0.000034  -0.000004   0.000000
     8  C    0.328980   0.379084  -0.030624  -0.003218   0.000812   0.000004
     9  C   -0.198476  -0.045707  -0.006268  -0.000575  -0.000074   0.000000
    10  S    0.126474   0.003049  -0.000155   0.000066   0.000730  -0.000016
    11  O   -0.045605  -0.000057  -0.000002   0.000000   0.000000   0.000000
    12  O   -0.044538  -0.000187   0.000048  -0.000120  -0.000191  -0.000008
    13  C    5.776754  -0.033756  -0.003901  -0.003871  -0.005523  -0.000302
    14  C   -0.033756   5.102108   0.330066  -0.032875   0.000676  -0.000169
    15  C   -0.003901   0.330066   5.201990   0.344306  -0.049995   0.006986
    16  C   -0.003871  -0.032875   0.344306   4.680496   0.541832  -0.023152
    17  C   -0.005523   0.000676  -0.049995   0.541832   4.979801   0.518703
    18  C   -0.000302  -0.000169   0.006986  -0.023152   0.518703   4.863230
    19  C    0.000065   0.000001   0.000359  -0.035076  -0.035685   0.550747
    20  C    0.000190   0.000230   0.006082  -0.017686  -0.045940  -0.026070
    21  C   -0.000020  -0.004179  -0.067386   0.539464  -0.043976  -0.046367
    22  H    0.000000   0.000007  -0.000002   0.000000   0.000000   0.000000
    23  H    0.000000   0.000012   0.000000   0.000000   0.000000   0.000000
    24  H    0.000000  -0.000096  -0.000003   0.000000   0.000000   0.000000
    25  H    0.000000  -0.000008  -0.000002   0.000000   0.000000   0.000000
    26  H   -0.000030  -0.000329  -0.000001   0.000000   0.000000   0.000000
    27  H    0.000000   0.000030   0.000000   0.000000   0.000000   0.000000
    28  H   -0.007714   0.004414  -0.000081   0.000000   0.000000   0.000000
    29  H    0.005659  -0.006822   0.000645   0.000217  -0.000017   0.000000
    30  H    0.008403   0.000827   0.000160   0.000003   0.000000   0.000000
    31  H    0.323132  -0.007995  -0.001274   0.011693   0.008700   0.000790
    32  H    0.338457   0.000394   0.000095   0.000024   0.000071   0.000003
    33  H   -0.005787   0.366144  -0.037133  -0.008761   0.000191   0.000002
    34  H    0.005291   0.360592  -0.026855   0.003861  -0.000109   0.000002
    35  H   -0.000082  -0.036359   0.363945  -0.029772   0.001229  -0.000235
    36  H   -0.000005  -0.037379   0.358466  -0.036677  -0.004473   0.000228
    37  H   -0.000170   0.000172  -0.010974  -0.044342   0.355088  -0.042327
    38  H   -0.000005   0.000001  -0.000176   0.003745  -0.037861   0.358571
    39  H    0.000000   0.000000   0.000007   0.000709   0.004691  -0.042453
    40  H    0.000000   0.000001  -0.000180   0.003667   0.000805   0.004580
    41  H   -0.000045   0.000792  -0.009152  -0.048645   0.006041   0.000340
              19         20         21         22         23         24
     1  C    0.000000   0.000000   0.000000   0.377817   0.372007   0.378056
     2  N    0.000000   0.000000  -0.000001  -0.039558  -0.047138  -0.031037
     3  C    0.000000   0.000000  -0.000001  -0.003075  -0.002354   0.004564
     4  S    0.000000   0.000000  -0.000004   0.002009  -0.002855  -0.005056
     5  O    0.000000   0.000000   0.000000  -0.000112   0.002573  -0.000196
     6  O    0.000000   0.000000   0.000000   0.000241  -0.000543   0.012041
     7  N    0.000000   0.000000  -0.000017  -0.000077  -0.000083   0.000125
     8  C    0.000004  -0.000028  -0.000992   0.000004  -0.000013   0.000020
     9  C    0.000000   0.000001   0.000003   0.000000   0.000000   0.000000
    10  S    0.000001  -0.000007   0.000051   0.000000   0.000000   0.000000
    11  O    0.000000   0.000000   0.000000   0.000000   0.000000   0.000000
    12  O    0.000000   0.000000   0.000001   0.000000   0.000000   0.000000
    13  C    0.000065   0.000190  -0.000020   0.000000   0.000000   0.000000
    14  C    0.000001   0.000230  -0.004179   0.000007   0.000012  -0.000096
    15  C    0.000359   0.006082  -0.067386  -0.000002   0.000000  -0.000003
    16  C   -0.035076  -0.017686   0.539464   0.000000   0.000000   0.000000
    17  C   -0.035685  -0.045940  -0.043976   0.000000   0.000000   0.000000
    18  C    0.550747  -0.026070  -0.046367   0.000000   0.000000   0.000000
    19  C    4.855882   0.546429  -0.035557   0.000000   0.000000   0.000000
    20  C    0.546429   4.860265   0.528651   0.000000   0.000000   0.000000
    21  C   -0.035557   0.528651   4.981602   0.000000   0.000000   0.000000
    22  H    0.000000   0.000000   0.000000   0.554491  -0.041541  -0.020915
    23  H    0.000000   0.000000   0.000000  -0.041541   0.575831  -0.030116
    24  H    0.000000   0.000000   0.000000  -0.020915  -0.030116   0.487526
    25  H    0.000000   0.000000   0.000000   0.005495  -0.001458   0.000006
    26  H    0.000000   0.000000   0.000000   0.000059  -0.000220  -0.000189
    27  H    0.000000   0.000000   0.000000  -0.001803   0.008459  -0.000194
    28  H    0.000000   0.000000   0.000001   0.000001   0.000007  -0.000004
    29  H    0.000000   0.000000   0.000005   0.000000   0.000000   0.000000
    30  H    0.000000   0.000000   0.000000   0.000000   0.000000   0.000000
    31  H   -0.000115  -0.000450   0.000298   0.000000   0.000000   0.000000
    32  H   -0.000004  -0.000010   0.000017   0.000000   0.000000   0.000000
    33  H   -0.000002  -0.000057   0.003975  -0.000022   0.000001  -0.000009
    34  H    0.000000   0.000000   0.000217  -0.000064   0.000007   0.000507
    35  H    0.000037  -0.000043  -0.004958   0.000000   0.000000  -0.000001
    36  H   -0.000004  -0.000157   0.004944   0.000000   0.000000   0.000000
    37  H    0.004683   0.000333   0.006256   0.000000   0.000000   0.000000
    38  H   -0.042738   0.004519   0.000801   0.000000   0.000000   0.000000
    39  H    0.360168  -0.042823   0.004716   0.000000   0.000000   0.000000
    40  H   -0.042373   0.357954  -0.040477   0.000000   0.000000   0.000000
    41  H    0.004804  -0.043664   0.354554   0.000000   0.000000   0.000000
              25         26         27         28         29         30
     1  C   -0.003874   0.004683  -0.001962  -0.000045   0.000000   0.000007
     2  N   -0.035986  -0.033113  -0.045524   0.002261   0.000001   0.000015
     3  C    0.373270   0.374870   0.374394  -0.000186   0.000000  -0.000002
     4  S    0.003220  -0.003469  -0.007057  -0.016285   0.000035   0.001253
     5  O    0.000047  -0.001745   0.005483   0.006560  -0.000002  -0.000389
     6  O   -0.000050   0.000028  -0.000042  -0.000007  -0.000240   0.010032
     7  N   -0.000013   0.014388  -0.000208   0.295442   0.004110  -0.005630
     8  C    0.000021   0.000230  -0.000053  -0.025474  -0.024878  -0.019305
     9  C    0.000000   0.000033   0.000000  -0.001806   0.321837   0.342083
    10  S    0.000000  -0.000004   0.000000   0.010055  -0.005508  -0.009391
    11  O    0.000000   0.000000   0.000000   0.006855   0.001245  -0.000353
    12  O    0.000000   0.000000   0.000000   0.000021   0.001272   0.000563
    13  C    0.000000  -0.000030   0.000000  -0.007714   0.005659   0.008403
    14  C   -0.000008  -0.000329   0.000030   0.004414  -0.006822   0.000827
    15  C   -0.000002  -0.000001   0.000000  -0.000081   0.000645   0.000160
    16  C    0.000000   0.000000   0.000000   0.000000   0.000217   0.000003
    17  C    0.000000   0.000000   0.000000   0.000000  -0.000017   0.000000
    18  C    0.000000   0.000000   0.000000   0.000000   0.000000   0.000000
    19  C    0.000000   0.000000   0.000000   0.000000   0.000000   0.000000
    20  C    0.000000   0.000000   0.000000   0.000000   0.000000   0.000000
    21  C    0.000000   0.000000   0.000000   0.000001   0.000005   0.000000
    22  H    0.005495   0.000059  -0.001803   0.000001   0.000000   0.000000
    23  H   -0.001458  -0.000220   0.008459   0.000007   0.000000   0.000000
    24  H    0.000006  -0.000189  -0.000194  -0.000004   0.000000   0.000000
    25  H    0.555114  -0.023213  -0.037449  -0.000001   0.000000   0.000000
    26  H   -0.023213   0.511100  -0.030626  -0.000548   0.000000   0.000000
    27  H   -0.037449  -0.030626   0.562336   0.000084   0.000000   0.000000
    28  H   -0.000001  -0.000548   0.000084   0.350002  -0.000034  -0.000497
    29  H    0.000000   0.000000   0.000000  -0.000034   0.507575  -0.015422
    30  H    0.000000   0.000000   0.000000  -0.000497  -0.015422   0.442658
    31  H    0.000000   0.000000   0.000000   0.000199  -0.000076  -0.000197
    32  H    0.000000   0.000097   0.000000   0.000666  -0.000298  -0.000273
    33  H    0.000046   0.000670   0.000006   0.000037   0.000085  -0.000068
    34  H   -0.000047  -0.000037   0.000000  -0.000009   0.000502   0.000218
    35  H    0.000000   0.000000   0.000000   0.000002  -0.000170  -0.000004
    36  H    0.000000   0.000000   0.000000   0.000000   0.008077  -0.000014
    37  H    0.000000   0.000000   0.000000   0.000000   0.000128   0.000002
    38  H    0.000000   0.000000   0.000000   0.000000   0.000000   0.000000
    39  H    0.000000   0.000000   0.000000   0.000000   0.000000   0.000000
    40  H    0.000000   0.000000   0.000000   0.000000   0.000000   0.000000
    41  H    0.000001   0.000000   0.000000   0.000000   0.000000   0.000000
              31         32         33         34         35         36
     1  C    0.000000   0.000000   0.000062  -0.000071   0.000000   0.000000
     2  N    0.000002  -0.000012   0.000561  -0.002681   0.000013  -0.000002
     3  C   -0.000001  -0.000019   0.000143   0.000080   0.000000   0.000000
     4  S    0.000010   0.000193  -0.000619   0.011428  -0.000025  -0.000008
     5  O    0.000000  -0.000010   0.000004   0.000026   0.000000   0.000000
     6  O    0.000001   0.000006   0.000151   0.008198  -0.000002   0.000012
     7  N    0.002873  -0.001777   0.000499  -0.005053  -0.000091   0.000038
     8  C   -0.022769  -0.025216  -0.035552  -0.034995   0.004546  -0.008186
     9  C    0.005028   0.010459   0.005643  -0.006540   0.000126   0.001755
    10  S   -0.003270  -0.011900  -0.000179  -0.000068   0.000024  -0.000474
    11  O    0.001131  -0.000447   0.000001   0.000001   0.000000   0.000001
    12  O    0.000603   0.000688   0.000002   0.000002   0.000000  -0.000057
    13  C    0.323132   0.338457  -0.005787   0.005291  -0.000082  -0.000005
    14  C   -0.007995   0.000394   0.366144   0.360592  -0.036359  -0.037379
    15  C   -0.001274   0.000095  -0.037133  -0.026855   0.363945   0.358466
    16  C    0.011693   0.000024  -0.008761   0.003861  -0.029772  -0.036677
    17  C    0.008700   0.000071   0.000191  -0.000109   0.001229  -0.004473
    18  C    0.000790   0.000003   0.000002   0.000002  -0.000235   0.000228
    19  C   -0.000115  -0.000004  -0.000002   0.000000   0.000037  -0.000004
    20  C   -0.000450  -0.000010  -0.000057   0.000000  -0.000043  -0.000157
    21  C    0.000298   0.000017   0.003975   0.000217  -0.004958   0.004944
    22  H    0.000000   0.000000  -0.000022  -0.000064   0.000000   0.000000
    23  H    0.000000   0.000000   0.000001   0.000007   0.000000   0.000000
    24  H    0.000000   0.000000  -0.000009   0.000507  -0.000001   0.000000
    25  H    0.000000   0.000000   0.000046  -0.000047   0.000000   0.000000
    26  H    0.000000   0.000097   0.000670  -0.000037   0.000000   0.000000
    27  H    0.000000   0.000000   0.000006   0.000000   0.000000   0.000000
    28  H    0.000199   0.000666   0.000037  -0.000009   0.000002   0.000000
    29  H   -0.000076  -0.000298   0.000085   0.000502  -0.000170   0.008077
    30  H   -0.000197  -0.000273  -0.000068   0.000218  -0.000004  -0.000014
    31  H    0.459205  -0.014792   0.000499   0.000154   0.000131   0.000030
    32  H   -0.014792   0.493959   0.000533  -0.000097   0.000001  -0.000007
    33  H    0.000499   0.000533   0.569345  -0.031752  -0.001001   0.004923
    34  H    0.000154  -0.000097  -0.031752   0.537924  -0.005516  -0.000811
    35  H    0.000131   0.000001  -0.001001  -0.005516   0.570480  -0.031864
    36  H    0.000030  -0.000007   0.004923  -0.000811  -0.031864   0.582272
    37  H   -0.000057   0.000002   0.000006  -0.000007   0.000138   0.007289
    38  H    0.000020   0.000000   0.000000   0.000000   0.000003  -0.000009
    39  H   -0.000001   0.000000   0.000000   0.000000   0.000000   0.000000
    40  H    0.000000   0.000000   0.000007   0.000000  -0.000001   0.000003
    41  H    0.000058  -0.000003   0.004650  -0.000146   0.001822   0.000028
              37         38         39         40         41
     1  C    0.000000   0.000000   0.000000   0.000000   0.000000
     2  N    0.000000   0.000000   0.000000   0.000000  -0.000003
     3  C    0.000000   0.000000   0.000000   0.000000   0.000001
     4  S    0.000000   0.000000   0.000000   0.000000  -0.000001
     5  O    0.000000   0.000000   0.000000   0.000000   0.000000
     6  O    0.000000   0.000000   0.000000   0.000000   0.000000
     7  N    0.000000   0.000000   0.000000   0.000000  -0.000006
     8  C   -0.000012   0.000000   0.000000   0.000000   0.000182
     9  C   -0.000131   0.000000   0.000000   0.000000   0.000000
    10  S    0.000871  -0.000001   0.000000   0.000000   0.000002
    11  O    0.000001   0.000000   0.000000   0.000000   0.000000
    12  O    0.001021  -0.000002   0.000000   0.000000   0.000000
    13  C   -0.000170  -0.000005   0.000000   0.000000  -0.000045
    14  C    0.000172   0.000001   0.000000   0.000001   0.000792
    15  C   -0.010974  -0.000176   0.000007  -0.000180  -0.009152
    16  C   -0.044342   0.003745   0.000709   0.003667  -0.048645
    17  C    0.355088  -0.037861   0.004691   0.000805   0.006041
    18  C   -0.042327   0.358571  -0.042453   0.004580   0.000340
    19  C    0.004683  -0.042738   0.360168  -0.042373   0.004804
    20  C    0.000333   0.004519  -0.042823   0.357954  -0.043664
    21  C    0.006256   0.000801   0.004716  -0.040477   0.354554
    22  H    0.000000   0.000000   0.000000   0.000000   0.000000
    23  H    0.000000   0.000000   0.000000   0.000000   0.000000
    24  H    0.000000   0.000000   0.000000   0.000000   0.000000
    25  H    0.000000   0.000000   0.000000   0.000000   0.000001
    26  H    0.000000   0.000000   0.000000   0.000000   0.000000
    27  H    0.000000   0.000000   0.000000   0.000000   0.000000
    28  H    0.000000   0.000000   0.000000   0.000000   0.000000
    29  H    0.000128   0.000000   0.000000   0.000000   0.000000
    30  H    0.000002   0.000000   0.000000   0.000000   0.000000
    31  H   -0.000057   0.000020  -0.000001   0.000000   0.000058
    32  H    0.000002   0.000000   0.000000   0.000000  -0.000003
    33  H    0.000006   0.000000   0.000000   0.000007   0.004650
    34  H   -0.000007   0.000000   0.000000   0.000000  -0.000146
    35  H    0.000138   0.000003   0.000000  -0.000001   0.001822
    36  H    0.007289  -0.000009   0.000000   0.000003   0.000028
    37  H    0.584648  -0.005317  -0.000171   0.000017  -0.000176
    38  H   -0.005317   0.582710  -0.005416  -0.000182   0.000017
    39  H   -0.000171  -0.005416   0.590747  -0.005445  -0.000180
    40  H    0.000017  -0.000182  -0.005445   0.593669  -0.005598
    41  H   -0.000176   0.000017  -0.000180  -0.005598   0.608659
 Mulliken charges:
               1
     1  C   -0.327424
     2  N   -0.523979
     3  C   -0.322440
     4  S    1.359009
     5  O   -0.527428
     6  O   -0.567993
     7  N   -0.737263
     8  C    0.170443
     9  C   -0.486772
    10  S    1.099296
    11  O   -0.528052
    12  O   -0.513622
    13  C   -0.514517
    14  C   -0.284392
    15  C   -0.372257
    16  C    0.154730
    17  C   -0.195522
    18  C   -0.123087
    19  C   -0.131626
    20  C   -0.127720
    21  C   -0.181622
    22  H    0.167044
    23  H    0.167423
    24  H    0.204970
    25  H    0.164880
    26  H    0.187365
    27  H    0.174126
    28  H    0.376085
    29  H    0.202075
    30  H    0.245324
    31  H    0.236441
    32  H    0.209201
    33  H    0.162752
    34  H    0.185848
    35  H    0.167627
    36  H    0.152062
    37  H    0.143029
    38  H    0.141320
    39  H    0.135450
    40  H    0.133553
    41  H    0.125667
 Sum of Mulliken charges =   0.00000
 Mulliken charges with hydrogens summed into heavy atoms:
               1
     1  C    0.212013
     2  N   -0.523979
     3  C    0.203930
     4  S    1.359009
     5  O   -0.527428
     6  O   -0.567993
     7  N   -0.361178
     8  C    0.170443
     9  C   -0.039373
    10  S    1.099296
    11  O   -0.528052
    12  O   -0.513622
    13  C   -0.068875
    14  C    0.064207
    15  C   -0.052569
    16  C    0.154730
    17  C   -0.052493
    18  C    0.018233
    19  C    0.003824
    20  C    0.005833
    21  C   -0.055955
 Electronic spatial extent (au):  <R**2>=           7876.7989
 Charge=              0.0000 electrons
 Dipole moment (field-independent basis, Debye):
    X=              1.1916    Y=             -7.6968    Z=             -0.3091  Tot=              7.7946
 Quadrupole moment (field-independent basis, Debye-Ang):
   XX=           -142.5831   YY=           -151.2061   ZZ=           -134.7024
   XY=              7.7006   XZ=             -1.8796   YZ=              6.1073
 Traceless Quadrupole moment (field-independent basis, Debye-Ang):
   XX=              0.2474   YY=             -8.3756   ZZ=              8.1282
   XY=              7.7006   XZ=             -1.8796   YZ=              6.1073
 Octapole moment (field-independent basis, Debye-Ang**2):
  XXX=             31.5260  YYY=            -84.5974  ZZZ=             -6.3875  XYY=            -56.8228
  XXY=            -57.3212  XXZ=            -15.6445  XZZ=             -5.3449  YZZ=              3.4563
  YYZ=              6.3951  XYZ=              6.3354
 Hexadecapole moment (field-independent basis, Debye-Ang**3):
 XXXX=          -6476.2287 YYYY=          -3084.9868 ZZZZ=           -771.2636 XXXY=            234.5120
 XXXZ=           -138.2438 YYYX=             13.8075 YYYZ=             80.1301 ZZZX=             15.6891
 ZZZY=             -2.7406 XXYY=          -1566.0711 XXZZ=          -1248.2858 YYZZ=           -585.4303
 XXYZ=             59.7588 YYXZ=            -56.2151 ZZXY=             27.7792
 N-N= 2.191325402201D+03 E-N=-8.408245536947D+03  KE= 1.702493636959D+03
 No NMR shielding tensors so no spin-rotation constants.
 Leave Link  601 at Thu Oct  1 22:35:15 2020, MaxMem=  2147483648 cpu:         0.3
 (Enter /prod/apps/gaussian/g09d1/l9999.exe)
 1\1\GINC-PIRINEUS16\SP\RB3LYP\6-31G(d)\C13H20N2O4S2\UBAFAR01\01-Oct-20
 20\0\\#p b3lyp/6-31G(d)\\SM40.n.30.pdb.xyz\\0,1\C,0,3.367,0.782,-1.119
 \N,0,3.274,-0.367,-0.202\C,0,2.573,-0.069,1.057\S,0,2.791,-1.795,-0.93
 5\O,0,1.326,-1.938,-0.977\O,0,3.543,-1.886,-2.194\N,0,3.301,-2.932,0.1
 87\C,0,4.637,-3.57,0.088\C,0,4.776,-4.484,-1.182\S,0,4.38,-5.952,-0.17
 7\O,0,2.955,-6.332,-0.293\O,0,5.395,-7.023,-0.225\C,0,4.65,-4.719,1.15
 \C,0,5.728,-2.495,0.236\C,0,7.201,-2.952,0.231\C,0,7.725,-3.552,1.522\
 C,0,8.325,-4.818,1.531\C,0,8.84,-5.363,2.711\C,0,8.763,-4.642,3.904\C,
 0,8.169,-3.377,3.908\C,0,7.657,-2.839,2.728\H,0,3.903,1.571,-0.59\H,0,
 2.383,1.162,-1.42\H,0,3.935,0.495,-2.002\H,0,3.12,0.737,1.55\H,0,2.591
 ,-0.952,1.695\H,0,1.537,0.248,0.892\H,0,2.538,-3.602,0.301\H,0,5.796,-
 4.568,-1.559\H,0,4.082,-4.283,-1.994\H,0,5.627,-4.878,1.604\H,0,3.865,
 -4.687,1.905\H,0,5.521,-1.938,1.154\H,0,5.588,-1.796,-0.59\H,0,7.794,-
 2.058,0.\H,0,7.39,-3.649,-0.591\H,0,8.383,-5.381,0.604\H,0,9.299,-6.34
 6,2.695\H,0,9.161,-5.061,4.822\H,0,8.107,-2.809,4.831\H,0,7.2,-1.853,2
 .741\\Version=AM64L-G09RevD.01\State=1-A\HF=-1714.0392386\RMSD=9.008e-
 09\Dipole=1.3562571,2.3247873,1.4697703\Quadrupole=-4.7518971,-0.18608
 88,4.9379859,-6.2214661,-5.3508242,-1.4746841\PG=C01 [X(C13H20N2O4S2)]
 \\@


 EVERYTHING'S GOT A MORAL, IF ONLY YOU CAN FIND IT.

                                    -- LEWIS CARROL, ALICE IN WONDERLAND
 Job cpu time:       0 days  0 hours  6 minutes 28.3 seconds.
 File lengths (MBytes):  RWF=     73 Int=      0 D2E=      0 Chk=      6 Scr=      1
 Normal termination of Gaussian 09 at Thu Oct  1 22:35:15 2020.
 Initial command:
 /prod/apps/gaussian/g09d1/l1.exe "/tmp/ubafar01/1462863/Gau-186276.inp" -scrdir="/tmp/ubafar01/1462863/"
 Entering Link 1 = /prod/apps/gaussian/g09d1/l1.exe PID=    186418.
  
 Copyright (c) 1988,1990,1992,1993,1995,1998,2003,2009,2013,
            Gaussian, Inc.  All Rights Reserved.
  
 This is part of the Gaussian(R) 09 program.  It is based on
 the Gaussian(R) 03 system (copyright 2003, Gaussian, Inc.),
 the Gaussian(R) 98 system (copyright 1998, Gaussian, Inc.),
 the Gaussian(R) 94 system (copyright 1995, Gaussian, Inc.),
 the Gaussian 92(TM) system (copyright 1992, Gaussian, Inc.),
[...]
     9  C   -0.189145  -0.045360  -0.006101  -0.000564  -0.000084   0.000000
    10  S    0.144672   0.003225  -0.000128   0.000130   0.000809  -0.000017
    11  O   -0.045719  -0.000064  -0.000002   0.000000   0.000000   0.000000
    12  O   -0.044777  -0.000193   0.000049  -0.000112  -0.000190  -0.000009
    13  C    5.739775  -0.032372  -0.003761  -0.004050  -0.005635  -0.000313
    14  C   -0.032372   5.095272   0.330312  -0.032100   0.000762  -0.000178
    15  C   -0.003761   0.330312   5.193633   0.345375  -0.050426   0.006949
    16  C   -0.004050  -0.032100   0.345375   4.690648   0.539495  -0.024459
    17  C   -0.005635   0.000762  -0.050426   0.539495   5.002010   0.513438
    18  C   -0.000313  -0.000178   0.006949  -0.024459   0.513438   4.893287
    19  C    0.000066   0.000003   0.000321  -0.034960  -0.037687   0.547020
    20  C    0.000190   0.000218   0.005920  -0.019859  -0.045670  -0.028751
    21  C   -0.000054  -0.004242  -0.066326   0.537397  -0.045150  -0.046169
    22  H    0.000000   0.000001  -0.000002   0.000000   0.000000   0.000000
    23  H    0.000000   0.000013   0.000000   0.000000   0.000000   0.000000
    24  H    0.000000  -0.000093  -0.000003   0.000000   0.000000   0.000000
    25  H   -0.000001  -0.000008  -0.000002   0.000000   0.000000   0.000000
    26  H   -0.000028  -0.000295  -0.000001   0.000000   0.000000   0.000000
    27  H    0.000000   0.000030   0.000000   0.000000   0.000000   0.000000
    28  H   -0.007570   0.004073  -0.000075   0.000000   0.000000   0.000000
    29  H    0.005152  -0.006615   0.001399   0.000152  -0.000005   0.000000
    30  H    0.008312   0.000837   0.000157   0.000002   0.000000   0.000000
    31  H    0.324910  -0.008030  -0.001181   0.011644   0.009277   0.000836
    32  H    0.342866   0.000344   0.000081   0.000027   0.000062   0.000002
    33  H   -0.005646   0.369862  -0.035606  -0.008514   0.000198   0.000003
    34  H    0.005193   0.362758  -0.026267   0.003703  -0.000111   0.000002
    35  H   -0.000083  -0.033916   0.365990  -0.028842   0.001276  -0.000231
    36  H   -0.000031  -0.037318   0.361952  -0.038168  -0.004228   0.000274
    37  H   -0.000188   0.000168  -0.010538  -0.043791   0.357099  -0.043461
    38  H   -0.000005   0.000001  -0.000168   0.003728  -0.038304   0.361121
    39  H    0.000000   0.000000   0.000007   0.000632   0.004625  -0.042117
    40  H    0.000000   0.000001  -0.000171   0.003584   0.000740   0.004514
    41  H   -0.000040   0.000854  -0.008542  -0.046243   0.005838   0.000296
              19         20         21         22         23         24
     1  C    0.000000   0.000000   0.000000   0.381337   0.372736   0.377243
     2  N    0.000000   0.000000  -0.000001  -0.037218  -0.046835  -0.032165
     3  C    0.000000   0.000000  -0.000001  -0.002832  -0.002129   0.004497
     4  S    0.000000   0.000000  -0.000004   0.002198  -0.003527  -0.004991
     5  O    0.000000   0.000000   0.000000  -0.000109   0.002532  -0.000190
     6  O    0.000000   0.000000   0.000000   0.000223  -0.000508   0.011303
     7  N    0.000000   0.000000  -0.000018  -0.000082  -0.000080   0.000118
     8  C    0.000004  -0.000029  -0.000959   0.000005  -0.000012   0.000021
     9  C    0.000000   0.000001   0.000005   0.000000   0.000000   0.000000
    10  S    0.000001  -0.000007   0.000048   0.000000   0.000000   0.000000
    11  O    0.000000   0.000000   0.000000   0.000000   0.000000   0.000000
    12  O    0.000000   0.000000   0.000001   0.000000   0.000000   0.000000
    13  C    0.000066   0.000190  -0.000054   0.000000   0.000000   0.000000
    14  C    0.000003   0.000218  -0.004242   0.000001   0.000013  -0.000093
    15  C    0.000321   0.005920  -0.066326  -0.000002   0.000000  -0.000003
    16  C   -0.034960  -0.019859   0.537397   0.000000   0.000000   0.000000
    17  C   -0.037687  -0.045670  -0.045150   0.000000   0.000000   0.000000
    18  C    0.547020  -0.028751  -0.046169   0.000000   0.000000   0.000000
    19  C    4.883326   0.541937  -0.037672   0.000000   0.000000   0.000000
    20  C    0.541937   4.884978   0.525556   0.000000   0.000000   0.000000
    21  C   -0.037672   0.525556   4.994116   0.000000   0.000000   0.000000
    22  H    0.000000   0.000000   0.000000   0.522887  -0.038226  -0.020117
    23  H    0.000000   0.000000   0.000000  -0.038226   0.569927  -0.030949
    24  H    0.000000   0.000000   0.000000  -0.020117  -0.030949   0.497790
    25  H    0.000000   0.000000   0.000000   0.004985  -0.001345   0.000014
    26  H    0.000000   0.000000   0.000000   0.000055  -0.000202  -0.000192
    27  H    0.000000   0.000000   0.000000  -0.001682   0.008131  -0.000182
    28  H    0.000000   0.000000   0.000000   0.000001   0.000007  -0.000004
    29  H    0.000000   0.000000   0.000005   0.000000   0.000000   0.000000
    30  H    0.000000   0.000000   0.000000   0.000000   0.000000   0.000000
    31  H   -0.000129  -0.000445   0.000279   0.000000   0.000000   0.000000
    32  H   -0.000004  -0.000009   0.000011   0.000000   0.000000   0.000000
    33  H   -0.000002  -0.000054   0.004143  -0.000019   0.000001  -0.000008
    34  H    0.000000   0.000001   0.000218  -0.000060   0.000007   0.000470
    35  H    0.000036  -0.000040  -0.004981   0.000000   0.000000   0.000000
    36  H   -0.000005  -0.000154   0.004851   0.000000   0.000000   0.000000
    37  H    0.004694   0.000259   0.006266   0.000000   0.000000   0.000000
    38  H   -0.041930   0.004500   0.000705   0.000000   0.000000   0.000000
    39  H    0.363365  -0.041837   0.004647   0.000000   0.000000   0.000000
    40  H   -0.041854   0.361540  -0.039057   0.000000   0.000000   0.000000
    41  H    0.004643  -0.041866   0.358986   0.000000   0.000000   0.000000
              25         26         27         28         29         30
     1  C   -0.003674   0.004542  -0.001945  -0.000038   0.000000   0.000007
     2  N   -0.033914  -0.033410  -0.045848   0.002102   0.000001   0.000011
     3  C    0.377536   0.375039   0.374941  -0.000223   0.000000  -0.000002
     4  S    0.003210  -0.002525  -0.008136  -0.014002   0.000113   0.001663
     5  O    0.000039  -0.001733   0.005523   0.005865  -0.000002  -0.000384
     6  O   -0.000050   0.000029  -0.000041  -0.000066  -0.000252   0.009997
     7  N   -0.000008   0.013008  -0.000224   0.294853   0.003919  -0.005817
     8  C    0.000020   0.000244  -0.000052  -0.023967  -0.024256  -0.020836
     9  C    0.000000   0.000030   0.000000  -0.001681   0.326687   0.342025
    10  S    0.000000  -0.000004   0.000000   0.009302  -0.005627  -0.009256
    11  O    0.000000   0.000000   0.000000   0.005917   0.001176  -0.000392
    12  O    0.000000   0.000000   0.000000   0.000015   0.001026   0.000573
    13  C   -0.000001  -0.000028   0.000000  -0.007570   0.005152   0.008312
    14  C   -0.000008  -0.000295   0.000030   0.004073  -0.006615   0.000837
    15  C   -0.000002  -0.000001   0.000000  -0.000075   0.001399   0.000157
    16  C    0.000000   0.000000   0.000000   0.000000   0.000152   0.000002
    17  C    0.000000   0.000000   0.000000   0.000000  -0.000005   0.000000
    18  C    0.000000   0.000000   0.000000   0.000000   0.000000   0.000000
    19  C    0.000000   0.000000   0.000000   0.000000   0.000000   0.000000
    20  C    0.000000   0.000000   0.000000   0.000000   0.000000   0.000000
    21  C    0.000000   0.000000   0.000000   0.000000   0.000005   0.000000
    22  H    0.004985   0.000055  -0.001682   0.000001   0.000000   0.000000
    23  H   -0.001345  -0.000202   0.008131   0.000007   0.000000   0.000000
    24  H    0.000014  -0.000192  -0.000182  -0.000004   0.000000   0.000000
    25  H    0.522859  -0.021571  -0.034682  -0.000001   0.000000   0.000000
    26  H   -0.021571   0.503297  -0.030933  -0.000522   0.000000   0.000000
    27  H   -0.034682  -0.030933   0.562987   0.000086   0.000000   0.000000
    28  H   -0.000001  -0.000522   0.000086   0.325126  -0.000036  -0.000454
    29  H    0.000000   0.000000   0.000000  -0.000036   0.475086  -0.013143
    30  H    0.000000   0.000000   0.000000  -0.000454  -0.013143   0.441874
    31  H    0.000000   0.000000   0.000000   0.000173  -0.000089  -0.000192
    32  H    0.000000   0.000085   0.000000   0.000496  -0.000256  -0.000267
    33  H    0.000043   0.000617   0.000004   0.000040   0.000085  -0.000064
    34  H   -0.000045  -0.000037   0.000001  -0.000011   0.000461   0.000216
    35  H    0.000000   0.000000   0.000000   0.000002  -0.000171  -0.000004
    36  H    0.000000   0.000000   0.000000   0.000000   0.007734   0.000003
    37  H    0.000000   0.000000   0.000000   0.000000   0.000132   0.000001
    38  H    0.000000   0.000000   0.000000   0.000000   0.000000   0.000000
    39  H    0.000000   0.000000   0.000000   0.000000   0.000000   0.000000
    40  H    0.000000   0.000000   0.000000   0.000000   0.000000   0.000000
    41  H    0.000001   0.000000   0.000000   0.000000   0.000000   0.000000
              31         32         33         34         35         36
     1  C    0.000000   0.000000   0.000060  -0.000084   0.000000   0.000000
     2  N    0.000002  -0.000012   0.000529  -0.002752   0.000013  -0.000002
     3  C   -0.000001  -0.000016   0.000179   0.000059   0.000000   0.000000
     4  S    0.000005   0.000157  -0.000902   0.011823  -0.000025  -0.000013
     5  O    0.000000  -0.000009   0.000004   0.000021   0.000000   0.000000
     6  O    0.000001   0.000006   0.000151   0.007421  -0.000002   0.000012
     7  N    0.002862  -0.001679   0.000288  -0.005209  -0.000088   0.000032
     8  C   -0.023723  -0.024166  -0.035787  -0.036525   0.004444  -0.008217
     9  C    0.005219   0.009561   0.005483  -0.006459   0.000125   0.001888
    10  S   -0.004686  -0.011698  -0.000192  -0.000104   0.000021  -0.000456
    11  O    0.001124  -0.000630   0.000001   0.000001   0.000000   0.000001
    12  O    0.000529   0.000644   0.000002   0.000002   0.000000  -0.000058
    13  C    0.324910   0.342866  -0.005646   0.005193  -0.000083  -0.000031
    14  C   -0.008030   0.000344   0.369862   0.362758  -0.033916  -0.037318
    15  C   -0.001181   0.000081  -0.035606  -0.026267   0.365990   0.361952
    16  C    0.011644   0.000027  -0.008514   0.003703  -0.028842  -0.038168
    17  C    0.009277   0.000062   0.000198  -0.000111   0.001276  -0.004228
    18  C    0.000836   0.000002   0.000003   0.000002  -0.000231   0.000274
    19  C   -0.000129  -0.000004  -0.000002   0.000000   0.000036  -0.000005
    20  C   -0.000445  -0.000009  -0.000054   0.000001  -0.000040  -0.000154
    21  C    0.000279   0.000011   0.004143   0.000218  -0.004981   0.004851
    22  H    0.000000   0.000000  -0.000019  -0.000060   0.000000   0.000000
    23  H    0.000000   0.000000   0.000001   0.000007   0.000000   0.000000
    24  H    0.000000   0.000000  -0.000008   0.000470   0.000000   0.000000
    25  H    0.000000   0.000000   0.000043  -0.000045   0.000000   0.000000
    26  H    0.000000   0.000085   0.000617  -0.000037   0.000000   0.000000
    27  H    0.000000   0.000000   0.000004   0.000001   0.000000   0.000000
    28  H    0.000173   0.000496   0.000040  -0.000011   0.000002   0.000000
    29  H   -0.000089  -0.000256   0.000085   0.000461  -0.000171   0.007734
    30  H   -0.000192  -0.000267  -0.000064   0.000216  -0.000004   0.000003
    31  H    0.453600  -0.011986   0.000498   0.000144   0.000124   0.000043
    32  H   -0.011986   0.455523   0.000471  -0.000088   0.000001  -0.000006
    33  H    0.000498   0.000471   0.548022  -0.030418  -0.000953   0.004650
    34  H    0.000144  -0.000088  -0.030418   0.535020  -0.005742  -0.000740
    35  H    0.000124   0.000001  -0.000953  -0.005742   0.550200  -0.029977
    36  H    0.000043  -0.000006   0.004650  -0.000740  -0.029977   0.567846
    37  H   -0.000049   0.000001   0.000007  -0.000007   0.000135   0.006917
    38  H    0.000020   0.000000   0.000000   0.000000   0.000003  -0.000009
    39  H   -0.000001   0.000000   0.000000   0.000000   0.000000   0.000000
    40  H    0.000001   0.000000   0.000007   0.000000  -0.000001   0.000003
    41  H    0.000052  -0.000002   0.004240  -0.000140   0.001675   0.000027
              37         38         39         40         41
     1  C    0.000000   0.000000   0.000000   0.000000   0.000000
     2  N    0.000000   0.000000   0.000000   0.000000  -0.000003
     3  C    0.000000   0.000000   0.000000   0.000000   0.000001
     4  S    0.000000   0.000000   0.000000   0.000000  -0.000001
     5  O    0.000000   0.000000   0.000000   0.000000   0.000000
     6  O    0.000000   0.000000   0.000000   0.000000   0.000000
     7  N    0.000000   0.000000   0.000000   0.000000  -0.000006
     8  C   -0.000004   0.000000   0.000000   0.000000   0.000172
     9  C   -0.000133   0.000000   0.000000   0.000000   0.000000
    10  S    0.000848  -0.000001   0.000000   0.000000   0.000001
    11  O    0.000001   0.000000   0.000000   0.000000   0.000000
    12  O    0.000964  -0.000002   0.000000   0.000000   0.000000
    13  C   -0.000188  -0.000005   0.000000   0.000000  -0.000040
    14  C    0.000168   0.000001   0.000000   0.000001   0.000854
    15  C   -0.010538  -0.000168   0.000007  -0.000171  -0.008542
    16  C   -0.043791   0.003728   0.000632   0.003584  -0.046243
    17  C    0.357099  -0.038304   0.004625   0.000740   0.005838
    18  C   -0.043461   0.361121  -0.042117   0.004514   0.000296
    19  C    0.004694  -0.041930   0.363365  -0.041854   0.004643
    20  C    0.000259   0.004500  -0.041837   0.361540  -0.041866
    21  C    0.006266   0.000705   0.004647  -0.039057   0.358986
    22  H    0.000000   0.000000   0.000000   0.000000   0.000000
    23  H    0.000000   0.000000   0.000000   0.000000   0.000000
    24  H    0.000000   0.000000   0.000000   0.000000   0.000000
    25  H    0.000000   0.000000   0.000000   0.000000   0.000001
    26  H    0.000000   0.000000   0.000000   0.000000   0.000000
    27  H    0.000000   0.000000   0.000000   0.000000   0.000000
    28  H    0.000000   0.000000   0.000000   0.000000   0.000000
    29  H    0.000132   0.000000   0.000000   0.000000   0.000000
    30  H    0.000001   0.000000   0.000000   0.000000   0.000000
    31  H   -0.000049   0.000020  -0.000001   0.000001   0.000052
    32  H    0.000001   0.000000   0.000000   0.000000  -0.000002
    33  H    0.000007   0.000000   0.000000   0.000007   0.004240
    34  H   -0.000007   0.000000   0.000000   0.000000  -0.000140
    35  H    0.000135   0.000003   0.000000  -0.000001   0.001675
    36  H    0.006917  -0.000009   0.000000   0.000003   0.000027
    37  H    0.578279  -0.005177  -0.000163   0.000016  -0.000165
    38  H   -0.005177   0.568703  -0.005211  -0.000171   0.000016
    39  H   -0.000163  -0.005211   0.570876  -0.005173  -0.000166
    40  H    0.000016  -0.000171  -0.005173   0.569586  -0.005196
    41  H   -0.000165   0.000016  -0.000166  -0.005196   0.575662
 Mulliken charges:
               1
     1  C   -0.328443
     2  N   -0.523928
     3  C   -0.327554
     4  S    1.357050
     5  O   -0.567744
     6  O   -0.591594
     7  N   -0.734023
     8  C    0.161223
     9  C   -0.484739
    10  S    1.100286
    11  O   -0.570283
    12  O   -0.555511
    13  C   -0.505077
    14  C   -0.286586
    15  C   -0.374865
    16  C    0.148404
    17  C   -0.208948
    18  C   -0.142039
    19  C   -0.151172
    20  C   -0.146379
    21  C   -0.192600
    22  H    0.188656
    23  H    0.170461
    24  H    0.197440
    25  H    0.186593
    26  H    0.194508
    27  H    0.172023
    28  H    0.400591
    29  H    0.227325
    30  H    0.245133
    31  H    0.239166
    32  H    0.240490
    33  H    0.178578
    34  H    0.187278
    35  H    0.181012
    36  H    0.163150
    37  H    0.147888
    38  H    0.152180
    39  H    0.150516
    40  H    0.151631
    41  H    0.149905
 Sum of Mulliken charges =   0.00000
 Mulliken charges with hydrogens summed into heavy atoms:
               1
     1  C    0.228113
     2  N   -0.523928
     3  C    0.225570
     4  S    1.357050
     5  O   -0.567744
     6  O   -0.591594
     7  N   -0.333432
     8  C    0.161223
     9  C   -0.012282
    10  S    1.100286
    11  O   -0.570283
    12  O   -0.555511
    13  C   -0.025420
    14  C    0.079270
    15  C   -0.030703
    16  C    0.148404
    17  C   -0.061060
    18  C    0.010141
    19  C   -0.000656
    20  C    0.005252
    21  C   -0.042695
 Electronic spatial extent (au):  <R**2>=           7879.8968
 Charge=              0.0000 electrons
 Dipole moment (field-independent basis, Debye):
    X=              1.2534    Y=             -9.7146    Z=             -0.5525  Tot=              9.8107
 Quadrupole moment (field-independent basis, Debye-Ang):
   XX=           -146.5832   YY=           -152.7202   ZZ=           -133.3550
   XY=              9.2102   XZ=             -1.9277   YZ=              7.0713
 Traceless Quadrupole moment (field-independent basis, Debye-Ang):
   XX=             -2.3638   YY=             -8.5007   ZZ=             10.8645
   XY=              9.2102   XZ=             -1.9277   YZ=              7.0713
 Octapole moment (field-independent basis, Debye-Ang**2):
  XXX=             37.4362  YYY=           -114.9567  ZZZ=             -7.4663  XYY=            -65.3156
  XXY=            -70.4446  XXZ=            -18.7235  XZZ=             -3.3719  YZZ=              0.9145
  YYZ=              7.1747  XYZ=              6.2094
 Hexadecapole moment (field-independent basis, Debye-Ang**3):
 XXXX=          -6535.5260 YYYY=          -3122.8385 ZZZZ=           -761.4125 XXXY=            269.4710
 XXXZ=           -153.5268 YYYX=             18.7167 YYYZ=             95.4105 ZZZX=             18.6723
 ZZZY=              0.4315 XXYY=          -1553.1472 XXZZ=          -1247.8087 YYZZ=           -581.1262
 XXYZ=             67.6160 YYXZ=            -60.7085 ZZXY=             29.5749
 N-N= 2.191329022078D+03 E-N=-8.408339453153D+03  KE= 1.702513423000D+03
 No NMR shielding tensors so no spin-rotation constants.
 Leave Link  601 at Thu Oct  1 22:40:33 2020, MaxMem=  2147483648 cpu:         0.3
 (Enter /prod/apps/gaussian/g09d1/l9999.exe)
 1\1\GINC-PIRINEUS16\SP\RB3LYP\6-31G(d)\C13H20N2O4S2\UBAFAR01\01-Oct-20
 20\0\\#p b3lyp/6-31G(d) scrf=(iefpcm,read,solvent=Water) geom=allcheck
  guess=read\\SM40.n.30.pdb.xyz\\0,1\C,0,3.367,0.782,-1.119\N,0,3.274,-
 0.367,-0.202\C,0,2.573,-0.069,1.057\S,0,2.791,-1.795,-0.935\O,0,1.326,
 -1.938,-0.977\O,0,3.543,-1.886,-2.194\N,0,3.301,-2.932,0.187\C,0,4.637
 ,-3.57,0.088\C,0,4.776,-4.484,-1.182\S,0,4.38,-5.952,-0.177\O,0,2.955,
 -6.332,-0.293\O,0,5.395,-7.023,-0.225\C,0,4.65,-4.719,1.15\C,0,5.728,-
 2.495,0.236\C,0,7.201,-2.952,0.231\C,0,7.725,-3.552,1.522\C,0,8.325,-4
 .818,1.531\C,0,8.84,-5.363,2.711\C,0,8.763,-4.642,3.904\C,0,8.169,-3.3
 77,3.908\C,0,7.657,-2.839,2.728\H,0,3.903,1.571,-0.59\H,0,2.383,1.162,
 -1.42\H,0,3.935,0.495,-2.002\H,0,3.12,0.737,1.55\H,0,2.591,-0.952,1.69
 5\H,0,1.537,0.248,0.892\H,0,2.538,-3.602,0.301\H,0,5.796,-4.568,-1.559
 \H,0,4.082,-4.283,-1.994\H,0,5.627,-4.878,1.604\H,0,3.865,-4.687,1.905
 \H,0,5.521,-1.938,1.154\H,0,5.588,-1.796,-0.59\H,0,7.794,-2.058,0.\H,0
 ,7.39,-3.649,-0.591\H,0,8.383,-5.381,0.604\H,0,9.299,-6.346,2.695\H,0,
 9.161,-5.061,4.822\H,0,8.107,-2.809,4.831\H,0,7.2,-1.853,2.741\\Versio
 n=AM64L-G09RevD.01\State=1-A\HF=-1714.0617756\RMSD=5.728e-09\Dipole=1.
 6025118,2.9765877,1.8627953\Quadrupole=-6.0569096,0.1012512,5.9556584,
 -6.2519691,-7.3816367,-1.0307792\PG=C01 [X(C13H20N2O4S2)]\\@


 THE SOLUTION TO A PROBLEM CHANGES THE PROBLEM.

                                 -- JOHN PEERS
           PAUL DICKSON'S "THE OFFICIAL RULES"
 Job cpu time:       0 days  0 hours  5 minutes 17.6 seconds.
 File lengths (MBytes):  RWF=    238 Int=      0 D2E=      0 Chk=      7 Scr=      1
 Normal termination of Gaussian 09 at Thu Oct  1 22:40:33 2020.
