 Entering Gaussian System, Link 0=g09
 Initial command:
 /prod/apps/gaussian/g09d1/l1.exe "/tmp/ubafar01/1462952/Gau-37072.inp" -scrdir="/tmp/ubafar01/1462952/"
 Entering Link 1 = /prod/apps/gaussian/g09d1/l1.exe PID=     37074.
  
 Copyright (c) 1988,1990,1992,1993,1995,1998,2003,2009,2013,
            Gaussian, Inc.  All Rights Reserved.
  
 This is part of the Gaussian(R) 09 program.  It is based on
 the Gaussian(R) 03 system (copyright 2003, Gaussian, Inc.),
 the Gaussian(R) 98 system (copyright 1998, Gaussian, Inc.),
 the Gaussian(R) 94 system (copyright 1995, Gaussian, Inc.),
 the Gaussian 92(TM) system (copyright 1992, Gaussian, Inc.),
 the Gaussian 90(TM) system (copyright 1990, Gaussian, Inc.),
 the Gaussian 88(TM) system (copyright 1988, Gaussian, Inc.),
 the Gaussian 86(TM) system (copyright 1986, Carnegie Mellon
 University), and the Gaussian 82(TM) system (copyright 1983,
 Carnegie Mellon University). Gaussian is a federally registered
 trademark of Gaussian, Inc.
  
 This software contains proprietary and confidential information,
 including trade secrets, belonging to Gaussian, Inc.
  
 This software is provided under written license and may be
 used, copied, transmitted, or stored only in accord with that
 written license.
  
 The following legend is applicable only to US Government
 contracts under FAR:
  
                    RESTRICTED RIGHTS LEGEND
  
 Use, reproduction and disclosure by the US Government is
 subject to restrictions as set forth in subparagraphs (a)
 and (c) of the Commercial Computer Software - Restricted
 Rights clause in FAR 52.227-19.
  
 Gaussian, Inc.
 340 Quinnipiac St., Bldg. 40, Wallingford CT 06492
  
  
 ---------------------------------------------------------------
 Warning -- This program may not be used in any manner that
 competes with the business of Gaussian, Inc. or will provide
 assistance to any competitor of Gaussian, Inc.  The licensee
 of this program is prohibited from giving any competitor of
 Gaussian, Inc. access to this program.  By using this program,
 the user acknowledges that Gaussian, Inc. is engaged in the
 business of creating and licensing software in the field of
 computational chemistry and represents and warrants to the
 licensee that it is not a competitor of Gaussian, Inc. and that
 it will not use this program in any manner prohibited above.
 ---------------------------------------------------------------
  

 Cite this work as:
 Gaussian 09, Revision D.01,
 M. J. Frisch, G. W. Trucks, H. B. Schlegel, G. E. Scuseria, 
 M. A. Robb, J. R. Cheeseman, G. Scalmani, V. Barone, B. Mennucci, 
 G. A. Petersson, H. Nakatsuji, M. Caricato, X. Li, H. P. Hratchian, 
 A. F. Izmaylov, J. Bloino, G. Zheng, J. L. Sonnenberg, M. Hada, 
 M. Ehara, K. Toyota, R. Fukuda, J. Hasegawa, M. Ishida, T. Nakajima, 
 Y. Honda, O. Kitao, H. Nakai, T. Vreven, J. A. Montgomery, Jr., 
 J. E. Peralta, F. Ogliaro, M. Bearpark, J. J. Heyd, E. Brothers, 
 K. N. Kudin, V. N. Staroverov, T. Keith, R. Kobayashi, J. Normand, 
 K. Raghavachari, A. Rendell, J. C. Burant, S. S. Iyengar, J. Tomasi, 
 M. Cossi, N. Rega, J. M. Millam, M. Klene, J. E. Knox, J. B. Cross, 
 V. Bakken, C. Adamo, J. Jaramillo, R. Gomperts, R. E. Stratmann, 
 O. Yazyev, A. J. Austin, R. Cammi, C. Pomelli, J. W. Ochterski, 
 R. L. Martin, K. Morokuma, V. G. Zakrzewski, G. A. Voth, 
 P. Salvador, J. J. Dannenberg, S. Dapprich, A. D. Daniels, 
 O. Farkas, J. B. Foresman, J. V. Ortiz, J. Cioslowski, 
 and D. J. Fox, Gaussian, Inc., Wallingford CT, 2013.
 
 ******************************************
 Gaussian 09:  AM64L-G09RevD.01 24-Apr-2013
                 2-Oct-2020 
 ******************************************
 %nproc=1
 Will use up to    1 processors via shared memory.
 %Chk=SM40.n.7.pdb.xyz.mst.n.o.chk
 %mem=16GB
 -----------------
 #p b3lyp/6-31G(d)
 -----------------
 1/38=1/1;
 2/12=2,17=6,18=5,40=1/2;
 3/5=1,6=6,7=1,11=2,16=1,25=1,30=1,74=-5/1,2,3;
 4//1;
 5/5=2,38=5/2;
 6/7=2,8=2,9=2,10=2,28=1/1;
 99/5=1,9=1/99;
 Leave Link    1 at Fri Oct  2 06:11:18 2020, MaxMem=  2147483648 cpu:         0.0
 (Enter /prod/apps/gaussian/g09d1/l101.exe)
 ----------------
 SM40.n.7.pdb.xyz
 ----------------
 Symbolic Z-matrix:
 Charge =  0 Multiplicity = 1
 C                     5.93      0.852    -0.837 
 N                     5.588     0.309     0.485 
 C                     5.761     1.282     1.577 
 S                     4.121    -0.535     0.519 
 O                     3.828    -0.754     1.935 
 O                     3.125     0.087    -0.358 
 N                     4.412    -2.016    -0.194 
 C                     5.426    -3.007     0.223 
 C                     4.961    -4.395    -0.338 
 S                     4.858    -5.074     1.355 
 O                     3.486    -5.43      1.749 
 O                     5.959    -6.01      1.639 
 C                     5.297    -3.345     1.75 
 C                     6.843    -2.611    -0.231 
 C                     7.977    -3.589     0.121 
 C                     9.311    -3.102    -0.399 
 C                     10.096   -2.22      0.355 
 C                     11.312   -1.744    -0.135 
 C                     11.764   -2.145    -1.393 
 C                     10.993   -3.026    -2.154 
 C                     9.778    -3.499    -1.659 
 H                     6.97      1.18     -0.8 
 H                     5.292     1.697    -1.119 
 H                     5.846     0.074    -1.596 
 H                     6.813     1.575     1.584 
 H                     5.513     0.807     2.524 
 H                     5.144     2.179     1.443 
 H                     4.258    -1.966    -1.198 
 H                     5.686    -4.921    -0.959 
 H                     3.98     -4.371    -0.812 
 H                     6.218    -3.272     2.328 
 H                     4.48     -2.824     2.246 
 H                     7.061    -1.629     0.196 
 H                     6.814    -2.483    -1.319 
 H                     7.765    -4.581    -0.292 
 H                     8.035    -3.713     1.207 
 H                     9.753    -1.91      1.338 
 H                     11.907   -1.065     0.468 
 H                     12.712   -1.779    -1.776 
 H                     11.34    -3.349    -3.13 
 H                     9.186    -4.189    -2.253 
 
 NAtoms=     41 NQM=       41 NQMF=       0 NMMI=      0 NMMIF=      0
                NMic=       0 NMicF=      0.
                    Isotopes and Nuclear Properties:
 (Nuclear quadrupole moments (NQMom) in fm**2, nuclear magnetic moments (NMagM)
  in nuclear magnetons)

  Atom         1           2           3           4           5           6           7           8           9          10
 IAtWgt=          12          14          12          32          16          16          14          12          12          32
 AtmWgt=  12.0000000  14.0030740  12.0000000  31.9720718  15.9949146  15.9949146  14.0030740  12.0000000  12.0000000  31.9720718
 NucSpn=           0           2           0           0           0           0           2           0           0           0
 AtZEff=   0.0000000   0.0000000   0.0000000   0.0000000   0.0000000   0.0000000   0.0000000   0.0000000   0.0000000   0.0000000
 NQMom=    0.0000000   2.0440000   0.0000000   0.0000000   0.0000000   0.0000000   2.0440000   0.0000000   0.0000000   0.0000000
 NMagM=    0.0000000   0.4037610   0.0000000   0.0000000   0.0000000   0.0000000   0.4037610   0.0000000   0.0000000   0.0000000
 AtZNuc=   6.0000000   7.0000000   6.0000000  16.0000000   8.0000000   8.0000000   7.0000000   6.0000000   6.0000000  16.0000000

  Atom        11          12          13          14          15          16          17          18          19          20
 IAtWgt=          16          16          12          12          12          12          12          12          12          12
 AtmWgt=  15.9949146  15.9949146  12.0000000  12.0000000  12.0000000  12.0000000  12.0000000  12.0000000  12.0000000  12.0000000
 NucSpn=           0           0           0           0           0           0           0           0           0           0
 AtZEff=   0.0000000   0.0000000   0.0000000   0.0000000   0.0000000   0.0000000   0.0000000   0.0000000   0.0000000   0.0000000
 NQMom=    0.0000000   0.0000000   0.0000000   0.0000000   0.0000000   0.0000000   0.0000000   0.0000000   0.0000000   0.0000000
 NMagM=    0.0000000   0.0000000   0.0000000   0.0000000   0.0000000   0.0000000   0.0000000   0.0000000   0.0000000   0.0000000
 AtZNuc=   8.0000000   8.0000000   6.0000000   6.0000000   6.0000000   6.0000000   6.0000000   6.0000000   6.0000000   6.0000000

  Atom        21          22          23          24          25          26          27          28          29          30
 IAtWgt=          12           1           1           1           1           1           1           1           1           1
 AtmWgt=  12.0000000   1.0078250   1.0078250   1.0078250   1.0078250   1.0078250   1.0078250   1.0078250   1.0078250   1.0078250
 NucSpn=           0           1           1           1           1           1           1           1           1           1
 AtZEff=   0.0000000   0.0000000   0.0000000   0.0000000   0.0000000   0.0000000   0.0000000   0.0000000   0.0000000   0.0000000
 NQMom=    0.0000000   0.0000000   0.0000000   0.0000000   0.0000000   0.0000000   0.0000000   0.0000000   0.0000000   0.0000000
 NMagM=    0.0000000   2.7928460   2.7928460   2.7928460   2.7928460   2.7928460   2.7928460   2.7928460   2.7928460   2.7928460
 AtZNuc=   6.0000000   1.0000000   1.0000000   1.0000000   1.0000000   1.0000000   1.0000000   1.0000000   1.0000000   1.0000000

  Atom        31          32          33          34          35          36          37          38          39          40
 IAtWgt=           1           1           1           1           1           1           1           1           1           1
 AtmWgt=   1.0078250   1.0078250   1.0078250   1.0078250   1.0078250   1.0078250   1.0078250   1.0078250   1.0078250   1.0078250
 NucSpn=           1           1           1           1           1           1           1           1           1           1
 AtZEff=   0.0000000   0.0000000   0.0000000   0.0000000   0.0000000   0.0000000   0.0000000   0.0000000   0.0000000   0.0000000
 NQMom=    0.0000000   0.0000000   0.0000000   0.0000000   0.0000000   0.0000000   0.0000000   0.0000000   0.0000000   0.0000000
 NMagM=    2.7928460   2.7928460   2.7928460   2.7928460   2.7928460   2.7928460   2.7928460   2.7928460   2.7928460   2.7928460
 AtZNuc=   1.0000000   1.0000000   1.0000000   1.0000000   1.0000000   1.0000000   1.0000000   1.0000000   1.0000000   1.0000000

  Atom        41
 IAtWgt=           1
 AtmWgt=   1.0078250
 NucSpn=           1
 AtZEff=   0.0000000
 NQMom=    0.0000000
 NMagM=    2.7928460
 AtZNuc=   1.0000000
 Leave Link  101 at Fri Oct  2 06:11:18 2020, MaxMem=  2147483648 cpu:         0.1
 (Enter /prod/apps/gaussian/g09d1/l202.exe)
                          Input orientation:                          
 ---------------------------------------------------------------------
 Center     Atomic      Atomic             Coordinates (Angstroms)
 Number     Number       Type             X           Y           Z
 ---------------------------------------------------------------------
      1          6           0        5.930000    0.852000   -0.837000
      2          7           0        5.588000    0.309000    0.485000
      3          6           0        5.761000    1.282000    1.577000
      4         16           0        4.121000   -0.535000    0.519000
      5          8           0        3.828000   -0.754000    1.935000
      6          8           0        3.125000    0.087000   -0.358000
      7          7           0        4.412000   -2.016000   -0.194000
      8          6           0        5.426000   -3.007000    0.223000
      9          6           0        4.961000   -4.395000   -0.338000
     10         16           0        4.858000   -5.074000    1.355000
     11          8           0        3.486000   -5.430000    1.749000
     12          8           0        5.959000   -6.010000    1.639000
     13          6           0        5.297000   -3.345000    1.750000
     14          6           0        6.843000   -2.611000   -0.231000
     15          6           0        7.977000   -3.589000    0.121000
     16          6           0        9.311000   -3.102000   -0.399000
     17          6           0       10.096000   -2.220000    0.355000
     18          6           0       11.312000   -1.744000   -0.135000
     19          6           0       11.764000   -2.145000   -1.393000
     20          6           0       10.993000   -3.026000   -2.154000
     21          6           0        9.778000   -3.499000   -1.659000
     22          1           0        6.970000    1.180000   -0.800000
     23          1           0        5.292000    1.697000   -1.119000
     24          1           0        5.846000    0.074000   -1.596000
     25          1           0        6.813000    1.575000    1.584000
     26          1           0        5.513000    0.807000    2.524000
     27          1           0        5.144000    2.179000    1.443000
     28          1           0        4.258000   -1.966000   -1.198000
     29          1           0        5.686000   -4.921000   -0.959000
     30          1           0        3.980000   -4.371000   -0.812000
     31          1           0        6.218000   -3.272000    2.328000
     32          1           0        4.480000   -2.824000    2.246000
     33          1           0        7.061000   -1.629000    0.196000
     34          1           0        6.814000   -2.483000   -1.319000
     35          1           0        7.765000   -4.581000   -0.292000
     36          1           0        8.035000   -3.713000    1.207000
     37          1           0        9.753000   -1.910000    1.338000
     38          1           0       11.907000   -1.065000    0.468000
     39          1           0       12.712000   -1.779000   -1.776000
     40          1           0       11.340000   -3.349000   -3.130000
     41          1           0        9.186000   -4.189000   -2.253000
 ---------------------------------------------------------------------
                    Distance matrix (angstroms):
                    1          2          3          4          5
     1  C    0.000000
     2  N    1.469523   0.000000
     3  C    2.457815   1.472794   0.000000
     4  S    2.652355   1.692803   2.666543   0.000000
     5  O    3.831661   2.515963   2.830185   1.462486   0.000000
     6  O    2.946641   2.612719   3.481486   1.465616   2.541523
     7  N    3.308050   2.692516   3.979076   1.669255   2.542900
     8  C    4.033546   3.330277   4.510107   2.810947   3.249701
     9  C    5.359008   4.816438   6.044465   4.042233   4.439268
    10  S    6.408707   5.501499   6.423662   4.673819   4.478806
    11  O    7.219699   6.241171   7.089157   5.086959   4.692178
    12  O    7.295098   6.434215   7.294951   5.882879   5.679288
    13  C    4.970721   3.877708   4.653424   3.285489   2.984203
    14  C    3.632241   3.257926   4.426628   3.504506   4.150931
    15  C    4.983017   4.586308   5.545920   4.934983   5.342473
    16  C    5.220835   5.126120   5.977168   5.862449   6.404994
    17  C    5.311648   5.170571   5.705218   6.210213   6.628226
    18  C    6.016473   6.112560   6.549902   7.321194   7.827851
    19  C    6.582302   6.905938   7.523379   8.041349   8.717257
    20  C    6.512092   6.877541   7.736475   7.782955   8.556818
    21  C    5.866344   6.054230   7.033203   6.747639   7.473578
    22  H    1.091125   2.078410   2.668748   3.577399   4.592684
    23  H    1.095716   2.141723   2.767779   3.006012   4.180624
    24  H    1.090147   2.110059   3.396236   2.796378   4.150406
    25  H    2.676501   2.076339   1.092063   3.582344   3.802324
    26  H    3.387069   2.100274   1.088089   2.785436   2.371259
    27  H    2.752658   2.147510   1.096929   3.044027   3.252139
    28  H    3.296518   3.126822   4.528702   2.239334   3.386670
    29  H    5.779442   5.426568   6.701801   4.885766   5.402896
    30  H    5.575200   5.115689   6.390281   4.062799   4.544425
    31  H    5.206491   4.076409   4.638078   3.893720   3.493834
    32  H    5.012022   3.760914   4.352902   2.889798   2.192424
    33  H    2.915752   2.451345   3.474346   3.153532   3.773862
    34  H    3.483677   3.542987   4.865270   3.798052   4.742800
    35  H    5.760359   5.408804   6.471781   5.505141   5.924983
    36  H    5.426618   4.762938   5.500727   5.088460   5.194662
    37  H    5.193708   4.795706   5.116840   5.854982   6.066166
    38  H    6.411119   6.466678   6.671702   7.804185   8.216998
    39  H    7.334808   7.760363   8.302333   8.978855   9.682335
    40  H    7.223181   7.715873   8.644493   8.564331   9.424351
    41  H    6.165896   6.377637   7.505422   6.833003   7.618841
                    6          7          8          9         10
     6  O    0.000000
     7  N    2.471007   0.000000
     8  C    3.899359   1.477892   0.000000
     9  C    4.843513   2.445767   1.567638   0.000000
    10  S    5.707327   3.456831   2.424157   1.826992   0.000000
    11  O    5.916676   4.035854   3.458787   2.757248   1.471175
    12  O    7.013770   4.658877   3.362611   2.740941   1.472737
    13  C    4.576010   2.515671   1.569272   2.361173   1.827071
    14  C    4.595526   2.503029   1.539747   2.595386   3.538642
    15  C    6.106089   3.909320   2.618536   3.155404   3.668261
    16  C    6.959741   5.022113   3.935624   4.538510   5.176341
    17  C    7.377361   5.714094   4.737689   5.619528   6.048302
    18  C    8.392214   6.905611   6.030616   6.885072   7.413711
    19  C    8.982504   7.450245   6.597329   7.242675   7.988954
    20  C    8.649960   6.940552   6.053262   6.446475   7.358370
    21  C    7.669055   5.756689   4.766958   5.074578   5.980905
    22  H    4.021696   4.138238   4.578366   5.943917   6.943852
    23  H    2.804837   3.926372   4.893520   6.150771   7.221875
    24  H    2.989424   2.896560   3.602461   4.726283   6.015517
    25  H    4.425704   4.671334   4.977029   6.539487   6.934239
    26  H    3.811413   4.070510   4.455195   5.962931   6.031728
    27  H    3.420004   4.562194   5.335028   6.813437   7.259170
    28  H    2.490803   1.016972   2.113562   2.670927   4.066629
    29  H    5.656853   3.263024   2.264535   1.089928   2.462436
    30  H    4.561897   2.472766   2.241124   1.089777   2.441512
    31  H    5.297558   3.346589   2.264622   3.154161   2.458360
    32  H    4.134097   2.571204   2.240744   3.062100   2.449340
    33  H    4.329396   2.705378   2.138420   3.513675   4.250237
    34  H    4.597515   2.693198   2.139833   2.837554   4.205888
    35  H    6.582111   4.222729   2.865942   2.810539   3.377322
    36  H    6.402915   4.238955   2.876382   3.507367   3.459415
    37  H    7.127048   5.557386   4.601039   5.652209   5.828568
    38  H    8.895668   7.584040   6.770137   7.745028   8.157650
    39  H    9.869308   8.452745   7.654396   8.305980   9.074442
    40  H    9.326109   7.641608   6.806979   7.041379   8.068902
    41  H    7.655777   5.634934   4.654600   4.643306   5.703724
                   11         12         13         14         15
    11  O    0.000000
    12  O    2.542485   0.000000
    13  C    2.761693   2.748234   0.000000
    14  C    4.810053   3.978889   2.617868   0.000000
    15  C    5.119448   3.498269   3.145724   1.538293   0.000000
    16  C    6.630544   4.883217   4.559544   2.521969   1.512324
    17  C    7.479267   5.755652   5.122700   3.328406   2.533590
    18  C    8.853379   7.071099   6.503588   4.553336   3.819920
    19  C    9.443975   7.604556   7.289756   5.077759   4.326511
    20  C    8.795890   6.973683   6.912843   4.592674   3.819535
    21  C    7.411645   5.636194   5.632438   3.382596   2.533792
    22  H    7.894793   7.659435   5.456836   3.835567   4.960408
    23  H    7.891843   8.212752   5.801116   4.664012   6.057113
    24  H    6.859493   6.891520   4.815255   3.172768   4.572398
    25  H    7.756686   7.633123   5.150943   4.562644   5.492009
    26  H    6.603751   6.888660   4.229047   4.587118   5.583057
    27  H    7.793554   8.231790   5.534639   5.350979   6.560747
    28  H    4.613035   5.224548   3.416411   2.834315   4.266714
    29  H    3.525953   2.830204   3.158129   2.684163   2.861696
    30  H    2.815002   3.551079   3.057942   3.410562   4.178280
    31  H    3.529310   2.835215   1.089795   2.715884   2.839968
    32  H    2.833069   3.564616   1.088552   3.429966   4.162915
    33  H    5.444266   4.742343   2.910544   1.092784   2.164782
    34  H    5.401205   4.681935   3.530311   1.095887   2.156248
    35  H    4.816256   3.005401   3.433436   2.175938   1.095252
    36  H    4.892367   3.126117   2.815478   2.168666   1.094594
    37  H    7.199626   5.594197   4.699458   3.379536   2.730257
    38  H    9.571177   7.823233   7.108729   5.340675   4.683576
    39  H   10.529696   8.669867   8.358664   6.125717   5.412479
    40  H    9.477369   7.666775   7.767385   5.401097   4.683628
    41  H    7.074326   5.373754   5.644525   3.473934   2.730853
                   16         17         18         19         20
    16  C    0.000000
    17  C    1.400951   0.000000
    18  C    2.432665   1.394752   0.000000
    19  C    2.814444   2.417303   1.395589   0.000000
    20  C    2.432062   2.783761   2.412809   1.396325   0.000000
    21  C    1.401177   2.406899   2.784916   2.418319   1.394625
    22  H    4.896591   4.760872   5.276833   5.864274   5.975641
    23  H    6.300886   6.371341   7.003509   7.531456   7.475249
    24  H    4.850362   5.208775   5.942794   6.323598   6.034316
    25  H    5.660974   5.166290   5.849079   6.871196   7.253568
    26  H    6.184579   5.905182   6.870683   7.945577   8.161248
    27  H    6.974655   6.712470   7.478251   8.400254   8.616335
    28  H    5.240392   6.046368   7.137098   7.510666   6.884603
    29  H    4.094263   5.335738   6.513385   6.696015   5.760495
    30  H    5.495497   6.587423   7.817780   8.116852   7.265821
    31  H    4.126994   4.476418   5.860886   6.773041   6.553584
    32  H    5.514696   5.956522   7.315175   8.170680   7.862568
    33  H    2.754316   3.096092   4.265418   4.990930   4.789022
    34  H    2.732137   3.693639   4.709563   4.962078   4.296058
    35  H    2.142197   3.380309   4.544714   4.810228   4.037952
    36  H    2.140265   2.683780   4.051747   4.808749   4.529686
    37  H    2.152533   1.086296   2.151224   3.399663   3.870028
    38  H    3.411785   2.150934   1.085668   2.156425   3.399382
    39  H    3.900418   3.402807   2.157338   1.085978   2.157048
    40  H    3.411189   3.868773   3.398063   2.155588   1.085041
    41  H    2.152791   3.392156   3.870895   3.400532   2.151190
                   21         22         23         24         25
    21  C    0.000000
    22  H    5.524110   0.000000
    23  H    6.885798   1.784582   0.000000
    24  H    5.313278   1.766417   1.780049   0.000000
    25  H    6.712209   2.421597   3.103955   3.646984   0.000000
    26  H    7.364058   3.648418   3.756646   4.197925   1.778602
    27  H    7.958395   3.059955   2.611144   3.762891   1.780522
    28  H    5.747435   4.172609   3.806963   2.615674   5.177473
    29  H    4.388228   6.236677   6.631648   5.037995   7.066470
    30  H    5.924069   6.305065   6.215804   4.884121   7.008682
    31  H    5.349888   5.492740   6.118026   5.170288   4.939734
    32  H    6.616151   5.613398   5.694033   5.002532   5.023180
    33  H    3.784179   2.981741   3.990095   2.754578   3.500523
    34  H    3.151690   3.702873   4.452964   2.748091   4.989466
    35  H    2.663002   5.837740   6.798010   5.201154   6.505537
    36  H    3.361220   5.394787   6.496339   5.195180   5.440437
    37  H    3.392279   4.675921   6.240819   5.273449   4.566108
    38  H    3.870546   5.569723   7.342032   6.503317   5.844989
    39  H    3.403005   6.532903   8.220135   7.113928   7.572128
    40  H    2.150857   6.711009   8.129240   6.652377   8.182989
    41  H    1.086002   5.987322   7.148020   5.455311   7.319658
                   26         27         28         29         30
    26  H    0.000000
    27  H    1.785247   0.000000
    28  H    4.808101   4.994087   0.000000
    29  H    6.706057   7.514876   3.290643   0.000000
    30  H    6.347493   7.024416   2.451592   1.798484   0.000000
    31  H    4.144114   5.625842   4.240273   3.715723   4.009494
    32  H    3.785305   5.110354   3.556204   4.015454   3.463318
    33  H    3.708097   4.441932   3.148589   3.749922   4.245844
    34  H    5.223538   5.670255   2.610568   2.710319   3.442840
    35  H    6.483202   7.455030   4.467450   2.209690   3.826320
    36  H    5.340915   6.567286   4.806429   3.415936   4.577374
    37  H    5.173614   6.162291   6.052227   5.557231   6.633743
    38  H    6.972428   7.563883   7.880010   7.456937   8.683626
    39  H    8.775135   9.127012   8.475799   7.739789   9.159453
    40  H    9.121073   9.479532   7.469942   6.257167   7.783779
    41  H    7.827559   8.399381   5.508170   3.802665   5.404816
                   31         32         33         34         35
    31  H    0.000000
    32  H    1.796684   0.000000
    33  H    2.820553   3.506007   0.000000
    34  H    3.778670   4.274700   1.756573   0.000000
    35  H    3.312264   4.507740   3.073770   2.522050   0.000000
    36  H    2.180048   3.808919   2.512738   3.063400   1.753090
    37  H    3.915529   5.428111   2.937684   4.003211   3.707194
    38  H    6.379277   7.836817   4.886287   5.580568   5.485984
    39  H    7.825848   9.221406   5.987076   5.957421   5.875906
    40  H    7.485358   8.731357   5.685993   4.951197   4.727863
    41  H    5.534932   6.652117   4.131202   3.067438   2.453248
                   36         37         38         39         40
    36  H    0.000000
    37  H    2.493891   0.000000
    38  H    4.748727   2.471971   0.000000
    39  H    5.874774   4.297655   2.488646   0.000000
    40  H    5.464896   4.955029   4.299273   2.486081   0.000000
    41  H    3.677360   4.290759   4.956517   4.297477   2.472740
                   41
    41  H    0.000000
 Stoichiometry    C13H20N2O4S2
 Framework group  C1[X(C13H20N2O4S2)]
 Deg. of freedom   117
 Full point group                 C1      NOp   1
 Largest Abelian subgroup         C1      NOp   1
 Largest concise Abelian subgroup C1      NOp   1
                         Standard orientation:                         
 ---------------------------------------------------------------------
 Center     Atomic      Atomic             Coordinates (Angstroms)
 Number     Number       Type             X           Y           Z
 ---------------------------------------------------------------------
      1          6           0        0.445606   -3.314176   -0.801576
      2          7           0        1.082684   -2.561190    0.287755
      3          6           0        1.320020   -3.371134    1.494729
      4         16           0        2.406752   -1.630079   -0.207680
      5          8           0        3.056392   -1.186094    1.025085
      6          8           0        3.179321   -2.310390   -1.250917
      7          7           0        1.778861   -0.292179   -0.983688
      8          6           0        0.823703    0.683212   -0.417604
      9          6           0        0.969725    1.999747   -1.255997
     10         16           0        1.467258    2.926623    0.237744
     11          8           0        2.850503    3.423256    0.171839
     12          8           0        0.397800    3.822556    0.709461
     13          6           0        1.335173    1.250645    0.953174
     14          6           0       -0.615038    0.135377   -0.390733
     15          6           0       -1.701506    1.080719    0.149879
     16          6           0       -3.069874    0.438582    0.101379
     17          6           0       -3.520201   -0.370321    1.152829
     18          6           0       -4.768660   -0.989681    1.097396
     19          6           0       -5.590220   -0.808475   -0.016100
     20          6           0       -5.155104   -0.002482   -1.070032
     21          6           0       -3.905906    0.614593   -1.009192
     22          1           0       -0.503952   -3.698420   -0.425746
     23          1           0        1.063932   -4.149372   -1.149012
     24          1           0        0.235554   -2.653132   -1.642599
     25          1           0        0.347086   -3.726028    1.841213
     26          1           0        1.770410   -2.746641    2.263556
     27          1           0        1.964633   -4.237116    1.300296
     28          1           0        1.653002   -0.480122   -1.975187
     29          1           0        0.050958    2.381137   -1.701361
     30          1           0        1.778077    1.968253   -1.986194
     31          1           0        0.622931    1.205577    1.776784
     32          1           0        2.306691    0.861555    1.252688
     33          1           0       -0.603983   -0.784573    0.198967
     34          1           0       -0.875559   -0.149893   -1.416266
     35          1           0       -1.715444    2.012227   -0.426033
     36          1           0       -1.468832    1.359906    1.182377
     37          1           0       -2.888316   -0.509264    2.025443
     38          1           0       -5.100187   -1.608486    1.925555
     39          1           0       -6.564325   -1.286453   -0.060888
     40          1           0       -5.790209    0.150073   -1.936451
     41          1           0       -3.575884    1.245394   -1.829299
 ---------------------------------------------------------------------
 Rotational constants (GHZ):      0.2959170      0.1895870      0.1299210
 Leave Link  202 at Fri Oct  2 06:11:18 2020, MaxMem=  2147483648 cpu:         0.0
 (Enter /prod/apps/gaussian/g09d1/l301.exe)
 Standard basis: 6-31G(d) (6D, 7F)
 Ernie: Thresh=  0.10000D-02 Tol=  0.10000D-05 Strict=F.
 There are   363 symmetry adapted cartesian basis functions of A   symmetry.
 There are   363 symmetry adapted basis functions of A   symmetry.
   363 basis functions,   716 primitive gaussians,   363 cartesian basis functions
    88 alpha electrons       88 beta electrons
       nuclear repulsion energy      2159.7627715490 Hartrees.
 IExCor=  402 DFT=T Ex+Corr=B3LYP ExCW=0 ScaHFX=  0.200000
 ScaDFX=  0.800000  0.720000  1.000000  0.810000 ScalE2=  1.000000  1.000000
 IRadAn=      0 IRanWt=     -1 IRanGd=            0 ICorTp=0 IEmpDi=  4
 NAtoms=   41 NActive=   41 NUniq=   41 SFac= 1.00D+00 NAtFMM=   60 NAOKFM=F Big=F
 Integral buffers will be    131072 words long.
 Raffenetti 2 integral format.
 Two-electron integral symmetry is turned on.
 Leave Link  301 at Fri Oct  2 06:11:19 2020, MaxMem=  2147483648 cpu:         0.0
 (Enter /prod/apps/gaussian/g09d1/l302.exe)
 NPDir=0 NMtPBC=     1 NCelOv=     1 NCel=       1 NClECP=     1 NCelD=      1
         NCelK=      1 NCelE2=     1 NClLst=     1 CellRange=     0.0.
 One-electron integrals computed using PRISM.
 NBasis=   363 RedAO= T EigKep=  4.64D-04  NBF=   363
 NBsUse=   363 1.00D-06 EigRej= -1.00D+00 NBFU=   363
 Precomputing XC quadrature grid using
 IXCGrd= 4 IRadAn=           0 IRanWt=          -1 IRanGd=           0 AccXCQ= 0.00D+00.
 Generated NRdTot=       0 NPtTot=           0 NUsed=           0 NTot=          32
 NSgBfM=   359   359   359   359   359 MxSgAt=    41 MxSgA2=    41.
 Leave Link  302 at Fri Oct  2 06:11:20 2020, MaxMem=  2147483648 cpu:         1.3
 (Enter /prod/apps/gaussian/g09d1/l303.exe)
 DipDrv:  MaxL=1.
 Leave Link  303 at Fri Oct  2 06:11:20 2020, MaxMem=  2147483648 cpu:         0.0
 (Enter /prod/apps/gaussian/g09d1/l401.exe)
 ExpMin= 1.17D-01 ExpMax= 2.19D+04 ExpMxC= 3.30D+03 IAcc=1 IRadAn=         1 AccDes= 0.00D+00
 Harris functional with IExCor=  402 and IRadAn=       1 diagonalized for initial guess.
 HarFok:  IExCor=  402 AccDes= 0.00D+00 IRadAn=         1 IDoV= 1 UseB2=F ITyADJ=14
 ICtDFT=  3500011 ScaDFX=  1.000000  1.000000  1.000000  1.000000
 FoFCou: FMM=F IPFlag=           0 FMFlag=      100000 FMFlg1=           0
         NFxFlg=           0 DoJE=T BraDBF=F KetDBF=T FulRan=T
         wScrn=  0.000000 ICntrl=     500 IOpCl=  0 I1Cent=   200000004 NGrid=           0
         NMat0=    1 NMatS0=      1 NMatT0=    0 NMatD0=    1 NMtDS0=    0 NMtDT0=    0
 Petite list used in FoFCou.
 Harris En= -1714.14797219335    
 JPrj=0 DoOrth=F DoCkMO=F.
 Leave Link  401 at Fri Oct  2 06:11:25 2020, MaxMem=  2147483648 cpu:         4.7
 (Enter /prod/apps/gaussian/g09d1/l502.exe)
 Closed shell SCF:
 Using DIIS extrapolation, IDIIS=  1040.
 Integral symmetry usage will be decided dynamically.
 IVT=      418784 IEndB=      418784 NGot=  2147483648 MDV=  2147213637
 LenX=  2147213637 LenY=  2147081427
 Requested convergence on RMS density matrix=1.00D-08 within 128 cycles.
 Requested convergence on MAX density matrix=1.00D-06.
 Requested convergence on             energy=1.00D-06.
 No special actions if energy rises.
 Fock matrices will be formed incrementally for  20 cycles.
 Integral accuracy reduced to 1.0D-05 until final iterations.

 Cycle   1  Pass 0  IDiag  1:
 FoFJK:  IHMeth= 1 ICntrl=       0 DoSepK=F KAlg= 0 I1Cent=   0 FoldK=F
 IRaf= 760000000 NMat=   1 IRICut=       1 DoRegI=T DoRafI=F ISym2E= 0.
 FoFCou: FMM=F IPFlag=           0 FMFlag=      100000 FMFlg1=           0
         NFxFlg=           0 DoJE=F BraDBF=F KetDBF=F FulRan=T
         wScrn=  0.000000 ICntrl=       0 IOpCl=  0 I1Cent=           0 NGrid=           0
         NMat0=    1 NMatS0=      1 NMatT0=    0 NMatD0=    1 NMtDS0=    0 NMtDT0=    0
 Symmetry not used in FoFCou.
 E= -1713.18935296708    
 DIIS: error= 4.07D-02 at cycle   1 NSaved=   1.
 NSaved= 1 IEnMin= 1 EnMin= -1713.18935296708     IErMin= 1 ErrMin= 4.07D-02
 ErrMax= 4.07D-02  0.00D+00 EMaxC= 1.00D-01 BMatC= 9.94D-01 BMatP= 9.94D-01
 IDIUse=3 WtCom= 5.93D-01 WtEn= 4.07D-01
 Coeff-Com:  0.100D+01
 Coeff-En:   0.100D+01
 Coeff:      0.100D+01
 Gap=     0.355 Goal=   None    Shift=    0.000
 GapD=    0.355 DampG=1.000 DampE=0.500 DampFc=0.5000 IDamp=-1.
 Damping current iteration by 5.00D-01
 RMSDP=7.01D-03 MaxDP=6.06D-01              OVMax= 2.39D-01

 Cycle   2  Pass 0  IDiag  1:
 RMSU=  3.50D-03    CP:  9.99D-01
 E= -1713.36560075472     Delta-E=       -0.176247787650 Rises=F Damp=T
 DIIS: error= 1.81D-02 at cycle   2 NSaved=   2.
 NSaved= 2 IEnMin= 2 EnMin= -1713.36560075472     IErMin= 2 ErrMin= 1.81D-02
 ErrMax= 1.81D-02  0.00D+00 EMaxC= 1.00D-01 BMatC= 1.72D-01 BMatP= 9.94D-01
 IDIUse=3 WtCom= 8.19D-01 WtEn= 1.81D-01
 Coeff-Com:  0.251D+00 0.749D+00
 Coeff-En:   0.396D+00 0.604D+00
 Coeff:      0.277D+00 0.723D+00
 Gap=     0.286 Goal=   None    Shift=    0.000
 RMSDP=2.03D-03 MaxDP=1.34D-01 DE=-1.76D-01 OVMax= 2.12D-01

 Cycle   3  Pass 0  IDiag  1:
 RMSU=  1.62D-03    CP:  9.90D-01  6.56D-01
 E= -1713.94481390000     Delta-E=       -0.579213145279 Rises=F Damp=F
 DIIS: error= 9.99D-03 at cycle   3 NSaved=   3.
 NSaved= 3 IEnMin= 3 EnMin= -1713.94481390000     IErMin= 3 ErrMin= 9.99D-03
 ErrMax= 9.99D-03  0.00D+00 EMaxC= 1.00D-01 BMatC= 9.68D-02 BMatP= 1.72D-01
 IDIUse=3 WtCom= 9.00D-01 WtEn= 9.99D-02
 Coeff-Com:  0.105D+00 0.435D+00 0.460D+00
 Coeff-En:   0.000D+00 0.000D+00 0.100D+01
 Coeff:      0.946D-01 0.392D+00 0.514D+00
 Gap=     0.245 Goal=   None    Shift=    0.000
 RMSDP=1.25D-03 MaxDP=3.64D-02 DE=-5.79D-01 OVMax= 8.50D-02

 Cycle   4  Pass 0  IDiag  1:
 RMSU=  7.31D-04    CP:  9.95D-01  7.24D-01  3.98D-01
 E= -1714.02367726243     Delta-E=       -0.078863362429 Rises=F Damp=F
 DIIS: error= 3.05D-03 at cycle   4 NSaved=   4.
 NSaved= 4 IEnMin= 4 EnMin= -1714.02367726243     IErMin= 4 ErrMin= 3.05D-03
 ErrMax= 3.05D-03  0.00D+00 EMaxC= 1.00D-01 BMatC= 1.29D-02 BMatP= 9.68D-02
 IDIUse=3 WtCom= 9.70D-01 WtEn= 3.05D-02
 Coeff-Com:  0.111D-01 0.747D-01 0.279D+00 0.635D+00
 Coeff-En:   0.000D+00 0.000D+00 0.115D+00 0.885D+00
 Coeff:      0.107D-01 0.724D-01 0.274D+00 0.643D+00
 Gap=     0.241 Goal=   None    Shift=    0.000
 RMSDP=3.93D-04 MaxDP=1.42D-02 DE=-7.89D-02 OVMax= 2.50D-02

 Cycle   5  Pass 0  IDiag  1:
 RMSU=  1.72D-04    CP:  9.94D-01  7.11D-01  5.47D-01  6.54D-01
 E= -1714.03451153399     Delta-E=       -0.010834271556 Rises=F Damp=F
 DIIS: error= 8.91D-04 at cycle   5 NSaved=   5.
 NSaved= 5 IEnMin= 5 EnMin= -1714.03451153399     IErMin= 5 ErrMin= 8.91D-04
 ErrMax= 8.91D-04  0.00D+00 EMaxC= 1.00D-01 BMatC= 9.28D-04 BMatP= 1.29D-02
 IDIUse=3 WtCom= 9.91D-01 WtEn= 8.91D-03
 Coeff-Com: -0.509D-03 0.156D-01 0.116D+00 0.343D+00 0.527D+00
 Coeff-En:   0.000D+00 0.000D+00 0.000D+00 0.000D+00 0.100D+01
 Coeff:     -0.505D-03 0.155D-01 0.115D+00 0.340D+00 0.531D+00
 Gap=     0.241 Goal=   None    Shift=    0.000
 RMSDP=1.07D-04 MaxDP=7.19D-03 DE=-1.08D-02 OVMax= 5.13D-03

 Cycle   6  Pass 0  IDiag  1:
 RMSU=  5.42D-05    CP:  9.94D-01  7.14D-01  5.39D-01  7.11D-01  5.33D-01
 E= -1714.03525776941     Delta-E=       -0.000746235417 Rises=F Damp=F
 DIIS: error= 3.47D-04 at cycle   6 NSaved=   6.
 NSaved= 6 IEnMin= 6 EnMin= -1714.03525776941     IErMin= 6 ErrMin= 3.47D-04
 ErrMax= 3.47D-04  0.00D+00 EMaxC= 1.00D-01 BMatC= 1.12D-04 BMatP= 9.28D-04
 IDIUse=3 WtCom= 9.97D-01 WtEn= 3.47D-03
 Coeff-Com: -0.115D-02 0.326D-02 0.440D-01 0.144D+00 0.316D+00 0.494D+00
 Coeff-En:   0.000D+00 0.000D+00 0.000D+00 0.000D+00 0.285D-01 0.972D+00
 Coeff:     -0.114D-02 0.325D-02 0.439D-01 0.143D+00 0.315D+00 0.496D+00
 Gap=     0.240 Goal=   None    Shift=    0.000
 RMSDP=3.42D-05 MaxDP=1.65D-03 DE=-7.46D-04 OVMax= 2.36D-03

 Cycle   7  Pass 0  IDiag  1:
 RMSU=  2.28D-05    CP:  9.94D-01  7.14D-01  5.40D-01  7.11D-01  5.87D-01
                    CP:  5.66D-01
 E= -1714.03533296459     Delta-E=       -0.000075195184 Rises=F Damp=F
 DIIS: error= 1.53D-04 at cycle   7 NSaved=   7.
 NSaved= 7 IEnMin= 7 EnMin= -1714.03533296459     IErMin= 7 ErrMin= 1.53D-04
 ErrMax= 1.53D-04  0.00D+00 EMaxC= 1.00D-01 BMatC= 1.82D-05 BMatP= 1.12D-04
 IDIUse=3 WtCom= 9.98D-01 WtEn= 1.53D-03
 Coeff-Com: -0.704D-03-0.754D-04 0.127D-01 0.463D-01 0.137D+00 0.328D+00
 Coeff-Com:  0.476D+00
 Coeff-En:   0.000D+00 0.000D+00 0.000D+00 0.000D+00 0.000D+00 0.127D+00
 Coeff-En:   0.873D+00
 Coeff:     -0.703D-03-0.753D-04 0.127D-01 0.462D-01 0.137D+00 0.328D+00
 Coeff:      0.477D+00
 Gap=     0.240 Goal=   None    Shift=    0.000
 RMSDP=1.22D-05 MaxDP=5.03D-04 DE=-7.52D-05 OVMax= 7.64D-04

 Cycle   8  Pass 0  IDiag  1:
 RMSU=  5.60D-06    CP:  9.94D-01  7.14D-01  5.41D-01  7.10D-01  5.93D-01
                    CP:  6.30D-01  5.56D-01
 E= -1714.03534756144     Delta-E=       -0.000014596850 Rises=F Damp=F
 DIIS: error= 2.89D-05 at cycle   8 NSaved=   8.
 NSaved= 8 IEnMin= 8 EnMin= -1714.03534756144     IErMin= 8 ErrMin= 2.89D-05
 ErrMax= 2.89D-05  0.00D+00 EMaxC= 1.00D-01 BMatC= 5.85D-07 BMatP= 1.82D-05
 IDIUse=1 WtCom= 1.00D+00 WtEn= 0.00D+00
 Coeff-Com: -0.229D-03-0.307D-03 0.181D-02 0.815D-02 0.367D-01 0.109D+00
 Coeff-Com:  0.221D+00 0.623D+00
 Coeff:     -0.229D-03-0.307D-03 0.181D-02 0.815D-02 0.367D-01 0.109D+00
 Coeff:      0.221D+00 0.623D+00
 Gap=     0.240 Goal=   None    Shift=    0.000
 RMSDP=2.95D-06 MaxDP=1.66D-04 DE=-1.46D-05 OVMax= 1.91D-04

 Initial convergence to 1.0D-05 achieved.  Increase integral accuracy.
 Cycle   9  Pass 1  IDiag  1:
 E= -1714.03550407885     Delta-E=       -0.000156517408 Rises=F Damp=F
 DIIS: error= 1.48D-04 at cycle   1 NSaved=   1.
 NSaved= 1 IEnMin= 1 EnMin= -1714.03550407885     IErMin= 1 ErrMin= 1.48D-04
 ErrMax= 1.48D-04  0.00D+00 EMaxC= 1.00D-01 BMatC= 1.19D-06 BMatP= 1.19D-06
 IDIUse=3 WtCom= 9.99D-01 WtEn= 1.48D-03
 Coeff-Com:  0.100D+01
 Coeff-En:   0.100D+01
 Coeff:      0.100D+01
 Gap=     0.240 Goal=   None    Shift=    0.000
 RMSDP=2.95D-06 MaxDP=1.66D-04 DE=-1.57D-04 OVMax= 2.39D-04

 Cycle  10  Pass 1  IDiag  1:
 RMSU=  4.31D-05    CP:  1.00D+00
 E= -1714.03550489064     Delta-E=       -0.000000811787 Rises=F Damp=F
 DIIS: error= 3.43D-05 at cycle   2 NSaved=   2.
 NSaved= 2 IEnMin= 2 EnMin= -1714.03550489064     IErMin= 2 ErrMin= 3.43D-05
 ErrMax= 3.43D-05  0.00D+00 EMaxC= 1.00D-01 BMatC= 5.53D-07 BMatP= 1.19D-06
 IDIUse=1 WtCom= 1.00D+00 WtEn= 0.00D+00
 Coeff-Com:  0.358D+00 0.642D+00
 Coeff:      0.358D+00 0.642D+00
 Gap=     0.240 Goal=   None    Shift=    0.000
 RMSDP=3.86D-06 MaxDP=1.83D-04 DE=-8.12D-07 OVMax= 3.06D-04

 Cycle  11  Pass 1  IDiag  1:
 RMSU=  3.86D-06    CP:  1.00D+00  1.00D+00
 E= -1714.03550484261     Delta-E=        0.000000048022 Rises=F Damp=F
 DIIS: error= 4.06D-05 at cycle   3 NSaved=   3.
 NSaved= 3 IEnMin= 2 EnMin= -1714.03550489064     IErMin= 2 ErrMin= 3.43D-05
 ErrMax= 4.06D-05  0.00D+00 EMaxC= 1.00D-01 BMatC= 6.31D-07 BMatP= 5.53D-07
 IDIUse=1 WtCom= 1.00D+00 WtEn= 0.00D+00
 Coeff-Com:  0.463D-02 0.515D+00 0.480D+00
 Coeff:      0.463D-02 0.515D+00 0.480D+00
 Gap=     0.240 Goal=   None    Shift=    0.000
 RMSDP=2.04D-06 MaxDP=1.06D-04 DE= 4.80D-08 OVMax= 1.82D-04

 Cycle  12  Pass 1  IDiag  1:
 RMSU=  6.24D-07    CP:  1.00D+00  1.01D+00  5.02D-01
 E= -1714.03550532775     Delta-E=       -0.000000485134 Rises=F Damp=F
 DIIS: error= 4.46D-06 at cycle   4 NSaved=   4.
 NSaved= 4 IEnMin= 4 EnMin= -1714.03550532775     IErMin= 4 ErrMin= 4.46D-06
 ErrMax= 4.46D-06  0.00D+00 EMaxC= 1.00D-01 BMatC= 1.36D-08 BMatP= 5.53D-07
 IDIUse=1 WtCom= 1.00D+00 WtEn= 0.00D+00
 Coeff-Com: -0.639D-02 0.288D+00 0.284D+00 0.434D+00
 Coeff:     -0.639D-02 0.288D+00 0.284D+00 0.434D+00
 Gap=     0.240 Goal=   None    Shift=    0.000
 RMSDP=3.44D-07 MaxDP=1.60D-05 DE=-4.85D-07 OVMax= 1.94D-05

 Cycle  13  Pass 1  IDiag  1:
 RMSU=  1.99D-07    CP:  1.00D+00  1.01D+00  5.07D-01  5.53D-01
 E= -1714.03550533913     Delta-E=       -0.000000011387 Rises=F Damp=F
 DIIS: error= 1.05D-06 at cycle   5 NSaved=   5.
 NSaved= 5 IEnMin= 5 EnMin= -1714.03550533913     IErMin= 5 ErrMin= 1.05D-06
 ErrMax= 1.05D-06  0.00D+00 EMaxC= 1.00D-01 BMatC= 4.86D-10 BMatP= 1.36D-08
 IDIUse=1 WtCom= 1.00D+00 WtEn= 0.00D+00
 Coeff-Com: -0.379D-02 0.143D+00 0.142D+00 0.249D+00 0.470D+00
 Coeff:     -0.379D-02 0.143D+00 0.142D+00 0.249D+00 0.470D+00
 Gap=     0.240 Goal=   None    Shift=    0.000
 RMSDP=7.72D-08 MaxDP=4.44D-06 DE=-1.14D-08 OVMax= 6.40D-06

 Cycle  14  Pass 1  IDiag  1:
 RMSU=  6.67D-08    CP:  1.00D+00  1.01D+00  5.07D-01  5.60D-01  8.08D-01
 E= -1714.03550533948     Delta-E=       -0.000000000345 Rises=F Damp=F
 DIIS: error= 3.08D-07 at cycle   6 NSaved=   6.
 NSaved= 6 IEnMin= 6 EnMin= -1714.03550533948     IErMin= 6 ErrMin= 3.08D-07
 ErrMax= 3.08D-07  0.00D+00 EMaxC= 1.00D-01 BMatC= 5.64D-11 BMatP= 4.86D-10
 IDIUse=1 WtCom= 1.00D+00 WtEn= 0.00D+00
 Coeff-Com: -0.104D-02 0.315D-01 0.314D-01 0.670D-01 0.272D+00 0.600D+00
 Coeff:     -0.104D-02 0.315D-01 0.314D-01 0.670D-01 0.272D+00 0.600D+00
 Gap=     0.240 Goal=   None    Shift=    0.000
 RMSDP=2.63D-08 MaxDP=9.87D-07 DE=-3.45D-10 OVMax= 1.59D-06

 Cycle  15  Pass 1  IDiag  1:
 RMSU=  1.86D-08    CP:  1.00D+00  1.01D+00  5.07D-01  5.66D-01  8.70D-01
                    CP:  8.00D-01
 E= -1714.03550533960     Delta-E=       -0.000000000118 Rises=F Damp=F
 DIIS: error= 9.98D-08 at cycle   7 NSaved=   7.
 NSaved= 7 IEnMin= 7 EnMin= -1714.03550533960     IErMin= 7 ErrMin= 9.98D-08
 ErrMax= 9.98D-08  0.00D+00 EMaxC= 1.00D-01 BMatC= 8.56D-12 BMatP= 5.64D-11
 IDIUse=1 WtCom= 1.00D+00 WtEn= 0.00D+00
 Coeff-Com: -0.110D-03-0.668D-03-0.496D-03 0.621D-02 0.971D-01 0.351D+00
 Coeff-Com:  0.546D+00
 Coeff:     -0.110D-03-0.668D-03-0.496D-03 0.621D-02 0.971D-01 0.351D+00
 Coeff:      0.546D+00
 Gap=     0.240 Goal=   None    Shift=    0.000
 RMSDP=9.69D-09 MaxDP=7.74D-07 DE=-1.18D-10 OVMax= 5.61D-07

 SCF Done:  E(RB3LYP) =  -1714.03550534     A.U. after   15 cycles
            NFock= 15  Conv=0.97D-08     -V/T= 2.0068
 KE= 1.702515504326D+03 PE=-8.344834656663D+03 EE= 2.768520875449D+03
 Leave Link  502 at Fri Oct  2 06:17:19 2020, MaxMem=  2147483648 cpu:       353.2
 (Enter /prod/apps/gaussian/g09d1/l601.exe)
 Copying SCF densities to generalized density rwf, IOpCl= 0 IROHF=0.

 **********************************************************************

            Population analysis using the SCF density.

 **********************************************************************

 Orbital symmetries:
       Occupied  (A) (A) (A) (A) (A) (A) (A) (A) (A) (A) (A) (A)
                 (A) (A) (A) (A) (A) (A) (A) (A) (A) (A) (A) (A)
                 (A) (A) (A) (A) (A) (A) (A) (A) (A) (A) (A) (A)
                 (A) (A) (A) (A) (A) (A) (A) (A) (A) (A) (A) (A)
                 (A) (A) (A) (A) (A) (A) (A) (A) (A) (A) (A) (A)
                 (A) (A) (A) (A) (A) (A) (A) (A) (A) (A) (A) (A)
                 (A) (A) (A) (A) (A) (A) (A) (A) (A) (A) (A) (A)
                 (A) (A) (A) (A)
       Virtual   (A) (A) (A) (A) (A) (A) (A) (A) (A) (A) (A) (A)
                 (A) (A) (A) (A) (A) (A) (A) (A) (A) (A) (A) (A)
                 (A) (A) (A) (A) (A) (A) (A) (A) (A) (A) (A) (A)
                 (A) (A) (A) (A) (A) (A) (A) (A) (A) (A) (A) (A)
                 (A) (A) (A) (A) (A) (A) (A) (A) (A) (A) (A) (A)
                 (A) (A) (A) (A) (A) (A) (A) (A) (A) (A) (A) (A)
                 (A) (A) (A) (A) (A) (A) (A) (A) (A) (A) (A) (A)
                 (A) (A) (A) (A) (A) (A) (A) (A) (A) (A) (A) (A)
                 (A) (A) (A) (A) (A) (A) (A) (A) (A) (A) (A) (A)
                 (A) (A) (A) (A) (A) (A) (A) (A) (A) (A) (A) (A)
                 (A) (A) (A) (A) (A) (A) (A) (A) (A) (A) (A) (A)
                 (A) (A) (A) (A) (A) (A) (A) (A) (A) (A) (A) (A)
                 (A) (A) (A) (A) (A) (A) (A) (A) (A) (A) (A) (A)
                 (A) (A) (A) (A) (A) (A) (A) (A) (A) (A) (A) (A)
                 (A) (A) (A) (A) (A) (A) (A) (A) (A) (A) (A) (A)
                 (A) (A) (A) (A) (A) (A) (A) (A) (A) (A) (A) (A)
                 (A) (A) (A) (A) (A) (A) (A) (A) (A) (A) (A) (A)
                 (A) (A) (A) (A) (A) (A) (A) (A) (A) (A) (A) (A)
                 (A) (A) (A) (A) (A) (A) (A) (A) (A) (A) (A) (A)
                 (A) (A) (A) (A) (A) (A) (A) (A) (A) (A) (A) (A)
                 (A) (A) (A) (A) (A) (A) (A) (A) (A) (A) (A) (A)
                 (A) (A) (A) (A) (A) (A) (A) (A) (A) (A) (A) (A)
                 (A) (A) (A) (A) (A) (A) (A) (A) (A) (A) (A)
 The electronic state is 1-A.
 Alpha  occ. eigenvalues --  -89.14406 -89.09152 -19.15858 -19.15633 -19.14392
 Alpha  occ. eigenvalues --  -19.14354 -14.39191 -14.38921 -10.28758 -10.24172
 Alpha  occ. eigenvalues --  -10.23780 -10.23531 -10.22964 -10.21241 -10.20746
 Alpha  occ. eigenvalues --  -10.20644 -10.19956 -10.19935 -10.19828 -10.19826
 Alpha  occ. eigenvalues --  -10.19784  -8.16600  -8.12179  -6.13087  -6.13032
 Alpha  occ. eigenvalues --   -6.12994  -6.08592  -6.08540  -6.08474  -1.13591
 Alpha  occ. eigenvalues --   -1.09757  -1.01775  -0.99403  -0.96100  -0.95087
 Alpha  occ. eigenvalues --   -0.86809  -0.85864  -0.80370  -0.75323  -0.74915
 Alpha  occ. eigenvalues --   -0.74326  -0.73357  -0.72165  -0.68467  -0.63627
 Alpha  occ. eigenvalues --   -0.61504  -0.60968  -0.59226  -0.57898  -0.56216
 Alpha  occ. eigenvalues --   -0.53980  -0.52135  -0.51605  -0.50411  -0.49902
 Alpha  occ. eigenvalues --   -0.49323  -0.48464  -0.47377  -0.46603  -0.45973
 Alpha  occ. eigenvalues --   -0.45394  -0.44639  -0.44440  -0.43536  -0.43265
 Alpha  occ. eigenvalues --   -0.42879  -0.42622  -0.41780  -0.41416  -0.40350
 Alpha  occ. eigenvalues --   -0.39698  -0.38327  -0.36554  -0.36333  -0.35566
 Alpha  occ. eigenvalues --   -0.35128  -0.34747  -0.34025  -0.33069  -0.32327
 Alpha  occ. eigenvalues --   -0.31785  -0.31221  -0.29928  -0.29627  -0.28936
 Alpha  occ. eigenvalues --   -0.26680  -0.25934  -0.25140
 Alpha virt. eigenvalues --   -0.01090  -0.01033   0.01742   0.03152   0.04528
 Alpha virt. eigenvalues --    0.05165   0.05763   0.06382   0.07284   0.07439
 Alpha virt. eigenvalues --    0.08653   0.08843   0.09573   0.10245   0.10862
 Alpha virt. eigenvalues --    0.11781   0.13350   0.13393   0.13903   0.14239
 Alpha virt. eigenvalues --    0.14622   0.15221   0.15948   0.16063   0.16502
 Alpha virt. eigenvalues --    0.17192   0.17509   0.17824   0.18342   0.18818
 Alpha virt. eigenvalues --    0.19481   0.20006   0.21111   0.22179   0.22349
 Alpha virt. eigenvalues --    0.22846   0.25770   0.27830   0.29019   0.29687
 Alpha virt. eigenvalues --    0.31953   0.32917   0.33345   0.33775   0.35457
 Alpha virt. eigenvalues --    0.35835   0.37635   0.40978   0.43861   0.44610
 Alpha virt. eigenvalues --    0.44948   0.45718   0.46519   0.47850   0.49692
 Alpha virt. eigenvalues --    0.50949   0.51753   0.51858   0.53036   0.53498
 Alpha virt. eigenvalues --    0.54188   0.54857   0.55804   0.56078   0.57208
 Alpha virt. eigenvalues --    0.58242   0.58673   0.59262   0.59348   0.60050
 Alpha virt. eigenvalues --    0.60287   0.61527   0.61687   0.62885   0.63816
 Alpha virt. eigenvalues --    0.65422   0.66422   0.67262   0.68207   0.69053
 Alpha virt. eigenvalues --    0.70043   0.71032   0.72731   0.74369   0.75836
 Alpha virt. eigenvalues --    0.76587   0.77528   0.78646   0.79384   0.80119
 Alpha virt. eigenvalues --    0.80921   0.81965   0.81977   0.82156   0.82771
 Alpha virt. eigenvalues --    0.83043   0.83614   0.84099   0.85136   0.85516
 Alpha virt. eigenvalues --    0.85815   0.86376   0.87177   0.87908   0.88070
 Alpha virt. eigenvalues --    0.89349   0.90201   0.90910   0.91569   0.92542
 Alpha virt. eigenvalues --    0.93007   0.93798   0.94599   0.95192   0.96490
 Alpha virt. eigenvalues --    0.97272   0.98240   0.98752   0.99242   0.99552
 Alpha virt. eigenvalues --    1.00407   1.03430   1.03725   1.05011   1.05780
 Alpha virt. eigenvalues --    1.06995   1.07513   1.08782   1.10000   1.10465
 Alpha virt. eigenvalues --    1.10944   1.11693   1.12887   1.15495   1.16276
 Alpha virt. eigenvalues --    1.16515   1.17474   1.18336   1.20122   1.22887
 Alpha virt. eigenvalues --    1.23034   1.24713   1.25089   1.26452   1.30308
 Alpha virt. eigenvalues --    1.32366   1.33321   1.35034   1.37432   1.39016
 Alpha virt. eigenvalues --    1.40349   1.41974   1.42868   1.44423   1.46753
 Alpha virt. eigenvalues --    1.47501   1.48382   1.49308   1.50456   1.51091
 Alpha virt. eigenvalues --    1.56747   1.57352   1.59145   1.60619   1.64156
 Alpha virt. eigenvalues --    1.67981   1.70131   1.72247   1.72502   1.75811
 Alpha virt. eigenvalues --    1.77441   1.79008   1.79257   1.79641   1.80483
 Alpha virt. eigenvalues --    1.80877   1.81310   1.81590   1.81661   1.82044
 Alpha virt. eigenvalues --    1.83270   1.83897   1.85842   1.86542   1.88256
 Alpha virt. eigenvalues --    1.88997   1.89475   1.91613   1.92396   1.92587
 Alpha virt. eigenvalues --    1.92905   1.94916   1.96459   1.96947   1.97506
 Alpha virt. eigenvalues --    1.99244   2.00299   2.01866   2.03157   2.03438
 Alpha virt. eigenvalues --    2.05125   2.05238   2.06276   2.07316   2.08388
 Alpha virt. eigenvalues --    2.10385   2.11391   2.13041   2.13410   2.13971
 Alpha virt. eigenvalues --    2.14447   2.16973   2.18836   2.19244   2.21446
 Alpha virt. eigenvalues --    2.22195   2.24493   2.25257   2.25872   2.28292
 Alpha virt. eigenvalues --    2.29963   2.30212   2.30608   2.32560   2.33785
 Alpha virt. eigenvalues --    2.35676   2.38733   2.40115   2.40419   2.41318
 Alpha virt. eigenvalues --    2.46652   2.49313   2.51881   2.55118   2.55769
 Alpha virt. eigenvalues --    2.57053   2.59434   2.65347   2.67349   2.69202
 Alpha virt. eigenvalues --    2.70409   2.71663   2.72017   2.73661   2.73892
 Alpha virt. eigenvalues --    2.75799   2.76053   2.77874   2.81728   2.83247
 Alpha virt. eigenvalues --    2.91534   2.93118   3.04087   3.40252   3.76807
 Alpha virt. eigenvalues --    3.80373   3.90570   3.95230   3.98316   4.01149
 Alpha virt. eigenvalues --    4.05406   4.07353   4.08511   4.10669   4.14738
 Alpha virt. eigenvalues --    4.21252   4.22321   4.23780   4.30780   4.32159
 Alpha virt. eigenvalues --    4.34415   4.40551   4.53853   4.69580   4.73863
          Condensed to atoms (all electrons):
               1          2          3          4          5          6
     1  C    4.986862   0.265957  -0.051194  -0.008048   0.001824   0.004433
     2  N    0.265957   7.227154   0.287394   0.137900  -0.055462  -0.056277
     3  C   -0.051194   0.287394   4.988097  -0.023840  -0.003129  -0.002038
     4  S   -0.008048   0.137900  -0.023840  13.561454   0.429077   0.446798
     5  O    0.001824  -0.055462  -0.003129   0.429077   8.249854  -0.043274
     6  O    0.004433  -0.056277  -0.002038   0.446798  -0.043274   8.223452
     7  N   -0.004389  -0.056790   0.002133   0.163168  -0.051965  -0.059957
     8  C   -0.000049   0.004398  -0.000176  -0.004321  -0.003468   0.002463
     9  C   -0.000021  -0.000013   0.000002   0.000080  -0.000126  -0.000091
    10  S    0.000001   0.000036  -0.000001   0.000434   0.000203   0.000007
    11  O    0.000000   0.000000   0.000000  -0.000040   0.000000   0.000000
    12  O    0.000000   0.000000   0.000000  -0.000003   0.000000   0.000000
    13  C    0.000015  -0.001142   0.000013  -0.003502  -0.006050  -0.000079
    14  C    0.000402  -0.009077   0.000171  -0.006872  -0.000362  -0.000101
    15  C   -0.000021   0.000164   0.000001   0.000194  -0.000002   0.000000
    16  C    0.000003   0.000007   0.000000  -0.000020   0.000000   0.000000
    17  C   -0.000002  -0.000016  -0.000001  -0.000004   0.000000   0.000000
    18  C    0.000000   0.000000   0.000000   0.000000   0.000000   0.000000
    19  C    0.000000   0.000000   0.000000   0.000000   0.000000   0.000000
    20  C    0.000000   0.000000   0.000000   0.000000   0.000000   0.000000
    21  C    0.000001   0.000000   0.000000   0.000000   0.000000   0.000000
    22  H    0.374564  -0.034908  -0.004082   0.002405  -0.000052   0.000163
    23  H    0.376805  -0.043464  -0.002244  -0.007541  -0.000043   0.005887
    24  H    0.372584  -0.037038   0.005046   0.002131   0.000005  -0.002429
    25  H   -0.002693  -0.039884   0.375038   0.001485   0.000364  -0.000106
    26  H    0.004571  -0.030608   0.378428  -0.004554   0.011626  -0.000048
    27  H   -0.002509  -0.047383   0.372307  -0.002297  -0.000565   0.001813
    28  H   -0.000175   0.000338  -0.000029  -0.008001   0.001640   0.002789
    29  H    0.000000   0.000001   0.000000  -0.000045   0.000000   0.000000
    30  H    0.000000   0.000004   0.000000   0.000057  -0.000010  -0.000020
    31  H    0.000001  -0.000005   0.000007  -0.000296  -0.000064   0.000000
    32  H   -0.000005  -0.000027  -0.000004  -0.002598   0.016037  -0.000078
    33  H   -0.002401   0.012931  -0.000052   0.001857  -0.000134   0.000006
    34  H   -0.000239   0.000133   0.000001  -0.000543   0.000005  -0.000004
    35  H    0.000000  -0.000005   0.000000   0.000001   0.000000   0.000000
    36  H   -0.000001   0.000015   0.000000  -0.000015  -0.000001   0.000000
    37  H   -0.000001   0.000000   0.000002   0.000000   0.000000   0.000000
    38  H    0.000000   0.000000   0.000000   0.000000   0.000000   0.000000
    39  H    0.000000   0.000000   0.000000   0.000000   0.000000   0.000000
    40  H    0.000000   0.000000   0.000000   0.000000   0.000000   0.000000
    41  H    0.000000   0.000000   0.000000   0.000000   0.000000   0.000000
               7          8          9         10         11         12
     1  C   -0.004389  -0.000049  -0.000021   0.000001   0.000000   0.000000
     2  N   -0.056790   0.004398  -0.000013   0.000036   0.000000   0.000000
     3  C    0.002133  -0.000176   0.000002  -0.000001   0.000000   0.000000
     4  S    0.163168  -0.004321   0.000080   0.000434  -0.000040  -0.000003
     5  O   -0.051965  -0.003468  -0.000126   0.000203   0.000000   0.000000
     6  O   -0.059957   0.002463  -0.000091   0.000007   0.000000   0.000000
     7  N    7.357533   0.207803  -0.046992   0.005582  -0.000292  -0.000033
     8  C    0.207803   4.871133   0.346911  -0.097066   0.001357   0.000723
     9  C   -0.046992   0.346911   5.749076   0.125451  -0.045392  -0.044124
    10  S    0.005582  -0.097066   0.125451  13.861035   0.436581   0.413600
    11  O   -0.000292   0.001357  -0.045392   0.436581   8.197429  -0.044296
    12  O   -0.000033   0.000723  -0.044124   0.413600  -0.044296   8.242804
    13  C   -0.044827   0.358326  -0.196261   0.154270  -0.045596  -0.044763
    14  C   -0.056915   0.358851  -0.049995   0.002340  -0.000062  -0.000594
    15  C    0.003764  -0.029438  -0.004275  -0.001694  -0.000003   0.000562
    16  C   -0.000108   0.004013  -0.000058   0.000366   0.000000   0.000117
    17  C   -0.000003   0.000118  -0.000001  -0.000006   0.000000  -0.000001
    18  C    0.000000   0.000002   0.000000   0.000000   0.000000   0.000000
    19  C    0.000000   0.000000   0.000000   0.000000   0.000000   0.000000
    20  C    0.000000   0.000002   0.000000   0.000000   0.000000   0.000000
    21  C   -0.000002   0.000066  -0.000005  -0.000010   0.000000  -0.000001
    22  H   -0.000169   0.000030  -0.000001   0.000000   0.000000   0.000000
    23  H   -0.000225  -0.000003   0.000001   0.000000   0.000000   0.000000
    24  H    0.006878  -0.000963   0.000013  -0.000002   0.000000   0.000000
    25  H   -0.000075   0.000016   0.000000   0.000000   0.000000   0.000000
    26  H    0.000151  -0.000013   0.000000   0.000002   0.000000   0.000000
    27  H   -0.000110   0.000003   0.000000   0.000000   0.000000   0.000000
    28  H    0.293639  -0.025491  -0.006396  -0.000055   0.000005   0.000001
    29  H    0.002093  -0.028227   0.334445  -0.008559   0.000869  -0.000926
    30  H   -0.001177  -0.025413   0.334156  -0.002375   0.000035   0.000959
    31  H    0.002198  -0.030125   0.009089  -0.012149   0.000927  -0.000528
    32  H   -0.002947  -0.021469   0.005531  -0.003801   0.000479   0.000826
    33  H   -0.004329  -0.030643   0.005143  -0.000173   0.000001   0.000001
    34  H   -0.001157  -0.036624  -0.006775  -0.000098   0.000001   0.000001
    35  H    0.000013  -0.004272   0.002002   0.000795   0.000008   0.002274
    36  H    0.000004  -0.005125  -0.000383   0.000472   0.000004   0.001113
    37  H    0.000001  -0.000054   0.000001   0.000000   0.000000   0.000000
    38  H    0.000000   0.000000   0.000000   0.000000   0.000000   0.000000
    39  H    0.000000   0.000000   0.000000   0.000000   0.000000   0.000000
    40  H    0.000000   0.000000   0.000000   0.000000   0.000000   0.000000
    41  H    0.000000  -0.000043  -0.000017  -0.000002   0.000000   0.000000
              13         14         15         16         17         18
     1  C    0.000015   0.000402  -0.000021   0.000003  -0.000002   0.000000
     2  N   -0.001142  -0.009077   0.000164   0.000007  -0.000016   0.000000
     3  C    0.000013   0.000171   0.000001   0.000000  -0.000001   0.000000
     4  S   -0.003502  -0.006872   0.000194  -0.000020  -0.000004   0.000000
     5  O   -0.006050  -0.000362  -0.000002   0.000000   0.000000   0.000000
     6  O   -0.000079  -0.000101   0.000000   0.000000   0.000000   0.000000
     7  N   -0.044827  -0.056915   0.003764  -0.000108  -0.000003   0.000000
     8  C    0.358326   0.358851  -0.029438   0.004013   0.000118   0.000002
     9  C   -0.196261  -0.049995  -0.004275  -0.000058  -0.000001   0.000000
    10  S    0.154270   0.002340  -0.001694   0.000366  -0.000006   0.000000
    11  O   -0.045596  -0.000062  -0.000003   0.000000   0.000000   0.000000
    12  O   -0.044763  -0.000594   0.000562   0.000117  -0.000001   0.000000
    13  C    5.707364  -0.045941  -0.005973  -0.000057  -0.000006   0.000000
    14  C   -0.045941   5.154476   0.337779  -0.036972  -0.004176  -0.000017
    15  C   -0.005973   0.337779   5.210820   0.334746  -0.058071   0.006712
    16  C   -0.000057  -0.036972   0.334746   4.651013   0.546868  -0.018973
    17  C   -0.000006  -0.004176  -0.058071   0.546868   4.959853   0.524428
    18  C    0.000000  -0.000017   0.006712  -0.018973   0.524428   4.866257
    19  C    0.000000   0.000018   0.000381  -0.034737  -0.035902   0.550357
    20  C    0.000000  -0.000068   0.006902  -0.019461  -0.047377  -0.026141
    21  C   -0.000001  -0.004363  -0.055815   0.548445  -0.036894  -0.047240
    22  H    0.000000   0.000272  -0.000015   0.000008   0.000031   0.000002
    23  H   -0.000001  -0.000035   0.000000   0.000000   0.000000   0.000000
    24  H    0.000033   0.001459   0.000017  -0.000003   0.000000   0.000000
    25  H   -0.000005   0.000085  -0.000004   0.000000   0.000003   0.000000
    26  H    0.000052   0.000019  -0.000001   0.000000   0.000000   0.000000
    27  H   -0.000001  -0.000013   0.000000   0.000000   0.000000   0.000000
    28  H    0.005025  -0.000803  -0.000069   0.000001   0.000000   0.000000
    29  H    0.008429  -0.004785   0.000139  -0.000193   0.000000   0.000000
    30  H    0.005993   0.002819   0.000147   0.000005   0.000000   0.000000
    31  H    0.339299  -0.005288  -0.000046  -0.000141   0.000013   0.000000
    32  H    0.331007   0.002244   0.000166   0.000004   0.000000   0.000000
    33  H   -0.005402   0.364481  -0.033917  -0.002230   0.004324  -0.000126
    34  H    0.005562   0.358257  -0.037347  -0.002043  -0.000075  -0.000016
    35  H   -0.000372  -0.039342   0.361330  -0.029129   0.003725  -0.000195
    36  H    0.002037  -0.040148   0.362302  -0.027989  -0.004094   0.000096
    37  H   -0.000011   0.000165  -0.009197  -0.048096   0.355184  -0.045472
    38  H    0.000000  -0.000001  -0.000185   0.003725  -0.039604   0.356872
    39  H    0.000000   0.000000   0.000006   0.000738   0.004663  -0.042778
    40  H    0.000000  -0.000001  -0.000186   0.003752   0.000873   0.004535
    41  H    0.000001   0.000170  -0.009437  -0.048139   0.006182   0.000365
              19         20         21         22         23         24
     1  C    0.000000   0.000000   0.000001   0.374564   0.376805   0.372584
     2  N    0.000000   0.000000   0.000000  -0.034908  -0.043464  -0.037038
     3  C    0.000000   0.000000   0.000000  -0.004082  -0.002244   0.005046
     4  S    0.000000   0.000000   0.000000   0.002405  -0.007541   0.002131
     5  O    0.000000   0.000000   0.000000  -0.000052  -0.000043   0.000005
     6  O    0.000000   0.000000   0.000000   0.000163   0.005887  -0.002429
     7  N    0.000000   0.000000  -0.000002  -0.000169  -0.000225   0.006878
     8  C    0.000000   0.000002   0.000066   0.000030  -0.000003  -0.000963
     9  C    0.000000   0.000000  -0.000005  -0.000001   0.000001   0.000013
    10  S    0.000000   0.000000  -0.000010   0.000000   0.000000  -0.000002
    11  O    0.000000   0.000000   0.000000   0.000000   0.000000   0.000000
    12  O    0.000000   0.000000  -0.000001   0.000000   0.000000   0.000000
    13  C    0.000000   0.000000  -0.000001   0.000000  -0.000001   0.000033
    14  C    0.000018  -0.000068  -0.004363   0.000272  -0.000035   0.001459
    15  C    0.000381   0.006902  -0.055815  -0.000015   0.000000   0.000017
    16  C   -0.034737  -0.019461   0.548445   0.000008   0.000000  -0.000003
    17  C   -0.035902  -0.047377  -0.036894   0.000031   0.000000   0.000000
    18  C    0.550357  -0.026141  -0.047240   0.000002   0.000000   0.000000
    19  C    4.852174   0.550752  -0.036008   0.000000   0.000000   0.000000
    20  C    0.550752   4.865917   0.523890   0.000000   0.000000   0.000000
    21  C   -0.036008   0.523890   4.957671   0.000000   0.000000  -0.000001
    22  H    0.000000   0.000000   0.000000   0.546029  -0.035255  -0.026109
    23  H    0.000000   0.000000   0.000000  -0.035255   0.551259  -0.032583
    24  H    0.000000   0.000000  -0.000001  -0.026109  -0.032583   0.547923
    25  H    0.000000   0.000000   0.000000   0.005201  -0.001647   0.000069
    26  H    0.000000   0.000000   0.000000   0.000011  -0.000174  -0.000191
    27  H    0.000000   0.000000   0.000000  -0.001418   0.008481  -0.000251
    28  H    0.000000   0.000000   0.000000   0.000012   0.000021   0.001012
    29  H    0.000000   0.000000   0.000022   0.000000   0.000000  -0.000002
    30  H    0.000000   0.000000   0.000000   0.000000   0.000000  -0.000004
    31  H    0.000000   0.000000   0.000000   0.000000   0.000000   0.000000
    32  H    0.000000   0.000000   0.000000   0.000001  -0.000001   0.000000
    33  H   -0.000005  -0.000007   0.000017  -0.000337   0.000270  -0.001015
    34  H   -0.000007  -0.000145   0.003884   0.000007   0.000010   0.001879
    35  H    0.000009   0.000137  -0.003730   0.000000   0.000000   0.000001
    36  H    0.000013  -0.000208   0.003418   0.000000   0.000000   0.000002
    37  H    0.004896   0.000368   0.006120   0.000002   0.000000   0.000000
    38  H   -0.042767   0.004525   0.000874   0.000000   0.000000   0.000000
    39  H    0.359296  -0.042658   0.004673   0.000000   0.000000   0.000000
    40  H   -0.042807   0.356928  -0.039321   0.000000   0.000000   0.000000
    41  H    0.004909  -0.045333   0.354768   0.000000   0.000000   0.000000
              25         26         27         28         29         30
     1  C   -0.002693   0.004571  -0.002509  -0.000175   0.000000   0.000000
     2  N   -0.039884  -0.030608  -0.047383   0.000338   0.000001   0.000004
     3  C    0.375038   0.378428   0.372307  -0.000029   0.000000   0.000000
     4  S    0.001485  -0.004554  -0.002297  -0.008001  -0.000045   0.000057
     5  O    0.000364   0.011626  -0.000565   0.001640   0.000000  -0.000010
     6  O   -0.000106  -0.000048   0.001813   0.002789   0.000000  -0.000020
     7  N   -0.000075   0.000151  -0.000110   0.293639   0.002093  -0.001177
     8  C    0.000016  -0.000013   0.000003  -0.025491  -0.028227  -0.025413
     9  C    0.000000   0.000000   0.000000  -0.006396   0.334445   0.334156
    10  S    0.000000   0.000002   0.000000  -0.000055  -0.008559  -0.002375
    11  O    0.000000   0.000000   0.000000   0.000005   0.000869   0.000035
    12  O    0.000000   0.000000   0.000000   0.000001  -0.000926   0.000959
    13  C   -0.000005   0.000052  -0.000001   0.005025   0.008429   0.005993
    14  C    0.000085   0.000019  -0.000013  -0.000803  -0.004785   0.002819
    15  C   -0.000004  -0.000001   0.000000  -0.000069   0.000139   0.000147
    16  C    0.000000   0.000000   0.000000   0.000001  -0.000193   0.000005
    17  C    0.000003   0.000000   0.000000   0.000000   0.000000   0.000000
    18  C    0.000000   0.000000   0.000000   0.000000   0.000000   0.000000
    19  C    0.000000   0.000000   0.000000   0.000000   0.000000   0.000000
    20  C    0.000000   0.000000   0.000000   0.000000   0.000000   0.000000
    21  C    0.000000   0.000000   0.000000   0.000000   0.000022   0.000000
    22  H    0.005201   0.000011  -0.001418   0.000012   0.000000   0.000000
    23  H   -0.001647  -0.000174   0.008481   0.000021   0.000000   0.000000
    24  H    0.000069  -0.000191  -0.000251   0.001012  -0.000002  -0.000004
    25  H    0.560213  -0.021110  -0.041876  -0.000001   0.000000   0.000000
    26  H   -0.021110   0.484069  -0.029413  -0.000006   0.000000   0.000000
    27  H   -0.041876  -0.029413   0.577777   0.000002   0.000000   0.000000
    28  H   -0.000001  -0.000006   0.000002   0.373747   0.000227   0.001988
    29  H    0.000000   0.000000   0.000000   0.000227   0.503506  -0.020046
    30  H    0.000000   0.000000   0.000000   0.001988  -0.020046   0.484837
    31  H    0.000000   0.000015   0.000000  -0.000098  -0.000278  -0.000245
    32  H    0.000002   0.000046  -0.000002   0.000082  -0.000217  -0.000201
    33  H   -0.000252  -0.000055   0.000062  -0.000436   0.000238  -0.000100
    34  H   -0.000002  -0.000001   0.000000   0.003758   0.002026  -0.000012
    35  H    0.000000   0.000000   0.000000  -0.000008   0.004594   0.000064
    36  H    0.000000   0.000000   0.000000   0.000007   0.000049  -0.000013
    37  H    0.000006   0.000000   0.000000   0.000000   0.000000   0.000000
    38  H    0.000000   0.000000   0.000000   0.000000   0.000000   0.000000
    39  H    0.000000   0.000000   0.000000   0.000000   0.000000   0.000000
    40  H    0.000000   0.000000   0.000000   0.000000   0.000000   0.000000
    41  H    0.000000   0.000000   0.000000   0.000000   0.000127   0.000000
              31         32         33         34         35         36
     1  C    0.000001  -0.000005  -0.002401  -0.000239   0.000000  -0.000001
     2  N   -0.000005  -0.000027   0.012931   0.000133  -0.000005   0.000015
     3  C    0.000007  -0.000004  -0.000052   0.000001   0.000000   0.000000
     4  S   -0.000296  -0.002598   0.001857  -0.000543   0.000001  -0.000015
     5  O   -0.000064   0.016037  -0.000134   0.000005   0.000000  -0.000001
     6  O    0.000000  -0.000078   0.000006  -0.000004   0.000000   0.000000
     7  N    0.002198  -0.002947  -0.004329  -0.001157   0.000013   0.000004
     8  C   -0.030125  -0.021469  -0.030643  -0.036624  -0.004272  -0.005125
     9  C    0.009089   0.005531   0.005143  -0.006775   0.002002  -0.000383
    10  S   -0.012149  -0.003801  -0.000173  -0.000098   0.000795   0.000472
    11  O    0.000927   0.000479   0.000001   0.000001   0.000008   0.000004
    12  O   -0.000528   0.000826   0.000001   0.000001   0.002274   0.001113
    13  C    0.339299   0.331007  -0.005402   0.005562  -0.000372   0.002037
    14  C   -0.005288   0.002244   0.364481   0.358257  -0.039342  -0.040148
    15  C   -0.000046   0.000166  -0.033917  -0.037347   0.361330   0.362302
    16  C   -0.000141   0.000004  -0.002230  -0.002043  -0.029129  -0.027989
    17  C    0.000013   0.000000   0.004324  -0.000075   0.003725  -0.004094
    18  C    0.000000   0.000000  -0.000126  -0.000016  -0.000195   0.000096
    19  C    0.000000   0.000000  -0.000005  -0.000007   0.000009   0.000013
    20  C    0.000000   0.000000  -0.000007  -0.000145   0.000137  -0.000208
    21  C    0.000000   0.000000   0.000017   0.003884  -0.003730   0.003418
    22  H    0.000000   0.000001  -0.000337   0.000007   0.000000   0.000000
    23  H    0.000000  -0.000001   0.000270   0.000010   0.000000   0.000000
    24  H    0.000000   0.000000  -0.001015   0.001879   0.000001   0.000002
    25  H    0.000000   0.000002  -0.000252  -0.000002   0.000000   0.000000
    26  H    0.000015   0.000046  -0.000055  -0.000001   0.000000   0.000000
    27  H    0.000000  -0.000002   0.000062   0.000000   0.000000   0.000000
    28  H   -0.000098   0.000082  -0.000436   0.003758  -0.000008   0.000007
    29  H   -0.000278  -0.000217   0.000238   0.002026   0.004594   0.000049
    30  H   -0.000245  -0.000201  -0.000100  -0.000012   0.000064  -0.000013
    31  H    0.501182  -0.015740   0.001596   0.000174   0.000076   0.005150
    32  H   -0.015740   0.423417   0.000003  -0.000095  -0.000007   0.000044
    33  H    0.001596   0.000003   0.538040  -0.033944   0.004887  -0.004399
    34  H    0.000174  -0.000095  -0.033944   0.607827  -0.004619   0.005764
    35  H    0.000076  -0.000007   0.004887  -0.004619   0.564992  -0.032728
    36  H    0.005150   0.000044  -0.004399   0.005764  -0.032728   0.565457
    37  H    0.000076   0.000000   0.000982   0.000051   0.000067   0.004950
    38  H    0.000000   0.000000   0.000003   0.000000   0.000003  -0.000006
    39  H    0.000000   0.000000   0.000000   0.000000   0.000000   0.000000
    40  H    0.000000   0.000000   0.000000   0.000003  -0.000007   0.000003
    41  H    0.000000   0.000000   0.000033   0.000659   0.005534   0.000071
              37         38         39         40         41
     1  C   -0.000001   0.000000   0.000000   0.000000   0.000000
     2  N    0.000000   0.000000   0.000000   0.000000   0.000000
     3  C    0.000002   0.000000   0.000000   0.000000   0.000000
     4  S    0.000000   0.000000   0.000000   0.000000   0.000000
     5  O    0.000000   0.000000   0.000000   0.000000   0.000000
     6  O    0.000000   0.000000   0.000000   0.000000   0.000000
     7  N    0.000001   0.000000   0.000000   0.000000   0.000000
     8  C   -0.000054   0.000000   0.000000   0.000000  -0.000043
     9  C    0.000001   0.000000   0.000000   0.000000  -0.000017
    10  S    0.000000   0.000000   0.000000   0.000000  -0.000002
    11  O    0.000000   0.000000   0.000000   0.000000   0.000000
    12  O    0.000000   0.000000   0.000000   0.000000   0.000000
    13  C   -0.000011   0.000000   0.000000   0.000000   0.000001
    14  C    0.000165  -0.000001   0.000000  -0.000001   0.000170
    15  C   -0.009197  -0.000185   0.000006  -0.000186  -0.009437
    16  C   -0.048096   0.003725   0.000738   0.003752  -0.048139
    17  C    0.355184  -0.039604   0.004663   0.000873   0.006182
    18  C   -0.045472   0.356872  -0.042778   0.004535   0.000365
    19  C    0.004896  -0.042767   0.359296  -0.042807   0.004909
    20  C    0.000368   0.004525  -0.042658   0.356928  -0.045333
    21  C    0.006120   0.000874   0.004673  -0.039321   0.354768
    22  H    0.000002   0.000000   0.000000   0.000000   0.000000
    23  H    0.000000   0.000000   0.000000   0.000000   0.000000
    24  H    0.000000   0.000000   0.000000   0.000000   0.000000
    25  H    0.000006   0.000000   0.000000   0.000000   0.000000
    26  H    0.000000   0.000000   0.000000   0.000000   0.000000
    27  H    0.000000   0.000000   0.000000   0.000000   0.000000
    28  H    0.000000   0.000000   0.000000   0.000000   0.000000
    29  H    0.000000   0.000000   0.000000   0.000000   0.000127
    30  H    0.000000   0.000000   0.000000   0.000000   0.000000
    31  H    0.000076   0.000000   0.000000   0.000000   0.000000
    32  H    0.000000   0.000000   0.000000   0.000000   0.000000
    33  H    0.000982   0.000003   0.000000   0.000000   0.000033
    34  H    0.000051   0.000000   0.000000   0.000003   0.000659
    35  H    0.000067   0.000003   0.000000  -0.000007   0.005534
    36  H    0.004950  -0.000006   0.000000   0.000003   0.000071
    37  H    0.613222  -0.005675  -0.000184   0.000018  -0.000184
    38  H   -0.005675   0.595756  -0.005472  -0.000189   0.000018
    39  H   -0.000184  -0.005472   0.594957  -0.005497  -0.000184
    40  H    0.000018  -0.000189  -0.005497   0.594702  -0.005688
    41  H   -0.000184   0.000018  -0.000184  -0.005688   0.614496
 Mulliken charges:
               1
     1  C   -0.316274
     2  N   -0.524336
     3  C   -0.321849
     4  S    1.325499
     5  O   -0.545931
     6  O   -0.523313
     7  N   -0.712495
     8  C    0.186770
     9  C   -0.510975
    10  S    1.124818
    11  O   -0.502014
    12  O   -0.527714
    13  C   -0.517437
    14  C   -0.278079
    15  C   -0.380438
    16  C    0.174539
    17  C   -0.180032
    18  C   -0.128666
    19  C   -0.130571
    20  C   -0.128021
    21  C   -0.180457
    22  H    0.173606
    23  H    0.180481
    24  H    0.161538
    25  H    0.165172
    26  H    0.207185
    27  H    0.165392
    28  H    0.357274
    29  H    0.206511
    30  H    0.218550
    31  H    0.205203
    32  H    0.267302
    33  H    0.185080
    34  H    0.133747
    35  H    0.163900
    36  H    0.164140
    37  H    0.122762
    38  H    0.132122
    39  H    0.132439
    40  H    0.132881
    41  H    0.121694
 Sum of Mulliken charges =   0.00000
 Mulliken charges with hydrogens summed into heavy atoms:
               1
     1  C    0.199350
     2  N   -0.524336
     3  C    0.215899
     4  S    1.325499
     5  O   -0.545931
     6  O   -0.523313
     7  N   -0.355222
     8  C    0.186770
     9  C   -0.085913
    10  S    1.124818
    11  O   -0.502014
    12  O   -0.527714
    13  C   -0.044932
    14  C    0.040748
    15  C   -0.052398
    16  C    0.174539
    17  C   -0.057270
    18  C    0.003455
    19  C    0.001868
    20  C    0.004861
    21  C   -0.058764
 Electronic spatial extent (au):  <R**2>=           8241.9989
 Charge=              0.0000 electrons
 Dipole moment (field-independent basis, Debye):
    X=             -5.8257    Y=             -5.4150    Z=             -1.8109  Tot=              8.1573
 Quadrupole moment (field-independent basis, Debye-Ang):
   XX=           -159.2982   YY=           -153.5388   ZZ=           -128.6505
   XY=              0.1753   XZ=              1.6932   YZ=            -11.5638
 Traceless Quadrupole moment (field-independent basis, Debye-Ang):
   XX=            -12.1357   YY=             -6.3763   ZZ=             18.5120
   XY=              0.1753   XZ=              1.6932   YZ=            -11.5638
 Octapole moment (field-independent basis, Debye-Ang**2):
  XXX=            -84.3408  YYY=           -134.5775  ZZZ=             -2.9911  XYY=            -26.2047
  XXY=            -18.0847  XXZ=             -4.6399  XZZ=              8.7240  YZZ=              6.5547
  YYZ=             -8.1513  XYZ=             -3.8821
 Hexadecapole moment (field-independent basis, Debye-Ang**3):
 XXXX=          -6277.0359 YYYY=          -3944.0742 ZZZZ=           -751.7307 XXXY=            153.6465
 XXXZ=             95.0812 YYYX=           -157.7658 YYYZ=           -120.1992 ZZZX=             -1.3845
 ZZZY=             -9.9809 XXYY=          -1837.1633 XXZZ=          -1150.4690 YYZZ=           -721.1981
 XXYZ=            -85.0963 YYXZ=             18.0934 ZZXY=             25.0528
 N-N= 2.159762771549D+03 E-N=-8.344834704609D+03  KE= 1.702515504326D+03
 No NMR shielding tensors so no spin-rotation constants.
 Leave Link  601 at Fri Oct  2 06:17:19 2020, MaxMem=  2147483648 cpu:         0.3
 (Enter /prod/apps/gaussian/g09d1/l9999.exe)
 1\1\GINC-PIRINEUS20\SP\RB3LYP\6-31G(d)\C13H20N2O4S2\UBAFAR01\02-Oct-20
 20\0\\#p b3lyp/6-31G(d)\\SM40.n.7.pdb.xyz\\0,1\C,0,5.93,0.852,-0.837\N
 ,0,5.588,0.309,0.485\C,0,5.761,1.282,1.577\S,0,4.121,-0.535,0.519\O,0,
 3.828,-0.754,1.935\O,0,3.125,0.087,-0.358\N,0,4.412,-2.016,-0.194\C,0,
 5.426,-3.007,0.223\C,0,4.961,-4.395,-0.338\S,0,4.858,-5.074,1.355\O,0,
 3.486,-5.43,1.749\O,0,5.959,-6.01,1.639\C,0,5.297,-3.345,1.75\C,0,6.84
 3,-2.611,-0.231\C,0,7.977,-3.589,0.121\C,0,9.311,-3.102,-0.399\C,0,10.
 096,-2.22,0.355\C,0,11.312,-1.744,-0.135\C,0,11.764,-2.145,-1.393\C,0,
 10.993,-3.026,-2.154\C,0,9.778,-3.499,-1.659\H,0,6.97,1.18,-0.8\H,0,5.
 292,1.697,-1.119\H,0,5.846,0.074,-1.596\H,0,6.813,1.575,1.584\H,0,5.51
 3,0.807,2.524\H,0,5.144,2.179,1.443\H,0,4.258,-1.966,-1.198\H,0,5.686,
 -4.921,-0.959\H,0,3.98,-4.371,-0.812\H,0,6.218,-3.272,2.328\H,0,4.48,-
 2.824,2.246\H,0,7.061,-1.629,0.196\H,0,6.814,-2.483,-1.319\H,0,7.765,-
 4.581,-0.292\H,0,8.035,-3.713,1.207\H,0,9.753,-1.91,1.338\H,0,11.907,-
 1.065,0.468\H,0,12.712,-1.779,-1.776\H,0,11.34,-3.349,-3.13\H,0,9.186,
 -4.189,-2.253\\Version=AM64L-G09RevD.01\State=1-A\HF=-1714.0355053\RMS
 D=9.694e-09\Dipole=2.1191983,1.7788191,-1.6261832\Quadrupole=-7.470887
 7,-2.4001275,9.8710152,3.6081969,5.293003,10.0811701\PG=C01 [X(C13H20N
 2O4S2)]\\@


 DIATOMIC MOLECULES ARE PECULIAR BECAUSE THEY ONLY HAVE TWO ENDS,
 AND THESE ENDS ARE VERY CLOSE TOGETHER.
 KLAUS RUEDENBERG, REV.MOD.PHYS. PG 176, 32, (1960)
 Job cpu time:       0 days  0 hours  5 minutes 59.8 seconds.
 File lengths (MBytes):  RWF=     73 Int=      0 D2E=      0 Chk=      6 Scr=      1
 Normal termination of Gaussian 09 at Fri Oct  2 06:17:19 2020.
 Initial command:
 /prod/apps/gaussian/g09d1/l1.exe "/tmp/ubafar01/1462952/Gau-37072.inp" -scrdir="/tmp/ubafar01/1462952/"
 Entering Link 1 = /prod/apps/gaussian/g09d1/l1.exe PID=     38211.
  
 Copyright (c) 1988,1990,1992,1993,1995,1998,2003,2009,2013,
            Gaussian, Inc.  All Rights Reserved.
  
 This is part of the Gaussian(R) 09 program.  It is based on
 the Gaussian(R) 03 system (copyright 2003, Gaussian, Inc.),
 the Gaussian(R) 98 system (copyright 1998, Gaussian, Inc.),
 the Gaussian(R) 94 system (copyright 1995, Gaussian, Inc.),
[...]
     9  C   -0.190540  -0.049130  -0.004385  -0.000069  -0.000002   0.000000
    10  S    0.155164   0.002789  -0.001593   0.000325  -0.000006   0.000000
    11  O   -0.046130  -0.000063  -0.000004   0.000000   0.000000   0.000000
    12  O   -0.044770  -0.000567   0.000499   0.000111  -0.000001   0.000000
    13  C    5.707560  -0.046183  -0.005959  -0.000054  -0.000005   0.000000
    14  C   -0.046183   5.147695   0.337955  -0.037203  -0.004162  -0.000018
    15  C   -0.005959   0.337955   5.211610   0.338559  -0.058710   0.006723
    16  C   -0.000054  -0.037203   0.338559   4.653594   0.546092  -0.019962
    17  C   -0.000005  -0.004162  -0.058710   0.546092   4.966201   0.523384
    18  C    0.000000  -0.000018   0.006723  -0.019962   0.523384   4.876712
    19  C    0.000000   0.000017   0.000359  -0.034525  -0.036952   0.548397
    20  C    0.000000  -0.000070   0.006913  -0.020632  -0.047343  -0.027246
    21  C   -0.000001  -0.004201  -0.056549   0.548081  -0.036940  -0.047187
    22  H    0.000000   0.000250  -0.000015   0.000008   0.000030   0.000002
    23  H   -0.000001  -0.000034   0.000000   0.000000   0.000000   0.000000
    24  H    0.000030   0.001494   0.000017  -0.000003   0.000000   0.000000
    25  H   -0.000005   0.000081  -0.000004   0.000000   0.000003   0.000000
    26  H    0.000050   0.000020  -0.000001   0.000000   0.000000   0.000000
    27  H   -0.000001  -0.000013   0.000000   0.000000   0.000000   0.000000
    28  H    0.004585  -0.000595  -0.000059   0.000001   0.000000   0.000000
    29  H    0.008187  -0.004493   0.000118  -0.000168   0.000000   0.000000
    30  H    0.005967   0.002690   0.000142   0.000005   0.000000   0.000000
    31  H    0.341506  -0.005039   0.000125  -0.000139   0.000012   0.000000
    32  H    0.330117   0.002279   0.000167   0.000004   0.000000   0.000000
    33  H   -0.005433   0.365248  -0.034084  -0.002157   0.004237  -0.000122
    34  H    0.005391   0.363922  -0.036735  -0.001929  -0.000070  -0.000015
    35  H   -0.000410  -0.038918   0.360152  -0.028502   0.003777  -0.000195
    36  H    0.002228  -0.039565   0.361041  -0.027431  -0.004075   0.000095
    37  H   -0.000011   0.000170  -0.009065  -0.047557   0.357472  -0.044348
    38  H    0.000000  -0.000001  -0.000182   0.003667  -0.038887   0.358694
    39  H    0.000000   0.000000   0.000006   0.000699   0.004631  -0.042380
    40  H    0.000000  -0.000001  -0.000183   0.003697   0.000834   0.004486
    41  H    0.000000   0.000192  -0.009366  -0.047121   0.006062   0.000331
              19         20         21         22         23         24
     1  C    0.000000   0.000000   0.000001   0.376598   0.377387   0.373740
     2  N    0.000000   0.000000   0.000000  -0.034039  -0.043624  -0.036651
     3  C    0.000000   0.000000   0.000000  -0.004041  -0.002265   0.004888
     4  S    0.000000   0.000000   0.000000   0.002354  -0.008187   0.002625
     5  O    0.000000   0.000000   0.000000  -0.000051  -0.000044   0.000006
     6  O    0.000000   0.000000   0.000000   0.000152   0.005887  -0.002419
     7  N    0.000000   0.000000  -0.000002  -0.000163  -0.000232   0.006486
     8  C    0.000000   0.000002   0.000066   0.000031   0.000000  -0.000947
     9  C    0.000000   0.000000  -0.000005  -0.000001   0.000001   0.000012
    10  S    0.000000   0.000000  -0.000009   0.000000   0.000000  -0.000002
    11  O    0.000000   0.000000   0.000000   0.000000   0.000000   0.000000
    12  O    0.000000   0.000000  -0.000001   0.000000   0.000000   0.000000
    13  C    0.000000   0.000000  -0.000001   0.000000  -0.000001   0.000030
    14  C    0.000017  -0.000070  -0.004201   0.000250  -0.000034   0.001494
    15  C    0.000359   0.006913  -0.056549  -0.000015   0.000000   0.000017
    16  C   -0.034525  -0.020632   0.548081   0.000008   0.000000  -0.000003
    17  C   -0.036952  -0.047343  -0.036940   0.000030   0.000000   0.000000
    18  C    0.548397  -0.027246  -0.047187   0.000002   0.000000   0.000000
    19  C    4.866147   0.548557  -0.037134   0.000000   0.000000   0.000000
    20  C    0.548557   4.878873   0.522696   0.000000   0.000000   0.000000
    21  C   -0.037134   0.522696   4.964915   0.000000   0.000000  -0.000001
    22  H    0.000000   0.000000   0.000000   0.530529  -0.033659  -0.024989
    23  H    0.000000   0.000000   0.000000  -0.033659   0.549885  -0.031902
    24  H    0.000000   0.000000  -0.000001  -0.024989  -0.031902   0.532413
    25  H    0.000000   0.000000   0.000000   0.004955  -0.001574   0.000064
    26  H    0.000000   0.000000   0.000000   0.000019  -0.000169  -0.000190
    27  H    0.000000   0.000000   0.000000  -0.001357   0.008250  -0.000234
    28  H    0.000000   0.000000   0.000000   0.000009   0.000023   0.000849
    29  H    0.000000   0.000000   0.000020   0.000000   0.000000  -0.000001
    30  H    0.000000   0.000000   0.000000   0.000000   0.000000  -0.000004
    31  H    0.000000   0.000000   0.000000   0.000000   0.000000   0.000000
    32  H    0.000000   0.000000   0.000000   0.000001  -0.000001   0.000000
    33  H   -0.000005  -0.000006   0.000003  -0.000306   0.000260  -0.000980
    34  H   -0.000007  -0.000134   0.003733   0.000006   0.000009   0.001693
    35  H    0.000010   0.000130  -0.003798   0.000000   0.000000   0.000001
    36  H    0.000013  -0.000207   0.003458   0.000000   0.000000   0.000002
    37  H    0.004827   0.000336   0.006003   0.000002   0.000000   0.000000
    38  H   -0.042431   0.004475   0.000833   0.000000   0.000000   0.000000
    39  H    0.360960  -0.042392   0.004639   0.000000   0.000000   0.000000
    40  H   -0.042518   0.358694  -0.038806   0.000000   0.000000   0.000000
    41  H    0.004830  -0.044399   0.357151   0.000000   0.000000   0.000000
              25         26         27         28         29         30
     1  C   -0.002560   0.004527  -0.002296  -0.000147   0.000000   0.000000
     2  N   -0.038535  -0.031145  -0.047273   0.000250   0.000001   0.000004
     3  C    0.377791   0.377963   0.372736  -0.000024   0.000000   0.000000
     4  S    0.001508  -0.004826  -0.002554  -0.007401  -0.000040   0.000113
     5  O    0.000344   0.011107  -0.000549   0.001456   0.000000  -0.000010
     6  O   -0.000104  -0.000048   0.001789   0.002307   0.000000  -0.000020
     7  N   -0.000077   0.000152  -0.000109   0.295664   0.001994  -0.000901
     8  C    0.000015  -0.000017   0.000003  -0.022984  -0.027765  -0.025196
     9  C    0.000000   0.000000   0.000000  -0.006179   0.338609   0.336059
    10  S    0.000000   0.000002   0.000000  -0.000102  -0.009776  -0.003340
    11  O    0.000000   0.000000   0.000000   0.000004   0.000856  -0.000007
    12  O    0.000000   0.000000   0.000000   0.000001  -0.000985   0.000958
    13  C   -0.000005   0.000050  -0.000001   0.004585   0.008187   0.005967
    14  C    0.000081   0.000020  -0.000013  -0.000595  -0.004493   0.002690
    15  C   -0.000004  -0.000001   0.000000  -0.000059   0.000118   0.000142
    16  C    0.000000   0.000000   0.000000   0.000001  -0.000168   0.000005
    17  C    0.000003   0.000000   0.000000   0.000000   0.000000   0.000000
    18  C    0.000000   0.000000   0.000000   0.000000   0.000000   0.000000
    19  C    0.000000   0.000000   0.000000   0.000000   0.000000   0.000000
    20  C    0.000000   0.000000   0.000000   0.000000   0.000000   0.000000
    21  C    0.000000   0.000000   0.000000   0.000000   0.000020   0.000000
    22  H    0.004955   0.000019  -0.001357   0.000009   0.000000   0.000000
    23  H   -0.001574  -0.000169   0.008250   0.000023   0.000000   0.000000
    24  H    0.000064  -0.000190  -0.000234   0.000849  -0.000001  -0.000004
    25  H    0.540327  -0.020578  -0.039747  -0.000001   0.000000   0.000000
    26  H   -0.020578   0.491160  -0.030123  -0.000006   0.000000   0.000000
    27  H   -0.039747  -0.030123   0.573594   0.000002   0.000000   0.000000
    28  H   -0.000001  -0.000006   0.000002   0.340406   0.000203   0.001733
    29  H    0.000000   0.000000   0.000000   0.000203   0.481457  -0.017082
    30  H    0.000000   0.000000   0.000000   0.001733  -0.017082   0.469651
    31  H    0.000000   0.000014   0.000000  -0.000084  -0.000266  -0.000229
    32  H    0.000002   0.000047  -0.000002   0.000087  -0.000210  -0.000215
    33  H   -0.000237  -0.000056   0.000060  -0.000395   0.000223  -0.000093
    34  H   -0.000002  -0.000001   0.000000   0.003198   0.001874  -0.000013
    35  H    0.000000   0.000000   0.000000  -0.000007   0.004605   0.000066
    36  H    0.000000   0.000000   0.000000   0.000006   0.000046  -0.000013
    37  H    0.000006   0.000000   0.000000   0.000000   0.000000   0.000000
    38  H    0.000000   0.000000   0.000000   0.000000   0.000000   0.000000
    39  H    0.000000   0.000000   0.000000   0.000000   0.000000   0.000000
    40  H    0.000000   0.000000   0.000000   0.000000   0.000000   0.000000
    41  H    0.000000   0.000000   0.000000   0.000000   0.000115   0.000000
              31         32         33         34         35         36
     1  C    0.000001  -0.000005  -0.002464  -0.000167   0.000000   0.000000
     2  N   -0.000006  -0.000037   0.012536   0.000123  -0.000005   0.000016
     3  C    0.000007  -0.000004  -0.000075   0.000000   0.000000   0.000000
     4  S   -0.000278  -0.002362   0.001844  -0.000510   0.000001  -0.000015
     5  O   -0.000069   0.016504  -0.000134   0.000005   0.000000  -0.000001
     6  O    0.000000  -0.000080   0.000007  -0.000003   0.000000   0.000000
     7  N    0.002145  -0.003115  -0.004403  -0.001161   0.000009  -0.000001
     8  C   -0.029200  -0.022199  -0.030768  -0.035079  -0.004450  -0.005267
     9  C    0.008575   0.005583   0.005088  -0.006639   0.002225  -0.000407
    10  S   -0.011797  -0.003737  -0.000168  -0.000111   0.000827   0.000487
    11  O    0.000900   0.000491   0.000001   0.000001   0.000008   0.000004
    12  O   -0.000666   0.000849   0.000001   0.000001   0.002144   0.001059
    13  C    0.341506   0.330117  -0.005433   0.005391  -0.000410   0.002228
    14  C   -0.005039   0.002279   0.365248   0.363922  -0.038918  -0.039565
    15  C    0.000125   0.000167  -0.034084  -0.036735   0.360152   0.361041
    16  C   -0.000139   0.000004  -0.002157  -0.001929  -0.028502  -0.027431
    17  C    0.000012   0.000000   0.004237  -0.000070   0.003777  -0.004075
    18  C    0.000000   0.000000  -0.000122  -0.000015  -0.000195   0.000095
    19  C    0.000000   0.000000  -0.000005  -0.000007   0.000010   0.000013
    20  C    0.000000   0.000000  -0.000006  -0.000134   0.000130  -0.000207
    21  C    0.000000   0.000000   0.000003   0.003733  -0.003798   0.003458
    22  H    0.000000   0.000001  -0.000306   0.000006   0.000000   0.000000
    23  H    0.000000  -0.000001   0.000260   0.000009   0.000000   0.000000
    24  H    0.000000   0.000000  -0.000980   0.001693   0.000001   0.000002
    25  H    0.000000   0.000002  -0.000237  -0.000002   0.000000   0.000000
    26  H    0.000014   0.000047  -0.000056  -0.000001   0.000000   0.000000
    27  H    0.000000  -0.000002   0.000060   0.000000   0.000000   0.000000
    28  H   -0.000084   0.000087  -0.000395   0.003198  -0.000007   0.000006
    29  H   -0.000266  -0.000210   0.000223   0.001874   0.004605   0.000046
    30  H   -0.000229  -0.000215  -0.000093  -0.000013   0.000066  -0.000013
    31  H    0.482428  -0.014735   0.001544   0.000164   0.000063   0.005115
    32  H   -0.014735   0.431319  -0.000003  -0.000091  -0.000008   0.000049
    33  H    0.001544  -0.000003   0.534302  -0.032565   0.004885  -0.004455
    34  H    0.000164  -0.000091  -0.032565   0.579744  -0.004580   0.005559
    35  H    0.000063  -0.000008   0.004885  -0.004580   0.568347  -0.033965
    36  H    0.005115   0.000049  -0.004455   0.005559  -0.033965   0.567999
    37  H    0.000070   0.000000   0.000954   0.000046   0.000070   0.004783
    38  H    0.000000   0.000000   0.000003   0.000000   0.000003  -0.000006
    39  H    0.000000   0.000000   0.000000   0.000000   0.000000   0.000000
    40  H    0.000000   0.000000   0.000000   0.000003  -0.000007   0.000003
    41  H    0.000000   0.000000   0.000029   0.000615   0.005370   0.000074
              37         38         39         40         41
     1  C   -0.000001   0.000000   0.000000   0.000000   0.000000
     2  N    0.000000   0.000000   0.000000   0.000000   0.000000
     3  C    0.000002   0.000000   0.000000   0.000000   0.000000
     4  S    0.000001   0.000000   0.000000   0.000000   0.000000
     5  O    0.000000   0.000000   0.000000   0.000000   0.000000
     6  O    0.000000   0.000000   0.000000   0.000000   0.000000
     7  N    0.000001   0.000000   0.000000   0.000000   0.000000
     8  C   -0.000053   0.000000   0.000000   0.000000  -0.000042
     9  C    0.000000   0.000000   0.000000   0.000000  -0.000016
    10  S    0.000000   0.000000   0.000000   0.000000  -0.000002
    11  O    0.000000   0.000000   0.000000   0.000000   0.000000
    12  O    0.000000   0.000000   0.000000   0.000000   0.000000
    13  C   -0.000011   0.000000   0.000000   0.000000   0.000000
    14  C    0.000170  -0.000001   0.000000  -0.000001   0.000192
    15  C   -0.009065  -0.000182   0.000006  -0.000183  -0.009366
    16  C   -0.047557   0.003667   0.000699   0.003697  -0.047121
    17  C    0.357472  -0.038887   0.004631   0.000834   0.006062
    18  C   -0.044348   0.358694  -0.042380   0.004486   0.000331
    19  C    0.004827  -0.042431   0.360960  -0.042518   0.004830
    20  C    0.000336   0.004475  -0.042392   0.358694  -0.044399
    21  C    0.006003   0.000833   0.004639  -0.038806   0.357151
    22  H    0.000002   0.000000   0.000000   0.000000   0.000000
    23  H    0.000000   0.000000   0.000000   0.000000   0.000000
    24  H    0.000000   0.000000   0.000000   0.000000   0.000000
    25  H    0.000006   0.000000   0.000000   0.000000   0.000000
    26  H    0.000000   0.000000   0.000000   0.000000   0.000000
    27  H    0.000000   0.000000   0.000000   0.000000   0.000000
    28  H    0.000000   0.000000   0.000000   0.000000   0.000000
    29  H    0.000000   0.000000   0.000000   0.000000   0.000115
    30  H    0.000000   0.000000   0.000000   0.000000   0.000000
    31  H    0.000070   0.000000   0.000000   0.000000   0.000000
    32  H    0.000000   0.000000   0.000000   0.000000   0.000000
    33  H    0.000954   0.000003   0.000000   0.000000   0.000029
    34  H    0.000046   0.000000   0.000000   0.000003   0.000615
    35  H    0.000070   0.000003   0.000000  -0.000007   0.005370
    36  H    0.004783  -0.000006   0.000000   0.000003   0.000074
    37  H    0.598877  -0.005476  -0.000177   0.000018  -0.000176
    38  H   -0.005476   0.583815  -0.005312  -0.000182   0.000017
    39  H   -0.000177  -0.005312   0.584625  -0.005344  -0.000176
    40  H    0.000018  -0.000182  -0.005344   0.583720  -0.005477
    41  H   -0.000176   0.000017  -0.000176  -0.005477   0.598923
 Mulliken charges:
               1
     1  C   -0.323730
     2  N   -0.524684
     3  C   -0.323547
     4  S    1.318009
     5  O   -0.560064
     6  O   -0.540848
     7  N   -0.723784
     8  C    0.186969
     9  C   -0.505740
    10  S    1.115546
    11  O   -0.529561
    12  O   -0.546338
    13  C   -0.517023
    14  C   -0.282744
    15  C   -0.382409
    16  C    0.168785
    17  C   -0.185672
    18  C   -0.137353
    19  C   -0.140543
    20  C   -0.138245
    21  C   -0.186963
    22  H    0.183677
    23  H    0.179989
    24  H    0.174004
    25  H    0.178329
    26  H    0.202096
    27  H    0.167821
    28  H    0.387199
    29  H    0.222476
    30  H    0.229735
    31  H    0.219837
    32  H    0.259303
    33  H    0.187683
    34  H    0.153725
    35  H    0.162151
    36  H    0.163372
    37  H    0.133225
    38  H    0.140970
    39  H    0.140221
    40  H    0.141064
    41  H    0.133063
 Sum of Mulliken charges =   0.00000
 Mulliken charges with hydrogens summed into heavy atoms:
               1
     1  C    0.213941
     2  N   -0.524684
     3  C    0.224699
     4  S    1.318009
     5  O   -0.560064
     6  O   -0.540848
     7  N   -0.336585
     8  C    0.186969
     9  C   -0.053529
    10  S    1.115546
    11  O   -0.529561
    12  O   -0.546338
    13  C   -0.037882
    14  C    0.058664
    15  C   -0.056886
    16  C    0.168785
    17  C   -0.052447
    18  C    0.003616
    19  C   -0.000323
    20  C    0.002819
    21  C   -0.053900
 Electronic spatial extent (au):  <R**2>=           8244.7962
 Charge=              0.0000 electrons
 Dipole moment (field-independent basis, Debye):
    X=             -6.7539    Y=             -6.2367    Z=             -2.3839  Tot=              9.4971
 Quadrupole moment (field-independent basis, Debye-Ang):
   XX=           -162.7073   YY=           -155.3175   ZZ=           -127.2250
   XY=              0.1640   XZ=              1.4201   YZ=            -12.7388
 Traceless Quadrupole moment (field-independent basis, Debye-Ang):
   XX=            -14.2907   YY=             -6.9009   ZZ=             21.1916
   XY=              0.1640   XZ=              1.4201   YZ=            -12.7388
 Octapole moment (field-independent basis, Debye-Ang**2):
  XXX=            -97.6413  YYY=           -152.0686  ZZZ=             -5.5466  XYY=            -34.7718
  XXY=            -20.6679  XXZ=             -6.4576  XZZ=              7.1814  YZZ=              6.2363
  YYZ=            -10.0722  XYZ=             -4.5277
 Hexadecapole moment (field-independent basis, Debye-Ang**3):
 XXXX=          -6314.8083 YYYY=          -3976.1923 ZZZZ=           -741.8449 XXXY=            164.4617
 XXXZ=             99.1341 YYYX=           -173.9549 YYYZ=           -135.4783 ZZZX=             -3.2407
 ZZZY=            -14.3004 XXYY=          -1859.9220 XXZZ=          -1147.5093 YYZZ=           -717.5024
 XXYZ=            -91.8866 YYXZ=             16.9894 ZZXY=             27.1697
 N-N= 2.159747334529D+03 E-N=-8.344912269173D+03  KE= 1.702527288941D+03
 No NMR shielding tensors so no spin-rotation constants.
 Leave Link  601 at Fri Oct  2 06:22:08 2020, MaxMem=  2147483648 cpu:         0.3
 (Enter /prod/apps/gaussian/g09d1/l9999.exe)
 1\1\GINC-PIRINEUS20\SP\RB3LYP\6-31G(d)\C13H20N2O4S2\UBAFAR01\02-Oct-20
 20\0\\#p b3lyp/6-31G(d) scrf=(iefpcm,read,solvent=n-Octanol) geom=allc
 heck guess=read\\SM40.n.7.pdb.xyz\\0,1\C,0,5.93,0.852,-0.837\N,0,5.588
 ,0.309,0.485\C,0,5.761,1.282,1.577\S,0,4.121,-0.535,0.519\O,0,3.828,-0
 .754,1.935\O,0,3.125,0.087,-0.358\N,0,4.412,-2.016,-0.194\C,0,5.426,-3
 .007,0.223\C,0,4.961,-4.395,-0.338\S,0,4.858,-5.074,1.355\O,0,3.486,-5
 .43,1.749\O,0,5.959,-6.01,1.639\C,0,5.297,-3.345,1.75\C,0,6.843,-2.611
 ,-0.231\C,0,7.977,-3.589,0.121\C,0,9.311,-3.102,-0.399\C,0,10.096,-2.2
 2,0.355\C,0,11.312,-1.744,-0.135\C,0,11.764,-2.145,-1.393\C,0,10.993,-
 3.026,-2.154\C,0,9.778,-3.499,-1.659\H,0,6.97,1.18,-0.8\H,0,5.292,1.69
 7,-1.119\H,0,5.846,0.074,-1.596\H,0,6.813,1.575,1.584\H,0,5.513,0.807,
 2.524\H,0,5.144,2.179,1.443\H,0,4.258,-1.966,-1.198\H,0,5.686,-4.921,-
 0.959\H,0,3.98,-4.371,-0.812\H,0,6.218,-3.272,2.328\H,0,4.48,-2.824,2.
 246\H,0,7.061,-1.629,0.196\H,0,6.814,-2.483,-1.319\H,0,7.765,-4.581,-0
 .292\H,0,8.035,-3.713,1.207\H,0,9.753,-1.91,1.338\H,0,11.907,-1.065,0.
 468\H,0,12.712,-1.779,-1.776\H,0,11.34,-3.349,-3.13\H,0,9.186,-4.189,-
 2.253\\Version=AM64L-G09RevD.01\State=1-A\HF=-1714.066493\RMSD=4.551e-
 09\Dipole=2.4235088,2.0324787,-1.9891675\Quadrupole=-8.6258477,-2.5569
 292,11.1827769,4.0780765,6.4512375,11.1041964\PG=C01 [X(C13H20N2O4S2)]
 \\@


 WORK FAITHFULLY FOR EIGHT HOURS A DAY AND DON'T WORRY.
 IN TIME YOU MAY BECOME BOSS AND WORK TWELVE HOURS A DAY
 AND HAVE ALL THE WORRY.
 Job cpu time:       0 days  0 hours  4 minutes 49.0 seconds.
 File lengths (MBytes):  RWF=    230 Int=      0 D2E=      0 Chk=      7 Scr=      1
 Normal termination of Gaussian 09 at Fri Oct  2 06:22:08 2020.
