 Entering Gaussian System, Link 0=g09
 Initial command:
 /prod/apps/gaussian/g09d1/l1.exe "/tmp/ubafar01/1462950/Gau-2841.inp" -scrdir="/tmp/ubafar01/1462950/"
 Entering Link 1 = /prod/apps/gaussian/g09d1/l1.exe PID=      2846.
  
 Copyright (c) 1988,1990,1992,1993,1995,1998,2003,2009,2013,
            Gaussian, Inc.  All Rights Reserved.
  
 This is part of the Gaussian(R) 09 program.  It is based on
 the Gaussian(R) 03 system (copyright 2003, Gaussian, Inc.),
 the Gaussian(R) 98 system (copyright 1998, Gaussian, Inc.),
 the Gaussian(R) 94 system (copyright 1995, Gaussian, Inc.),
 the Gaussian 92(TM) system (copyright 1992, Gaussian, Inc.),
 the Gaussian 90(TM) system (copyright 1990, Gaussian, Inc.),
 the Gaussian 88(TM) system (copyright 1988, Gaussian, Inc.),
 the Gaussian 86(TM) system (copyright 1986, Carnegie Mellon
 University), and the Gaussian 82(TM) system (copyright 1983,
 Carnegie Mellon University). Gaussian is a federally registered
 trademark of Gaussian, Inc.
  
 This software contains proprietary and confidential information,
 including trade secrets, belonging to Gaussian, Inc.
  
 This software is provided under written license and may be
 used, copied, transmitted, or stored only in accord with that
 written license.
  
 The following legend is applicable only to US Government
 contracts under FAR:
  
                    RESTRICTED RIGHTS LEGEND
  
 Use, reproduction and disclosure by the US Government is
 subject to restrictions as set forth in subparagraphs (a)
 and (c) of the Commercial Computer Software - Restricted
 Rights clause in FAR 52.227-19.
  
 Gaussian, Inc.
 340 Quinnipiac St., Bldg. 40, Wallingford CT 06492
  
  
 ---------------------------------------------------------------
 Warning -- This program may not be used in any manner that
 competes with the business of Gaussian, Inc. or will provide
 assistance to any competitor of Gaussian, Inc.  The licensee
 of this program is prohibited from giving any competitor of
 Gaussian, Inc. access to this program.  By using this program,
 the user acknowledges that Gaussian, Inc. is engaged in the
 business of creating and licensing software in the field of
 computational chemistry and represents and warrants to the
 licensee that it is not a competitor of Gaussian, Inc. and that
 it will not use this program in any manner prohibited above.
 ---------------------------------------------------------------
  

 Cite this work as:
 Gaussian 09, Revision D.01,
 M. J. Frisch, G. W. Trucks, H. B. Schlegel, G. E. Scuseria, 
 M. A. Robb, J. R. Cheeseman, G. Scalmani, V. Barone, B. Mennucci, 
 G. A. Petersson, H. Nakatsuji, M. Caricato, X. Li, H. P. Hratchian, 
 A. F. Izmaylov, J. Bloino, G. Zheng, J. L. Sonnenberg, M. Hada, 
 M. Ehara, K. Toyota, R. Fukuda, J. Hasegawa, M. Ishida, T. Nakajima, 
 Y. Honda, O. Kitao, H. Nakai, T. Vreven, J. A. Montgomery, Jr., 
 J. E. Peralta, F. Ogliaro, M. Bearpark, J. J. Heyd, E. Brothers, 
 K. N. Kudin, V. N. Staroverov, T. Keith, R. Kobayashi, J. Normand, 
 K. Raghavachari, A. Rendell, J. C. Burant, S. S. Iyengar, J. Tomasi, 
 M. Cossi, N. Rega, J. M. Millam, M. Klene, J. E. Knox, J. B. Cross, 
 V. Bakken, C. Adamo, J. Jaramillo, R. Gomperts, R. E. Stratmann, 
 O. Yazyev, A. J. Austin, R. Cammi, C. Pomelli, J. W. Ochterski, 
 R. L. Martin, K. Morokuma, V. G. Zakrzewski, G. A. Voth, 
 P. Salvador, J. J. Dannenberg, S. Dapprich, A. D. Daniels, 
 O. Farkas, J. B. Foresman, J. V. Ortiz, J. Cioslowski, 
 and D. J. Fox, Gaussian, Inc., Wallingford CT, 2013.
 
 ******************************************
 Gaussian 09:  AM64L-G09RevD.01 24-Apr-2013
                 2-Oct-2020 
 ******************************************
 %nproc=1
 Will use up to    1 processors via shared memory.
 %Chk=SM40.n.5.pdb.xyz.mst.n.o.chk
 %mem=16GB
 -----------------
 #p b3lyp/6-31G(d)
 -----------------
 1/38=1/1;
 2/12=2,17=6,18=5,40=1/2;
 3/5=1,6=6,7=1,11=2,16=1,25=1,30=1,74=-5/1,2,3;
 4//1;
 5/5=2,38=5/2;
 6/7=2,8=2,9=2,10=2,28=1/1;
 99/5=1,9=1/99;
 Leave Link    1 at Fri Oct  2 06:12:39 2020, MaxMem=  2147483648 cpu:         0.0
 (Enter /prod/apps/gaussian/g09d1/l101.exe)
 ----------------
 SM40.n.5.pdb.xyz
 ----------------
 Symbolic Z-matrix:
 Charge =  0 Multiplicity = 1
 C                     5.722     0.832    -0.814 
 N                     5.692     0.317     0.561 
 C                     6.215     1.271     1.554 
 S                     4.224    -0.413     0.984 
 O                     4.277    -0.587     2.436 
 O                     3.086     0.268     0.361 
 N                     4.229    -1.921     0.27 
 C                     5.262    -2.968     0.416 
 C                     4.566    -4.338     0.101 
 S                     4.881    -4.918     1.803 
 O                     3.653    -5.103     2.591 
 O                     5.928    -5.956     1.848 
 C                     5.579    -3.237     1.929 
 C                     6.506    -2.664    -0.441 
 C                     7.627    -3.728    -0.482 
 C                     7.475    -4.803    -1.542 
 C                     7.558    -4.474    -2.903 
 C                     7.438    -5.454    -3.886 
 C                     7.233    -6.788    -3.524 
 C                     7.15     -7.129    -2.175 
 C                     7.271    -6.144    -1.191 
 H                     6.76      1.069    -1.055 
 H                     5.107     1.73     -0.936 
 H                     5.377     0.068    -1.51 
 H                     7.251     1.481     1.283 
 H                     6.185     0.816     2.541 
 H                     5.655     2.214     1.567 
 H                     3.803    -1.876    -0.653 
 H                     5.064    -4.959    -0.643 
 H                     3.498    -4.254    -0.097 
 H                     6.639    -3.253     2.185 
 H                     5.017    -2.61      2.618 
 H                     6.912    -1.724    -0.06 
 H                     6.169    -2.467    -1.464 
 H                     7.748    -4.2       0.498 
 H                     8.561    -3.191    -0.669 
 H                     7.728    -3.441    -3.194 
 H                     7.509    -5.179    -4.934 
 H                     7.14     -7.553    -4.288 
 H                     6.992    -8.162    -1.883 
 H                     7.193    -6.409    -0.141 
 
 NAtoms=     41 NQM=       41 NQMF=       0 NMMI=      0 NMMIF=      0
                NMic=       0 NMicF=      0.
                    Isotopes and Nuclear Properties:
 (Nuclear quadrupole moments (NQMom) in fm**2, nuclear magnetic moments (NMagM)
  in nuclear magnetons)

  Atom         1           2           3           4           5           6           7           8           9          10
 IAtWgt=          12          14          12          32          16          16          14          12          12          32
 AtmWgt=  12.0000000  14.0030740  12.0000000  31.9720718  15.9949146  15.9949146  14.0030740  12.0000000  12.0000000  31.9720718
 NucSpn=           0           2           0           0           0           0           2           0           0           0
 AtZEff=   0.0000000   0.0000000   0.0000000   0.0000000   0.0000000   0.0000000   0.0000000   0.0000000   0.0000000   0.0000000
 NQMom=    0.0000000   2.0440000   0.0000000   0.0000000   0.0000000   0.0000000   2.0440000   0.0000000   0.0000000   0.0000000
 NMagM=    0.0000000   0.4037610   0.0000000   0.0000000   0.0000000   0.0000000   0.4037610   0.0000000   0.0000000   0.0000000
 AtZNuc=   6.0000000   7.0000000   6.0000000  16.0000000   8.0000000   8.0000000   7.0000000   6.0000000   6.0000000  16.0000000

  Atom        11          12          13          14          15          16          17          18          19          20
 IAtWgt=          16          16          12          12          12          12          12          12          12          12
 AtmWgt=  15.9949146  15.9949146  12.0000000  12.0000000  12.0000000  12.0000000  12.0000000  12.0000000  12.0000000  12.0000000
 NucSpn=           0           0           0           0           0           0           0           0           0           0
 AtZEff=   0.0000000   0.0000000   0.0000000   0.0000000   0.0000000   0.0000000   0.0000000   0.0000000   0.0000000   0.0000000
 NQMom=    0.0000000   0.0000000   0.0000000   0.0000000   0.0000000   0.0000000   0.0000000   0.0000000   0.0000000   0.0000000
 NMagM=    0.0000000   0.0000000   0.0000000   0.0000000   0.0000000   0.0000000   0.0000000   0.0000000   0.0000000   0.0000000
 AtZNuc=   8.0000000   8.0000000   6.0000000   6.0000000   6.0000000   6.0000000   6.0000000   6.0000000   6.0000000   6.0000000

  Atom        21          22          23          24          25          26          27          28          29          30
 IAtWgt=          12           1           1           1           1           1           1           1           1           1
 AtmWgt=  12.0000000   1.0078250   1.0078250   1.0078250   1.0078250   1.0078250   1.0078250   1.0078250   1.0078250   1.0078250
 NucSpn=           0           1           1           1           1           1           1           1           1           1
 AtZEff=   0.0000000   0.0000000   0.0000000   0.0000000   0.0000000   0.0000000   0.0000000   0.0000000   0.0000000   0.0000000
 NQMom=    0.0000000   0.0000000   0.0000000   0.0000000   0.0000000   0.0000000   0.0000000   0.0000000   0.0000000   0.0000000
 NMagM=    0.0000000   2.7928460   2.7928460   2.7928460   2.7928460   2.7928460   2.7928460   2.7928460   2.7928460   2.7928460
 AtZNuc=   6.0000000   1.0000000   1.0000000   1.0000000   1.0000000   1.0000000   1.0000000   1.0000000   1.0000000   1.0000000

  Atom        31          32          33          34          35          36          37          38          39          40
 IAtWgt=           1           1           1           1           1           1           1           1           1           1
 AtmWgt=   1.0078250   1.0078250   1.0078250   1.0078250   1.0078250   1.0078250   1.0078250   1.0078250   1.0078250   1.0078250
 NucSpn=           1           1           1           1           1           1           1           1           1           1
 AtZEff=   0.0000000   0.0000000   0.0000000   0.0000000   0.0000000   0.0000000   0.0000000   0.0000000   0.0000000   0.0000000
 NQMom=    0.0000000   0.0000000   0.0000000   0.0000000   0.0000000   0.0000000   0.0000000   0.0000000   0.0000000   0.0000000
 NMagM=    2.7928460   2.7928460   2.7928460   2.7928460   2.7928460   2.7928460   2.7928460   2.7928460   2.7928460   2.7928460
 AtZNuc=   1.0000000   1.0000000   1.0000000   1.0000000   1.0000000   1.0000000   1.0000000   1.0000000   1.0000000   1.0000000

  Atom        41
 IAtWgt=           1
 AtmWgt=   1.0078250
 NucSpn=           1
 AtZEff=   0.0000000
 NQMom=    0.0000000
 NMagM=    2.7928460
 AtZNuc=   1.0000000
 Leave Link  101 at Fri Oct  2 06:12:39 2020, MaxMem=  2147483648 cpu:         0.1
 (Enter /prod/apps/gaussian/g09d1/l202.exe)
                          Input orientation:                          
 ---------------------------------------------------------------------
 Center     Atomic      Atomic             Coordinates (Angstroms)
 Number     Number       Type             X           Y           Z
 ---------------------------------------------------------------------
      1          6           0        5.722000    0.832000   -0.814000
      2          7           0        5.692000    0.317000    0.561000
      3          6           0        6.215000    1.271000    1.554000
      4         16           0        4.224000   -0.413000    0.984000
      5          8           0        4.277000   -0.587000    2.436000
      6          8           0        3.086000    0.268000    0.361000
      7          7           0        4.229000   -1.921000    0.270000
      8          6           0        5.262000   -2.968000    0.416000
      9          6           0        4.566000   -4.338000    0.101000
     10         16           0        4.881000   -4.918000    1.803000
     11          8           0        3.653000   -5.103000    2.591000
     12          8           0        5.928000   -5.956000    1.848000
     13          6           0        5.579000   -3.237000    1.929000
     14          6           0        6.506000   -2.664000   -0.441000
     15          6           0        7.627000   -3.728000   -0.482000
     16          6           0        7.475000   -4.803000   -1.542000
     17          6           0        7.558000   -4.474000   -2.903000
     18          6           0        7.438000   -5.454000   -3.886000
     19          6           0        7.233000   -6.788000   -3.524000
     20          6           0        7.150000   -7.129000   -2.175000
     21          6           0        7.271000   -6.144000   -1.191000
     22          1           0        6.760000    1.069000   -1.055000
     23          1           0        5.107000    1.730000   -0.936000
     24          1           0        5.377000    0.068000   -1.510000
     25          1           0        7.251000    1.481000    1.283000
     26          1           0        6.185000    0.816000    2.541000
     27          1           0        5.655000    2.214000    1.567000
     28          1           0        3.803000   -1.876000   -0.653000
     29          1           0        5.064000   -4.959000   -0.643000
     30          1           0        3.498000   -4.254000   -0.097000
     31          1           0        6.639000   -3.253000    2.185000
     32          1           0        5.017000   -2.610000    2.618000
     33          1           0        6.912000   -1.724000   -0.060000
     34          1           0        6.169000   -2.467000   -1.464000
     35          1           0        7.748000   -4.200000    0.498000
     36          1           0        8.561000   -3.191000   -0.669000
     37          1           0        7.728000   -3.441000   -3.194000
     38          1           0        7.509000   -5.179000   -4.934000
     39          1           0        7.140000   -7.553000   -4.288000
     40          1           0        6.992000   -8.162000   -1.883000
     41          1           0        7.193000   -6.409000   -0.141000
 ---------------------------------------------------------------------
                    Distance matrix (angstroms):
                    1          2          3          4          5
     1  C    0.000000
     2  N    1.468588   0.000000
     3  C    2.458291   1.472988   0.000000
     4  S    2.650817   1.693178   2.669239   0.000000
     5  O    3.829371   2.516956   2.825939   1.463349   0.000000
     6  O    2.940615   2.614123   3.495697   1.465242   2.540695
     7  N    3.314078   2.689553   3.972621   1.668498   2.544291
     8  C    4.020510   3.316195   4.491367   2.815687   3.274108
     9  C    5.376101   4.811289   6.024225   4.037608   4.427838
    10  S    6.373262   5.441095   6.336030   4.625736   4.418491
    11  O    7.148357   6.136352   6.947452   4.990450   4.561541
    12  O    7.294219   6.408010   7.238669   5.863016   5.647805
    13  C    4.909303   3.809870   4.568061   3.271701   2.995789
    14  C    3.602194   3.248532   4.421417   3.507870   4.190406
    15  C    4.953065   4.603705   5.579341   4.971799   5.440874
    16  C    5.946109   5.815161   6.932986   6.018453   6.620147
    17  C    5.990697   6.199591   7.394155   6.535751   7.374188
    18  C    7.203863   7.491913   8.735843   7.710926   8.581800
    19  C    8.227492   8.339240   9.579660   8.367602   9.094610
    20  C    8.201770   8.065629   9.237947   7.977808   8.503718
    21  C    7.155844   6.878028   7.976991   6.845378   7.280070
    22  H    1.091647   2.077880   2.672959   3.575632   4.592897
    23  H    1.095223   2.140047   2.763774   3.009741   4.174658
    24  H    1.089558   2.109566   3.396697   2.789410   4.148487
    25  H    2.675154   2.075250   1.091255   3.583206   3.801409
    26  H    3.386835   2.100583   1.087241   2.789303   2.370632
    27  H    2.753829   2.147560   1.096822   3.047750   3.240316
    28  H    3.322912   3.138689   4.537863   2.235482   3.380550
    29  H    5.830771   5.447952   6.705558   4.900902   5.404997
    30  H    5.597112   5.112792   6.374442   4.055727   4.524358
    31  H    5.149963   4.034735   4.587430   3.916660   3.570658
    32  H    4.911518   3.640632   4.198745   2.850546   2.161771
    33  H    2.918519   2.457585   3.472871   3.167649   3.803421
    34  H    3.392007   3.475458   4.804486   3.740942   4.724835
    35  H    5.580954   4.963305   5.779019   5.195781   5.371913
    36  H    4.926000   4.695756   5.509527   5.409183   5.896991
    37  H    5.286489   5.689278   6.858252   6.237186   7.193860
    38  H    7.503325   7.981386   9.239647   8.278207   9.265484
    39  H    9.186274   9.356624  10.622973   9.342197  10.096242
    40  H    9.145911   8.919449  10.069667   8.713697   9.132667
    41  H    7.419491   6.927112   7.925396   6.784733   7.002833
                    6          7          8          9         10
     6  O    0.000000
     7  N    2.471123   0.000000
     8  C    3.899961   1.478044   0.000000
     9  C    4.844919   2.446225   1.568611   0.000000
    10  S    5.674151   3.428878   2.423103   1.825494   0.000000
    11  O    5.843118   3.980445   3.446408   2.760234   1.470766
    12  O    7.001879   4.653806   3.379693   2.743169   1.475018
    13  C    4.578067   2.511302   1.569082   2.362193   1.824511
    14  C    4.575612   2.498459   1.540909   2.619091   3.571649
    15  C    6.107319   3.921372   2.641444   3.175171   3.765347
    16  C    6.971354   4.703805   3.478269   3.373122   4.234511
    17  C    7.289653   5.260036   4.307599   4.242001   5.432302
    18  C    8.349742   6.328673   5.424240   5.038850   6.260213
    19  C    9.059689   6.863391   5.831024   5.124062   6.116023
    20  C    8.812661   6.452405   5.252785   4.432484   5.085407
    21  C    7.812597   5.405739   4.087237   3.499704   4.022339
    22  H    4.018076   4.135418   4.550298   5.948581   6.895141
    23  H    2.811422   3.943998   4.891128   6.179699   7.193685
    24  H    2.964679   2.905585   3.597221   4.760869   6.006845
    25  H    4.434938   4.661787   4.949890   6.516679   6.843574
    26  H    3.828382   4.058885   4.436914   5.927772   5.926535
    27  H    3.441092   4.562226   5.322816   6.801748   7.177757
    28  H    2.477705   1.017561   2.112796   2.685541   4.055587
    29  H    5.678206   3.280280   2.263795   1.089578   2.453179
    30  H    4.563769   2.472234   2.242468   1.089442   2.442045
    31  H    5.324305   3.354035   2.259804   3.133307   2.451268
    32  H    4.135903   2.570753   2.244325   3.086207   2.451445
    33  H    4.334003   2.710387   2.120522   3.516054   4.218692
    34  H    4.507298   2.658660   2.146637   2.918814   4.282480
    35  H    6.458795   4.198712   2.775742   3.209638   3.230826
    36  H    6.557530   4.610948   3.479994   4.227119   4.757700
    37  H    6.924079   5.152931   4.397384   4.654017   5.937756
    38  H    8.790322   6.960932   6.209672   5.892347   7.236137
    39  H    9.960731   7.808246   6.832037   6.018723   7.010463
    40  H    9.558100   7.156791   5.937671   4.944159   5.344759
    41  H    7.855048   5.394104   3.984908   3.353913   3.368614
                   11         12         13         14         15
    11  O    0.000000
    12  O    2.540725   0.000000
    13  C    2.762187   2.742503   0.000000
    14  C    4.825076   4.051033   2.608555   0.000000
    15  C    5.208323   3.644103   3.201298   1.546098   0.000000
    16  C    5.637320   3.900605   4.253823   2.593546   1.517343
    17  C    6.769690   5.236910   5.366082   3.231756   2.534269
    18  C    7.510057   5.950702   6.495013   4.529983   3.821258
    19  C    7.283464   5.590495   6.714203   5.200076   4.332736
    20  C    6.248875   4.365059   5.870138   4.832982   3.828914
    21  C    5.336397   3.327839   4.587800   3.641171   2.542926
    22  H    7.812832   7.646585   5.370349   3.791675   4.908281
    23  H    7.825838   8.215795   5.753442   4.637829   6.028788
    24  H    6.821262   6.918695   4.773945   3.143442   4.530883
    25  H    7.616136   7.574861   5.047021   4.550629   5.512738
    26  H    6.438019   6.812216   4.143500   4.594101   5.644983
    27  H    7.654742   8.179388   5.463536   5.343328   6.587454
    28  H    4.578162   5.236127   3.416610   2.823490   4.252308
    29  H    3.531347   2.818792   3.137785   2.717939   2.847850
    30  H    2.823149   3.547496   3.077259   3.419722   4.180137
    31  H    3.536033   2.815191   1.090592   2.694529   2.883515
    32  H    2.841879   3.552258   1.087977   3.402575   4.203811
    33  H    5.391338   4.745371   2.832345   1.092519   2.169176
    34  H    5.451768   4.816695   3.528944   1.094946   2.163379
    35  H    4.686692   2.866781   2.771226   2.187140   1.094452
    36  H    6.194498   4.573096   3.955255   2.133715   1.093478
    37  H    7.268706   5.914980   5.559222   3.110630   2.729013
    38  H    8.455775   7.007055   7.388981   5.245787   4.683976
    39  H    8.092114   6.455219   7.727591   6.253294   5.417881
    40  H    6.365774   4.463059   6.386199   5.704697   4.693227
    41  H    4.658440   2.400324   4.117218   3.819292   2.737225
                   16         17         18         19         20
    16  C    0.000000
    17  C    1.402659   0.000000
    18  C    2.433003   1.393230   0.000000
    19  C    2.815513   2.417822   1.397364   0.000000
    20  C    2.432404   2.783069   2.411657   1.393905   0.000000
    21  C    1.401106   2.408778   2.786936   2.420551   1.397541
    22  H    5.935384   5.897182   7.143093   8.249372   8.283339
    23  H    6.975296   6.954574   8.108386   9.152811   9.175557
    24  H    5.303703   5.227521   6.354965   7.382795   7.441946
    25  H    6.893436   7.285525   8.651460   9.564723   9.279012
    26  H    7.064570   7.714037   9.065828   9.782809   9.289505
    27  H    7.887748   8.266296   9.576665  10.461566  10.174932
    28  H    4.779250   5.090396   6.038841   6.643439   6.411934
    29  H    2.577879   3.400421   4.049438   4.043509   3.377472
    30  H    4.266844   4.940206   5.596438   5.667072   5.091249
    31  H    4.122126   5.312546   6.506907   6.741049   5.856116
    32  H    5.306281   6.357092   7.500106   7.751806   6.924153
    33  H    3.463168   4.007801   5.369157   6.143813   5.808949
    34  H    2.677427   2.833389   4.049520   4.903747   4.816859
    35  H    2.144700   3.417306   4.570347   4.810349   4.010184
    36  H    2.130744   2.764571   4.090402   4.780483   4.445987
    37  H    2.155958   1.086586   2.148286   3.399461   3.869598
    38  H    3.412945   2.150439   1.085804   2.157118   3.397567
    39  H    3.900672   3.401939   2.157825   1.085159   2.155144
    40  H    3.410638   3.868087   3.397674   2.153796   1.085042
    41  H    2.149782   3.392063   3.872606   3.404399   2.158102
                   21         22         23         24         25
    21  C    0.000000
    22  H    7.232357   0.000000
    23  H    8.169932   1.784234   0.000000
    24  H    6.502149   1.766838   1.778938   0.000000
    25  H    8.016340   2.424267   3.095593   3.648191   0.000000
    26  H    7.971751   3.650459   3.753266   4.197972   1.777961
    27  H    8.948418   3.067073   2.607598   3.761719   1.779090
    28  H    5.525603   4.192670   3.844963   2.644061   5.187123
    29  H    2.564250   6.275583   6.695552   5.110811   7.068666
    30  H    4.359411   6.316070   6.253084   4.920050   6.991397
    31  H    4.489397   5.402955   6.076015   5.125886   4.857870
    32  H    5.663758   5.483067   5.610224   4.933728   4.848635
    33  H    4.576510   2.968834   3.994436   2.769474   3.491503
    34  H    3.848280   3.608304   4.361357   2.656239   4.929852
    35  H    2.619043   5.581247   6.648018   5.279160   5.756474
    36  H    3.264474   4.641142   6.018110   4.633165   5.230104
    37  H    3.395153   5.084530   6.221531   4.547102   6.670618
    38  H    3.872715   7.392236   8.335940   6.618173   9.114453
    39  H    3.404974   9.216050  10.076859   8.300909  10.614213
    40  H    2.151518   9.270964  10.114430   8.395252  10.152738
    41  H    1.085730   7.546083   8.439594   6.864659   8.017683
                   26         27         28         29         30
    26  H    0.000000
    27  H    1.784371   0.000000
    28  H    4.808578   5.008633   0.000000
    29  H    6.689179   7.528965   3.330932   0.000000
    30  H    6.315371   7.018302   2.461106   1.802081   0.000000
    31  H    4.109697   5.589121   4.241847   3.659050   4.009415
    32  H    3.620446   4.978215   3.565388   4.019220   3.518710
    33  H    3.707469   4.442412   3.168696   3.770970   4.249431
    34  H    5.178646   5.600261   2.570011   2.846951   3.492320
    35  H    5.637116   6.831018   4.721102   3.013605   4.291788
    36  H    5.657343   6.531352   4.936400   3.918611   5.204913
    37  H    7.307060   7.677465   4.930672   3.988586   5.305212
    38  H    9.673088  10.017822   6.555243   4.943592   6.351403
    39  H   10.843774  11.483925   7.521777   4.932001   6.458486
    40  H   10.041290  11.015963   7.155167   3.938781   5.538077
    41  H    7.772375   8.924059   5.683514   2.624337   4.277731
                   31         32         33         34         35
    31  H    0.000000
    32  H    1.797727   0.000000
    33  H    2.729908   3.398191   0.000000
    34  H    3.762167   4.243852   1.753657   0.000000
    35  H    2.229946   3.805373   2.672234   3.057119   0.000000
    36  H    3.441401   4.868456   2.289579   2.622568   1.743829
    37  H    5.491348   6.466794   3.665501   2.524293   3.769263
    38  H    7.426071   8.357184   6.004108   4.603417   5.524689
    39  H    7.787216   8.754040   7.204527   5.897899   5.875208
    40  H    6.385258   7.415142   6.691605   5.769395   4.683817
    41  H    3.959486   5.174887   4.694118   4.282321   2.365592
                   36         37         38         39         40
    36  H    0.000000
    37  H    2.670583   0.000000
    38  H    4.821729   2.469049   0.000000
    39  H    5.843239   4.295477   2.487841   0.000000
    40  H    5.352233   4.954620   4.298160   2.485319   0.000000
    41  H    3.536344   4.291393   4.958387   4.302227   2.479511
                   41
    41  H    0.000000
 Stoichiometry    C13H20N2O4S2
 Framework group  C1[X(C13H20N2O4S2)]
 Deg. of freedom   117
 Full point group                 C1      NOp   1
 Largest Abelian subgroup         C1      NOp   1
 Largest concise Abelian subgroup C1      NOp   1
                         Standard orientation:                         
 ---------------------------------------------------------------------
 Center     Atomic      Atomic             Coordinates (Angstroms)
 Number     Number       Type             X           Y           Z
 ---------------------------------------------------------------------
      1          6           0        2.899281   -2.745656   -0.094981
      2          7           0        3.035598   -1.430502    0.544188
      3          6           0        4.088038   -1.387325    1.573848
      4         16           0        3.061910   -0.139412   -0.550914
      5          8           0        3.493693    1.023745    0.224986
      6          8           0        3.753889   -0.500538   -1.790948
      7          7           0        1.481405    0.100543   -1.028734
      8          6           0        0.315244    0.333971   -0.151128
      9          6           0       -0.756961    1.087204   -1.013426
     10         16           0       -0.653058    2.542780    0.083356
     11          8           0       -0.089708    3.729851   -0.577441
     12          8           0       -1.857615    2.689742    0.921879
     13          6           0        0.605820    1.485349    0.874499
     14          6           0       -0.180237   -0.973166    0.497173
     15          6           0       -1.466244   -0.907551    1.352918
     16          6           0       -2.769281   -1.088879    0.596912
     17          6           0       -3.075492   -2.318708   -0.004092
     18          6           0       -4.276236   -2.504102   -0.685951
     19          6           0       -5.198010   -1.457983   -0.778642
     20          6           0       -4.906962   -0.230991   -0.184712
     21          6           0       -3.701869   -0.047836    0.498901
     22          1           0        2.666642   -3.470328    0.687595
     23          1           0        3.813220   -3.053182   -0.614266
     24          1           0        2.073394   -2.735330   -0.805573
     25          1           0        3.820695   -2.119832    2.337259
     26          1           0        4.115906   -0.395709    2.018836
     27          1           0        5.078077   -1.638638    1.174245
     28          1           0        1.277819   -0.446024   -1.862550
     29          1           0       -1.753191    0.645958   -1.016581
     30          1           0       -0.421608    1.327000   -2.021851
     31          1           0        0.354863    1.257334    1.911042
     32          1           0        1.605228    1.907947    0.795197
     33          1           0        0.646372   -1.336721    1.112105
     34          1           0       -0.324175   -1.709805   -0.300042
     35          1           0       -1.504550    0.026432    1.922158
     36          1           0       -1.387377   -1.704614    2.097340
     37          1           0       -2.369735   -3.141394    0.071839
     38          1           0       -4.495854   -3.465176   -1.141004
     39          1           0       -6.134169   -1.600457   -1.308621
     40          1           0       -5.616186    0.587589   -0.249866
     41          1           0       -3.470643    0.912408    0.949763
 ---------------------------------------------------------------------
 Rotational constants (GHZ):      0.3998132      0.1723646      0.1356778
 Leave Link  202 at Fri Oct  2 06:12:39 2020, MaxMem=  2147483648 cpu:         0.0
 (Enter /prod/apps/gaussian/g09d1/l301.exe)
 Standard basis: 6-31G(d) (6D, 7F)
 Ernie: Thresh=  0.10000D-02 Tol=  0.10000D-05 Strict=F.
 There are   363 symmetry adapted cartesian basis functions of A   symmetry.
 There are   363 symmetry adapted basis functions of A   symmetry.
   363 basis functions,   716 primitive gaussians,   363 cartesian basis functions
    88 alpha electrons       88 beta electrons
       nuclear repulsion energy      2191.6098162032 Hartrees.
 IExCor=  402 DFT=T Ex+Corr=B3LYP ExCW=0 ScaHFX=  0.200000
 ScaDFX=  0.800000  0.720000  1.000000  0.810000 ScalE2=  1.000000  1.000000
 IRadAn=      0 IRanWt=     -1 IRanGd=            0 ICorTp=0 IEmpDi=  4
 NAtoms=   41 NActive=   41 NUniq=   41 SFac= 1.00D+00 NAtFMM=   60 NAOKFM=F Big=F
 Integral buffers will be    131072 words long.
 Raffenetti 2 integral format.
 Two-electron integral symmetry is turned on.
 Leave Link  301 at Fri Oct  2 06:12:39 2020, MaxMem=  2147483648 cpu:         0.0
 (Enter /prod/apps/gaussian/g09d1/l302.exe)
 NPDir=0 NMtPBC=     1 NCelOv=     1 NCel=       1 NClECP=     1 NCelD=      1
         NCelK=      1 NCelE2=     1 NClLst=     1 CellRange=     0.0.
 One-electron integrals computed using PRISM.
 NBasis=   363 RedAO= T EigKep=  4.58D-04  NBF=   363
 NBsUse=   363 1.00D-06 EigRej= -1.00D+00 NBFU=   363
 Precomputing XC quadrature grid using
 IXCGrd= 4 IRadAn=           0 IRanWt=          -1 IRanGd=           0 AccXCQ= 0.00D+00.
 Generated NRdTot=       0 NPtTot=           0 NUsed=           0 NTot=          32
 NSgBfM=   359   359   359   359   359 MxSgAt=    41 MxSgA2=    41.
 Leave Link  302 at Fri Oct  2 06:12:41 2020, MaxMem=  2147483648 cpu:         2.1
 (Enter /prod/apps/gaussian/g09d1/l303.exe)
 DipDrv:  MaxL=1.
 Leave Link  303 at Fri Oct  2 06:12:41 2020, MaxMem=  2147483648 cpu:         0.1
 (Enter /prod/apps/gaussian/g09d1/l401.exe)
 ExpMin= 1.17D-01 ExpMax= 2.19D+04 ExpMxC= 3.30D+03 IAcc=1 IRadAn=         1 AccDes= 0.00D+00
 Harris functional with IExCor=  402 and IRadAn=       1 diagonalized for initial guess.
 HarFok:  IExCor=  402 AccDes= 0.00D+00 IRadAn=         1 IDoV= 1 UseB2=F ITyADJ=14
 ICtDFT=  3500011 ScaDFX=  1.000000  1.000000  1.000000  1.000000
 FoFCou: FMM=F IPFlag=           0 FMFlag=      100000 FMFlg1=           0
         NFxFlg=           0 DoJE=T BraDBF=F KetDBF=T FulRan=T
         wScrn=  0.000000 ICntrl=     500 IOpCl=  0 I1Cent=   200000004 NGrid=           0
         NMat0=    1 NMatS0=      1 NMatT0=    0 NMatD0=    1 NMtDS0=    0 NMtDT0=    0
 Petite list used in FoFCou.
 Harris En= -1714.14348610560    
 JPrj=0 DoOrth=F DoCkMO=F.
 Leave Link  401 at Fri Oct  2 06:12:47 2020, MaxMem=  2147483648 cpu:         5.7
 (Enter /prod/apps/gaussian/g09d1/l502.exe)
 Closed shell SCF:
 Using DIIS extrapolation, IDIIS=  1040.
 Integral symmetry usage will be decided dynamically.
 IVT=      418784 IEndB=      418784 NGot=  2147483648 MDV=  2147213637
 LenX=  2147213637 LenY=  2147081427
 Requested convergence on RMS density matrix=1.00D-08 within 128 cycles.
 Requested convergence on MAX density matrix=1.00D-06.
 Requested convergence on             energy=1.00D-06.
 No special actions if energy rises.
 Fock matrices will be formed incrementally for  20 cycles.
 Integral accuracy reduced to 1.0D-05 until final iterations.

 Cycle   1  Pass 0  IDiag  1:
 FoFJK:  IHMeth= 1 ICntrl=       0 DoSepK=F KAlg= 0 I1Cent=   0 FoldK=F
 IRaf= 770000000 NMat=   1 IRICut=       1 DoRegI=T DoRafI=F ISym2E= 0.
 FoFCou: FMM=F IPFlag=           0 FMFlag=      100000 FMFlg1=           0
         NFxFlg=           0 DoJE=F BraDBF=F KetDBF=F FulRan=T
         wScrn=  0.000000 ICntrl=       0 IOpCl=  0 I1Cent=           0 NGrid=           0
         NMat0=    1 NMatS0=      1 NMatT0=    0 NMatD0=    1 NMtDS0=    0 NMtDT0=    0
 Symmetry not used in FoFCou.
 E= -1713.19457439584    
 DIIS: error= 3.23D-02 at cycle   1 NSaved=   1.
 NSaved= 1 IEnMin= 1 EnMin= -1713.19457439584     IErMin= 1 ErrMin= 3.23D-02
 ErrMax= 3.23D-02  0.00D+00 EMaxC= 1.00D-01 BMatC= 9.88D-01 BMatP= 9.88D-01
 IDIUse=3 WtCom= 6.77D-01 WtEn= 3.23D-01
 Coeff-Com:  0.100D+01
 Coeff-En:   0.100D+01
 Coeff:      0.100D+01
 Gap=     0.355 Goal=   None    Shift=    0.000
 GapD=    0.355 DampG=1.000 DampE=0.500 DampFc=0.5000 IDamp=-1.
 Damping current iteration by 5.00D-01
 RMSDP=6.94D-03 MaxDP=6.05D-01              OVMax= 2.29D-01

 Cycle   2  Pass 0  IDiag  1:
 RMSU=  3.47D-03    CP:  9.99D-01
 E= -1713.37234292598     Delta-E=       -0.177768530141 Rises=F Damp=T
 DIIS: error= 2.02D-02 at cycle   2 NSaved=   2.
 NSaved= 2 IEnMin= 2 EnMin= -1713.37234292598     IErMin= 2 ErrMin= 2.02D-02
 ErrMax= 2.02D-02  0.00D+00 EMaxC= 1.00D-01 BMatC= 1.69D-01 BMatP= 9.88D-01
 IDIUse=3 WtCom= 7.98D-01 WtEn= 2.02D-01
 Coeff-Com:  0.249D+00 0.751D+00
 Coeff-En:   0.394D+00 0.606D+00
 Coeff:      0.278D+00 0.722D+00
 Gap=     0.287 Goal=   None    Shift=    0.000
 RMSDP=2.01D-03 MaxDP=1.33D-01 DE=-1.78D-01 OVMax= 2.03D-01

 Cycle   3  Pass 0  IDiag  1:
 RMSU=  1.62D-03    CP:  9.89D-01  6.62D-01
 E= -1713.94555576928     Delta-E=       -0.573212843300 Rises=F Damp=F
 DIIS: error= 1.40D-02 at cycle   3 NSaved=   3.
 NSaved= 3 IEnMin= 3 EnMin= -1713.94555576928     IErMin= 3 ErrMin= 1.40D-02
 ErrMax= 1.40D-02  0.00D+00 EMaxC= 1.00D-01 BMatC= 9.45D-02 BMatP= 1.69D-01
 IDIUse=3 WtCom= 8.60D-01 WtEn= 1.40D-01
 Coeff-Com:  0.105D+00 0.433D+00 0.462D+00
 Coeff-En:   0.000D+00 0.000D+00 0.100D+01
 Coeff:      0.906D-01 0.372D+00 0.537D+00
 Gap=     0.240 Goal=   None    Shift=    0.000
 RMSDP=1.30D-03 MaxDP=3.74D-02 DE=-5.73D-01 OVMax= 8.61D-02

 Cycle   4  Pass 0  IDiag  1:
 RMSU=  7.68D-04    CP:  9.95D-01  7.36D-01  3.74D-01
 E= -1714.01778652540     Delta-E=       -0.072230756115 Rises=F Damp=F
 DIIS: error= 5.21D-03 at cycle   4 NSaved=   4.
 NSaved= 4 IEnMin= 4 EnMin= -1714.01778652540     IErMin= 4 ErrMin= 5.21D-03
 ErrMax= 5.21D-03  0.00D+00 EMaxC= 1.00D-01 BMatC= 1.82D-02 BMatP= 9.45D-02
 IDIUse=3 WtCom= 9.48D-01 WtEn= 5.21D-02
 Coeff-Com:  0.153D-01 0.706D-01 0.311D+00 0.603D+00
 Coeff-En:   0.000D+00 0.000D+00 0.177D+00 0.823D+00
 Coeff:      0.145D-01 0.670D-01 0.304D+00 0.614D+00
 Gap=     0.238 Goal=   None    Shift=    0.000
 RMSDP=4.59D-04 MaxDP=1.62D-02 DE=-7.22D-02 OVMax= 2.95D-02

 Cycle   5  Pass 0  IDiag  1:
 RMSU=  1.76D-04    CP:  9.94D-01  7.15D-01  5.52D-01  6.09D-01
 E= -1714.03319737629     Delta-E=       -0.015410850888 Rises=F Damp=F
 DIIS: error= 8.01D-04 at cycle   5 NSaved=   5.
 NSaved= 5 IEnMin= 5 EnMin= -1714.03319737629     IErMin= 5 ErrMin= 8.01D-04
 ErrMax= 8.01D-04  0.00D+00 EMaxC= 1.00D-01 BMatC= 1.03D-03 BMatP= 1.82D-02
 IDIUse=3 WtCom= 9.92D-01 WtEn= 8.01D-03
 Coeff-Com:  0.137D-02 0.129D-01 0.132D+00 0.331D+00 0.523D+00
 Coeff-En:   0.000D+00 0.000D+00 0.000D+00 0.000D+00 0.100D+01
 Coeff:      0.136D-02 0.128D-01 0.131D+00 0.328D+00 0.527D+00
 Gap=     0.238 Goal=   None    Shift=    0.000
 RMSDP=1.13D-04 MaxDP=7.11D-03 DE=-1.54D-02 OVMax= 6.14D-03

 Cycle   6  Pass 0  IDiag  1:
 RMSU=  5.65D-05    CP:  9.94D-01  7.18D-01  5.43D-01  6.72D-01  5.32D-01
 E= -1714.03402593700     Delta-E=       -0.000828560711 Rises=F Damp=F
 DIIS: error= 4.51D-04 at cycle   6 NSaved=   6.
 NSaved= 6 IEnMin= 6 EnMin= -1714.03402593700     IErMin= 6 ErrMin= 4.51D-04
 ErrMax= 4.51D-04  0.00D+00 EMaxC= 1.00D-01 BMatC= 1.27D-04 BMatP= 1.03D-03
 IDIUse=3 WtCom= 9.95D-01 WtEn= 4.51D-03
 Coeff-Com: -0.406D-03 0.192D-02 0.508D-01 0.140D+00 0.318D+00 0.489D+00
 Coeff-En:   0.000D+00 0.000D+00 0.000D+00 0.000D+00 0.429D-01 0.957D+00
 Coeff:     -0.404D-03 0.191D-02 0.506D-01 0.140D+00 0.317D+00 0.491D+00
 Gap=     0.238 Goal=   None    Shift=    0.000
 RMSDP=3.65D-05 MaxDP=1.46D-03 DE=-8.29D-04 OVMax= 2.57D-03

 Cycle   7  Pass 0  IDiag  1:
 RMSU=  2.40D-05    CP:  9.94D-01  7.17D-01  5.45D-01  6.71D-01  5.91D-01
                    CP:  5.53D-01
 E= -1714.03411503452     Delta-E=       -0.000089097519 Rises=F Damp=F
 DIIS: error= 1.89D-04 at cycle   7 NSaved=   7.
 NSaved= 7 IEnMin= 7 EnMin= -1714.03411503452     IErMin= 7 ErrMin= 1.89D-04
 ErrMax= 1.89D-04  0.00D+00 EMaxC= 1.00D-01 BMatC= 1.95D-05 BMatP= 1.27D-04
 IDIUse=3 WtCom= 9.98D-01 WtEn= 1.89D-03
 Coeff-Com: -0.464D-03-0.599D-03 0.146D-01 0.445D-01 0.137D+00 0.323D+00
 Coeff-Com:  0.482D+00
 Coeff-En:   0.000D+00 0.000D+00 0.000D+00 0.000D+00 0.000D+00 0.119D+00
 Coeff-En:   0.881D+00
 Coeff:     -0.464D-03-0.598D-03 0.145D-01 0.444D-01 0.137D+00 0.323D+00
 Coeff:      0.483D+00
 Gap=     0.238 Goal=   None    Shift=    0.000
 RMSDP=1.28D-05 MaxDP=5.64D-04 DE=-8.91D-05 OVMax= 8.67D-04

 Cycle   8  Pass 0  IDiag  1:
 RMSU=  5.98D-06    CP:  9.94D-01  7.17D-01  5.45D-01  6.70D-01  5.95D-01
                    CP:  6.23D-01  5.63D-01
 E= -1714.03413092559     Delta-E=       -0.000015891073 Rises=F Damp=F
 DIIS: error= 3.57D-05 at cycle   8 NSaved=   8.
 NSaved= 8 IEnMin= 8 EnMin= -1714.03413092559     IErMin= 8 ErrMin= 3.57D-05
 ErrMax= 3.57D-05  0.00D+00 EMaxC= 1.00D-01 BMatC= 7.31D-07 BMatP= 1.95D-05
 IDIUse=1 WtCom= 1.00D+00 WtEn= 0.00D+00
 Coeff-Com: -0.188D-03-0.429D-03 0.236D-02 0.855D-02 0.388D-01 0.113D+00
 Coeff-Com:  0.234D+00 0.604D+00
 Coeff:     -0.188D-03-0.429D-03 0.236D-02 0.855D-02 0.388D-01 0.113D+00
 Coeff:      0.234D+00 0.604D+00
 Gap=     0.238 Goal=   None    Shift=    0.000
 RMSDP=3.36D-06 MaxDP=1.54D-04 DE=-1.59D-05 OVMax= 2.13D-04

 Initial convergence to 1.0D-05 achieved.  Increase integral accuracy.
 Cycle   9  Pass 1  IDiag  1:
 E= -1714.03421659163     Delta-E=       -0.000085666036 Rises=F Damp=F
 DIIS: error= 5.66D-05 at cycle   1 NSaved=   1.
 NSaved= 1 IEnMin= 1 EnMin= -1714.03421659163     IErMin= 1 ErrMin= 5.66D-05
 ErrMax= 5.66D-05  0.00D+00 EMaxC= 1.00D-01 BMatC= 1.10D-06 BMatP= 1.10D-06
 IDIUse=1 WtCom= 1.00D+00 WtEn= 0.00D+00
 Coeff-Com:  0.100D+01
 Coeff:      0.100D+01
 Gap=     0.238 Goal=   None    Shift=    0.000
 RMSDP=3.36D-06 MaxDP=1.54D-04 DE=-8.57D-05 OVMax= 3.13D-04

 Cycle  10  Pass 1  IDiag  1:
 RMSU=  3.23D-05    CP:  1.00D+00
 E= -1714.03421709955     Delta-E=       -0.000000507926 Rises=F Damp=F
 DIIS: error= 3.82D-05 at cycle   2 NSaved=   2.
 NSaved= 2 IEnMin= 2 EnMin= -1714.03421709955     IErMin= 2 ErrMin= 3.82D-05
 ErrMax= 3.82D-05  0.00D+00 EMaxC= 1.00D-01 BMatC= 7.94D-07 BMatP= 1.10D-06
 IDIUse=1 WtCom= 1.00D+00 WtEn= 0.00D+00
 Coeff-Com:  0.441D+00 0.559D+00
 Coeff:      0.441D+00 0.559D+00
 Gap=     0.238 Goal=   None    Shift=    0.000
 RMSDP=4.18D-06 MaxDP=1.80D-04 DE=-5.08D-07 OVMax= 3.39D-04

 Cycle  11  Pass 1  IDiag  1:
 RMSU=  4.18D-06    CP:  1.00D+00  9.95D-01
 E= -1714.03421737014     Delta-E=       -0.000000270593 Rises=F Damp=F
 DIIS: error= 3.35D-05 at cycle   3 NSaved=   3.
 NSaved= 3 IEnMin= 3 EnMin= -1714.03421737014     IErMin= 3 ErrMin= 3.35D-05
 ErrMax= 3.35D-05  0.00D+00 EMaxC= 1.00D-01 BMatC= 5.06D-07 BMatP= 7.94D-07
 IDIUse=1 WtCom= 1.00D+00 WtEn= 0.00D+00
 Coeff-Com:  0.347D-02 0.443D+00 0.554D+00
 Coeff:      0.347D-02 0.443D+00 0.554D+00
 Gap=     0.238 Goal=   None    Shift=    0.000
 RMSDP=1.89D-06 MaxDP=9.07D-05 DE=-2.71D-07 OVMax= 1.49D-04

 Cycle  12  Pass 1  IDiag  1:
 RMSU=  6.20D-07    CP:  1.00D+00  1.01D+00  5.82D-01
 E= -1714.03421778109     Delta-E=       -0.000000410947 Rises=F Damp=F
 DIIS: error= 5.01D-06 at cycle   4 NSaved=   4.
 NSaved= 4 IEnMin= 4 EnMin= -1714.03421778109     IErMin= 4 ErrMin= 5.01D-06
 ErrMax= 5.01D-06  0.00D+00 EMaxC= 1.00D-01 BMatC= 1.44D-08 BMatP= 5.06D-07
 IDIUse=1 WtCom= 1.00D+00 WtEn= 0.00D+00
 Coeff-Com: -0.740D-02 0.259D+00 0.338D+00 0.411D+00
 Coeff:     -0.740D-02 0.259D+00 0.338D+00 0.411D+00
 Gap=     0.238 Goal=   None    Shift=    0.000
 RMSDP=3.76D-07 MaxDP=1.63D-05 DE=-4.11D-07 OVMax= 3.53D-05

 Cycle  13  Pass 1  IDiag  1:
 RMSU=  2.07D-07    CP:  1.00D+00  1.01D+00  5.77D-01  4.96D-01
 E= -1714.03421779340     Delta-E=       -0.000000012310 Rises=F Damp=F
 DIIS: error= 1.35D-06 at cycle   5 NSaved=   5.
 NSaved= 5 IEnMin= 5 EnMin= -1714.03421779340     IErMin= 5 ErrMin= 1.35D-06
 ErrMax= 1.35D-06  0.00D+00 EMaxC= 1.00D-01 BMatC= 7.25D-10 BMatP= 1.44D-08
 IDIUse=1 WtCom= 1.00D+00 WtEn= 0.00D+00
 Coeff-Com: -0.462D-02 0.130D+00 0.170D+00 0.250D+00 0.455D+00
 Coeff:     -0.462D-02 0.130D+00 0.170D+00 0.250D+00 0.455D+00
 Gap=     0.238 Goal=   None    Shift=    0.000
 RMSDP=9.27D-08 MaxDP=4.23D-06 DE=-1.23D-08 OVMax= 9.39D-06

 Cycle  14  Pass 1  IDiag  1:
 RMSU=  6.65D-08    CP:  1.00D+00  1.01D+00  5.78D-01  5.18D-01  6.96D-01
 E= -1714.03421779405     Delta-E=       -0.000000000645 Rises=F Damp=F
 DIIS: error= 1.98D-07 at cycle   6 NSaved=   6.
 NSaved= 6 IEnMin= 6 EnMin= -1714.03421779405     IErMin= 6 ErrMin= 1.98D-07
 ErrMax= 1.98D-07  0.00D+00 EMaxC= 1.00D-01 BMatC= 3.83D-11 BMatP= 7.25D-10
 IDIUse=1 WtCom= 1.00D+00 WtEn= 0.00D+00
 Coeff-Com: -0.121D-02 0.270D-01 0.356D-01 0.647D-01 0.217D+00 0.657D+00
 Coeff:     -0.121D-02 0.270D-01 0.356D-01 0.647D-01 0.217D+00 0.657D+00
 Gap=     0.238 Goal=   None    Shift=    0.000
 RMSDP=2.35D-08 MaxDP=1.02D-06 DE=-6.45D-10 OVMax= 1.47D-06

 Cycle  15  Pass 1  IDiag  1:
 RMSU=  1.95D-08    CP:  1.00D+00  1.01D+00  5.78D-01  5.23D-01  7.44D-01
                    CP:  8.82D-01
 E= -1714.03421779402     Delta-E=        0.000000000025 Rises=F Damp=F
 DIIS: error= 1.22D-07 at cycle   7 NSaved=   7.
 NSaved= 7 IEnMin= 6 EnMin= -1714.03421779405     IErMin= 7 ErrMin= 1.22D-07
 ErrMax= 1.22D-07  0.00D+00 EMaxC= 1.00D-01 BMatC= 9.23D-12 BMatP= 3.83D-11
 IDIUse=1 WtCom= 1.00D+00 WtEn= 0.00D+00
 Coeff-Com: -0.180D-03 0.919D-03 0.136D-02 0.895D-02 0.739D-01 0.391D+00
 Coeff-Com:  0.524D+00
 Coeff:     -0.180D-03 0.919D-03 0.136D-02 0.895D-02 0.739D-01 0.391D+00
 Coeff:      0.524D+00
 Gap=     0.238 Goal=   None    Shift=    0.000
 RMSDP=1.06D-08 MaxDP=5.73D-07 DE= 2.50D-11 OVMax= 6.49D-07

 Cycle  16  Pass 1  IDiag  1:
 RMSU=  6.21D-09    CP:  1.00D+00  1.01D+00  5.78D-01  5.25D-01  7.52D-01
                    CP:  9.04D-01  5.82D-01
 E= -1714.03421779415     Delta-E=       -0.000000000126 Rises=F Damp=F
 DIIS: error= 5.06D-08 at cycle   8 NSaved=   8.
 NSaved= 8 IEnMin= 8 EnMin= -1714.03421779415     IErMin= 8 ErrMin= 5.06D-08
 ErrMax= 5.06D-08  0.00D+00 EMaxC= 1.00D-01 BMatC= 1.33D-12 BMatP= 9.23D-12
 IDIUse=1 WtCom= 1.00D+00 WtEn= 0.00D+00
 Coeff-Com:  0.242D-04-0.261D-02-0.332D-02-0.207D-02 0.212D-01 0.169D+00
 Coeff-Com:  0.330D+00 0.488D+00
 Coeff:      0.242D-04-0.261D-02-0.332D-02-0.207D-02 0.212D-01 0.169D+00
 Coeff:      0.330D+00 0.488D+00
 Gap=     0.238 Goal=   None    Shift=    0.000
 RMSDP=3.49D-09 MaxDP=1.62D-07 DE=-1.26D-10 OVMax= 2.42D-07

 SCF Done:  E(RB3LYP) =  -1714.03421779     A.U. after   16 cycles
            NFock= 16  Conv=0.35D-08     -V/T= 2.0068
 KE= 1.702536196712D+03 PE=-8.408774489432D+03 EE= 2.800594258723D+03
 Leave Link  502 at Fri Oct  2 06:19:46 2020, MaxMem=  2147483648 cpu:       418.8
 (Enter /prod/apps/gaussian/g09d1/l601.exe)
 Copying SCF densities to generalized density rwf, IOpCl= 0 IROHF=0.

 **********************************************************************

            Population analysis using the SCF density.

 **********************************************************************

 Orbital symmetries:
       Occupied  (A) (A) (A) (A) (A) (A) (A) (A) (A) (A) (A) (A)
                 (A) (A) (A) (A) (A) (A) (A) (A) (A) (A) (A) (A)
                 (A) (A) (A) (A) (A) (A) (A) (A) (A) (A) (A) (A)
                 (A) (A) (A) (A) (A) (A) (A) (A) (A) (A) (A) (A)
                 (A) (A) (A) (A) (A) (A) (A) (A) (A) (A) (A) (A)
                 (A) (A) (A) (A) (A) (A) (A) (A) (A) (A) (A) (A)
                 (A) (A) (A) (A) (A) (A) (A) (A) (A) (A) (A) (A)
                 (A) (A) (A) (A)
       Virtual   (A) (A) (A) (A) (A) (A) (A) (A) (A) (A) (A) (A)
                 (A) (A) (A) (A) (A) (A) (A) (A) (A) (A) (A) (A)
                 (A) (A) (A) (A) (A) (A) (A) (A) (A) (A) (A) (A)
                 (A) (A) (A) (A) (A) (A) (A) (A) (A) (A) (A) (A)
                 (A) (A) (A) (A) (A) (A) (A) (A) (A) (A) (A) (A)
                 (A) (A) (A) (A) (A) (A) (A) (A) (A) (A) (A) (A)
                 (A) (A) (A) (A) (A) (A) (A) (A) (A) (A) (A) (A)
                 (A) (A) (A) (A) (A) (A) (A) (A) (A) (A) (A) (A)
                 (A) (A) (A) (A) (A) (A) (A) (A) (A) (A) (A) (A)
                 (A) (A) (A) (A) (A) (A) (A) (A) (A) (A) (A) (A)
                 (A) (A) (A) (A) (A) (A) (A) (A) (A) (A) (A) (A)
                 (A) (A) (A) (A) (A) (A) (A) (A) (A) (A) (A) (A)
                 (A) (A) (A) (A) (A) (A) (A) (A) (A) (A) (A) (A)
                 (A) (A) (A) (A) (A) (A) (A) (A) (A) (A) (A) (A)
                 (A) (A) (A) (A) (A) (A) (A) (A) (A) (A) (A) (A)
                 (A) (A) (A) (A) (A) (A) (A) (A) (A) (A) (A) (A)
                 (A) (A) (A) (A) (A) (A) (A) (A) (A) (A) (A) (A)
                 (A) (A) (A) (A) (A) (A) (A) (A) (A) (A) (A) (A)
                 (A) (A) (A) (A) (A) (A) (A) (A) (A) (A) (A) (A)
                 (A) (A) (A) (A) (A) (A) (A) (A) (A) (A) (A) (A)
                 (A) (A) (A) (A) (A) (A) (A) (A) (A) (A) (A) (A)
                 (A) (A) (A) (A) (A) (A) (A) (A) (A) (A) (A) (A)
                 (A) (A) (A) (A) (A) (A) (A) (A) (A) (A) (A)
 The electronic state is 1-A.
 Alpha  occ. eigenvalues --  -89.14376 -89.09084 -19.15786 -19.15626 -19.14482
 Alpha  occ. eigenvalues --  -19.14302 -14.39032 -14.38955 -10.28616 -10.24292
 Alpha  occ. eigenvalues --  -10.23556 -10.23180 -10.22865 -10.21247 -10.20664
 Alpha  occ. eigenvalues --  -10.20434 -10.19748 -10.19642 -10.19489 -10.19420
 Alpha  occ. eigenvalues --  -10.18923  -8.16569  -8.12122  -6.13053  -6.13003
 Alpha  occ. eigenvalues --   -6.12964  -6.08542  -6.08479  -6.08412  -1.13548
 Alpha  occ. eigenvalues --   -1.09743  -1.01731  -0.99403  -0.96024  -0.95079
 Alpha  occ. eigenvalues --   -0.86562  -0.85567  -0.80084  -0.74960  -0.74780
 Alpha  occ. eigenvalues --   -0.74417  -0.73235  -0.72004  -0.68444  -0.63637
 Alpha  occ. eigenvalues --   -0.61369  -0.60635  -0.58791  -0.57744  -0.56173
 Alpha  occ. eigenvalues --   -0.53827  -0.51979  -0.51839  -0.50367  -0.49415
 Alpha  occ. eigenvalues --   -0.49138  -0.48351  -0.46842  -0.46282  -0.45809
 Alpha  occ. eigenvalues --   -0.45400  -0.44803  -0.44052  -0.43568  -0.43256
 Alpha  occ. eigenvalues --   -0.42745  -0.42364  -0.41784  -0.40897  -0.40531
 Alpha  occ. eigenvalues --   -0.40414  -0.37578  -0.36941  -0.36232  -0.35502
 Alpha  occ. eigenvalues --   -0.34368  -0.34309  -0.33854  -0.33064  -0.32285
 Alpha  occ. eigenvalues --   -0.31741  -0.31194  -0.29867  -0.29560  -0.28869
 Alpha  occ. eigenvalues --   -0.26612  -0.25596  -0.24900
 Alpha virt. eigenvalues --   -0.01125  -0.00761   0.02170   0.03400   0.04754
 Alpha virt. eigenvalues --    0.05268   0.05781   0.06164   0.07265   0.08174
 Alpha virt. eigenvalues --    0.08497   0.09397   0.10134   0.10795   0.11236
 Alpha virt. eigenvalues --    0.12261   0.12974   0.13228   0.14106   0.14825
 Alpha virt. eigenvalues --    0.15114   0.15503   0.15856   0.16562   0.16791
 Alpha virt. eigenvalues --    0.16927   0.17484   0.17732   0.18904   0.19422
 Alpha virt. eigenvalues --    0.19739   0.20508   0.21478   0.21771   0.22839
 Alpha virt. eigenvalues --    0.24314   0.24972   0.27406   0.29933   0.30245
 Alpha virt. eigenvalues --    0.31795   0.33106   0.33687   0.35186   0.35679
 Alpha virt. eigenvalues --    0.35933   0.37391   0.41384   0.42522   0.44846
 Alpha virt. eigenvalues --    0.45679   0.45951   0.47733   0.48824   0.49818
 Alpha virt. eigenvalues --    0.50810   0.51843   0.52758   0.53428   0.53735
 Alpha virt. eigenvalues --    0.54467   0.55715   0.55925   0.56797   0.57399
 Alpha virt. eigenvalues --    0.58699   0.58814   0.59145   0.59550   0.60097
 Alpha virt. eigenvalues --    0.60923   0.61203   0.62060   0.63311   0.64187
 Alpha virt. eigenvalues --    0.65351   0.67327   0.67820   0.67885   0.70159
 Alpha virt. eigenvalues --    0.71734   0.72988   0.73685   0.74436   0.75785
 Alpha virt. eigenvalues --    0.76317   0.77598   0.78203   0.79078   0.80006
 Alpha virt. eigenvalues --    0.80160   0.81152   0.81904   0.82651   0.83434
 Alpha virt. eigenvalues --    0.83912   0.83986   0.84974   0.85675   0.85706
 Alpha virt. eigenvalues --    0.86280   0.87621   0.88018   0.88135   0.89793
 Alpha virt. eigenvalues --    0.90012   0.90419   0.90710   0.92906   0.93241
 Alpha virt. eigenvalues --    0.93664   0.94055   0.94343   0.95844   0.96787
 Alpha virt. eigenvalues --    0.97172   0.98095   1.00097   1.00505   1.01257
 Alpha virt. eigenvalues --    1.02698   1.03680   1.05376   1.05634   1.06623
 Alpha virt. eigenvalues --    1.07572   1.09139   1.10313   1.11184   1.11403
 Alpha virt. eigenvalues --    1.11861   1.12538   1.14245   1.15196   1.15948
 Alpha virt. eigenvalues --    1.17735   1.18030   1.20540   1.21528   1.21898
 Alpha virt. eigenvalues --    1.23388   1.24870   1.26114   1.27935   1.30167
 Alpha virt. eigenvalues --    1.30846   1.32746   1.36070   1.36902   1.38601
 Alpha virt. eigenvalues --    1.42948   1.43023   1.43447   1.44283   1.46767
 Alpha virt. eigenvalues --    1.47674   1.48517   1.49351   1.50823   1.52100
 Alpha virt. eigenvalues --    1.56222   1.58305   1.58709   1.63429   1.65008
 Alpha virt. eigenvalues --    1.67898   1.70184   1.72576   1.72902   1.76152
 Alpha virt. eigenvalues --    1.78905   1.79243   1.79729   1.79863   1.80710
 Alpha virt. eigenvalues --    1.80867   1.81363   1.81504   1.82184   1.82282
 Alpha virt. eigenvalues --    1.83446   1.84500   1.85556   1.87009   1.87382
 Alpha virt. eigenvalues --    1.88953   1.90787   1.91271   1.91687   1.93012
 Alpha virt. eigenvalues --    1.93208   1.94344   1.96468   1.97335   1.97680
 Alpha virt. eigenvalues --    1.99094   2.01226   2.01994   2.03179   2.04214
 Alpha virt. eigenvalues --    2.05234   2.06083   2.07214   2.08471   2.09882
 Alpha virt. eigenvalues --    2.10934   2.12416   2.13663   2.14626   2.14943
 Alpha virt. eigenvalues --    2.15142   2.16689   2.18654   2.18836   2.21049
 Alpha virt. eigenvalues --    2.22104   2.24662   2.25365   2.26179   2.29018
 Alpha virt. eigenvalues --    2.30172   2.30678   2.31174   2.32798   2.33470
 Alpha virt. eigenvalues --    2.35384   2.38200   2.41037   2.42989   2.43467
 Alpha virt. eigenvalues --    2.46570   2.48502   2.50344   2.55502   2.57868
 Alpha virt. eigenvalues --    2.57972   2.59582   2.64139   2.66966   2.68780
 Alpha virt. eigenvalues --    2.70314   2.71598   2.72773   2.74242   2.74495
 Alpha virt. eigenvalues --    2.75517   2.77630   2.78464   2.80794   2.84132
 Alpha virt. eigenvalues --    2.88957   2.92448   3.05089   3.40422   3.76828
 Alpha virt. eigenvalues --    3.81847   3.90514   3.95382   3.98220   4.01836
 Alpha virt. eigenvalues --    4.06442   4.07958   4.09068   4.12191   4.17438
 Alpha virt. eigenvalues --    4.19788   4.23590   4.24750   4.31854   4.33658
 Alpha virt. eigenvalues --    4.34993   4.43968   4.54209   4.68818   4.76698
          Condensed to atoms (all electrons):
               1          2          3          4          5          6
     1  C    4.985424   0.266612  -0.051295  -0.008114   0.001823   0.004737
     2  N    0.266612   7.230656   0.287250   0.135995  -0.055312  -0.055791
     3  C   -0.051295   0.287250   4.986860  -0.024103  -0.002896  -0.001959
     4  S   -0.008114   0.135995  -0.024103  13.563457   0.426562   0.445620
     5  O    0.001823  -0.055312  -0.002896   0.426562   8.251922  -0.043276
     6  O    0.004737  -0.055791  -0.001959   0.445620  -0.043276   8.224252
     7  N   -0.004264  -0.057262   0.002143   0.164437  -0.052246  -0.059775
     8  C   -0.000058   0.004714  -0.000179  -0.005201  -0.003512   0.002439
     9  C   -0.000019  -0.000010   0.000002  -0.000031  -0.000145  -0.000091
    10  S    0.000001   0.000050  -0.000002   0.000432   0.000184   0.000005
    11  O    0.000000   0.000000   0.000000  -0.000040  -0.000001   0.000000
    12  O    0.000000   0.000000   0.000000  -0.000003   0.000000   0.000000
    13  C    0.000014  -0.000981   0.000021  -0.003427  -0.008201  -0.000092
    14  C    0.000205  -0.009084   0.000167  -0.007082  -0.000319  -0.000104
    15  C   -0.000033   0.000142   0.000002   0.000190  -0.000001   0.000000
    16  C    0.000001  -0.000005   0.000000   0.000002   0.000000   0.000000
    17  C   -0.000001   0.000000   0.000000  -0.000001   0.000000   0.000000
    18  C    0.000000   0.000000   0.000000   0.000000   0.000000   0.000000
    19  C    0.000000   0.000000   0.000000   0.000000   0.000000   0.000000
    20  C    0.000000   0.000000   0.000000   0.000000   0.000000   0.000000
    21  C    0.000000   0.000000   0.000000   0.000000   0.000000   0.000000
    22  H    0.373582  -0.035522  -0.004076   0.002401  -0.000053   0.000174
    23  H    0.377667  -0.043625  -0.002214  -0.007403  -0.000042   0.005683
    24  H    0.372522  -0.036841   0.005044   0.002469   0.000008  -0.002407
    25  H   -0.002695  -0.040057   0.374717   0.001490   0.000379  -0.000104
    26  H    0.004561  -0.030399   0.378663  -0.004584   0.011605  -0.000036
    27  H   -0.002448  -0.047346   0.372631  -0.002194  -0.000553   0.001698
    28  H   -0.000214   0.000466  -0.000032  -0.008702   0.001611   0.002996
    29  H    0.000000   0.000001   0.000000  -0.000050   0.000000   0.000000
    30  H    0.000000   0.000004   0.000000   0.000070  -0.000011  -0.000020
    31  H    0.000002  -0.000033   0.000010  -0.000283   0.000017   0.000000
    32  H   -0.000005  -0.000183  -0.000023  -0.001920   0.018806  -0.000045
    33  H   -0.002339   0.012716   0.000007   0.001709  -0.000136   0.000004
    34  H   -0.000234  -0.000001   0.000001  -0.000545   0.000006  -0.000010
    35  H   -0.000001   0.000000   0.000000   0.000000  -0.000001   0.000000
    36  H    0.000008   0.000009  -0.000001  -0.000023   0.000000   0.000000
    37  H    0.000000   0.000000   0.000000   0.000000   0.000000   0.000000
    38  H    0.000000   0.000000   0.000000   0.000000   0.000000   0.000000
    39  H    0.000000   0.000000   0.000000   0.000000   0.000000   0.000000
    40  H    0.000000   0.000000   0.000000   0.000000   0.000000   0.000000
    41  H    0.000000   0.000000   0.000000   0.000000   0.000000   0.000000
               7          8          9         10         11         12
     1  C   -0.004264  -0.000058  -0.000019   0.000001   0.000000   0.000000
     2  N   -0.057262   0.004714  -0.000010   0.000050   0.000000   0.000000
     3  C    0.002143  -0.000179   0.000002  -0.000002   0.000000   0.000000
     4  S    0.164437  -0.005201  -0.000031   0.000432  -0.000040  -0.000003
     5  O   -0.052246  -0.003512  -0.000145   0.000184  -0.000001   0.000000
     6  O   -0.059775   0.002439  -0.000091   0.000005   0.000000   0.000000
     7  N    7.360908   0.206464  -0.049102   0.006730  -0.000306  -0.000031
     8  C    0.206464   4.844049   0.348705  -0.101179   0.001410   0.000965
     9  C   -0.049102   0.348705   5.761968   0.139844  -0.045371  -0.042417
    10  S    0.006730  -0.101179   0.139844  13.866586   0.438833   0.391994
    11  O   -0.000306   0.001410  -0.045371   0.438833   8.192042  -0.043625
    12  O   -0.000031   0.000965  -0.042417   0.391994  -0.043625   8.261996
    13  C   -0.044316   0.358515  -0.196426   0.150925  -0.045216  -0.044655
    14  C   -0.060425   0.391709  -0.049232   0.003693  -0.000064  -0.000511
    15  C    0.004113  -0.028786  -0.002389  -0.000756  -0.000006  -0.000818
    16  C   -0.000033  -0.002433  -0.003410  -0.000931   0.000000  -0.000931
    17  C   -0.000006  -0.000211   0.000012  -0.000029   0.000000  -0.000008
    18  C    0.000000  -0.000011   0.000082  -0.000001   0.000000   0.000000
    19  C    0.000000   0.000002   0.000037  -0.000003   0.000000  -0.000001
    20  C    0.000000   0.000001  -0.000455   0.000078   0.000000   0.000093
    21  C   -0.000009   0.000675  -0.007649   0.000751  -0.000006  -0.005161
    22  H   -0.000180   0.000033  -0.000001   0.000000   0.000000   0.000000
    23  H   -0.000221  -0.000007   0.000000   0.000000   0.000000   0.000000
    24  H    0.006734  -0.000974   0.000013  -0.000002   0.000000   0.000000
    25  H   -0.000077   0.000019   0.000000   0.000000   0.000000   0.000000
    26  H    0.000159  -0.000015   0.000000   0.000003   0.000000   0.000000
    27  H   -0.000111   0.000003   0.000000   0.000000   0.000000   0.000000
    28  H    0.294362  -0.025333  -0.006201  -0.000087   0.000006   0.000001
    29  H    0.001832  -0.025022   0.321697  -0.007561   0.000834  -0.001584
    30  H   -0.001813  -0.025886   0.333778  -0.004050  -0.000019   0.000975
    31  H    0.002390  -0.029816   0.008648  -0.010978   0.000936  -0.000791
    32  H   -0.003537  -0.021497   0.005884  -0.003975   0.000607   0.000772
    33  H   -0.003604  -0.033583   0.005394  -0.000080   0.000001   0.000003
    34  H   -0.001653  -0.035679  -0.005125  -0.000195   0.000001   0.000004
    35  H    0.000105  -0.006775  -0.000511   0.002131   0.000016   0.004643
    36  H   -0.000139   0.004166  -0.000119   0.000105   0.000000   0.000031
    37  H    0.000001   0.000114  -0.000023  -0.000001   0.000000   0.000000
    38  H    0.000000   0.000000   0.000000   0.000000   0.000000   0.000000
    39  H    0.000000   0.000000   0.000000   0.000000   0.000000   0.000000
    40  H    0.000000   0.000001  -0.000013   0.000008   0.000000   0.000003
    41  H    0.000001   0.000031  -0.000300   0.000514   0.000014   0.014743
              13         14         15         16         17         18
     1  C    0.000014   0.000205  -0.000033   0.000001  -0.000001   0.000000
     2  N   -0.000981  -0.009084   0.000142  -0.000005   0.000000   0.000000
     3  C    0.000021   0.000167   0.000002   0.000000   0.000000   0.000000
     4  S   -0.003427  -0.007082   0.000190   0.000002  -0.000001   0.000000
     5  O   -0.008201  -0.000319  -0.000001   0.000000   0.000000   0.000000
     6  O   -0.000092  -0.000104   0.000000   0.000000   0.000000   0.000000
     7  N   -0.044316  -0.060425   0.004113  -0.000033  -0.000006   0.000000
     8  C    0.358515   0.391709  -0.028786  -0.002433  -0.000211  -0.000011
     9  C   -0.196426  -0.049232  -0.002389  -0.003410   0.000012   0.000082
    10  S    0.150925   0.003693  -0.000756  -0.000931  -0.000029  -0.000001
    11  O   -0.045216  -0.000064  -0.000006   0.000000   0.000000   0.000000
    12  O   -0.044655  -0.000511  -0.000818  -0.000931  -0.000008   0.000000
    13  C    5.722401  -0.046598  -0.005293   0.000058  -0.000002   0.000000
    14  C   -0.046598   5.135754   0.323136  -0.033218  -0.006846   0.000111
    15  C   -0.005293   0.323136   5.212112   0.345779  -0.065898   0.006205
    16  C    0.000058  -0.033218   0.345779   4.668521   0.542217  -0.017727
    17  C   -0.000002  -0.006846  -0.065898   0.542217   4.977960   0.529782
    18  C    0.000000   0.000111   0.006205  -0.017727   0.529782   4.863051
    19  C    0.000000   0.000009   0.000366  -0.034738  -0.035602   0.546753
    20  C   -0.000003  -0.000165   0.007225  -0.024086  -0.047744  -0.025488
    21  C   -0.000250   0.000264  -0.050989   0.544988  -0.041309  -0.047167
    22  H    0.000000   0.000308  -0.000019   0.000000   0.000000   0.000000
    23  H    0.000000  -0.000024   0.000000   0.000000   0.000000   0.000000
    24  H    0.000033   0.001404   0.000026   0.000000  -0.000005   0.000000
    25  H   -0.000007   0.000082  -0.000004   0.000000   0.000000   0.000000
    26  H    0.000045   0.000019   0.000000   0.000000   0.000000   0.000000
    27  H    0.000000  -0.000012   0.000000   0.000000   0.000000   0.000000
    28  H    0.005056  -0.000980  -0.000064  -0.000010  -0.000003   0.000000
    29  H    0.007366  -0.005467  -0.003176   0.010555   0.000430  -0.000314
    30  H    0.006787   0.002761   0.000060   0.000013  -0.000007  -0.000001
    31  H    0.336571  -0.005967   0.000713   0.000246   0.000002   0.000000
    32  H    0.330300   0.002249   0.000086  -0.000007   0.000000   0.000000
    33  H   -0.007174   0.359949  -0.027382   0.003546   0.000283   0.000004
    34  H    0.005388   0.361115  -0.040051  -0.006018   0.005019  -0.000199
    35  H    0.001026  -0.041631   0.363658  -0.031792   0.004247  -0.000166
    36  H    0.000049  -0.034643   0.359237  -0.030879  -0.005425   0.000001
    37  H    0.000001   0.000587  -0.009115  -0.049549   0.353663  -0.045177
    38  H    0.000000   0.000000  -0.000185   0.003833  -0.040886   0.357334
    39  H    0.000000   0.000000   0.000007   0.000669   0.004804  -0.043354
    40  H    0.000000   0.000001  -0.000181   0.003655   0.000866   0.004541
    41  H    0.000103   0.000253  -0.010629  -0.038967   0.005680   0.000326
              19         20         21         22         23         24
     1  C    0.000000   0.000000   0.000000   0.373582   0.377667   0.372522
     2  N    0.000000   0.000000   0.000000  -0.035522  -0.043625  -0.036841
     3  C    0.000000   0.000000   0.000000  -0.004076  -0.002214   0.005044
     4  S    0.000000   0.000000   0.000000   0.002401  -0.007403   0.002469
     5  O    0.000000   0.000000   0.000000  -0.000053  -0.000042   0.000008
     6  O    0.000000   0.000000   0.000000   0.000174   0.005683  -0.002407
     7  N    0.000000   0.000000  -0.000009  -0.000180  -0.000221   0.006734
     8  C    0.000002   0.000001   0.000675   0.000033  -0.000007  -0.000974
     9  C    0.000037  -0.000455  -0.007649  -0.000001   0.000000   0.000013
    10  S   -0.000003   0.000078   0.000751   0.000000   0.000000  -0.000002
    11  O    0.000000   0.000000  -0.000006   0.000000   0.000000   0.000000
    12  O   -0.000001   0.000093  -0.005161   0.000000   0.000000   0.000000
    13  C    0.000000  -0.000003  -0.000250   0.000000   0.000000   0.000033
    14  C    0.000009  -0.000165   0.000264   0.000308  -0.000024   0.001404
    15  C    0.000366   0.007225  -0.050989  -0.000019   0.000000   0.000026
    16  C   -0.034738  -0.024086   0.544988   0.000000   0.000000   0.000000
    17  C   -0.035602  -0.047744  -0.041309   0.000000   0.000000  -0.000005
    18  C    0.546753  -0.025488  -0.047167   0.000000   0.000000   0.000000
    19  C    4.856746   0.549694  -0.035197   0.000000   0.000000   0.000000
    20  C    0.549694   4.878729   0.511947   0.000000   0.000000   0.000000
    21  C   -0.035197   0.511947   5.010881   0.000000   0.000000   0.000000
    22  H    0.000000   0.000000   0.000000   0.553564  -0.035712  -0.026632
    23  H    0.000000   0.000000   0.000000  -0.035712   0.549837  -0.032081
    24  H    0.000000   0.000000   0.000000  -0.026632  -0.032081   0.546155
    25  H    0.000000   0.000000   0.000000   0.005213  -0.001672   0.000066
    26  H    0.000000   0.000000   0.000000   0.000006  -0.000172  -0.000190
    27  H    0.000000   0.000000   0.000000  -0.001429   0.008503  -0.000247
    28  H    0.000000   0.000000   0.000001   0.000012   0.000027   0.000780
    29  H   -0.000091   0.000698   0.012447   0.000000   0.000000  -0.000001
    30  H   -0.000002   0.000005   0.000135   0.000000   0.000000  -0.000004
    31  H    0.000000   0.000000  -0.000011   0.000001   0.000000   0.000000
    32  H    0.000000   0.000000   0.000001   0.000001  -0.000001   0.000000
    33  H    0.000000   0.000002  -0.000106  -0.000379   0.000266  -0.001010
    34  H   -0.000007  -0.000014   0.000297   0.000015   0.000009   0.002400
    35  H   -0.000004   0.000233  -0.003685   0.000000   0.000000   0.000002
    36  H    0.000029  -0.000229   0.002422   0.000003   0.000000  -0.000005
    37  H    0.004964   0.000300   0.006241   0.000000   0.000000   0.000002
    38  H   -0.042774   0.004645   0.000749   0.000000   0.000000   0.000000
    39  H    0.359878  -0.042882   0.004754   0.000000   0.000000   0.000000
    40  H   -0.043575   0.358485  -0.038049   0.000000   0.000000   0.000000
    41  H    0.004262  -0.040427   0.349877   0.000000   0.000000   0.000000
              25         26         27         28         29         30
     1  C   -0.002695   0.004561  -0.002448  -0.000214   0.000000   0.000000
     2  N   -0.040057  -0.030399  -0.047346   0.000466   0.000001   0.000004
     3  C    0.374717   0.378663   0.372631  -0.000032   0.000000   0.000000
     4  S    0.001490  -0.004584  -0.002194  -0.008702  -0.000050   0.000070
     5  O    0.000379   0.011605  -0.000553   0.001611   0.000000  -0.000011
     6  O   -0.000104  -0.000036   0.001698   0.002996   0.000000  -0.000020
     7  N   -0.000077   0.000159  -0.000111   0.294362   0.001832  -0.001813
     8  C    0.000019  -0.000015   0.000003  -0.025333  -0.025022  -0.025886
     9  C    0.000000   0.000000   0.000000  -0.006201   0.321697   0.333778
    10  S    0.000000   0.000003   0.000000  -0.000087  -0.007561  -0.004050
    11  O    0.000000   0.000000   0.000000   0.000006   0.000834  -0.000019
    12  O    0.000000   0.000000   0.000000   0.000001  -0.001584   0.000975
    13  C   -0.000007   0.000045   0.000000   0.005056   0.007366   0.006787
    14  C    0.000082   0.000019  -0.000012  -0.000980  -0.005467   0.002761
    15  C   -0.000004   0.000000   0.000000  -0.000064  -0.003176   0.000060
    16  C    0.000000   0.000000   0.000000  -0.000010   0.010555   0.000013
    17  C    0.000000   0.000000   0.000000  -0.000003   0.000430  -0.000007
    18  C    0.000000   0.000000   0.000000   0.000000  -0.000314  -0.000001
    19  C    0.000000   0.000000   0.000000   0.000000  -0.000091  -0.000002
    20  C    0.000000   0.000000   0.000000   0.000000   0.000698   0.000005
    21  C    0.000000   0.000000   0.000000   0.000001   0.012447   0.000135
    22  H    0.005213   0.000006  -0.001429   0.000012   0.000000   0.000000
    23  H   -0.001672  -0.000172   0.008503   0.000027   0.000000   0.000000
    24  H    0.000066  -0.000190  -0.000247   0.000780  -0.000001  -0.000004
    25  H    0.562056  -0.021160  -0.042073  -0.000001   0.000000   0.000000
    26  H   -0.021160   0.483164  -0.029291  -0.000006   0.000000   0.000000
    27  H   -0.042073  -0.029291   0.577402   0.000003   0.000000   0.000000
    28  H   -0.000001  -0.000006   0.000003   0.372205   0.000185   0.002101
    29  H    0.000000   0.000000   0.000000   0.000185   0.475048  -0.017281
    30  H    0.000000   0.000000   0.000000   0.002101  -0.017281   0.486889
    31  H    0.000000   0.000017   0.000000  -0.000098  -0.000225  -0.000248
    32  H    0.000002   0.000100  -0.000003   0.000091  -0.000201  -0.000227
    33  H   -0.000253  -0.000054   0.000060  -0.000455   0.000213  -0.000109
    34  H   -0.000002  -0.000001   0.000000   0.004029   0.001313   0.000057
    35  H    0.000000   0.000000   0.000000   0.000008   0.000005  -0.000009
    36  H    0.000001   0.000000   0.000000   0.000001   0.000131   0.000003
    37  H    0.000000   0.000000   0.000000  -0.000001   0.000044   0.000000
    38  H    0.000000   0.000000   0.000000   0.000000  -0.000001   0.000000
    39  H    0.000000   0.000000   0.000000   0.000000   0.000000   0.000000
    40  H    0.000000   0.000000   0.000000   0.000000   0.000032   0.000000
    41  H    0.000000   0.000000   0.000000   0.000000  -0.000461   0.000013
              31         32         33         34         35         36
     1  C    0.000002  -0.000005  -0.002339  -0.000234  -0.000001   0.000008
     2  N   -0.000033  -0.000183   0.012716  -0.000001   0.000000   0.000009
     3  C    0.000010  -0.000023   0.000007   0.000001   0.000000  -0.000001
     4  S   -0.000283  -0.001920   0.001709  -0.000545   0.000000  -0.000023
     5  O    0.000017   0.018806  -0.000136   0.000006  -0.000001   0.000000
     6  O    0.000000  -0.000045   0.000004  -0.000010   0.000000   0.000000
     7  N    0.002390  -0.003537  -0.003604  -0.001653   0.000105  -0.000139
     8  C   -0.029816  -0.021497  -0.033583  -0.035679  -0.006775   0.004166
     9  C    0.008648   0.005884   0.005394  -0.005125  -0.000511  -0.000119
    10  S   -0.010978  -0.003975  -0.000080  -0.000195   0.002131   0.000105
    11  O    0.000936   0.000607   0.000001   0.000001   0.000016   0.000000
    12  O   -0.000791   0.000772   0.000003   0.000004   0.004643   0.000031
    13  C    0.336571   0.330300  -0.007174   0.005388   0.001026   0.000049
    14  C   -0.005967   0.002249   0.359949   0.361115  -0.041631  -0.034643
    15  C    0.000713   0.000086  -0.027382  -0.040051   0.363658   0.359237
    16  C    0.000246  -0.000007   0.003546  -0.006018  -0.031792  -0.030879
    17  C    0.000002   0.000000   0.000283   0.005019   0.004247  -0.005425
    18  C    0.000000   0.000000   0.000004  -0.000199  -0.000166   0.000001
    19  C    0.000000   0.000000   0.000000  -0.000007  -0.000004   0.000029
    20  C    0.000000   0.000000   0.000002  -0.000014   0.000233  -0.000229
    21  C   -0.000011   0.000001  -0.000106   0.000297  -0.003685   0.002422
    22  H    0.000001   0.000001  -0.000379   0.000015   0.000000   0.000003
    23  H    0.000000  -0.000001   0.000266   0.000009   0.000000   0.000000
    24  H    0.000000   0.000000  -0.001010   0.002400   0.000002  -0.000005
    25  H    0.000000   0.000002  -0.000253  -0.000002   0.000000   0.000001
    26  H    0.000017   0.000100  -0.000054  -0.000001   0.000000   0.000000
    27  H    0.000000  -0.000003   0.000060   0.000000   0.000000   0.000000
    28  H   -0.000098   0.000091  -0.000455   0.004029   0.000008   0.000001
    29  H   -0.000225  -0.000201   0.000213   0.001313   0.000005   0.000131
    30  H   -0.000248  -0.000227  -0.000109   0.000057  -0.000009   0.000003
    31  H    0.504286  -0.015425   0.001747   0.000181   0.003868  -0.000202
    32  H   -0.015425   0.417452   0.000052  -0.000090   0.000101   0.000000
    33  H    0.001747   0.000052   0.554631  -0.034319   0.000145  -0.006833
    34  H    0.000181  -0.000090  -0.034319   0.598669   0.004817   0.000569
    35  H    0.003868   0.000101   0.000145   0.004817   0.555208  -0.031202
    36  H   -0.000202   0.000000  -0.006833   0.000569  -0.031202   0.580383
    37  H    0.000000   0.000000  -0.000179   0.003004   0.000034   0.003055
    38  H    0.000000   0.000000   0.000000   0.000010   0.000003  -0.000004
    39  H    0.000000   0.000000   0.000000   0.000000   0.000000   0.000000
    40  H    0.000000   0.000000   0.000000   0.000000  -0.000007   0.000003
    41  H   -0.000004  -0.000001  -0.000011   0.000010   0.005362   0.000111
              37         38         39         40         41
     1  C    0.000000   0.000000   0.000000   0.000000   0.000000
     2  N    0.000000   0.000000   0.000000   0.000000   0.000000
     3  C    0.000000   0.000000   0.000000   0.000000   0.000000
     4  S    0.000000   0.000000   0.000000   0.000000   0.000000
     5  O    0.000000   0.000000   0.000000   0.000000   0.000000
     6  O    0.000000   0.000000   0.000000   0.000000   0.000000
     7  N    0.000001   0.000000   0.000000   0.000000   0.000001
     8  C    0.000114   0.000000   0.000000   0.000001   0.000031
     9  C   -0.000023   0.000000   0.000000  -0.000013  -0.000300
    10  S   -0.000001   0.000000   0.000000   0.000008   0.000514
    11  O    0.000000   0.000000   0.000000   0.000000   0.000014
    12  O    0.000000   0.000000   0.000000   0.000003   0.014743
    13  C    0.000001   0.000000   0.000000   0.000000   0.000103
    14  C    0.000587   0.000000   0.000000   0.000001   0.000253
    15  C   -0.009115  -0.000185   0.000007  -0.000181  -0.010629
    16  C   -0.049549   0.003833   0.000669   0.003655  -0.038967
    17  C    0.353663  -0.040886   0.004804   0.000866   0.005680
    18  C   -0.045177   0.357334  -0.043354   0.004541   0.000326
    19  C    0.004964  -0.042774   0.359878  -0.043575   0.004262
    20  C    0.000300   0.004645  -0.042882   0.358485  -0.040427
    21  C    0.006241   0.000749   0.004754  -0.038049   0.349877
    22  H    0.000000   0.000000   0.000000   0.000000   0.000000
    23  H    0.000000   0.000000   0.000000   0.000000   0.000000
    24  H    0.000002   0.000000   0.000000   0.000000   0.000000
    25  H    0.000000   0.000000   0.000000   0.000000   0.000000
    26  H    0.000000   0.000000   0.000000   0.000000   0.000000
    27  H    0.000000   0.000000   0.000000   0.000000   0.000000
    28  H   -0.000001   0.000000   0.000000   0.000000   0.000000
    29  H    0.000044  -0.000001   0.000000   0.000032  -0.000461
    30  H    0.000000   0.000000   0.000000   0.000000   0.000013
    31  H    0.000000   0.000000   0.000000   0.000000  -0.000004
    32  H    0.000000   0.000000   0.000000   0.000000  -0.000001
    33  H   -0.000179   0.000000   0.000000   0.000000  -0.000011
    34  H    0.003004   0.000010   0.000000   0.000000   0.000010
    35  H    0.000034   0.000003   0.000000  -0.000007   0.005362
    36  H    0.003055  -0.000004   0.000000   0.000003   0.000111
    37  H    0.620152  -0.005845  -0.000184   0.000018  -0.000163
    38  H   -0.005845   0.598403  -0.005507  -0.000186   0.000015
    39  H   -0.000184  -0.005507   0.595073  -0.005540  -0.000155
    40  H    0.000018  -0.000186  -0.005540   0.585486  -0.004643
    41  H   -0.000163   0.000015  -0.000155  -0.004643   0.529754
 Mulliken charges:
               1
     1  C   -0.315441
     2  N   -0.526163
     3  C   -0.320740
     4  S    1.328872
     5  O   -0.546219
     6  O   -0.523900
     7  N   -0.711269
     8  C    0.182144
     9  C   -0.517024
    10  S    1.126964
    11  O   -0.500047
    12  O   -0.535686
    13  C   -0.522018
    14  C   -0.281405
    15  C   -0.377283
    16  C    0.150648
    17  C   -0.180984
    18  C   -0.128585
    19  C   -0.130745
    20  C   -0.130643
    21  C   -0.216841
    22  H    0.168689
    23  H    0.181184
    24  H    0.162740
    25  H    0.164079
    26  H    0.207567
    27  H    0.165409
    28  H    0.358246
    29  H    0.228603
    30  H    0.216034
    31  H    0.204449
    32  H    0.270635
    33  H    0.177273
    34  H    0.137228
    35  H    0.170171
    36  H    0.159387
    37  H    0.118055
    38  H    0.130397
    39  H    0.132438
    40  H    0.139093
    41  H    0.184691
 Sum of Mulliken charges =   0.00000
 Mulliken charges with hydrogens summed into heavy atoms:
               1
     1  C    0.197172
     2  N   -0.526163
     3  C    0.216314
     4  S    1.328872
     5  O   -0.546219
     6  O   -0.523900
     7  N   -0.353023
     8  C    0.182144
     9  C   -0.072387
    10  S    1.126964
    11  O   -0.500047
    12  O   -0.535686
    13  C   -0.046935
    14  C    0.033096
    15  C   -0.047725
    16  C    0.150648
    17  C   -0.062929
    18  C    0.001811
    19  C    0.001693
    20  C    0.008450
    21  C   -0.032150
 Electronic spatial extent (au):  <R**2>=           7960.2958
 Charge=              0.0000 electrons
 Dipole moment (field-independent basis, Debye):
    X=             -0.6339    Y=             -7.8600    Z=              1.2242  Tot=              7.9799
 Quadrupole moment (field-independent basis, Debye-Ang):
   XX=           -145.3838   YY=           -150.3458   ZZ=           -136.3643
   XY=             -6.2411   XZ=             16.5441   YZ=              0.4822
 Traceless Quadrupole moment (field-independent basis, Debye-Ang):
   XX=             -1.3525   YY=             -6.3145   ZZ=              7.6670
   XY=             -6.2411   XZ=             16.5441   YZ=              0.4822
 Octapole moment (field-independent basis, Debye-Ang**2):
  XXX=            -21.7585  YYY=            -85.9910  ZZZ=              3.1709  XYY=             36.0185
  XXY=            -36.1243  XXZ=             17.8965  XZZ=             11.6315  YZZ=              6.1806
  YYZ=              1.4682  XYZ=             -8.0392
 Hexadecapole moment (field-independent basis, Debye-Ang**3):
 XXXX=          -6818.4402 YYYY=          -2886.5930 ZZZZ=           -742.9177 XXXY=           -171.1040
 XXXZ=            314.7006 YYYX=             -8.8232 YYYZ=             44.0283 ZZZX=             22.8853
 ZZZY=             -7.4144 XXYY=          -1562.5116 XXZZ=          -1344.7524 YYZZ=           -566.2048
 XXYZ=             -0.2152 YYXZ=             53.2069 ZZXY=            -11.2300
 N-N= 2.191609816203D+03 E-N=-8.408774482841D+03  KE= 1.702536196712D+03
 No NMR shielding tensors so no spin-rotation constants.
 Leave Link  601 at Fri Oct  2 06:19:46 2020, MaxMem=  2147483648 cpu:         0.5
 (Enter /prod/apps/gaussian/g09d1/l9999.exe)
 1\1\GINC-PIRINEUS42\SP\RB3LYP\6-31G(d)\C13H20N2O4S2\UBAFAR01\02-Oct-20
 20\0\\#p b3lyp/6-31G(d)\\SM40.n.5.pdb.xyz\\0,1\C,0,5.722,0.832,-0.814\
 N,0,5.692,0.317,0.561\C,0,6.215,1.271,1.554\S,0,4.224,-0.413,0.984\O,0
 ,4.277,-0.587,2.436\O,0,3.086,0.268,0.361\N,0,4.229,-1.921,0.27\C,0,5.
 262,-2.968,0.416\C,0,4.566,-4.338,0.101\S,0,4.881,-4.918,1.803\O,0,3.6
 53,-5.103,2.591\O,0,5.928,-5.956,1.848\C,0,5.579,-3.237,1.929\C,0,6.50
 6,-2.664,-0.441\C,0,7.627,-3.728,-0.482\C,0,7.475,-4.803,-1.542\C,0,7.
 558,-4.474,-2.903\C,0,7.438,-5.454,-3.886\C,0,7.233,-6.788,-3.524\C,0,
 7.15,-7.129,-2.175\C,0,7.271,-6.144,-1.191\H,0,6.76,1.069,-1.055\H,0,5
 .107,1.73,-0.936\H,0,5.377,0.068,-1.51\H,0,7.251,1.481,1.283\H,0,6.185
 ,0.816,2.541\H,0,5.655,2.214,1.567\H,0,3.803,-1.876,-0.653\H,0,5.064,-
 4.959,-0.643\H,0,3.498,-4.254,-0.097\H,0,6.639,-3.253,2.185\H,0,5.017,
 -2.61,2.618\H,0,6.912,-1.724,-0.06\H,0,6.169,-2.467,-1.464\H,0,7.748,-
 4.2,0.498\H,0,8.561,-3.191,-0.669\H,0,7.728,-3.441,-3.194\H,0,7.509,-5
 .179,-4.934\H,0,7.14,-7.553,-4.288\H,0,6.992,-8.162,-1.883\H,0,7.193,-
 6.409,-0.141\\Version=AM64L-G09RevD.01\State=1-A\HF=-1714.0342178\RMSD
 =3.490e-09\Dipole=1.7448941,1.4245449,-2.1869572\Quadrupole=-4.9690205
 ,3.7266536,1.2423669,8.9844189,8.4151397,5.3971513\PG=C01 [X(C13H20N2O
 4S2)]\\@


 WE HAVE LEARNED THAT NOTHING IS SIMPLE AND
 RATIONAL EXCEPT WHAT WE OURSELVES HAVE INVENTED;
 THAT GOD THINKS IN TERMS NEITHER OF EUCLID OR RIEMANN; THAT SCIENCE HAS "EXPLAINED" NOTHING;
[...]
     8  C    0.354028   0.391883  -0.028528  -0.002576  -0.000217  -0.000011
     9  C   -0.191422  -0.048211  -0.002488  -0.003272   0.000010   0.000081
    10  S    0.153160   0.003992  -0.000623  -0.000815  -0.000023  -0.000002
    11  O   -0.045844  -0.000065  -0.000006   0.000001   0.000000   0.000000
    12  O   -0.044695  -0.000495  -0.000787  -0.000855  -0.000008   0.000000
    13  C    5.719110  -0.046735  -0.005326   0.000055  -0.000001   0.000000
    14  C   -0.046735   5.129507   0.322989  -0.033019  -0.006718   0.000106
    15  C   -0.005326   0.322989   5.207569   0.346484  -0.065027   0.006098
    16  C    0.000055  -0.033019   0.346484   4.672238   0.541536  -0.018910
    17  C   -0.000001  -0.006718  -0.065027   0.541536   4.981398   0.528375
    18  C    0.000000   0.000106   0.006098  -0.018910   0.528375   4.873674
    19  C    0.000000   0.000009   0.000345  -0.034783  -0.036476   0.544771
    20  C   -0.000003  -0.000169   0.007192  -0.023866  -0.047798  -0.026884
    21  C   -0.000245   0.000319  -0.051283   0.544672  -0.042115  -0.046705
    22  H   -0.000001   0.000279  -0.000018   0.000000   0.000000   0.000000
    23  H    0.000000  -0.000025   0.000000   0.000000   0.000000   0.000000
    24  H    0.000030   0.001432   0.000026   0.000000  -0.000004   0.000000
    25  H   -0.000007   0.000078  -0.000004   0.000000   0.000000   0.000000
    26  H    0.000042   0.000020   0.000000   0.000000   0.000000   0.000000
    27  H    0.000000  -0.000012   0.000000   0.000000   0.000000   0.000000
    28  H    0.004642  -0.000785  -0.000056  -0.000009  -0.000003   0.000000
    29  H    0.007345  -0.005367  -0.003017   0.010183   0.000399  -0.000306
    30  H    0.006659   0.002626   0.000052   0.000017  -0.000007  -0.000001
    31  H    0.339547  -0.005584   0.000734   0.000227   0.000003   0.000000
    32  H    0.329611   0.002253   0.000089  -0.000007   0.000000   0.000000
    33  H   -0.007113   0.362113  -0.026866   0.003434   0.000275   0.000004
    34  H    0.005260   0.365868  -0.039604  -0.005992   0.004960  -0.000180
    35  H    0.001262  -0.041558   0.363401  -0.033298   0.004311  -0.000169
    36  H    0.000047  -0.032962   0.362274  -0.030483  -0.005427   0.000008
    37  H    0.000001   0.000650  -0.008610  -0.047791   0.356698  -0.043556
    38  H    0.000000   0.000000  -0.000179   0.003733  -0.039725   0.359319
    39  H    0.000000   0.000000   0.000007   0.000645   0.004731  -0.042599
    40  H    0.000000   0.000001  -0.000177   0.003679   0.000810   0.004541
    41  H    0.000094   0.000267  -0.010817  -0.039734   0.005889   0.000281
              19         20         21         22         23         24
     1  C    0.000000   0.000000   0.000000   0.376494   0.377833   0.373614
     2  N    0.000000   0.000000   0.000000  -0.034260  -0.043818  -0.036529
     3  C    0.000000   0.000000   0.000000  -0.004003  -0.002262   0.004884
     4  S    0.000000   0.000000   0.000000   0.002361  -0.008175   0.003006
     5  O    0.000000   0.000000   0.000000  -0.000052  -0.000043   0.000008
     6  O    0.000000   0.000000   0.000000   0.000161   0.005689  -0.002406
     7  N    0.000000   0.000000  -0.000009  -0.000172  -0.000227   0.006299
     8  C    0.000002   0.000000   0.000683   0.000033  -0.000004  -0.000961
     9  C    0.000038  -0.000458  -0.007609  -0.000001   0.000000   0.000011
    10  S   -0.000003   0.000064   0.000712   0.000000   0.000000  -0.000002
    11  O    0.000000   0.000000  -0.000006   0.000000   0.000000   0.000000
    12  O   -0.000001   0.000082  -0.005138   0.000000   0.000000   0.000000
    13  C    0.000000  -0.000003  -0.000245  -0.000001   0.000000   0.000030
    14  C    0.000009  -0.000169   0.000319   0.000279  -0.000025   0.001432
    15  C    0.000345   0.007192  -0.051283  -0.000018   0.000000   0.000026
    16  C   -0.034783  -0.023866   0.544672   0.000000   0.000000   0.000000
    17  C   -0.036476  -0.047798  -0.042115   0.000000   0.000000  -0.000004
    18  C    0.544771  -0.026884  -0.046705   0.000000   0.000000   0.000000
    19  C    4.868252   0.548896  -0.036091   0.000000   0.000000   0.000000
    20  C    0.548896   4.891087   0.510165   0.000000   0.000000   0.000000
    21  C   -0.036091   0.510165   5.017066   0.000000   0.000000   0.000000
    22  H    0.000000   0.000000   0.000000   0.531351  -0.033886  -0.025117
    23  H    0.000000   0.000000   0.000000  -0.033886   0.550044  -0.031626
    24  H    0.000000   0.000000   0.000000  -0.025117  -0.031626   0.531449
    25  H    0.000000   0.000000   0.000000   0.004887  -0.001598   0.000062
    26  H    0.000000   0.000000   0.000000   0.000015  -0.000165  -0.000190
    27  H    0.000000   0.000000   0.000000  -0.001352   0.008282  -0.000230
    28  H    0.000000   0.000000   0.000001   0.000009   0.000028   0.000646
    29  H   -0.000097   0.000707   0.012764   0.000000   0.000000  -0.000001
    30  H   -0.000002   0.000004   0.000128   0.000000   0.000000  -0.000004
    31  H    0.000000   0.000000  -0.000011   0.000000   0.000000   0.000000
    32  H    0.000000   0.000000   0.000001   0.000001  -0.000001   0.000001
    33  H    0.000000   0.000002  -0.000106  -0.000354   0.000255  -0.000977
    34  H   -0.000007  -0.000012   0.000302   0.000013   0.000008   0.002145
    35  H   -0.000004   0.000247  -0.003874   0.000000   0.000000   0.000001
    36  H    0.000028  -0.000224   0.002435   0.000003   0.000000  -0.000004
    37  H    0.004808   0.000304   0.006051   0.000000   0.000000   0.000002
    38  H   -0.042404   0.004581   0.000743   0.000000   0.000000   0.000000
    39  H    0.361522  -0.042614   0.004684   0.000000   0.000000   0.000000
    40  H   -0.042758   0.359336  -0.038940   0.000000   0.000000   0.000000
    41  H    0.004408  -0.042533   0.350120   0.000000   0.000000   0.000000
              25         26         27         28         29         30
     1  C   -0.002480   0.004513  -0.002251  -0.000184   0.000000   0.000000
     2  N   -0.038494  -0.030943  -0.047329   0.000372   0.000001   0.000004
     3  C    0.377838   0.378123   0.372842  -0.000026   0.000000   0.000000
     4  S    0.001527  -0.004913  -0.002475  -0.008098  -0.000044   0.000123
     5  O    0.000355   0.011049  -0.000536   0.001437   0.000000  -0.000010
     6  O   -0.000102  -0.000037   0.001679   0.002514   0.000000  -0.000020
     7  N   -0.000078   0.000160  -0.000111   0.296154   0.001797  -0.001451
     8  C    0.000017  -0.000019   0.000003  -0.022914  -0.024923  -0.025435
     9  C    0.000000   0.000000   0.000000  -0.005996   0.323830   0.335119
    10  S    0.000000   0.000002   0.000000  -0.000123  -0.008569  -0.004443
    11  O    0.000000   0.000000   0.000000   0.000005   0.000834  -0.000084
    12  O    0.000000   0.000000   0.000000   0.000001  -0.001638   0.000970
    13  C   -0.000007   0.000042   0.000000   0.004642   0.007345   0.006659
    14  C    0.000078   0.000020  -0.000012  -0.000785  -0.005367   0.002626
    15  C   -0.000004   0.000000   0.000000  -0.000056  -0.003017   0.000052
    16  C    0.000000   0.000000   0.000000  -0.000009   0.010183   0.000017
    17  C    0.000000   0.000000   0.000000  -0.000003   0.000399  -0.000007
    18  C    0.000000   0.000000   0.000000   0.000000  -0.000306  -0.000001
    19  C    0.000000   0.000000   0.000000   0.000000  -0.000097  -0.000002
    20  C    0.000000   0.000000   0.000000   0.000000   0.000707   0.000004
    21  C    0.000000   0.000000   0.000000   0.000001   0.012764   0.000128
    22  H    0.004887   0.000015  -0.001352   0.000009   0.000000   0.000000
    23  H   -0.001598  -0.000165   0.008282   0.000028   0.000000   0.000000
    24  H    0.000062  -0.000190  -0.000230   0.000646  -0.000001  -0.000004
    25  H    0.539469  -0.020560  -0.039868  -0.000001   0.000000   0.000000
    26  H   -0.020560   0.491220  -0.030159  -0.000006   0.000000   0.000000
    27  H   -0.039868  -0.030159   0.574404   0.000002   0.000000   0.000000
    28  H   -0.000001  -0.000006   0.000002   0.340878   0.000175   0.001853
    29  H    0.000000   0.000000   0.000000   0.000175   0.466657  -0.015217
    30  H    0.000000   0.000000   0.000000   0.001853  -0.015217   0.472397
    31  H    0.000000   0.000016   0.000000  -0.000084  -0.000221  -0.000230
    32  H    0.000003   0.000101  -0.000003   0.000095  -0.000200  -0.000241
    33  H   -0.000238  -0.000054   0.000057  -0.000414   0.000199  -0.000101
    34  H   -0.000002  -0.000001   0.000000   0.003494   0.001272   0.000053
    35  H    0.000000   0.000000   0.000000   0.000007   0.000025  -0.000010
    36  H    0.000001   0.000000   0.000000   0.000001   0.000125   0.000003
    37  H    0.000000   0.000000   0.000000  -0.000001   0.000042   0.000000
    38  H    0.000000   0.000000   0.000000   0.000000  -0.000001   0.000000
    39  H    0.000000   0.000000   0.000000   0.000000   0.000000   0.000000
    40  H    0.000000   0.000000   0.000000   0.000000   0.000033   0.000000
    41  H    0.000000   0.000000   0.000000   0.000000  -0.000462   0.000013
              31         32         33         34         35         36
     1  C    0.000002  -0.000004  -0.002430  -0.000139  -0.000001   0.000008
     2  N   -0.000036  -0.000207   0.012322  -0.000008   0.000000   0.000009
     3  C    0.000009  -0.000022  -0.000024   0.000001   0.000000  -0.000001
     4  S   -0.000254  -0.001834   0.001712  -0.000517   0.000000  -0.000022
     5  O    0.000011   0.019279  -0.000136   0.000005  -0.000001   0.000000
     6  O    0.000000  -0.000047   0.000005  -0.000009   0.000000   0.000000
     7  N    0.002315  -0.003704  -0.003690  -0.001693   0.000100  -0.000134
     8  C   -0.028846  -0.022348  -0.033804  -0.034932  -0.007077   0.004085
     9  C    0.008157   0.006003   0.005322  -0.005094  -0.000564  -0.000120
    10  S   -0.010814  -0.004043  -0.000088  -0.000190   0.001977   0.000090
    11  O    0.000906   0.000636   0.000001   0.000001   0.000016   0.000000
    12  O   -0.000930   0.000797   0.000003   0.000004   0.004277   0.000029
    13  C    0.339547   0.329611  -0.007113   0.005260   0.001262   0.000047
    14  C   -0.005584   0.002253   0.362113   0.365868  -0.041558  -0.032962
    15  C    0.000734   0.000089  -0.026866  -0.039604   0.363401   0.362274
    16  C    0.000227  -0.000007   0.003434  -0.005992  -0.033298  -0.030483
    17  C    0.000003   0.000000   0.000275   0.004960   0.004311  -0.005427
    18  C    0.000000   0.000000   0.000004  -0.000180  -0.000169   0.000008
    19  C    0.000000   0.000000   0.000000  -0.000007  -0.000004   0.000028
    20  C    0.000000   0.000000   0.000002  -0.000012   0.000247  -0.000224
    21  C   -0.000011   0.000001  -0.000106   0.000302  -0.003874   0.002435
    22  H    0.000000   0.000001  -0.000354   0.000013   0.000000   0.000003
    23  H    0.000000  -0.000001   0.000255   0.000008   0.000000   0.000000
    24  H    0.000000   0.000001  -0.000977   0.002145   0.000001  -0.000004
    25  H    0.000000   0.000003  -0.000238  -0.000002   0.000000   0.000001
    26  H    0.000016   0.000101  -0.000054  -0.000001   0.000000   0.000000
    27  H    0.000000  -0.000003   0.000057   0.000000   0.000000   0.000000
    28  H   -0.000084   0.000095  -0.000414   0.003494   0.000007   0.000001
    29  H   -0.000221  -0.000200   0.000199   0.001272   0.000025   0.000125
    30  H   -0.000230  -0.000241  -0.000101   0.000053  -0.000010   0.000003
    31  H    0.483322  -0.014341   0.001656   0.000168   0.003935  -0.000197
    32  H   -0.014341   0.425366   0.000045  -0.000086   0.000102   0.000000
    33  H    0.001656   0.000045   0.543338  -0.032441   0.000157  -0.006853
    34  H    0.000168  -0.000086  -0.032441   0.575125   0.004706   0.000515
    35  H    0.003935   0.000102   0.000157   0.004706   0.561351  -0.030678
    36  H   -0.000197   0.000000  -0.006853   0.000515  -0.030678   0.564078
    37  H    0.000000   0.000000  -0.000174   0.002837   0.000037   0.002866
    38  H    0.000000   0.000000   0.000000   0.000010   0.000003  -0.000003
    39  H    0.000000   0.000000   0.000000   0.000000   0.000000   0.000000
    40  H    0.000000   0.000000   0.000000   0.000000  -0.000007   0.000003
    41  H   -0.000006  -0.000001  -0.000011   0.000011   0.005412   0.000102
              37         38         39         40         41
     1  C    0.000000   0.000000   0.000000   0.000000   0.000000
     2  N    0.000000   0.000000   0.000000   0.000000   0.000000
     3  C    0.000000   0.000000   0.000000   0.000000   0.000000
     4  S    0.000000   0.000000   0.000000   0.000000   0.000000
     5  O    0.000000   0.000000   0.000000   0.000000   0.000000
     6  O    0.000000   0.000000   0.000000   0.000000   0.000000
     7  N    0.000001   0.000000   0.000000   0.000000   0.000001
     8  C    0.000106   0.000000   0.000000   0.000001   0.000033
     9  C   -0.000022   0.000000   0.000000  -0.000013  -0.000371
    10  S   -0.000001   0.000000   0.000000   0.000007   0.000593
    11  O    0.000000   0.000000   0.000000   0.000000   0.000014
    12  O    0.000000   0.000000   0.000000   0.000003   0.014099
    13  C    0.000001   0.000000   0.000000   0.000000   0.000094
    14  C    0.000650   0.000000   0.000000   0.000001   0.000267
    15  C   -0.008610  -0.000179   0.000007  -0.000177  -0.010817
    16  C   -0.047791   0.003733   0.000645   0.003679  -0.039734
    17  C    0.356698  -0.039725   0.004731   0.000810   0.005889
    18  C   -0.043556   0.359319  -0.042599   0.004541   0.000281
    19  C    0.004808  -0.042404   0.361522  -0.042758   0.004408
    20  C    0.000304   0.004581  -0.042614   0.359336  -0.042533
    21  C    0.006051   0.000743   0.004684  -0.038940   0.350120
    22  H    0.000000   0.000000   0.000000   0.000000   0.000000
    23  H    0.000000   0.000000   0.000000   0.000000   0.000000
    24  H    0.000002   0.000000   0.000000   0.000000   0.000000
    25  H    0.000000   0.000000   0.000000   0.000000   0.000000
    26  H    0.000000   0.000000   0.000000   0.000000   0.000000
    27  H    0.000000   0.000000   0.000000   0.000000   0.000000
    28  H   -0.000001   0.000000   0.000000   0.000000   0.000000
    29  H    0.000042  -0.000001   0.000000   0.000033  -0.000462
    30  H    0.000000   0.000000   0.000000   0.000000   0.000013
    31  H    0.000000   0.000000   0.000000   0.000000  -0.000006
    32  H    0.000000   0.000000   0.000000   0.000000  -0.000001
    33  H   -0.000174   0.000000   0.000000   0.000000  -0.000011
    34  H    0.002837   0.000010   0.000000   0.000000   0.000011
    35  H    0.000037   0.000003   0.000000  -0.000007   0.005412
    36  H    0.002866  -0.000003   0.000000   0.000003   0.000102
    37  H    0.597306  -0.005532  -0.000176   0.000017  -0.000162
    38  H   -0.005532   0.583762  -0.005314  -0.000181   0.000015
    39  H   -0.000176  -0.005314   0.584007  -0.005431  -0.000155
    40  H    0.000017  -0.000181  -0.005431   0.581545  -0.004744
    41  H   -0.000162   0.000015  -0.000155  -0.004744   0.544456
 Mulliken charges:
               1
     1  C   -0.323868
     2  N   -0.526042
     3  C   -0.322820
     4  S    1.321115
     5  O   -0.561091
     6  O   -0.541340
     7  N   -0.722274
     8  C    0.181638
     9  C   -0.511018
    10  S    1.117286
    11  O   -0.527809
    12  O   -0.549006
    13  C   -0.520666
    14  C   -0.286770
    15  C   -0.378197
    16  C    0.148538
    17  C   -0.185841
    18  C   -0.137937
    19  C   -0.140454
    20  C   -0.138110
    21  C   -0.218712
    22  H    0.183607
    23  H    0.179690
    24  H    0.174435
    25  H    0.179194
    26  H    0.201785
    27  H    0.167054
    28  H    0.386383
    29  H    0.233676
    30  H    0.227232
    31  H    0.220548
    32  H    0.262708
    33  H    0.184975
    34  H    0.154151
    35  H    0.165914
    36  H    0.170398
    37  H    0.134296
    38  H    0.141172
    39  H    0.140694
    40  H    0.142275
    41  H    0.173188
 Sum of Mulliken charges =   0.00000
 Mulliken charges with hydrogens summed into heavy atoms:
               1
     1  C    0.213864
     2  N   -0.526042
     3  C    0.225214
     4  S    1.321115
     5  O   -0.561091
     6  O   -0.541340
     7  N   -0.335891
     8  C    0.181638
     9  C   -0.050110
    10  S    1.117286
    11  O   -0.527809
    12  O   -0.549006
    13  C   -0.037410
    14  C    0.052357
    15  C   -0.041885
    16  C    0.148538
    17  C   -0.051544
    18  C    0.003235
    19  C    0.000240
    20  C    0.004165
    21  C   -0.045524
 Electronic spatial extent (au):  <R**2>=           7962.1944
 Charge=              0.0000 electrons
 Dipole moment (field-independent basis, Debye):
    X=             -0.6953    Y=             -9.4672    Z=              1.3066  Tot=              9.5822
 Quadrupole moment (field-independent basis, Debye-Ang):
   XX=           -147.9646   YY=           -151.1081   ZZ=           -135.5750
   XY=             -6.7444   XZ=             18.2882   YZ=              0.2838
 Traceless Quadrupole moment (field-independent basis, Debye-Ang):
   XX=             -3.0820   YY=             -6.2256   ZZ=              9.3076
   XY=             -6.7444   XZ=             18.2882   YZ=              0.2838
 Octapole moment (field-independent basis, Debye-Ang**2):
  XXX=            -25.9607  YYY=           -105.7181  ZZZ=              4.1425  XYY=             38.0510
  XXY=            -44.5945  XXZ=             19.9411  XZZ=             11.4920  YZZ=              3.9368
  YYZ=              2.7008  XYZ=             -9.3885
 Hexadecapole moment (field-independent basis, Debye-Ang**3):
 XXXX=          -6861.4235 YYYY=          -2907.4989 ZZZZ=           -737.0870 XXXY=           -178.0925
 XXXZ=            346.5078 YYYX=             -7.4006 YYYZ=             45.1291 ZZZX=             30.5166
 ZZZY=             -9.8433 XXYY=          -1551.7552 XXZZ=          -1345.6861 YYZZ=           -563.6874
 XXYZ=             -3.7299 YYXZ=             60.5491 ZZXY=            -12.7921
 N-N= 2.191594500743D+03 E-N=-8.408886034433D+03  KE= 1.702548088853D+03
 No NMR shielding tensors so no spin-rotation constants.
 Leave Link  601 at Fri Oct  2 06:24:39 2020, MaxMem=  2147483648 cpu:         0.7
 (Enter /prod/apps/gaussian/g09d1/l9999.exe)
 1\1\GINC-PIRINEUS42\SP\RB3LYP\6-31G(d)\C13H20N2O4S2\UBAFAR01\02-Oct-20
 20\0\\#p b3lyp/6-31G(d) scrf=(iefpcm,read,solvent=n-Octanol) geom=allc
 heck guess=read\\SM40.n.5.pdb.xyz\\0,1\C,0,5.722,0.832,-0.814\N,0,5.69
 2,0.317,0.561\C,0,6.215,1.271,1.554\S,0,4.224,-0.413,0.984\O,0,4.277,-
 0.587,2.436\O,0,3.086,0.268,0.361\N,0,4.229,-1.921,0.27\C,0,5.262,-2.9
 68,0.416\C,0,4.566,-4.338,0.101\S,0,4.881,-4.918,1.803\O,0,3.653,-5.10
 3,2.591\O,0,5.928,-5.956,1.848\C,0,5.579,-3.237,1.929\C,0,6.506,-2.664
 ,-0.441\C,0,7.627,-3.728,-0.482\C,0,7.475,-4.803,-1.542\C,0,7.558,-4.4
 74,-2.903\C,0,7.438,-5.454,-3.886\C,0,7.233,-6.788,-3.524\C,0,7.15,-7.
 129,-2.175\C,0,7.271,-6.144,-1.191\H,0,6.76,1.069,-1.055\H,0,5.107,1.7
 3,-0.936\H,0,5.377,0.068,-1.51\H,0,7.251,1.481,1.283\H,0,6.185,0.816,2
 .541\H,0,5.655,2.214,1.567\H,0,3.803,-1.876,-0.653\H,0,5.064,-4.959,-0
 .643\H,0,3.498,-4.254,-0.097\H,0,6.639,-3.253,2.185\H,0,5.017,-2.61,2.
 618\H,0,6.912,-1.724,-0.06\H,0,6.169,-2.467,-1.464\H,0,7.748,-4.2,0.49
 8\H,0,8.561,-3.191,-0.669\H,0,7.728,-3.441,-3.194\H,0,7.509,-5.179,-4.
 934\H,0,7.14,-7.553,-4.288\H,0,6.992,-8.162,-1.883\H,0,7.193,-6.409,-0
 .141\\Version=AM64L-G09RevD.01\State=1-A\HF=-1714.0641131\RMSD=5.535e-
 09\Dipole=2.0365285,1.7336084,-2.6569896\Quadrupole=-4.9129229,3.32974
 55,1.5831774,10.4822238,9.4308593,5.4459103\PG=C01 [X(C13H20N2O4S2)]\\
 @


 YOU SHOULDN'T LET PEOPLE DRIVE YOU CRAZY
 WHEN YOU KNOW IT'S WITHIN WALKING DISTANCE.
 Job cpu time:       0 days  0 hours  4 minutes 52.8 seconds.
 File lengths (MBytes):  RWF=    216 Int=      0 D2E=      0 Chk=      7 Scr=      1
 Normal termination of Gaussian 09 at Fri Oct  2 06:24:39 2020.
