 Entering Gaussian System, Link 0=g09
 Initial command:
 /prod/apps/gaussian/g09d1/l1.exe "/tmp/ubafar01/1462944/Gau-2839.inp" -scrdir="/tmp/ubafar01/1462944/"
 Entering Link 1 = /prod/apps/gaussian/g09d1/l1.exe PID=      2844.
  
 Copyright (c) 1988,1990,1992,1993,1995,1998,2003,2009,2013,
            Gaussian, Inc.  All Rights Reserved.
  
 This is part of the Gaussian(R) 09 program.  It is based on
 the Gaussian(R) 03 system (copyright 2003, Gaussian, Inc.),
 the Gaussian(R) 98 system (copyright 1998, Gaussian, Inc.),
 the Gaussian(R) 94 system (copyright 1995, Gaussian, Inc.),
 the Gaussian 92(TM) system (copyright 1992, Gaussian, Inc.),
 the Gaussian 90(TM) system (copyright 1990, Gaussian, Inc.),
 the Gaussian 88(TM) system (copyright 1988, Gaussian, Inc.),
 the Gaussian 86(TM) system (copyright 1986, Carnegie Mellon
 University), and the Gaussian 82(TM) system (copyright 1983,
 Carnegie Mellon University). Gaussian is a federally registered
 trademark of Gaussian, Inc.
  
 This software contains proprietary and confidential information,
 including trade secrets, belonging to Gaussian, Inc.
  
 This software is provided under written license and may be
 used, copied, transmitted, or stored only in accord with that
 written license.
  
 The following legend is applicable only to US Government
 contracts under FAR:
  
                    RESTRICTED RIGHTS LEGEND
  
 Use, reproduction and disclosure by the US Government is
 subject to restrictions as set forth in subparagraphs (a)
 and (c) of the Commercial Computer Software - Restricted
 Rights clause in FAR 52.227-19.
  
 Gaussian, Inc.
 340 Quinnipiac St., Bldg. 40, Wallingford CT 06492
  
  
 ---------------------------------------------------------------
 Warning -- This program may not be used in any manner that
 competes with the business of Gaussian, Inc. or will provide
 assistance to any competitor of Gaussian, Inc.  The licensee
 of this program is prohibited from giving any competitor of
 Gaussian, Inc. access to this program.  By using this program,
 the user acknowledges that Gaussian, Inc. is engaged in the
 business of creating and licensing software in the field of
 computational chemistry and represents and warrants to the
 licensee that it is not a competitor of Gaussian, Inc. and that
 it will not use this program in any manner prohibited above.
 ---------------------------------------------------------------
  

 Cite this work as:
 Gaussian 09, Revision D.01,
 M. J. Frisch, G. W. Trucks, H. B. Schlegel, G. E. Scuseria, 
 M. A. Robb, J. R. Cheeseman, G. Scalmani, V. Barone, B. Mennucci, 
 G. A. Petersson, H. Nakatsuji, M. Caricato, X. Li, H. P. Hratchian, 
 A. F. Izmaylov, J. Bloino, G. Zheng, J. L. Sonnenberg, M. Hada, 
 M. Ehara, K. Toyota, R. Fukuda, J. Hasegawa, M. Ishida, T. Nakajima, 
 Y. Honda, O. Kitao, H. Nakai, T. Vreven, J. A. Montgomery, Jr., 
 J. E. Peralta, F. Ogliaro, M. Bearpark, J. J. Heyd, E. Brothers, 
 K. N. Kudin, V. N. Staroverov, T. Keith, R. Kobayashi, J. Normand, 
 K. Raghavachari, A. Rendell, J. C. Burant, S. S. Iyengar, J. Tomasi, 
 M. Cossi, N. Rega, J. M. Millam, M. Klene, J. E. Knox, J. B. Cross, 
 V. Bakken, C. Adamo, J. Jaramillo, R. Gomperts, R. E. Stratmann, 
 O. Yazyev, A. J. Austin, R. Cammi, C. Pomelli, J. W. Ochterski, 
 R. L. Martin, K. Morokuma, V. G. Zakrzewski, G. A. Voth, 
 P. Salvador, J. J. Dannenberg, S. Dapprich, A. D. Daniels, 
 O. Farkas, J. B. Foresman, J. V. Ortiz, J. Cioslowski, 
 and D. J. Fox, Gaussian, Inc., Wallingford CT, 2013.
 
 ******************************************
 Gaussian 09:  AM64L-G09RevD.01 24-Apr-2013
                 2-Oct-2020 
 ******************************************
 %nproc=1
 Will use up to    1 processors via shared memory.
 %Chk=SM40.n.28.pdb.xyz.mst.n.o.chk
 %mem=16GB
 -----------------
 #p b3lyp/6-31G(d)
 -----------------
 1/38=1/1;
 2/12=2,17=6,18=5,40=1/2;
 3/5=1,6=6,7=1,11=2,16=1,25=1,30=1,74=-5/1,2,3;
 4//1;
 5/5=2,38=5/2;
 6/7=2,8=2,9=2,10=2,28=1/1;
 99/5=1,9=1/99;
 Leave Link    1 at Fri Oct  2 06:12:39 2020, MaxMem=  2147483648 cpu:         0.0
 (Enter /prod/apps/gaussian/g09d1/l101.exe)
 -----------------
 SM40.n.28.pdb.xyz
 -----------------
 Symbolic Z-matrix:
 Charge =  0 Multiplicity = 1
 C                     3.338     0.536     2.067 
 N                     3.425    -0.378     0.915 
 C                     2.191    -0.444     0.118 
 S                     4.829    -0.173     0.003 
 O                     4.702     0.882    -1.011 
 O                     5.925    -0.112     0.975 
 N                     4.826    -1.602    -0.878 
 C                     5.465    -2.844    -0.384 
 C                     4.907    -4.004    -1.273 
 S                     3.782    -4.511     0.075 
 O                     2.401    -4.049    -0.151 
 O                     4.013    -5.893     0.528 
 C                     4.795    -3.28      0.96 
 C                     7.001    -2.734    -0.394 
 C                     7.81     -3.964     0.062 
 C                     7.893    -4.182     1.56 
 C                     7.531    -5.411     2.123 
 C                     7.633    -5.629     3.497 
 C                     8.104    -4.616     4.332 
 C                     8.469    -3.385     3.783 
 C                     8.364    -3.172     2.41 
 H                     2.532     0.173     2.707 
 H                     3.115     1.567     1.767 
 H                     4.275     0.509     2.62 
 H                     1.388    -0.749     0.791 
 H                     2.305    -1.203    -0.654 
 H                     1.936     0.521    -0.334 
 H                     5.078    -1.375    -1.839 
 H                     5.631    -4.793    -1.476 
 H                     4.393    -3.7      -2.184 
 H                     5.477    -3.777     1.65 
 H                     4.203    -2.509     1.452 
 H                     7.274    -1.869     0.216 
 H                     7.29     -2.493    -1.423 
 H                     8.826    -3.834    -0.331 
 H                     7.428    -4.876    -0.41 
 H                     7.156    -6.198     1.475 
 H                     7.344    -6.589     3.913 
 H                     8.184    -4.782     5.401 
 H                     8.836    -2.591     4.425 
 H                     8.647    -2.21      1.991 
 
 NAtoms=     41 NQM=       41 NQMF=       0 NMMI=      0 NMMIF=      0
                NMic=       0 NMicF=      0.
                    Isotopes and Nuclear Properties:
 (Nuclear quadrupole moments (NQMom) in fm**2, nuclear magnetic moments (NMagM)
  in nuclear magnetons)

  Atom         1           2           3           4           5           6           7           8           9          10
 IAtWgt=          12          14          12          32          16          16          14          12          12          32
 AtmWgt=  12.0000000  14.0030740  12.0000000  31.9720718  15.9949146  15.9949146  14.0030740  12.0000000  12.0000000  31.9720718
 NucSpn=           0           2           0           0           0           0           2           0           0           0
 AtZEff=   0.0000000   0.0000000   0.0000000   0.0000000   0.0000000   0.0000000   0.0000000   0.0000000   0.0000000   0.0000000
 NQMom=    0.0000000   2.0440000   0.0000000   0.0000000   0.0000000   0.0000000   2.0440000   0.0000000   0.0000000   0.0000000
 NMagM=    0.0000000   0.4037610   0.0000000   0.0000000   0.0000000   0.0000000   0.4037610   0.0000000   0.0000000   0.0000000
 AtZNuc=   6.0000000   7.0000000   6.0000000  16.0000000   8.0000000   8.0000000   7.0000000   6.0000000   6.0000000  16.0000000

  Atom        11          12          13          14          15          16          17          18          19          20
 IAtWgt=          16          16          12          12          12          12          12          12          12          12
 AtmWgt=  15.9949146  15.9949146  12.0000000  12.0000000  12.0000000  12.0000000  12.0000000  12.0000000  12.0000000  12.0000000
 NucSpn=           0           0           0           0           0           0           0           0           0           0
 AtZEff=   0.0000000   0.0000000   0.0000000   0.0000000   0.0000000   0.0000000   0.0000000   0.0000000   0.0000000   0.0000000
 NQMom=    0.0000000   0.0000000   0.0000000   0.0000000   0.0000000   0.0000000   0.0000000   0.0000000   0.0000000   0.0000000
 NMagM=    0.0000000   0.0000000   0.0000000   0.0000000   0.0000000   0.0000000   0.0000000   0.0000000   0.0000000   0.0000000
 AtZNuc=   8.0000000   8.0000000   6.0000000   6.0000000   6.0000000   6.0000000   6.0000000   6.0000000   6.0000000   6.0000000

  Atom        21          22          23          24          25          26          27          28          29          30
 IAtWgt=          12           1           1           1           1           1           1           1           1           1
 AtmWgt=  12.0000000   1.0078250   1.0078250   1.0078250   1.0078250   1.0078250   1.0078250   1.0078250   1.0078250   1.0078250
 NucSpn=           0           1           1           1           1           1           1           1           1           1
 AtZEff=   0.0000000   0.0000000   0.0000000   0.0000000   0.0000000   0.0000000   0.0000000   0.0000000   0.0000000   0.0000000
 NQMom=    0.0000000   0.0000000   0.0000000   0.0000000   0.0000000   0.0000000   0.0000000   0.0000000   0.0000000   0.0000000
 NMagM=    0.0000000   2.7928460   2.7928460   2.7928460   2.7928460   2.7928460   2.7928460   2.7928460   2.7928460   2.7928460
 AtZNuc=   6.0000000   1.0000000   1.0000000   1.0000000   1.0000000   1.0000000   1.0000000   1.0000000   1.0000000   1.0000000

  Atom        31          32          33          34          35          36          37          38          39          40
 IAtWgt=           1           1           1           1           1           1           1           1           1           1
 AtmWgt=   1.0078250   1.0078250   1.0078250   1.0078250   1.0078250   1.0078250   1.0078250   1.0078250   1.0078250   1.0078250
 NucSpn=           1           1           1           1           1           1           1           1           1           1
 AtZEff=   0.0000000   0.0000000   0.0000000   0.0000000   0.0000000   0.0000000   0.0000000   0.0000000   0.0000000   0.0000000
 NQMom=    0.0000000   0.0000000   0.0000000   0.0000000   0.0000000   0.0000000   0.0000000   0.0000000   0.0000000   0.0000000
 NMagM=    2.7928460   2.7928460   2.7928460   2.7928460   2.7928460   2.7928460   2.7928460   2.7928460   2.7928460   2.7928460
 AtZNuc=   1.0000000   1.0000000   1.0000000   1.0000000   1.0000000   1.0000000   1.0000000   1.0000000   1.0000000   1.0000000

  Atom        41
 IAtWgt=           1
 AtmWgt=   1.0078250
 NucSpn=           1
 AtZEff=   0.0000000
 NQMom=    0.0000000
 NMagM=    2.7928460
 AtZNuc=   1.0000000
 Leave Link  101 at Fri Oct  2 06:12:39 2020, MaxMem=  2147483648 cpu:         0.1
 (Enter /prod/apps/gaussian/g09d1/l202.exe)
                          Input orientation:                          
 ---------------------------------------------------------------------
 Center     Atomic      Atomic             Coordinates (Angstroms)
 Number     Number       Type             X           Y           Z
 ---------------------------------------------------------------------
      1          6           0        3.338000    0.536000    2.067000
      2          7           0        3.425000   -0.378000    0.915000
      3          6           0        2.191000   -0.444000    0.118000
      4         16           0        4.829000   -0.173000    0.003000
      5          8           0        4.702000    0.882000   -1.011000
      6          8           0        5.925000   -0.112000    0.975000
      7          7           0        4.826000   -1.602000   -0.878000
      8          6           0        5.465000   -2.844000   -0.384000
      9          6           0        4.907000   -4.004000   -1.273000
     10         16           0        3.782000   -4.511000    0.075000
     11          8           0        2.401000   -4.049000   -0.151000
     12          8           0        4.013000   -5.893000    0.528000
     13          6           0        4.795000   -3.280000    0.960000
     14          6           0        7.001000   -2.734000   -0.394000
     15          6           0        7.810000   -3.964000    0.062000
     16          6           0        7.893000   -4.182000    1.560000
     17          6           0        7.531000   -5.411000    2.123000
     18          6           0        7.633000   -5.629000    3.497000
     19          6           0        8.104000   -4.616000    4.332000
     20          6           0        8.469000   -3.385000    3.783000
     21          6           0        8.364000   -3.172000    2.410000
     22          1           0        2.532000    0.173000    2.707000
     23          1           0        3.115000    1.567000    1.767000
     24          1           0        4.275000    0.509000    2.620000
     25          1           0        1.388000   -0.749000    0.791000
     26          1           0        2.305000   -1.203000   -0.654000
     27          1           0        1.936000    0.521000   -0.334000
     28          1           0        5.078000   -1.375000   -1.839000
     29          1           0        5.631000   -4.793000   -1.476000
     30          1           0        4.393000   -3.700000   -2.184000
     31          1           0        5.477000   -3.777000    1.650000
     32          1           0        4.203000   -2.509000    1.452000
     33          1           0        7.274000   -1.869000    0.216000
     34          1           0        7.290000   -2.493000   -1.423000
     35          1           0        8.826000   -3.834000   -0.331000
     36          1           0        7.428000   -4.876000   -0.410000
     37          1           0        7.156000   -6.198000    1.475000
     38          1           0        7.344000   -6.589000    3.913000
     39          1           0        8.184000   -4.782000    5.401000
     40          1           0        8.836000   -2.591000    4.425000
     41          1           0        8.647000   -2.210000    1.991000
 ---------------------------------------------------------------------
                    Distance matrix (angstroms):
                    1          2          3          4          5
     1  C    0.000000
     2  N    1.473115   0.000000
     3  C    2.464672   1.470483   0.000000
     4  S    2.643077   1.686708   2.654376   0.000000
     5  O    3.384420   2.632072   3.055820   1.468792   0.000000
     6  O    2.881829   2.514827   3.845443   1.466193   2.535342
     7  N    3.931693   2.583762   3.045686   1.678753   2.490647
     8  C    4.685716   3.454006   4.090364   2.772816   3.854656
     9  C    5.850552   4.486819   4.688831   4.038666   4.897312
    10  S    5.444025   4.232581   4.367335   4.463142   5.577656
    11  O    5.178776   3.957420   3.621117   4.576273   5.508989
    12  O    6.645012   5.559743   5.760155   5.801714   6.981681
    13  C    4.232039   3.209444   3.941152   3.251223   4.606054
    14  C    5.492448   4.477945   5.351854   3.381407   4.329151
    15  C    6.653481   5.728458   6.630739   4.823020   5.856168
    16  C    6.577583   5.903344   6.968846   5.280571   6.514339
    17  C    7.276757   6.606784   7.563512   6.263533   7.578063
    18  C    7.648474   7.207426   8.241191   7.059631   8.444285
    19  C    7.374828   7.178410   8.374183   7.014707   8.387446
    20  C    6.681771   6.535244   7.841874   6.152637   7.441775
    21  C    6.255205   5.868150   7.127494   5.223397   6.445805
    22  H    1.091332   2.076611   2.683261   3.564764   4.362924
    23  H    1.096672   2.145933   2.759909   3.012821   3.271862
    24  H    1.088351   2.101498   3.392826   2.760567   3.674999
    25  H    2.661184   2.074219   1.091221   3.576758   4.109740
    26  H    3.390435   2.096851   1.088605   2.804126   3.196918
    27  H    2.780401   2.141337   1.095698   2.994103   2.870437
    28  H    4.683626   3.363173   3.609900   2.213542   2.433312
    29  H    6.797716   5.484117   5.769596   4.916812   5.769306
    30  H    6.093252   4.645052   4.555167   4.172864   4.739845
    31  H    4.832306   4.037837   4.924805   4.015137   5.421054
    32  H    3.224667   2.331269   3.176779   2.819286   4.220693
    33  H    4.970143   4.186464   5.279879   2.983255   3.960898
    34  H    6.080563   4.987754   5.707266   3.670476   4.272951
    35  H    7.413869   6.532018   7.464377   5.430514   6.301621
    36  H    7.221729   6.165358   6.880958   5.389209   6.398972
    37  H    7.763655   6.935875   7.720181   6.624375   7.894854
    38  H    8.379820   7.932407   8.872230   7.923281   9.329618
    39  H    7.929716   7.884637   9.090896   7.850943   9.236827
    40  H    6.750281   6.818826   8.204626   6.438700   7.661709
    41  H    5.977606   5.637667   6.950311   4.762209   5.842559
                    6          7          8          9         10
     6  O    0.000000
     7  N    2.619448   0.000000
     8  C    3.085823   1.481527   0.000000
     9  C    4.608415   2.435609   1.564380   0.000000
    10  S    4.975304   3.234258   2.412894   1.827506   0.000000
    11  O    5.402446   3.520932   3.300668   2.746078   1.473662
    12  O    6.105368   4.588081   3.498064   2.758833   1.472581
    13  C    3.363532   2.488953   1.563756   2.350108   1.823391
    14  C    3.147510   2.499261   1.539966   2.601995   3.706704
    15  C    4.384598   3.920064   2.636729   3.195502   4.064992
    16  C    4.558525   4.691133   3.385936   4.119923   4.383353
    17  C    5.654780   5.552613   4.140398   4.516397   4.365696
    18  C    6.301987   6.575455   5.245818   5.729276   5.271642
    19  C    6.025239   6.853727   5.687263   6.481618   6.067352
    20  C    5.006928   6.178629   5.165325   6.215637   6.081538
    21  C    4.167919   5.078709   4.039582   5.119332   5.314120
    22  H    3.820144   4.611430   5.221021   6.239259   5.516319
    23  H    3.367849   4.468345   5.441160   6.594612   6.344276
    24  H    2.411258   4.122612   4.656471   5.993500   5.649821
    25  H    4.585193   3.915739   4.731974   5.219050   4.516252
    26  H    4.116834   2.562190   3.570908   3.872876   3.695380
    27  H    4.245738   3.627005   4.876430   5.494014   5.375502
    28  H    3.198621   1.019095   2.103510   2.694668   3.895832
    29  H    5.292032   3.344863   2.240228   1.089911   2.429800
    30  H    5.019965   2.508930   2.263166   1.089281   2.476716
    31  H    3.753472   3.397824   2.237809   2.986697   2.427428
    32  H    2.989719   2.576757   2.252946   3.186890   2.466044
    33  H    2.341566   2.694593   2.140819   3.518243   4.381108
    34  H    3.644556   2.676229   2.129166   2.825652   4.315367
    35  H    4.896399   4.613137   3.504173   4.034207   5.105399
    36  H    5.183911   4.208147   2.825433   2.803675   3.696183
    37  H    6.229346   5.664691   4.191024   4.174104   4.023661
    38  H    7.252374   7.359631   6.001656   6.286159   5.633487
    39  H    6.819198   7.798359   6.679448   7.475713   6.915007
    40  H    5.149938   6.721609   5.878276   7.064051   6.939151
    41  H    3.583733   4.816728   4.020908   5.278232   5.712607
                   11         12         13         14         15
    11  O    0.000000
    12  O    2.541637   0.000000
    13  C    2.748985   2.761506   0.000000
    14  C    4.790436   4.444942   2.645348   0.000000
    15  C    5.413860   4.284321   3.219392   1.541206   0.000000
    16  C    5.753892   4.364281   3.281952   2.590460   1.516053
    17  C    5.774342   3.892643   3.657790   3.712481   2.533648
    18  C    6.571007   4.689249   4.473077   4.890841   3.821358
    19  C    7.276193   5.730395   4.909660   5.205152   4.329485
    20  C    7.262085   6.061438   4.634504   4.475059   3.823004
    21  C    6.548681   5.465983   3.853820   3.148337   2.539150
    22  H    5.100060   6.613453   4.482899   6.167561   7.208889
    23  H    5.977288   7.615322   5.192982   6.186236   7.452651
    24  H    5.653820   6.740231   4.169235   5.199262   6.248785
    25  H    3.578202   5.781049   4.247608   6.070438   7.218708
    26  H    2.891702   5.129375   3.622019   4.946107   6.200065
    27  H    4.597240   6.796791   4.929089   6.021034   7.401075
    28  H    4.143181   5.210493   3.397575   2.762759   4.216698
    29  H    3.569602   2.800703   2.986999   2.699464   2.792978
    30  H    2.867569   3.508360   3.197302   3.307404   4.097573
    31  H    3.574823   2.807069   1.090061   2.754698   2.828357
    32  H    2.861540   3.513023   1.089481   3.359635   4.130324
    33  H    5.351002   5.188838   2.947863   1.093094   2.167957
    34  H    5.285966   5.109318   3.538797   1.095647   2.153942
    35  H    6.431116   5.304935   4.268789   2.131805   1.097089
    36  H    5.101151   3.684611   3.369986   2.184204   1.095651
    37  H    5.465538   3.296708   3.788703   3.939097   2.723057
    38  H    6.884834   4.799813   5.115378   5.790416   4.683800
    39  H    8.050160   6.509815   5.784791   6.259059   5.414233
    40  H    8.029618   7.025037   5.367553   5.158530   4.687598
    41  H    6.854386   6.097443   4.128652   2.944846   2.738271
                   16         17         18         19         20
    16  C    0.000000
    17  C    1.399448   0.000000
    18  C    2.431744   1.394921   0.000000
    19  C    2.813692   2.416616   1.394717   0.000000
    20  C    2.430785   2.782107   2.411686   1.396419   0.000000
    21  C    1.401585   2.406113   2.784381   2.418020   1.393385
    22  H    7.001568   7.517454   7.765791   7.524781   7.004649
    23  H    7.478177   8.265608   8.671081   8.348583   7.566497
    24  H    6.018223   6.774581   7.051265   6.622523   5.839986
    25  H    7.395396   7.825913   8.374775   8.520389   8.126569
    26  H    6.708352   7.261547   8.075138   8.374793   7.902088
    27  H    7.822486   8.516425   9.217097   9.284640   8.653705
    28  H    5.230361   6.164734   7.286799   7.598816   6.866285
    29  H    3.835005   4.116397   5.425645   6.315055   6.139527
    30  H    5.147801   5.596858   6.818534   7.554392   7.233124
    31  H    2.451363   2.666946   3.389638   3.846839   3.695324
    32  H    4.052986   4.466254   5.067675   5.286932   4.939605
    33  H    2.745809   4.030938   5.003143   5.017606   4.055832
    34  H    3.480606   4.598578   5.844531   6.187871   5.411852
    35  H    2.137165   3.191562   4.393047   4.782926   4.153799
    36  H    2.139804   2.590931   3.984179   4.796993   4.570340
    37  H    2.148174   1.086231   2.154013   3.400570   3.868307
    38  H    3.410522   2.150989   1.085439   2.155433   3.398256
    39  H    3.898456   3.401078   2.155511   1.084766   2.156562
    40  H    3.410096   3.867122   3.396739   2.155249   1.085029
    41  H    2.154776   3.392533   3.871149   3.400583   2.150250
                   21         22         23         24         25
    21  C    0.000000
    22  H    6.729744   0.000000
    23  H    7.100956   1.779529   0.000000
    24  H    5.505795   1.777221   1.786777   0.000000
    25  H    7.560203   2.414514   3.049420   3.641782   0.000000
    26  H    7.069409   3.638850   3.766994   4.186994   1.770602
    27  H    7.904870   3.118333   2.626473   3.767915   1.782927
    28  H    5.664010   5.435489   5.050937   4.906826   4.574372
    29  H    5.019754   7.194612   7.569472   6.835726   6.284606
    30  H    6.095282   6.510402   6.707084   6.388116   5.156457
    31  H    3.046046   5.039124   5.843892   4.555820   5.160096
    32  H    4.321025   3.400057   4.230454   3.236932   3.385077
    33  H    2.774805   5.732487   5.613286   4.519746   6.019138
    34  H    4.038119   6.841273   6.640055   5.869249   6.540408
    35  H    2.857406   8.056049   8.135596   6.948500   8.130188
    36  H    3.425217   7.692783   8.053170   6.936897   7.413240
    37  H    3.389715   7.967989   8.758434   7.388845   7.964250
    38  H    3.869793   8.386562   9.434516   7.840422   8.906538
    39  H    3.401556   7.984658   8.900029   7.142053   9.148924
    40  H    2.149551   7.094479   7.555380   5.802650   8.489501
    41  H    1.086781   6.601861   6.702159   5.186809   7.501173
                   26         27         28         29         30
    26  H    0.000000
    27  H    1.791853   0.000000
    28  H    3.020486   3.966359   0.000000
    29  H    4.962465   6.572350   3.481422   0.000000
    30  H    3.596617   5.222661   2.448239   1.796819   0.000000
    31  H    4.689933   5.911661   4.254636   3.290570   3.985040
    32  H    3.121422   4.184493   3.589187   3.978571   3.830806
    33  H    5.088361   5.874423   3.047864   3.756606   4.172855
    34  H    5.206312   6.239826   2.513150   2.836387   3.229331
    35  H    7.039171   8.150959   4.729508   3.526859   4.806564
    36  H    6.308375   7.700354   4.452139   2.091041   3.706923
    37  H    7.281131   8.698611   6.209832   3.606668   5.221346
    38  H    8.675137   9.891187   8.087401   5.933069   7.363975
    39  H    9.167056  10.002477   8.583268   7.335602   8.548370
    40  H    8.389085   8.941064   7.405330   7.067010   8.040461
    41  H    6.944857   7.609304   5.301310   5.271455   6.143878
                   31         32         33         34         35
    31  H    0.000000
    32  H    1.808343   0.000000
    33  H    2.987646   3.371696   0.000000
    34  H    3.791959   4.218465   1.753840   0.000000
    35  H    3.891454   5.129020   2.563033   2.313016   0.000000
    36  H    3.042664   4.412523   3.075328   2.593049   1.745397
    37  H    2.951425   4.725406   4.509905   4.705676   3.411603
    38  H    4.063767   5.706908   5.995924   6.727037   5.272370
    39  H    4.733696   6.050578   6.016469   7.252981   5.845228
    40  H    4.515540   5.505465   4.547176   6.049696   4.915759
    41  H    3.552558   4.486542   2.269809   3.684689   2.839208
                   36         37         38         39         40
    36  H    0.000000
    37  H    2.318382   0.000000
    38  H    4.650780   2.476301   0.000000
    39  H    5.860725   4.298292   2.486965   0.000000
    40  H    5.530001   4.953317   4.297931   2.485591   0.000000
    41  H    3.789237   4.288762   4.956565   4.296237   2.470878
                   41
    41  H    0.000000
 Stoichiometry    C13H20N2O4S2
 Framework group  C1[X(C13H20N2O4S2)]
 Deg. of freedom   117
 Full point group                 C1      NOp   1
 Largest Abelian subgroup         C1      NOp   1
 Largest concise Abelian subgroup C1      NOp   1
                         Standard orientation:                         
 ---------------------------------------------------------------------
 Center     Atomic      Atomic             Coordinates (Angstroms)
 Number     Number       Type             X           Y           Z
 ---------------------------------------------------------------------
      1          6           0       -2.943484   -1.761443   -2.084081
      2          7           0       -2.717795   -0.678787   -1.110947
      3          6           0       -3.752727    0.365496   -1.137580
      4         16           0       -2.336077   -1.237063    0.434240
      5          8           0       -3.525122   -1.537567    1.242460
      6          8           0       -1.315721   -2.271633    0.238640
      7          7           0       -1.711897    0.165113    1.114323
      8          6           0       -0.279106    0.528956    1.016096
      9          6           0       -0.186535    2.041754    1.403595
     10         16           0       -0.019853    2.494618   -0.359048
     11          8           0       -1.282259    3.004303   -0.923170
     12          8           0        1.237463    3.201776   -0.654981
     13          6           0        0.121633    0.681285   -0.487745
     14          6           0        0.600318   -0.391771    1.882335
     15          6           0        2.116205   -0.114993    1.910611
     16          6           0        2.898657   -0.597867    0.705199
     17          6           0        3.725230    0.278911   -0.006483
     18          6           0        4.471281   -0.164958   -1.098359
     19          6           0        4.403108   -1.500489   -1.494520
     20          6           0        3.582497   -2.385966   -0.792726
     21          6           0        2.838354   -1.937177    0.296477
     22          1           0       -2.950986   -1.307265   -3.076387
     23          1           0       -3.898301   -2.276289   -1.922995
     24          1           0       -2.125659   -2.476961   -2.023220
     25          1           0       -3.784842    0.762281   -2.153598
     26          1           0       -3.467428    1.167984   -0.459584
     27          1           0       -4.741897   -0.022697   -0.870367
     28          1           0       -2.082583    0.243184    2.060394
     29          1           0        0.720922    2.304216    1.947232
     30          1           0       -1.067671    2.464226    1.884894
     31          1           0        1.152399    0.396339   -0.698837
     32          1           0       -0.578848    0.244273   -1.198600
     33          1           0        0.421460   -1.420125    1.557756
     34          1           0        0.216756   -0.317194    2.905937
     35          1           0        2.508753   -0.611970    2.806448
     36          1           0        2.312651    0.952732    2.058343
     37          1           0        3.772808    1.321191    0.295654
     38          1           0        5.103798    0.532818   -1.637996
     39          1           0        4.981505   -1.848830   -2.343539
     40          1           0        3.522849   -3.426598   -1.094085
     41          1           0        2.199572   -2.631929    0.835338
 ---------------------------------------------------------------------
 Rotational constants (GHZ):      0.3628243      0.2014458      0.1638384
 Leave Link  202 at Fri Oct  2 06:12:39 2020, MaxMem=  2147483648 cpu:         0.0
 (Enter /prod/apps/gaussian/g09d1/l301.exe)
 Standard basis: 6-31G(d) (6D, 7F)
 Ernie: Thresh=  0.10000D-02 Tol=  0.10000D-05 Strict=F.
 There are   363 symmetry adapted cartesian basis functions of A   symmetry.
 There are   363 symmetry adapted basis functions of A   symmetry.
   363 basis functions,   716 primitive gaussians,   363 cartesian basis functions
    88 alpha electrons       88 beta electrons
       nuclear repulsion energy      2232.4967667620 Hartrees.
 IExCor=  402 DFT=T Ex+Corr=B3LYP ExCW=0 ScaHFX=  0.200000
 ScaDFX=  0.800000  0.720000  1.000000  0.810000 ScalE2=  1.000000  1.000000
 IRadAn=      0 IRanWt=     -1 IRanGd=            0 ICorTp=0 IEmpDi=  4
 NAtoms=   41 NActive=   41 NUniq=   41 SFac= 1.00D+00 NAtFMM=   60 NAOKFM=F Big=F
 Integral buffers will be    131072 words long.
 Raffenetti 2 integral format.
 Two-electron integral symmetry is turned on.
 Leave Link  301 at Fri Oct  2 06:12:39 2020, MaxMem=  2147483648 cpu:         0.0
 (Enter /prod/apps/gaussian/g09d1/l302.exe)
 NPDir=0 NMtPBC=     1 NCelOv=     1 NCel=       1 NClECP=     1 NCelD=      1
         NCelK=      1 NCelE2=     1 NClLst=     1 CellRange=     0.0.
 One-electron integrals computed using PRISM.
 NBasis=   363 RedAO= T EigKep=  4.65D-04  NBF=   363
 NBsUse=   363 1.00D-06 EigRej= -1.00D+00 NBFU=   363
 Precomputing XC quadrature grid using
 IXCGrd= 4 IRadAn=           0 IRanWt=          -1 IRanGd=           0 AccXCQ= 0.00D+00.
 Generated NRdTot=       0 NPtTot=           0 NUsed=           0 NTot=          32
 NSgBfM=   360   360   360   360   360 MxSgAt=    41 MxSgA2=    41.
 Leave Link  302 at Fri Oct  2 06:12:40 2020, MaxMem=  2147483648 cpu:         1.3
 (Enter /prod/apps/gaussian/g09d1/l303.exe)
 DipDrv:  MaxL=1.
 Leave Link  303 at Fri Oct  2 06:12:40 2020, MaxMem=  2147483648 cpu:         0.1
 (Enter /prod/apps/gaussian/g09d1/l401.exe)
 ExpMin= 1.17D-01 ExpMax= 2.19D+04 ExpMxC= 3.30D+03 IAcc=1 IRadAn=         1 AccDes= 0.00D+00
 Harris functional with IExCor=  402 and IRadAn=       1 diagonalized for initial guess.
 HarFok:  IExCor=  402 AccDes= 0.00D+00 IRadAn=         1 IDoV= 1 UseB2=F ITyADJ=14
 ICtDFT=  3500011 ScaDFX=  1.000000  1.000000  1.000000  1.000000
 FoFCou: FMM=F IPFlag=           0 FMFlag=      100000 FMFlg1=           0
         NFxFlg=           0 DoJE=T BraDBF=F KetDBF=T FulRan=T
         wScrn=  0.000000 ICntrl=     500 IOpCl=  0 I1Cent=   200000004 NGrid=           0
         NMat0=    1 NMatS0=      1 NMatT0=    0 NMatD0=    1 NMtDS0=    0 NMtDT0=    0
 Petite list used in FoFCou.
 Harris En= -1714.14638144721    
 JPrj=0 DoOrth=F DoCkMO=F.
 Leave Link  401 at Fri Oct  2 06:12:47 2020, MaxMem=  2147483648 cpu:         6.5
 (Enter /prod/apps/gaussian/g09d1/l502.exe)
 Closed shell SCF:
 Using DIIS extrapolation, IDIIS=  1040.
 Integral symmetry usage will be decided dynamically.
 IVT=      418784 IEndB=      418784 NGot=  2147483648 MDV=  2147213637
 LenX=  2147213637 LenY=  2147081427
 Requested convergence on RMS density matrix=1.00D-08 within 128 cycles.
 Requested convergence on MAX density matrix=1.00D-06.
 Requested convergence on             energy=1.00D-06.
 No special actions if energy rises.
 Fock matrices will be formed incrementally for  20 cycles.
 Integral accuracy reduced to 1.0D-05 until final iterations.

 Cycle   1  Pass 0  IDiag  1:
 FoFJK:  IHMeth= 1 ICntrl=       0 DoSepK=F KAlg= 0 I1Cent=   0 FoldK=F
 IRaf= 790000000 NMat=   1 IRICut=       1 DoRegI=T DoRafI=F ISym2E= 0.
 FoFCou: FMM=F IPFlag=           0 FMFlag=      100000 FMFlg1=           0
         NFxFlg=           0 DoJE=F BraDBF=F KetDBF=F FulRan=T
         wScrn=  0.000000 ICntrl=       0 IOpCl=  0 I1Cent=           0 NGrid=           0
         NMat0=    1 NMatS0=      1 NMatT0=    0 NMatD0=    1 NMtDS0=    0 NMtDT0=    0
 Symmetry not used in FoFCou.
 E= -1713.20045411600    
 DIIS: error= 3.21D-02 at cycle   1 NSaved=   1.
 NSaved= 1 IEnMin= 1 EnMin= -1713.20045411600     IErMin= 1 ErrMin= 3.21D-02
 ErrMax= 3.21D-02  0.00D+00 EMaxC= 1.00D-01 BMatC= 9.90D-01 BMatP= 9.90D-01
 IDIUse=3 WtCom= 6.79D-01 WtEn= 3.21D-01
 Coeff-Com:  0.100D+01
 Coeff-En:   0.100D+01
 Coeff:      0.100D+01
 Gap=     0.353 Goal=   None    Shift=    0.000
 GapD=    0.353 DampG=1.000 DampE=0.500 DampFc=0.5000 IDamp=-1.
 Damping current iteration by 5.00D-01
 RMSDP=6.95D-03 MaxDP=6.01D-01              OVMax= 2.42D-01

 Cycle   2  Pass 0  IDiag  1:
 RMSU=  3.48D-03    CP:  9.99D-01
 E= -1713.38233776836     Delta-E=       -0.181883652356 Rises=F Damp=T
 DIIS: error= 1.56D-02 at cycle   2 NSaved=   2.
 NSaved= 2 IEnMin= 2 EnMin= -1713.38233776836     IErMin= 2 ErrMin= 1.56D-02
 ErrMax= 1.56D-02  0.00D+00 EMaxC= 1.00D-01 BMatC= 1.67D-01 BMatP= 9.90D-01
 IDIUse=3 WtCom= 8.44D-01 WtEn= 1.56D-01
 Coeff-Com:  0.247D+00 0.753D+00
 Coeff-En:   0.391D+00 0.609D+00
 Coeff:      0.270D+00 0.730D+00
 Gap=     0.295 Goal=   None    Shift=    0.000
 RMSDP=2.03D-03 MaxDP=1.29D-01 DE=-1.82D-01 OVMax= 2.01D-01

 Cycle   3  Pass 0  IDiag  1:
 RMSU=  1.62D-03    CP:  9.90D-01  6.53D-01
 E= -1713.94929320008     Delta-E=       -0.566955431717 Rises=F Damp=F
 DIIS: error= 9.48D-03 at cycle   3 NSaved=   3.
 NSaved= 3 IEnMin= 3 EnMin= -1713.94929320008     IErMin= 3 ErrMin= 9.48D-03
 ErrMax= 9.48D-03  0.00D+00 EMaxC= 1.00D-01 BMatC= 9.89D-02 BMatP= 1.67D-01
 IDIUse=3 WtCom= 9.05D-01 WtEn= 9.48D-02
 Coeff-Com:  0.102D+00 0.442D+00 0.456D+00
 Coeff-En:   0.000D+00 0.000D+00 0.100D+01
 Coeff:      0.922D-01 0.400D+00 0.507D+00
 Gap=     0.241 Goal=   None    Shift=    0.000
 RMSDP=1.27D-03 MaxDP=4.37D-02 DE=-5.67D-01 OVMax= 7.90D-02

 Cycle   4  Pass 0  IDiag  1:
 RMSU=  7.49D-04    CP:  9.95D-01  7.27D-01  3.93D-01
 E= -1714.02877335877     Delta-E=       -0.079480158690 Rises=F Damp=F
 DIIS: error= 2.97D-03 at cycle   4 NSaved=   4.
 NSaved= 4 IEnMin= 4 EnMin= -1714.02877335877     IErMin= 4 ErrMin= 2.97D-03
 ErrMax= 2.97D-03  0.00D+00 EMaxC= 1.00D-01 BMatC= 1.33D-02 BMatP= 9.89D-02
 IDIUse=3 WtCom= 9.70D-01 WtEn= 2.97D-02
 Coeff-Com:  0.104D-01 0.803D-01 0.281D+00 0.628D+00
 Coeff-En:   0.000D+00 0.000D+00 0.119D+00 0.881D+00
 Coeff:      0.101D-01 0.779D-01 0.276D+00 0.636D+00
 Gap=     0.238 Goal=   None    Shift=    0.000
 RMSDP=4.01D-04 MaxDP=1.74D-02 DE=-7.95D-02 OVMax= 2.18D-02

 Cycle   5  Pass 0  IDiag  1:
 RMSU=  1.72D-04    CP:  9.95D-01  7.15D-01  5.43D-01  6.47D-01
 E= -1714.03984970893     Delta-E=       -0.011076350165 Rises=F Damp=F
 DIIS: error= 8.34D-04 at cycle   5 NSaved=   5.
 NSaved= 5 IEnMin= 5 EnMin= -1714.03984970893     IErMin= 5 ErrMin= 8.34D-04
 ErrMax= 8.34D-04  0.00D+00 EMaxC= 1.00D-01 BMatC= 9.76D-04 BMatP= 1.33D-02
 IDIUse=3 WtCom= 9.92D-01 WtEn= 8.34D-03
 Coeff-Com: -0.794D-03 0.175D-01 0.117D+00 0.341D+00 0.525D+00
 Coeff-En:   0.000D+00 0.000D+00 0.000D+00 0.000D+00 0.100D+01
 Coeff:     -0.787D-03 0.173D-01 0.116D+00 0.339D+00 0.529D+00
 Gap=     0.238 Goal=   None    Shift=    0.000
 RMSDP=1.07D-04 MaxDP=6.73D-03 DE=-1.11D-02 OVMax= 5.43D-03

 Cycle   6  Pass 0  IDiag  1:
 RMSU=  5.77D-05    CP:  9.94D-01  7.17D-01  5.36D-01  7.02D-01  5.43D-01
 E= -1714.04060778776     Delta-E=       -0.000758078832 Rises=F Damp=F
 DIIS: error= 4.68D-04 at cycle   6 NSaved=   6.
 NSaved= 6 IEnMin= 6 EnMin= -1714.04060778776     IErMin= 6 ErrMin= 4.68D-04
 ErrMax= 4.68D-04  0.00D+00 EMaxC= 1.00D-01 BMatC= 1.35D-04 BMatP= 9.76D-04
 IDIUse=3 WtCom= 9.95D-01 WtEn= 4.68D-03
 Coeff-Com: -0.133D-02 0.390D-02 0.459D-01 0.147D+00 0.324D+00 0.480D+00
 Coeff-En:   0.000D+00 0.000D+00 0.000D+00 0.000D+00 0.593D-01 0.941D+00
 Coeff:     -0.132D-02 0.388D-02 0.456D-01 0.147D+00 0.323D+00 0.482D+00
 Gap=     0.238 Goal=   None    Shift=    0.000
 RMSDP=3.75D-05 MaxDP=1.97D-03 DE=-7.58D-04 OVMax= 3.05D-03

 Cycle   7  Pass 0  IDiag  1:
 RMSU=  2.42D-05    CP:  9.94D-01  7.17D-01  5.37D-01  7.02D-01  6.01D-01
                    CP:  5.36D-01
 E= -1714.04070044930     Delta-E=       -0.000092661540 Rises=F Damp=F
 DIIS: error= 1.90D-04 at cycle   7 NSaved=   7.
 NSaved= 7 IEnMin= 7 EnMin= -1714.04070044930     IErMin= 7 ErrMin= 1.90D-04
 ErrMax= 1.90D-04  0.00D+00 EMaxC= 1.00D-01 BMatC= 2.01D-05 BMatP= 1.35D-04
 IDIUse=3 WtCom= 9.98D-01 WtEn= 1.90D-03
 Coeff-Com: -0.785D-03 0.548D-04 0.134D-01 0.479D-01 0.141D+00 0.320D+00
 Coeff-Com:  0.478D+00
 Coeff-En:   0.000D+00 0.000D+00 0.000D+00 0.000D+00 0.000D+00 0.119D+00
 Coeff-En:   0.881D+00
 Coeff:     -0.783D-03 0.547D-04 0.134D-01 0.478D-01 0.141D+00 0.320D+00
 Coeff:      0.478D+00
 Gap=     0.238 Goal=   None    Shift=    0.000
 RMSDP=1.27D-05 MaxDP=6.22D-04 DE=-9.27D-05 OVMax= 9.92D-04

 Cycle   8  Pass 0  IDiag  1:
 RMSU=  6.01D-06    CP:  9.94D-01  7.17D-01  5.38D-01  7.03D-01  6.04D-01
                    CP:  6.06D-01  5.72D-01
 E= -1714.04071665564     Delta-E=       -0.000016206339 Rises=F Damp=F
 DIIS: error= 3.20D-05 at cycle   8 NSaved=   8.
 NSaved= 8 IEnMin= 8 EnMin= -1714.04071665564     IErMin= 8 ErrMin= 3.20D-05
 ErrMax= 3.20D-05  0.00D+00 EMaxC= 1.00D-01 BMatC= 6.26D-07 BMatP= 2.01D-05
 IDIUse=1 WtCom= 1.00D+00 WtEn= 0.00D+00
 Coeff-Com: -0.251D-03-0.296D-03 0.199D-02 0.863D-02 0.377D-01 0.107D+00
 Coeff-Com:  0.220D+00 0.625D+00
 Coeff:     -0.251D-03-0.296D-03 0.199D-02 0.863D-02 0.377D-01 0.107D+00
 Coeff:      0.220D+00 0.625D+00
 Gap=     0.238 Goal=   None    Shift=    0.000
 RMSDP=3.11D-06 MaxDP=1.54D-04 DE=-1.62D-05 OVMax= 2.35D-04

 Initial convergence to 1.0D-05 achieved.  Increase integral accuracy.
 Cycle   9  Pass 1  IDiag  1:
 E= -1714.04080076283     Delta-E=       -0.000084107191 Rises=F Damp=F
 DIIS: error= 6.08D-05 at cycle   1 NSaved=   1.
 NSaved= 1 IEnMin= 1 EnMin= -1714.04080076283     IErMin= 1 ErrMin= 6.08D-05
 ErrMax= 6.08D-05  0.00D+00 EMaxC= 1.00D-01 BMatC= 8.57D-07 BMatP= 8.57D-07
 IDIUse=1 WtCom= 1.00D+00 WtEn= 0.00D+00
 Coeff-Com:  0.100D+01
 Coeff:      0.100D+01
 Gap=     0.238 Goal=   None    Shift=    0.000
 RMSDP=3.11D-06 MaxDP=1.54D-04 DE=-8.41D-05 OVMax= 3.21D-04

 Cycle  10  Pass 1  IDiag  1:
 RMSU=  2.67D-05    CP:  1.00D+00
 E= -1714.04080114586     Delta-E=       -0.000000383030 Rises=F Damp=F
 DIIS: error= 3.05D-05 at cycle   2 NSaved=   2.
 NSaved= 2 IEnMin= 2 EnMin= -1714.04080114586     IErMin= 2 ErrMin= 3.05D-05
 ErrMax= 3.05D-05  0.00D+00 EMaxC= 1.00D-01 BMatC= 5.58D-07 BMatP= 8.57D-07
 IDIUse=1 WtCom= 1.00D+00 WtEn= 0.00D+00
 Coeff-Com:  0.422D+00 0.578D+00
 Coeff:      0.422D+00 0.578D+00
 Gap=     0.238 Goal=   None    Shift=    0.000
 RMSDP=3.70D-06 MaxDP=1.41D-04 DE=-3.83D-07 OVMax= 3.49D-04

 Cycle  11  Pass 1  IDiag  1:
 RMSU=  3.69D-06    CP:  1.00D+00  9.94D-01
 E= -1714.04080132701     Delta-E=       -0.000000181148 Rises=F Damp=F
 DIIS: error= 2.34D-05 at cycle   3 NSaved=   3.
 NSaved= 3 IEnMin= 3 EnMin= -1714.04080132701     IErMin= 3 ErrMin= 2.34D-05
 ErrMax= 2.34D-05  0.00D+00 EMaxC= 1.00D-01 BMatC= 3.73D-07 BMatP= 5.58D-07
 IDIUse=1 WtCom= 1.00D+00 WtEn= 0.00D+00
 Coeff-Com:  0.217D-02 0.449D+00 0.549D+00
 Coeff:      0.217D-02 0.449D+00 0.549D+00
 Gap=     0.238 Goal=   None    Shift=    0.000
 RMSDP=1.71D-06 MaxDP=7.06D-05 DE=-1.81D-07 OVMax= 1.38D-04

 Cycle  12  Pass 1  IDiag  1:
 RMSU=  5.50D-07    CP:  1.00D+00  1.01D+00  5.70D-01
 E= -1714.04080164909     Delta-E=       -0.000000322077 Rises=F Damp=F
 DIIS: error= 3.64D-06 at cycle   4 NSaved=   4.
 NSaved= 4 IEnMin= 4 EnMin= -1714.04080164909     IErMin= 4 ErrMin= 3.64D-06
 ErrMax= 3.64D-06  0.00D+00 EMaxC= 1.00D-01 BMatC= 1.23D-08 BMatP= 3.73D-07
 IDIUse=1 WtCom= 1.00D+00 WtEn= 0.00D+00
 Coeff-Com: -0.766D-02 0.267D+00 0.342D+00 0.399D+00
 Coeff:     -0.766D-02 0.267D+00 0.342D+00 0.399D+00
 Gap=     0.238 Goal=   None    Shift=    0.000
 RMSDP=3.31D-07 MaxDP=1.61D-05 DE=-3.22D-07 OVMax= 2.08D-05

 Cycle  13  Pass 1  IDiag  1:
 RMSU=  1.73D-07    CP:  1.00D+00  1.01D+00  5.70D-01  4.88D-01
 E= -1714.04080165912     Delta-E=       -0.000000010030 Rises=F Damp=F
 DIIS: error= 1.14D-06 at cycle   5 NSaved=   5.
 NSaved= 5 IEnMin= 5 EnMin= -1714.04080165912     IErMin= 5 ErrMin= 1.14D-06
 ErrMax= 1.14D-06  0.00D+00 EMaxC= 1.00D-01 BMatC= 5.28D-10 BMatP= 1.23D-08
 IDIUse=1 WtCom= 1.00D+00 WtEn= 0.00D+00
 Coeff-Com: -0.474D-02 0.127D+00 0.166D+00 0.232D+00 0.480D+00
 Coeff:     -0.474D-02 0.127D+00 0.166D+00 0.232D+00 0.480D+00
 Gap=     0.238 Goal=   None    Shift=    0.000
 RMSDP=7.56D-08 MaxDP=4.38D-06 DE=-1.00D-08 OVMax= 6.24D-06

 Cycle  14  Pass 1  IDiag  1:
 RMSU=  6.08D-08    CP:  1.00D+00  1.01D+00  5.72D-01  5.13D-01  7.59D-01
 E= -1714.04080165938     Delta-E=       -0.000000000258 Rises=F Damp=F
 DIIS: error= 3.02D-07 at cycle   6 NSaved=   6.
 NSaved= 6 IEnMin= 6 EnMin= -1714.04080165938     IErMin= 6 ErrMin= 3.02D-07
 ErrMax= 3.02D-07  0.00D+00 EMaxC= 1.00D-01 BMatC= 4.62D-11 BMatP= 5.28D-10
 IDIUse=1 WtCom= 1.00D+00 WtEn= 0.00D+00
 Coeff-Com: -0.123D-02 0.247D-01 0.329D-01 0.581D-01 0.257D+00 0.629D+00
 Coeff:     -0.123D-02 0.247D-01 0.329D-01 0.581D-01 0.257D+00 0.629D+00
 Gap=     0.238 Goal=   None    Shift=    0.000
 RMSDP=2.33D-08 MaxDP=1.30D-06 DE=-2.58D-10 OVMax= 1.39D-06

 Cycle  15  Pass 1  IDiag  1:
 RMSU=  1.72D-08    CP:  1.00D+00  1.01D+00  5.72D-01  5.14D-01  8.20D-01
                    CP:  8.13D-01
 E= -1714.04080165953     Delta-E=       -0.000000000157 Rises=F Damp=F
 DIIS: error= 1.11D-07 at cycle   7 NSaved=   7.
 NSaved= 7 IEnMin= 7 EnMin= -1714.04080165953     IErMin= 7 ErrMin= 1.11D-07
 ErrMax= 1.11D-07  0.00D+00 EMaxC= 1.00D-01 BMatC= 6.55D-12 BMatP= 4.62D-11
 IDIUse=1 WtCom= 1.00D+00 WtEn= 0.00D+00
 Coeff-Com: -0.178D-03 0.163D-05 0.420D-03 0.747D-02 0.928D-01 0.356D+00
 Coeff-Com:  0.544D+00
 Coeff:     -0.178D-03 0.163D-05 0.420D-03 0.747D-02 0.928D-01 0.356D+00
 Coeff:      0.544D+00
 Gap=     0.238 Goal=   None    Shift=    0.000
 RMSDP=9.14D-09 MaxDP=7.43D-07 DE=-1.57D-10 OVMax= 4.68D-07

 SCF Done:  E(RB3LYP) =  -1714.04080166     A.U. after   15 cycles
            NFock= 15  Conv=0.91D-08     -V/T= 2.0067
 KE= 1.702559315525D+03 PE=-8.491100386188D+03 EE= 2.842003502241D+03
 Leave Link  502 at Fri Oct  2 06:19:27 2020, MaxMem=  2147483648 cpu:       399.7
 (Enter /prod/apps/gaussian/g09d1/l601.exe)
 Copying SCF densities to generalized density rwf, IOpCl= 0 IROHF=0.

 **********************************************************************

            Population analysis using the SCF density.

 **********************************************************************

 Orbital symmetries:
       Occupied  (A) (A) (A) (A) (A) (A) (A) (A) (A) (A) (A) (A)
                 (A) (A) (A) (A) (A) (A) (A) (A) (A) (A) (A) (A)
                 (A) (A) (A) (A) (A) (A) (A) (A) (A) (A) (A) (A)
                 (A) (A) (A) (A) (A) (A) (A) (A) (A) (A) (A) (A)
                 (A) (A) (A) (A) (A) (A) (A) (A) (A) (A) (A) (A)
                 (A) (A) (A) (A) (A) (A) (A) (A) (A) (A) (A) (A)
                 (A) (A) (A) (A) (A) (A) (A) (A) (A) (A) (A) (A)
                 (A) (A) (A) (A)
       Virtual   (A) (A) (A) (A) (A) (A) (A) (A) (A) (A) (A) (A)
                 (A) (A) (A) (A) (A) (A) (A) (A) (A) (A) (A) (A)
                 (A) (A) (A) (A) (A) (A) (A) (A) (A) (A) (A) (A)
                 (A) (A) (A) (A) (A) (A) (A) (A) (A) (A) (A) (A)
                 (A) (A) (A) (A) (A) (A) (A) (A) (A) (A) (A) (A)
                 (A) (A) (A) (A) (A) (A) (A) (A) (A) (A) (A) (A)
                 (A) (A) (A) (A) (A) (A) (A) (A) (A) (A) (A) (A)
                 (A) (A) (A) (A) (A) (A) (A) (A) (A) (A) (A) (A)
                 (A) (A) (A) (A) (A) (A) (A) (A) (A) (A) (A) (A)
                 (A) (A) (A) (A) (A) (A) (A) (A) (A) (A) (A) (A)
                 (A) (A) (A) (A) (A) (A) (A) (A) (A) (A) (A) (A)
                 (A) (A) (A) (A) (A) (A) (A) (A) (A) (A) (A) (A)
                 (A) (A) (A) (A) (A) (A) (A) (A) (A) (A) (A) (A)
                 (A) (A) (A) (A) (A) (A) (A) (A) (A) (A) (A) (A)
                 (A) (A) (A) (A) (A) (A) (A) (A) (A) (A) (A) (A)
                 (A) (A) (A) (A) (A) (A) (A) (A) (A) (A) (A) (A)
                 (A) (A) (A) (A) (A) (A) (A) (A) (A) (A) (A) (A)
                 (A) (A) (A) (A) (A) (A) (A) (A) (A) (A) (A) (A)
                 (A) (A) (A) (A) (A) (A) (A) (A) (A) (A) (A) (A)
                 (A) (A) (A) (A) (A) (A) (A) (A) (A) (A) (A) (A)
                 (A) (A) (A) (A) (A) (A) (A) (A) (A) (A) (A) (A)
                 (A) (A) (A) (A) (A) (A) (A) (A) (A) (A) (A) (A)
                 (A) (A) (A) (A) (A) (A) (A) (A) (A) (A) (A)
 The electronic state is 1-A.
 Alpha  occ. eigenvalues --  -89.13896 -89.09021 -19.15576 -19.15332 -19.14359
 Alpha  occ. eigenvalues --  -19.14314 -14.38755 -14.38311 -10.28321 -10.23679
 Alpha  occ. eigenvalues --  -10.22905 -10.22407 -10.22231 -10.20845 -10.20759
 Alpha  occ. eigenvalues --  -10.20310 -10.19470 -10.19400 -10.19300 -10.19291
 Alpha  occ. eigenvalues --  -10.19215  -8.16145  -8.12056  -6.12641  -6.12566
 Alpha  occ. eigenvalues --   -6.12521  -6.08475  -6.08418  -6.08341  -1.13122
 Alpha  occ. eigenvalues --   -1.09662  -1.01236  -0.99319  -0.95937  -0.94482
 Alpha  occ. eigenvalues --   -0.86491  -0.85438  -0.80062  -0.74996  -0.74699
 Alpha  occ. eigenvalues --   -0.73297  -0.72908  -0.71567  -0.67886  -0.63244
 Alpha  occ. eigenvalues --   -0.61004  -0.60360  -0.58539  -0.57816  -0.54728
 Alpha  occ. eigenvalues --   -0.53630  -0.51925  -0.51515  -0.50131  -0.49157
 Alpha  occ. eigenvalues --   -0.48531  -0.47043  -0.46738  -0.45951  -0.45648
 Alpha  occ. eigenvalues --   -0.44953  -0.44674  -0.44085  -0.42824  -0.42624
 Alpha  occ. eigenvalues --   -0.42138  -0.41974  -0.41384  -0.41216  -0.40131
 Alpha  occ. eigenvalues --   -0.39251  -0.37678  -0.37398  -0.35890  -0.35104
 Alpha  occ. eigenvalues --   -0.34537  -0.34091  -0.33839  -0.32927  -0.32243
 Alpha  occ. eigenvalues --   -0.31376  -0.31146  -0.29725  -0.28850  -0.28735
 Alpha  occ. eigenvalues --   -0.26299  -0.25475  -0.24683
 Alpha virt. eigenvalues --   -0.00894  -0.00596   0.02984   0.03910   0.05298
 Alpha virt. eigenvalues --    0.05742   0.06482   0.06729   0.07189   0.08564
 Alpha virt. eigenvalues --    0.08592   0.09321   0.09785   0.10974   0.11704
 Alpha virt. eigenvalues --    0.12923   0.13416   0.14121   0.14834   0.15035
 Alpha virt. eigenvalues --    0.15364   0.16000   0.16129   0.16722   0.16952
 Alpha virt. eigenvalues --    0.17920   0.18398   0.18599   0.18939   0.19342
 Alpha virt. eigenvalues --    0.19802   0.20455   0.21553   0.22178   0.22708
 Alpha virt. eigenvalues --    0.24867   0.25638   0.26506   0.29076   0.30254
 Alpha virt. eigenvalues --    0.32035   0.33749   0.34488   0.35177   0.36042
 Alpha virt. eigenvalues --    0.36376   0.39698   0.42030   0.42842   0.43786
 Alpha virt. eigenvalues --    0.44780   0.47585   0.47793   0.49421   0.49780
 Alpha virt. eigenvalues --    0.51332   0.51763   0.52484   0.53299   0.54303
 Alpha virt. eigenvalues --    0.55489   0.55728   0.56228   0.57013   0.57772
 Alpha virt. eigenvalues --    0.58660   0.59219   0.59758   0.60256   0.60624
 Alpha virt. eigenvalues --    0.61246   0.61804   0.61978   0.63965   0.64248
 Alpha virt. eigenvalues --    0.65482   0.66425   0.67511   0.69418   0.70660
 Alpha virt. eigenvalues --    0.72235   0.72826   0.74455   0.75027   0.76254
 Alpha virt. eigenvalues --    0.76827   0.78219   0.78902   0.79872   0.80069
 Alpha virt. eigenvalues --    0.80749   0.81559   0.82485   0.83061   0.83564
 Alpha virt. eigenvalues --    0.83804   0.84308   0.84774   0.85520   0.86339
 Alpha virt. eigenvalues --    0.86978   0.87321   0.88005   0.88642   0.89734
 Alpha virt. eigenvalues --    0.90550   0.91353   0.92040   0.92231   0.93318
 Alpha virt. eigenvalues --    0.93590   0.94379   0.95374   0.95879   0.96592
 Alpha virt. eigenvalues --    0.97182   0.97337   0.98846   0.99743   1.01030
 Alpha virt. eigenvalues --    1.02621   1.03518   1.03937   1.06878   1.07150
 Alpha virt. eigenvalues --    1.07803   1.08963   1.09841   1.10754   1.10879
 Alpha virt. eigenvalues --    1.11645   1.12954   1.14179   1.16162   1.17323
 Alpha virt. eigenvalues --    1.18144   1.18330   1.20054   1.20828   1.22354
 Alpha virt. eigenvalues --    1.22878   1.25012   1.26108   1.27786   1.28164
 Alpha virt. eigenvalues --    1.31199   1.33335   1.37358   1.37726   1.41900
 Alpha virt. eigenvalues --    1.42750   1.43319   1.43990   1.44787   1.46568
 Alpha virt. eigenvalues --    1.48039   1.48070   1.49863   1.51068   1.52369
 Alpha virt. eigenvalues --    1.55448   1.56907   1.58982   1.65713   1.66447
 Alpha virt. eigenvalues --    1.70767   1.71281   1.72903   1.73988   1.74643
 Alpha virt. eigenvalues --    1.77348   1.78749   1.79743   1.79997   1.80385
 Alpha virt. eigenvalues --    1.80818   1.81356   1.81545   1.82325   1.83103
 Alpha virt. eigenvalues --    1.84551   1.85084   1.85998   1.86764   1.88207
 Alpha virt. eigenvalues --    1.89886   1.91132   1.91912   1.92110   1.94021
 Alpha virt. eigenvalues --    1.94941   1.95651   1.97374   1.97718   1.98915
 Alpha virt. eigenvalues --    2.00068   2.01061   2.02156   2.04133   2.05560
 Alpha virt. eigenvalues --    2.05729   2.07305   2.08238   2.09145   2.10330
 Alpha virt. eigenvalues --    2.12572   2.13684   2.13915   2.14463   2.15293
 Alpha virt. eigenvalues --    2.16081   2.16351   2.18043   2.19223   2.20091
 Alpha virt. eigenvalues --    2.21387   2.23845   2.26051   2.27021   2.27655
 Alpha virt. eigenvalues --    2.29859   2.31034   2.31298   2.32759   2.35653
 Alpha virt. eigenvalues --    2.36886   2.38007   2.40804   2.41994   2.44790
 Alpha virt. eigenvalues --    2.45566   2.48333   2.51814   2.55038   2.58016
 Alpha virt. eigenvalues --    2.58593   2.60598   2.63918   2.65819   2.69655
 Alpha virt. eigenvalues --    2.72032   2.72202   2.73083   2.74078   2.74607
 Alpha virt. eigenvalues --    2.75895   2.77285   2.79084   2.83070   2.83449
 Alpha virt. eigenvalues --    2.87981   2.89575   3.05676   3.40759   3.79908
 Alpha virt. eigenvalues --    3.82092   3.90162   3.95836   3.99604   4.01058
 Alpha virt. eigenvalues --    4.08812   4.09366   4.11852   4.15879   4.18286
 Alpha virt. eigenvalues --    4.20636   4.24925   4.25379   4.32683   4.33474
 Alpha virt. eigenvalues --    4.36160   4.44680   4.50775   4.69415   4.75975
          Condensed to atoms (all electrons):
               1          2          3          4          5          6
     1  C    4.995786   0.289226  -0.049696  -0.027105  -0.002466  -0.004515
     2  N    0.289226   7.215777   0.267327   0.130990  -0.056220  -0.054886
     3  C   -0.049696   0.267327   5.008034  -0.010979   0.001044   0.001678
     4  S   -0.027105   0.130990  -0.010979  13.617521   0.447170   0.412440
     5  O   -0.002466  -0.056220   0.001044   0.447170   8.225152  -0.044069
     6  O   -0.004515  -0.054886   0.001678   0.412440  -0.044069   8.268032
     7  N    0.002378  -0.043372  -0.009053   0.122530  -0.057001  -0.054371
     8  C    0.000028  -0.005161   0.000522   0.004403   0.002302   0.006974
     9  C    0.000004  -0.000361   0.000053   0.000443  -0.000089   0.000047
    10  S    0.000002  -0.000073  -0.000101   0.000063   0.000008   0.000124
    11  O   -0.000001  -0.000064  -0.000360  -0.000408   0.000000   0.000000
    12  O    0.000000   0.000000   0.000000   0.000001   0.000000   0.000000
    13  C    0.000118  -0.011765   0.000081  -0.006757  -0.000104  -0.000045
    14  C    0.000010  -0.000233  -0.000004  -0.003209  -0.000192  -0.008622
    15  C    0.000000   0.000000   0.000000   0.000034  -0.000001   0.000122
    16  C    0.000000   0.000000   0.000000  -0.000042   0.000000  -0.000006
    17  C    0.000000   0.000000   0.000000  -0.000001   0.000000   0.000000
    18  C    0.000000   0.000000   0.000000   0.000000   0.000000   0.000000
    19  C    0.000000   0.000000   0.000000   0.000000   0.000000   0.000000
    20  C    0.000000   0.000000   0.000000   0.000003   0.000000  -0.000011
    21  C    0.000000  -0.000001   0.000000  -0.000002   0.000000  -0.000019
    22  H    0.379012  -0.038657  -0.002954   0.002244  -0.000109   0.000194
    23  H    0.371313  -0.046695  -0.002308  -0.003618   0.002784  -0.000486
    24  H    0.377388  -0.031404   0.004599  -0.004482  -0.000229   0.011957
    25  H   -0.003769  -0.034138   0.376349   0.003053   0.000019  -0.000050
    26  H    0.004458  -0.032027   0.374686  -0.003445  -0.001446   0.000022
    27  H   -0.002479  -0.044995   0.368006  -0.008328   0.005919  -0.000039
    28  H   -0.000058   0.002559  -0.000219  -0.017003   0.005722  -0.000024
    29  H    0.000000   0.000000  -0.000001   0.000006   0.000000   0.000001
    30  H    0.000000   0.000005  -0.000017   0.000107  -0.000011   0.000002
    31  H    0.000001   0.000300   0.000000  -0.000502   0.000000  -0.000175
    32  H   -0.000557   0.021311  -0.001179   0.003235   0.000031  -0.000891
    33  H    0.000009  -0.000052  -0.000003   0.001878  -0.000210   0.014812
    34  H    0.000000   0.000008   0.000000   0.000236  -0.000012   0.000131
    35  H    0.000000   0.000000   0.000000  -0.000013   0.000000   0.000001
    36  H    0.000000   0.000000   0.000000   0.000006   0.000000  -0.000003
    37  H    0.000000   0.000000   0.000000   0.000000   0.000000   0.000000
    38  H    0.000000   0.000000   0.000000   0.000000   0.000000   0.000000
    39  H    0.000000   0.000000   0.000000   0.000000   0.000000   0.000000
    40  H    0.000000   0.000000   0.000000   0.000000   0.000000   0.000000
    41  H    0.000000   0.000001   0.000000   0.000041   0.000000   0.000211
               7          8          9         10         11         12
     1  C    0.002378   0.000028   0.000004   0.000002  -0.000001   0.000000
     2  N   -0.043372  -0.005161  -0.000361  -0.000073  -0.000064   0.000000
     3  C   -0.009053   0.000522   0.000053  -0.000101  -0.000360   0.000000
     4  S    0.122530   0.004403   0.000443   0.000063  -0.000408   0.000001
     5  O   -0.057001   0.002302  -0.000089   0.000008   0.000000   0.000000
     6  O   -0.054371   0.006974   0.000047   0.000124   0.000000   0.000000
     7  N    7.419304   0.190275  -0.048673   0.005448   0.000017  -0.000037
     8  C    0.190275   4.879341   0.343499  -0.106676  -0.000083   0.001532
     9  C   -0.048673   0.343499   5.751529   0.124068  -0.043616  -0.045757
    10  S    0.005448  -0.106676   0.124068  13.877769   0.412401   0.428147
    11  O    0.000017  -0.000083  -0.043616   0.412401   8.235563  -0.044041
    12  O   -0.000037   0.001532  -0.045757   0.428147  -0.044041   8.221068
    13  C   -0.044068   0.356746  -0.199271   0.157969  -0.044239  -0.045091
    14  C   -0.061450   0.395751  -0.048133   0.002764  -0.000069  -0.000260
    15  C    0.004536  -0.032251  -0.005358  -0.000414  -0.000002   0.000070
    16  C   -0.000044  -0.003651  -0.000472   0.000109   0.000000  -0.000219
    17  C   -0.000004   0.000836  -0.000087   0.000855  -0.000001  -0.000336
    18  C    0.000000   0.000005   0.000000  -0.000019   0.000000  -0.000017
    19  C    0.000000   0.000005   0.000000   0.000002   0.000000   0.000001
    20  C    0.000000  -0.000038   0.000001  -0.000008   0.000000   0.000000
    21  C   -0.000014  -0.001012   0.000012   0.000048   0.000000   0.000001
    22  H   -0.000081   0.000002   0.000000  -0.000004   0.000000   0.000000
    23  H   -0.000074  -0.000008   0.000000   0.000000   0.000000   0.000000
    24  H    0.000115   0.000014   0.000000   0.000006   0.000000   0.000000
    25  H    0.000056   0.000000   0.000002   0.000005   0.000100   0.000000
    26  H    0.011505  -0.000185  -0.000049   0.001713   0.004789   0.000004
    27  H   -0.000263  -0.000030  -0.000002   0.000015   0.000041   0.000000
    28  H    0.299884  -0.025130  -0.006250   0.000114   0.000023   0.000002
    29  H    0.003342  -0.028415   0.328504  -0.004980   0.001133   0.000740
    30  H   -0.003785  -0.022588   0.337066  -0.006835  -0.000203   0.000771
    31  H    0.002919  -0.026565   0.005829  -0.006571   0.001103   0.000366
    32  H   -0.007252  -0.022460   0.008573  -0.009741   0.000555   0.000657
    33  H   -0.002774  -0.031524   0.004917  -0.000204   0.000001   0.000002
    34  H   -0.002090  -0.041458  -0.006821  -0.000006   0.000001   0.000002
    35  H   -0.000138   0.004512   0.000072   0.000041   0.000000   0.000000
    36  H    0.000058  -0.007399   0.001585  -0.000493   0.000002   0.000056
    37  H    0.000000  -0.000014  -0.000086   0.000989   0.000001   0.001967
    38  H    0.000000   0.000001   0.000000  -0.000002   0.000000  -0.000002
    39  H    0.000000   0.000000   0.000000   0.000000   0.000000   0.000000
    40  H    0.000000   0.000000   0.000000   0.000000   0.000000   0.000000
    41  H    0.000003   0.000187   0.000001   0.000001   0.000000   0.000000
              13         14         15         16         17         18
     1  C    0.000118   0.000010   0.000000   0.000000   0.000000   0.000000
     2  N   -0.011765  -0.000233   0.000000   0.000000   0.000000   0.000000
     3  C    0.000081  -0.000004   0.000000   0.000000   0.000000   0.000000
     4  S   -0.006757  -0.003209   0.000034  -0.000042  -0.000001   0.000000
     5  O   -0.000104  -0.000192  -0.000001   0.000000   0.000000   0.000000
     6  O   -0.000045  -0.008622   0.000122  -0.000006   0.000000   0.000000
     7  N   -0.044068  -0.061450   0.004536  -0.000044  -0.000004   0.000000
     8  C    0.356746   0.395751  -0.032251  -0.003651   0.000836   0.000005
     9  C   -0.199271  -0.048133  -0.005358  -0.000472  -0.000087   0.000000
    10  S    0.157969   0.002764  -0.000414   0.000109   0.000855  -0.000019
    11  O   -0.044239  -0.000069  -0.000002   0.000000  -0.000001   0.000000
    12  O   -0.045091  -0.000260   0.000070  -0.000219  -0.000336  -0.000017
    13  C    5.729359  -0.040701  -0.002670  -0.004207  -0.006009  -0.000337
    14  C   -0.040701   5.137110   0.318168  -0.034248   0.001033  -0.000185
    15  C   -0.002670   0.318168   5.207789   0.349978  -0.051827   0.007231
    16  C   -0.004207  -0.034248   0.349978   4.676858   0.541297  -0.022788
    17  C   -0.006009   0.001033  -0.051827   0.541297   4.980375   0.519031
    18  C   -0.000337  -0.000185   0.007231  -0.022788   0.519031   4.865217
    19  C    0.000072  -0.000001   0.000379  -0.035244  -0.035839   0.550809
    20  C    0.000201   0.000312   0.006178  -0.017863  -0.046311  -0.025539
    21  C   -0.000154  -0.003840  -0.068012   0.541083  -0.042641  -0.047164
    22  H    0.000132   0.000000   0.000000   0.000000   0.000000   0.000000
    23  H   -0.000025   0.000000   0.000000   0.000000   0.000000   0.000000
    24  H    0.000124   0.000001   0.000000   0.000000   0.000000   0.000000
    25  H    0.000155   0.000000   0.000000   0.000000   0.000000   0.000000
    26  H    0.000054   0.000025   0.000000   0.000000   0.000000   0.000000
    27  H   -0.000041   0.000000   0.000000   0.000000   0.000000   0.000000
    28  H    0.005015  -0.000884  -0.000046   0.000005   0.000000   0.000000
    29  H    0.005553  -0.005128   0.000464   0.000190  -0.000030   0.000000
    30  H    0.008934   0.001418   0.000113  -0.000001   0.000000   0.000000
    31  H    0.323195  -0.006891  -0.002216   0.011399   0.008501   0.000829
    32  H    0.331632   0.000772   0.000108   0.000018   0.000075   0.000002
    33  H   -0.004534   0.367051  -0.032197  -0.007133   0.000185   0.000001
    34  H    0.005720   0.353374  -0.028194   0.004177  -0.000125   0.000002
    35  H   -0.000099  -0.031840   0.357883  -0.027402   0.001155  -0.000238
    36  H   -0.000026  -0.040680   0.360231  -0.036877  -0.004199   0.000221
    37  H   -0.000159   0.000195  -0.011576  -0.044294   0.354690  -0.042840
    38  H   -0.000007   0.000001  -0.000182   0.003792  -0.038291   0.358131
    39  H    0.000000   0.000000   0.000007   0.000710   0.004760  -0.043067
    40  H   -0.000001   0.000002  -0.000187   0.003649   0.000834   0.004589
    41  H   -0.000040   0.000975  -0.009072  -0.047984   0.005954   0.000348
              19         20         21         22         23         24
     1  C    0.000000   0.000000   0.000000   0.379012   0.371313   0.377388
     2  N    0.000000   0.000000  -0.000001  -0.038657  -0.046695  -0.031404
     3  C    0.000000   0.000000   0.000000  -0.002954  -0.002308   0.004599
     4  S    0.000000   0.000003  -0.000002   0.002244  -0.003618  -0.004482
     5  O    0.000000   0.000000   0.000000  -0.000109   0.002784  -0.000229
     6  O    0.000000  -0.000011  -0.000019   0.000194  -0.000486   0.011957
     7  N    0.000000   0.000000  -0.000014  -0.000081  -0.000074   0.000115
     8  C    0.000005  -0.000038  -0.001012   0.000002  -0.000008   0.000014
     9  C    0.000000   0.000001   0.000012   0.000000   0.000000   0.000000
    10  S    0.000002  -0.000008   0.000048  -0.000004   0.000000   0.000006
    11  O    0.000000   0.000000   0.000000   0.000000   0.000000   0.000000
    12  O    0.000001   0.000000   0.000001   0.000000   0.000000   0.000000
    13  C    0.000072   0.000201  -0.000154   0.000132  -0.000025   0.000124
    14  C   -0.000001   0.000312  -0.003840   0.000000   0.000000   0.000001
    15  C    0.000379   0.006178  -0.068012   0.000000   0.000000   0.000000
    16  C   -0.035244  -0.017863   0.541083   0.000000   0.000000   0.000000
    17  C   -0.035839  -0.046311  -0.042641   0.000000   0.000000   0.000000
    18  C    0.550809  -0.025539  -0.047164   0.000000   0.000000   0.000000
    19  C    4.857923   0.546190  -0.035563   0.000000   0.000000   0.000000
    20  C    0.546190   4.858902   0.529066   0.000000   0.000000   0.000000
    21  C   -0.035563   0.529066   4.972197   0.000000   0.000000   0.000001
    22  H    0.000000   0.000000   0.000000   0.546052  -0.040651  -0.020730
    23  H    0.000000   0.000000   0.000000  -0.040651   0.577528  -0.030359
    24  H    0.000000   0.000000   0.000001  -0.020730  -0.030359   0.488803
    25  H    0.000000   0.000000   0.000000   0.005400  -0.001457   0.000021
    26  H    0.000000   0.000000   0.000000   0.000071  -0.000209  -0.000184
    27  H    0.000000   0.000000   0.000000  -0.001671   0.008444  -0.000189
    28  H    0.000000   0.000000   0.000001   0.000001   0.000008  -0.000004
    29  H    0.000000   0.000000   0.000002   0.000000   0.000000   0.000000
    30  H    0.000000   0.000000   0.000000   0.000000   0.000000   0.000000
    31  H   -0.000113  -0.000427   0.000113  -0.000003   0.000000  -0.000005
    32  H   -0.000004  -0.000010   0.000006  -0.000442   0.000135  -0.000116
    33  H   -0.000001  -0.000071   0.003507   0.000000   0.000000   0.000003
    34  H    0.000000   0.000000   0.000217   0.000000   0.000000   0.000000
    35  H    0.000039  -0.000055  -0.004784   0.000000   0.000000   0.000000
    36  H   -0.000004  -0.000152   0.004933   0.000000   0.000000   0.000000
    37  H    0.004748   0.000302   0.006300   0.000000   0.000000   0.000000
    38  H   -0.043284   0.004569   0.000800   0.000000   0.000000   0.000000
    39  H    0.359840  -0.043065   0.004795   0.000000   0.000000   0.000000
    40  H   -0.043097   0.358107  -0.039552   0.000000   0.000000   0.000000
    41  H    0.004712  -0.041301   0.355937   0.000000   0.000000   0.000000
              25         26         27         28         29         30
     1  C   -0.003769   0.004458  -0.002479  -0.000058   0.000000   0.000000
     2  N   -0.034138  -0.032027  -0.044995   0.002559   0.000000   0.000005
     3  C    0.376349   0.374686   0.368006  -0.000219  -0.000001  -0.000017
     4  S    0.003053  -0.003445  -0.008328  -0.017003   0.000006   0.000107
     5  O    0.000019  -0.001446   0.005919   0.005722   0.000000  -0.000011
     6  O   -0.000050   0.000022  -0.000039  -0.000024   0.000001   0.000002
     7  N    0.000056   0.011505  -0.000263   0.299884   0.003342  -0.003785
     8  C    0.000000  -0.000185  -0.000030  -0.025130  -0.028415  -0.022588
     9  C    0.000002  -0.000049  -0.000002  -0.006250   0.328504   0.337066
    10  S    0.000005   0.001713   0.000015   0.000114  -0.004980  -0.006835
    11  O    0.000100   0.004789   0.000041   0.000023   0.001133  -0.000203
    12  O    0.000000   0.000004   0.000000   0.000002   0.000740   0.000771
    13  C    0.000155   0.000054  -0.000041   0.005015   0.005553   0.008934
    14  C    0.000000   0.000025   0.000000  -0.000884  -0.005128   0.001418
    15  C    0.000000   0.000000   0.000000  -0.000046   0.000464   0.000113
    16  C    0.000000   0.000000   0.000000   0.000005   0.000190  -0.000001
    17  C    0.000000   0.000000   0.000000   0.000000  -0.000030   0.000000
    18  C    0.000000   0.000000   0.000000   0.000000   0.000000   0.000000
    19  C    0.000000   0.000000   0.000000   0.000000   0.000000   0.000000
    20  C    0.000000   0.000000   0.000000   0.000000   0.000000   0.000000
    21  C    0.000000   0.000000   0.000000   0.000001   0.000002   0.000000
    22  H    0.005400   0.000071  -0.001671   0.000001   0.000000   0.000000
    23  H   -0.001457  -0.000209   0.008444   0.000008   0.000000   0.000000
    24  H    0.000021  -0.000184  -0.000189  -0.000004   0.000000   0.000000
    25  H    0.538536  -0.021178  -0.036653   0.000002   0.000000  -0.000001
    26  H   -0.021178   0.485613  -0.029561  -0.000518   0.000005   0.000071
    27  H   -0.036653  -0.029561   0.576017   0.000085   0.000000   0.000001
    28  H    0.000002  -0.000518   0.000085   0.370576   0.000037   0.003078
    29  H    0.000000   0.000005   0.000000   0.000037   0.502646  -0.019146
    30  H   -0.000001   0.000071   0.000001   0.003078  -0.019146   0.494047
    31  H    0.000000   0.000005   0.000000  -0.000092  -0.000036  -0.000228
    32  H   -0.000369  -0.000570   0.000163   0.000163  -0.000247  -0.000317
    33  H    0.000000   0.000001   0.000000  -0.000594   0.000205  -0.000085
    34  H    0.000000  -0.000001   0.000000   0.004895   0.000622   0.000367
    35  H    0.000000   0.000000   0.000000  -0.000003  -0.000179  -0.000001
    36  H    0.000000   0.000000   0.000000   0.000001   0.007677   0.000006
    37  H    0.000000   0.000000   0.000000   0.000000   0.000037   0.000002
    38  H    0.000000   0.000000   0.000000   0.000000   0.000000   0.000000
    39  H    0.000000   0.000000   0.000000   0.000000   0.000000   0.000000
    40  H    0.000000   0.000000   0.000000   0.000000   0.000000   0.000000
    41  H    0.000000   0.000000   0.000000   0.000000   0.000000   0.000000
              31         32         33         34         35         36
     1  C    0.000001  -0.000557   0.000009   0.000000   0.000000   0.000000
     2  N    0.000300   0.021311  -0.000052   0.000008   0.000000   0.000000
     3  C    0.000000  -0.001179  -0.000003   0.000000   0.000000   0.000000
     4  S   -0.000502   0.003235   0.001878   0.000236  -0.000013   0.000006
     5  O    0.000000   0.000031  -0.000210  -0.000012   0.000000   0.000000
     6  O   -0.000175  -0.000891   0.014812   0.000131   0.000001  -0.000003
     7  N    0.002919  -0.007252  -0.002774  -0.002090  -0.000138   0.000058
     8  C   -0.026565  -0.022460  -0.031524  -0.041458   0.004512  -0.007399
     9  C    0.005829   0.008573   0.004917  -0.006821   0.000072   0.001585
    10  S   -0.006571  -0.009741  -0.000204  -0.000006   0.000041  -0.000493
    11  O    0.001103   0.000555   0.000001   0.000001   0.000000   0.000002
    12  O    0.000366   0.000657   0.000002   0.000002   0.000000   0.000056
    13  C    0.323195   0.331632  -0.004534   0.005720  -0.000099  -0.000026
    14  C   -0.006891   0.000772   0.367051   0.353374  -0.031840  -0.040680
    15  C   -0.002216   0.000108  -0.032197  -0.028194   0.357883   0.360231
    16  C    0.011399   0.000018  -0.007133   0.004177  -0.027402  -0.036877
    17  C    0.008501   0.000075   0.000185  -0.000125   0.001155  -0.004199
    18  C    0.000829   0.000002   0.000001   0.000002  -0.000238   0.000221
    19  C   -0.000113  -0.000004  -0.000001   0.000000   0.000039  -0.000004
    20  C   -0.000427  -0.000010  -0.000071   0.000000  -0.000055  -0.000152
    21  C    0.000113   0.000006   0.003507   0.000217  -0.004784   0.004933
    22  H   -0.000003  -0.000442   0.000000   0.000000   0.000000   0.000000
    23  H    0.000000   0.000135   0.000000   0.000000   0.000000   0.000000
    24  H   -0.000005  -0.000116   0.000003   0.000000   0.000000   0.000000
    25  H    0.000000  -0.000369   0.000000   0.000000   0.000000   0.000000
    26  H    0.000005  -0.000570   0.000001  -0.000001   0.000000   0.000000
    27  H    0.000000   0.000163   0.000000   0.000000   0.000000   0.000000
    28  H   -0.000092   0.000163  -0.000594   0.004895  -0.000003   0.000001
    29  H   -0.000036  -0.000247   0.000205   0.000622  -0.000179   0.007677
    30  H   -0.000228  -0.000317  -0.000085   0.000367  -0.000001   0.000006
    31  H    0.469453  -0.012062   0.000455   0.000122   0.000162   0.000021
    32  H   -0.012062   0.442535   0.000138  -0.000084   0.000001  -0.000005
    33  H    0.000455   0.000138   0.501238  -0.031655  -0.001080   0.004318
    34  H    0.000122  -0.000084  -0.031655   0.614577  -0.006373  -0.000900
    35  H    0.000162   0.000001  -0.001080  -0.006373   0.573026  -0.033184
    36  H    0.000021  -0.000005   0.004318  -0.000900  -0.033184   0.589842
    37  H   -0.000130   0.000003   0.000007  -0.000010   0.000179   0.007611
    38  H    0.000023   0.000000   0.000000   0.000000   0.000003  -0.000010
    39  H   -0.000001   0.000000   0.000000   0.000000   0.000000   0.000000
    40  H    0.000001   0.000000   0.000008   0.000000  -0.000001   0.000003
    41  H    0.000064  -0.000001   0.004585  -0.000169   0.001657   0.000025
              37         38         39         40         41
     1  C    0.000000   0.000000   0.000000   0.000000   0.000000
     2  N    0.000000   0.000000   0.000000   0.000000   0.000001
     3  C    0.000000   0.000000   0.000000   0.000000   0.000000
     4  S    0.000000   0.000000   0.000000   0.000000   0.000041
     5  O    0.000000   0.000000   0.000000   0.000000   0.000000
     6  O    0.000000   0.000000   0.000000   0.000000   0.000211
     7  N    0.000000   0.000000   0.000000   0.000000   0.000003
     8  C   -0.000014   0.000001   0.000000   0.000000   0.000187
     9  C   -0.000086   0.000000   0.000000   0.000000   0.000001
    10  S    0.000989  -0.000002   0.000000   0.000000   0.000001
    11  O    0.000001   0.000000   0.000000   0.000000   0.000000
    12  O    0.001967  -0.000002   0.000000   0.000000   0.000000
    13  C   -0.000159  -0.000007   0.000000  -0.000001  -0.000040
    14  C    0.000195   0.000001   0.000000   0.000002   0.000975
    15  C   -0.011576  -0.000182   0.000007  -0.000187  -0.009072
    16  C   -0.044294   0.003792   0.000710   0.003649  -0.047984
    17  C    0.354690  -0.038291   0.004760   0.000834   0.005954
    18  C   -0.042840   0.358131  -0.043067   0.004589   0.000348
    19  C    0.004748  -0.043284   0.359840  -0.043097   0.004712
    20  C    0.000302   0.004569  -0.043065   0.358107  -0.041301
    21  C    0.006300   0.000800   0.004795  -0.039552   0.355937
    22  H    0.000000   0.000000   0.000000   0.000000   0.000000
    23  H    0.000000   0.000000   0.000000   0.000000   0.000000
    24  H    0.000000   0.000000   0.000000   0.000000   0.000000
    25  H    0.000000   0.000000   0.000000   0.000000   0.000000
    26  H    0.000000   0.000000   0.000000   0.000000   0.000000
    27  H    0.000000   0.000000   0.000000   0.000000   0.000000
    28  H    0.000000   0.000000   0.000000   0.000000   0.000000
    29  H    0.000037   0.000000   0.000000   0.000000   0.000000
    30  H    0.000002   0.000000   0.000000   0.000000   0.000000
    31  H   -0.000130   0.000023  -0.000001   0.000001   0.000064
    32  H    0.000003   0.000000   0.000000   0.000000  -0.000001
    33  H    0.000007   0.000000   0.000000   0.000008   0.004585
    34  H   -0.000010   0.000000   0.000000   0.000000  -0.000169
    35  H    0.000179   0.000003   0.000000  -0.000001   0.001657
    36  H    0.007611  -0.000010   0.000000   0.000003   0.000025
    37  H    0.584850  -0.005429  -0.000171   0.000017  -0.000172
    38  H   -0.005429   0.587855  -0.005546  -0.000184   0.000017
    39  H   -0.000171  -0.005546   0.594715  -0.005490  -0.000177
    40  H    0.000017  -0.000184  -0.005490   0.592158  -0.005479
    41  H   -0.000172   0.000017  -0.000177  -0.005479   0.591545
 Mulliken charges:
               1
     1  C   -0.329086
     2  N   -0.527396
     3  C   -0.325506
     4  S    1.339488
     5  O   -0.527991
     6  O   -0.548537
     7  N   -0.727825
     8  C    0.167717
     9  C   -0.501181
    10  S    1.123468
    11  O   -0.522643
    12  O   -0.519625
    13  C   -0.514714
    14  C   -0.292393
    15  C   -0.369087
    16  C    0.149210
    17  C   -0.193880
    18  C   -0.124223
    19  C   -0.131567
    20  C   -0.128980
    21  C   -0.176259
    22  H    0.172195
    23  H    0.165677
    24  H    0.204669
    25  H    0.173918
    26  H    0.206352
    27  H    0.165559
    28  H    0.358655
    29  H    0.206996
    30  H    0.207231
    31  H    0.231157
    32  H    0.246193
    33  H    0.208796
    34  H    0.133444
    35  H    0.166660
    36  H    0.147336
    37  H    0.142982
    38  H    0.137745
    39  H    0.132691
    40  H    0.134624
    41  H    0.138131
 Sum of Mulliken charges =   0.00000
 Mulliken charges with hydrogens summed into heavy atoms:
               1
     1  C    0.213455
     2  N   -0.527396
     3  C    0.220323
     4  S    1.339488
     5  O   -0.527991
     6  O   -0.548537
     7  N   -0.369170
     8  C    0.167717
     9  C   -0.086955
    10  S    1.123468
    11  O   -0.522643
    12  O   -0.519625
    13  C   -0.037364
    14  C    0.049848
    15  C   -0.055091
    16  C    0.149210
    17  C   -0.050898
    18  C    0.013522
    19  C    0.001124
    20  C    0.005645
    21  C   -0.038128
 Electronic spatial extent (au):  <R**2>=           7088.3208
 Charge=              0.0000 electrons
 Dipole moment (field-independent basis, Debye):
    X=              0.5127    Y=             -1.5084    Z=              1.2245  Tot=              2.0094
 Quadrupole moment (field-independent basis, Debye-Ang):
   XX=           -138.1774   YY=           -156.8367   ZZ=           -126.7127
   XY=             -6.0492   XZ=              5.8458   YZ=             16.0276
 Traceless Quadrupole moment (field-independent basis, Debye-Ang):
   XX=              2.3982   YY=            -16.2611   ZZ=             13.8629
   XY=             -6.0492   XZ=              5.8458   YZ=             16.0276
 Octapole moment (field-independent basis, Debye-Ang**2):
  XXX=            -31.7480  YYY=            -47.3350  ZZZ=              3.0752  XYY=              4.3513
  XXY=             13.8512  XXZ=            -57.0805  XZZ=            -15.8058  YZZ=              0.9958
  YYZ=             15.6961  XYZ=            -14.4593
 Hexadecapole moment (field-independent basis, Debye-Ang**3):
 XXXX=          -5586.5450 YYYY=          -2658.0968 ZZZZ=          -1185.7268 XXXY=             21.8856
 XXXZ=              0.7894 YYYX=            -24.9018 YYYZ=            109.8821 ZZZX=              1.2652
 ZZZY=              6.6514 XXYY=          -1377.0909 XXZZ=          -1056.7329 YYZZ=           -608.0759
 XXYZ=             98.1729 YYXZ=              5.1840 ZZXY=             -2.0192
 N-N= 2.232496766762D+03 E-N=-8.491100437956D+03  KE= 1.702559315525D+03
 No NMR shielding tensors so no spin-rotation constants.
 Leave Link  601 at Fri Oct  2 06:19:27 2020, MaxMem=  2147483648 cpu:         0.5
 (Enter /prod/apps/gaussian/g09d1/l9999.exe)
 1\1\GINC-PIRINEUS42\SP\RB3LYP\6-31G(d)\C13H20N2O4S2\UBAFAR01\02-Oct-20
 20\0\\#p b3lyp/6-31G(d)\\SM40.n.28.pdb.xyz\\0,1\C,0,3.338,0.536,2.067\
 N,0,3.425,-0.378,0.915\C,0,2.191,-0.444,0.118\S,0,4.829,-0.173,0.003\O
 ,0,4.702,0.882,-1.011\O,0,5.925,-0.112,0.975\N,0,4.826,-1.602,-0.878\C
 ,0,5.465,-2.844,-0.384\C,0,4.907,-4.004,-1.273\S,0,3.782,-4.511,0.075\
 O,0,2.401,-4.049,-0.151\O,0,4.013,-5.893,0.528\C,0,4.795,-3.28,0.96\C,
 0,7.001,-2.734,-0.394\C,0,7.81,-3.964,0.062\C,0,7.893,-4.182,1.56\C,0,
 7.531,-5.411,2.123\C,0,7.633,-5.629,3.497\C,0,8.104,-4.616,4.332\C,0,8
 .469,-3.385,3.783\C,0,8.364,-3.172,2.41\H,0,2.532,0.173,2.707\H,0,3.11
 5,1.567,1.767\H,0,4.275,0.509,2.62\H,0,1.388,-0.749,0.791\H,0,2.305,-1
 .203,-0.654\H,0,1.936,0.521,-0.334\H,0,5.078,-1.375,-1.839\H,0,5.631,-
 4.793,-1.476\H,0,4.393,-3.7,-2.184\H,0,5.477,-3.777,1.65\H,0,4.203,-2.
 509,1.452\H,0,7.274,-1.869,0.216\H,0,7.29,-2.493,-1.423\H,0,8.826,-3.8
 34,-0.331\H,0,7.428,-4.876,-0.41\H,0,7.156,-6.198,1.475\H,0,7.344,-6.5
 89,3.913\H,0,8.184,-4.782,5.401\H,0,8.836,-2.591,4.425\H,0,8.647,-2.21
 ,1.991\\Version=AM64L-G09RevD.01\State=1-A\HF=-1714.0408017\RMSD=9.137
 e-09\Dipole=0.719765,0.3157744,-0.0849243\Quadrupole=-0.9543956,-10.97
 91386,11.9335342,-11.6847616,-3.4109884,5.3662337\PG=C01 [X(C13H20N2O4
 S2)]\\@


 Age does not diminish the extreme disappointment of
 having a scoop of ice cream fall from the cone.
 -- Jim Fiebig
 Job cpu time:       0 days  0 hours  6 minutes 48.4 seconds.
 File lengths (MBytes):  RWF=     73 Int=      0 D2E=      0 Chk=      6 Scr=      1
 Normal termination of Gaussian 09 at Fri Oct  2 06:19:27 2020.
 Initial command:
 /prod/apps/gaussian/g09d1/l1.exe "/tmp/ubafar01/1462944/Gau-2839.inp" -scrdir="/tmp/ubafar01/1462944/"
 Entering Link 1 = /prod/apps/gaussian/g09d1/l1.exe PID=      3064.
  
 Copyright (c) 1988,1990,1992,1993,1995,1998,2003,2009,2013,
            Gaussian, Inc.  All Rights Reserved.
  
 This is part of the Gaussian(R) 09 program.  It is based on
 the Gaussian(R) 03 system (copyright 2003, Gaussian, Inc.),
 the Gaussian(R) 98 system (copyright 1998, Gaussian, Inc.),
 the Gaussian(R) 94 system (copyright 1995, Gaussian, Inc.),
 the Gaussian 92(TM) system (copyright 1992, Gaussian, Inc.),
[...]
     8  C    0.352216   0.395855  -0.032365  -0.003626   0.000839   0.000005
     9  C   -0.194543  -0.046799  -0.005377  -0.000462  -0.000095   0.000000
    10  S    0.158042   0.002908  -0.000382   0.000140   0.000880  -0.000020
    11  O   -0.044509  -0.000072  -0.000002   0.000000  -0.000001   0.000000
    12  O   -0.045345  -0.000265   0.000070  -0.000212  -0.000334  -0.000018
    13  C    5.732469  -0.040769  -0.002563  -0.004355  -0.006091  -0.000342
    14  C   -0.040769   5.128413   0.319751  -0.034060   0.001017  -0.000189
    15  C   -0.002563   0.319751   5.202414   0.349327  -0.051576   0.007168
    16  C   -0.004355  -0.034060   0.349327   4.683048   0.540919  -0.023294
    17  C   -0.006091   0.001017  -0.051576   0.540919   4.989928   0.516258
    18  C   -0.000342  -0.000189   0.007168  -0.023294   0.516258   4.879156
    19  C    0.000074  -0.000001   0.000356  -0.035324  -0.036615   0.549548
    20  C    0.000202   0.000308   0.006063  -0.018476  -0.046152  -0.026978
    21  C   -0.000164  -0.003944  -0.067100   0.540473  -0.043901  -0.046933
    22  H    0.000127   0.000000   0.000000   0.000000   0.000000   0.000000
    23  H   -0.000025   0.000000   0.000000   0.000000   0.000000   0.000000
    24  H    0.000123   0.000001   0.000000   0.000000   0.000000   0.000000
    25  H    0.000149   0.000000   0.000000   0.000000   0.000000   0.000000
    26  H    0.000056   0.000025   0.000000   0.000000   0.000000   0.000000
    27  H   -0.000040   0.000000   0.000000   0.000000   0.000000   0.000000
    28  H    0.004668  -0.000614  -0.000041   0.000004   0.000000   0.000000
    29  H    0.005534  -0.005152   0.000695   0.000162  -0.000025   0.000000
    30  H    0.008626   0.001275   0.000108  -0.000002   0.000000   0.000000
    31  H    0.323228  -0.006879  -0.002207   0.011462   0.008853   0.000853
    32  H    0.331085   0.000811   0.000103   0.000021   0.000073   0.000002
    33  H   -0.004627   0.366877  -0.032617  -0.007512   0.000191   0.000002
    34  H    0.005534   0.359486  -0.027295   0.004077  -0.000118   0.000002
    35  H   -0.000101  -0.030711   0.360260  -0.027552   0.001147  -0.000236
    36  H   -0.000049  -0.040280   0.362455  -0.038265  -0.004157   0.000255
    37  H   -0.000166   0.000190  -0.011290  -0.043905   0.355197  -0.043816
    38  H   -0.000007   0.000001  -0.000177   0.003771  -0.038692   0.359292
    39  H    0.000000   0.000000   0.000007   0.000684   0.004679  -0.042603
    40  H   -0.000001   0.000002  -0.000180   0.003606   0.000805   0.004557
    41  H   -0.000039   0.000928  -0.008835  -0.047022   0.005963   0.000326
              19         20         21         22         23         24
     1  C    0.000000   0.000000   0.000000   0.380829   0.372082   0.376986
     2  N    0.000000   0.000000  -0.000001  -0.037491  -0.046662  -0.031947
     3  C    0.000000   0.000000   0.000000  -0.002957  -0.002265   0.004593
     4  S    0.000000   0.000002  -0.000004   0.002300  -0.003770  -0.004352
     5  O    0.000000   0.000000   0.000000  -0.000106   0.002747  -0.000223
     6  O    0.000000  -0.000011  -0.000019   0.000192  -0.000479   0.011650
     7  N    0.000000   0.000000  -0.000015  -0.000084  -0.000073   0.000113
     8  C    0.000004  -0.000038  -0.001005   0.000002  -0.000007   0.000014
     9  C    0.000000   0.000001   0.000014   0.000000   0.000000   0.000000
    10  S    0.000001  -0.000008   0.000047  -0.000005   0.000000   0.000006
    11  O    0.000000   0.000000   0.000000   0.000000   0.000000   0.000000
    12  O    0.000001   0.000000   0.000001   0.000000   0.000000   0.000000
    13  C    0.000074   0.000202  -0.000164   0.000127  -0.000025   0.000123
    14  C   -0.000001   0.000308  -0.003944   0.000000   0.000000   0.000001
    15  C    0.000356   0.006063  -0.067100   0.000000   0.000000   0.000000
    16  C   -0.035324  -0.018476   0.540473   0.000000   0.000000   0.000000
    17  C   -0.036615  -0.046152  -0.043901   0.000000   0.000000   0.000000
    18  C    0.549548  -0.026978  -0.046933   0.000000   0.000000   0.000000
    19  C    4.868734   0.544815  -0.036334   0.000000   0.000000   0.000000
    20  C    0.544815   4.870348   0.527183   0.000000   0.000000   0.000000
    21  C   -0.036334   0.527183   4.978565   0.000000   0.000000   0.000001
    22  H    0.000000   0.000000   0.000000   0.529615  -0.038744  -0.020241
    23  H    0.000000   0.000000   0.000000  -0.038744   0.573103  -0.030732
    24  H    0.000000   0.000000   0.000001  -0.020241  -0.030732   0.493163
    25  H    0.000000   0.000000   0.000000   0.005141  -0.001419   0.000026
    26  H    0.000000   0.000000   0.000000   0.000066  -0.000203  -0.000188
    27  H    0.000000   0.000000   0.000000  -0.001598   0.008259  -0.000188
    28  H    0.000000   0.000000   0.000000   0.000001   0.000007  -0.000004
    29  H    0.000000   0.000000   0.000002   0.000000   0.000000   0.000000
    30  H    0.000000   0.000000   0.000000   0.000000   0.000000   0.000000
    31  H   -0.000123  -0.000430   0.000165  -0.000003   0.000000  -0.000005
    32  H   -0.000004  -0.000009   0.000005  -0.000431   0.000135  -0.000129
    33  H   -0.000001  -0.000073   0.003652   0.000000   0.000000   0.000004
    34  H    0.000000   0.000001   0.000204   0.000000   0.000000   0.000000
    35  H    0.000038  -0.000053  -0.004822   0.000000   0.000000   0.000000
    36  H   -0.000005  -0.000152   0.004914   0.000000   0.000000   0.000000
    37  H    0.004766   0.000273   0.006359   0.000000   0.000000   0.000000
    38  H   -0.042593   0.004552   0.000766   0.000000   0.000000   0.000000
    39  H    0.361538  -0.042378   0.004707   0.000000   0.000000   0.000000
    40  H   -0.042437   0.359674  -0.039386   0.000000   0.000000   0.000000
    41  H    0.004689  -0.041741   0.356844   0.000000   0.000000   0.000000
              25         26         27         28         29         30
     1  C   -0.003643   0.004476  -0.002345  -0.000050   0.000000   0.000000
     2  N   -0.033640  -0.032438  -0.045124   0.002310   0.000000   0.000005
     3  C    0.377363   0.373913   0.369535  -0.000227  -0.000001  -0.000017
     4  S    0.003064  -0.003307  -0.008518  -0.015664   0.000000   0.000129
     5  O    0.000015  -0.001456   0.005964   0.005068   0.000000  -0.000011
     6  O   -0.000050   0.000025  -0.000038  -0.000072   0.000001   0.000002
     7  N    0.000064   0.011600  -0.000266   0.301022   0.003230  -0.003391
     8  C    0.000000  -0.000183  -0.000029  -0.023297  -0.028151  -0.022331
     9  C    0.000002  -0.000056  -0.000001  -0.005956   0.331477   0.340707
    10  S    0.000011   0.001652   0.000012   0.000074  -0.005913  -0.007811
    11  O    0.000102   0.004586   0.000040   0.000018   0.001116  -0.000299
    12  O    0.000000   0.000003   0.000000   0.000001   0.000645   0.000748
    13  C    0.000149   0.000056  -0.000040   0.004668   0.005534   0.008626
    14  C    0.000000   0.000025   0.000000  -0.000614  -0.005152   0.001275
    15  C    0.000000   0.000000   0.000000  -0.000041   0.000695   0.000108
    16  C    0.000000   0.000000   0.000000   0.000004   0.000162  -0.000002
    17  C    0.000000   0.000000   0.000000   0.000000  -0.000025   0.000000
    18  C    0.000000   0.000000   0.000000   0.000000   0.000000   0.000000
    19  C    0.000000   0.000000   0.000000   0.000000   0.000000   0.000000
    20  C    0.000000   0.000000   0.000000   0.000000   0.000000   0.000000
    21  C    0.000000   0.000000   0.000000   0.000000   0.000002   0.000000
    22  H    0.005141   0.000066  -0.001598   0.000001   0.000000   0.000000
    23  H   -0.001419  -0.000203   0.008259   0.000007   0.000000   0.000000
    24  H    0.000026  -0.000188  -0.000188  -0.000004   0.000000   0.000000
    25  H    0.529904  -0.021554  -0.035271   0.000001   0.000000  -0.000001
    26  H   -0.021554   0.490636  -0.029793  -0.000475   0.000005   0.000071
    27  H   -0.035271  -0.029793   0.571965   0.000082   0.000000   0.000001
    28  H    0.000001  -0.000475   0.000082   0.341793   0.000042   0.002689
    29  H    0.000000   0.000005   0.000000   0.000042   0.485571  -0.016471
    30  H   -0.000001   0.000071   0.000001   0.002689  -0.016471   0.471215
    31  H    0.000000   0.000005   0.000000  -0.000083  -0.000043  -0.000214
    32  H   -0.000359  -0.000572   0.000162   0.000158  -0.000237  -0.000309
    33  H    0.000000   0.000001   0.000000  -0.000563   0.000197  -0.000078
    34  H    0.000000  -0.000001   0.000000   0.004289   0.000590   0.000326
    35  H    0.000000   0.000000   0.000000  -0.000002  -0.000167  -0.000001
    36  H    0.000000   0.000000   0.000000   0.000001   0.007501   0.000014
    37  H    0.000000   0.000000   0.000000   0.000000   0.000039   0.000001
    38  H    0.000000   0.000000   0.000000   0.000000   0.000000   0.000000
    39  H    0.000000   0.000000   0.000000   0.000000   0.000000   0.000000
    40  H    0.000000   0.000000   0.000000   0.000000   0.000000   0.000000
    41  H    0.000000   0.000000   0.000000   0.000000   0.000000   0.000000
              31         32         33         34         35         36
     1  C    0.000000  -0.000609   0.000009   0.000000   0.000000   0.000000
     2  N    0.000299   0.021691  -0.000056   0.000008   0.000000   0.000000
     3  C    0.000000  -0.001166  -0.000003   0.000000   0.000000   0.000000
     4  S   -0.000483   0.003190   0.002015   0.000250  -0.000014   0.000007
     5  O    0.000000   0.000031  -0.000209  -0.000011   0.000000   0.000000
     6  O   -0.000177  -0.000907   0.014140   0.000122   0.000001  -0.000003
     7  N    0.002922  -0.007362  -0.002954  -0.001899  -0.000133   0.000055
     8  C   -0.026473  -0.022212  -0.032705  -0.039896   0.004410  -0.007459
     9  C    0.005679   0.008386   0.004935  -0.006718   0.000077   0.001832
    10  S   -0.006535  -0.009551  -0.000219  -0.000026   0.000038  -0.000484
    11  O    0.001100   0.000452   0.000001   0.000001   0.000000   0.000002
    12  O    0.000251   0.000650   0.000002   0.000002   0.000000   0.000047
    13  C    0.323228   0.331085  -0.004627   0.005534  -0.000101  -0.000049
    14  C   -0.006879   0.000811   0.366877   0.359486  -0.030711  -0.040280
    15  C   -0.002207   0.000103  -0.032617  -0.027295   0.360260   0.362455
    16  C    0.011462   0.000021  -0.007512   0.004077  -0.027552  -0.038265
    17  C    0.008853   0.000073   0.000191  -0.000118   0.001147  -0.004157
    18  C    0.000853   0.000002   0.000002   0.000002  -0.000236   0.000255
    19  C   -0.000123  -0.000004  -0.000001   0.000000   0.000038  -0.000005
    20  C   -0.000430  -0.000009  -0.000073   0.000001  -0.000053  -0.000152
    21  C    0.000165   0.000005   0.003652   0.000204  -0.004822   0.004914
    22  H   -0.000003  -0.000431   0.000000   0.000000   0.000000   0.000000
    23  H    0.000000   0.000135   0.000000   0.000000   0.000000   0.000000
    24  H   -0.000005  -0.000129   0.000004   0.000000   0.000000   0.000000
    25  H    0.000000  -0.000359   0.000000   0.000000   0.000000   0.000000
    26  H    0.000005  -0.000572   0.000001  -0.000001   0.000000   0.000000
    27  H    0.000000   0.000162   0.000000   0.000000   0.000000   0.000000
    28  H   -0.000083   0.000158  -0.000563   0.004289  -0.000002   0.000001
    29  H   -0.000043  -0.000237   0.000197   0.000590  -0.000167   0.007501
    30  H   -0.000214  -0.000309  -0.000078   0.000326  -0.000001   0.000014
    31  H    0.468693  -0.011607   0.000468   0.000118   0.000157   0.000032
    32  H   -0.011607   0.438691   0.000137  -0.000080   0.000001  -0.000005
    33  H    0.000468   0.000137   0.510229  -0.030907  -0.001014   0.004343
    34  H    0.000118  -0.000080  -0.030907   0.585421  -0.006222  -0.000941
    35  H    0.000157   0.000001  -0.001014  -0.006222   0.559846  -0.031763
    36  H    0.000032  -0.000005   0.004343  -0.000941  -0.031763   0.581267
    37  H   -0.000133   0.000003   0.000008  -0.000009   0.000169   0.007452
    38  H    0.000023   0.000000   0.000000   0.000000   0.000003  -0.000010
    39  H   -0.000001   0.000000   0.000000   0.000000   0.000000   0.000000
    40  H    0.000001   0.000000   0.000007   0.000000  -0.000001   0.000003
    41  H    0.000063   0.000000   0.004612  -0.000163   0.001591   0.000024
              37         38         39         40         41
     1  C    0.000000   0.000000   0.000000   0.000000   0.000000
     2  N    0.000000   0.000000   0.000000   0.000000   0.000001
     3  C    0.000000   0.000000   0.000000   0.000000   0.000000
     4  S    0.000000   0.000000   0.000000   0.000000   0.000042
     5  O    0.000000   0.000000   0.000000   0.000000   0.000000
     6  O    0.000000   0.000000   0.000000   0.000000   0.000214
     7  N    0.000000   0.000000   0.000000   0.000000   0.000003
     8  C   -0.000011   0.000001   0.000000   0.000000   0.000178
     9  C   -0.000090   0.000000   0.000000   0.000000   0.000001
    10  S    0.000977  -0.000002   0.000000   0.000000   0.000001
    11  O    0.000001   0.000000   0.000000   0.000000   0.000000
    12  O    0.001923  -0.000002   0.000000   0.000000   0.000000
    13  C   -0.000166  -0.000007   0.000000  -0.000001  -0.000039
    14  C    0.000190   0.000001   0.000000   0.000002   0.000928
    15  C   -0.011290  -0.000177   0.000007  -0.000180  -0.008835
    16  C   -0.043905   0.003771   0.000684   0.003606  -0.047022
    17  C    0.355197  -0.038692   0.004679   0.000805   0.005963
    18  C   -0.043816   0.359292  -0.042603   0.004557   0.000326
    19  C    0.004766  -0.042593   0.361538  -0.042437   0.004689
    20  C    0.000273   0.004552  -0.042378   0.359674  -0.041741
    21  C    0.006359   0.000766   0.004707  -0.039386   0.356844
    22  H    0.000000   0.000000   0.000000   0.000000   0.000000
    23  H    0.000000   0.000000   0.000000   0.000000   0.000000
    24  H    0.000000   0.000000   0.000000   0.000000   0.000000
    25  H    0.000000   0.000000   0.000000   0.000000   0.000000
    26  H    0.000000   0.000000   0.000000   0.000000   0.000000
    27  H    0.000000   0.000000   0.000000   0.000000   0.000000
    28  H    0.000000   0.000000   0.000000   0.000000   0.000000
    29  H    0.000039   0.000000   0.000000   0.000000   0.000000
    30  H    0.000001   0.000000   0.000000   0.000000   0.000000
    31  H   -0.000133   0.000023  -0.000001   0.000001   0.000063
    32  H    0.000003   0.000000   0.000000   0.000000   0.000000
    33  H    0.000008   0.000000   0.000000   0.000007   0.004612
    34  H   -0.000009   0.000000   0.000000   0.000000  -0.000163
    35  H    0.000169   0.000003   0.000000  -0.000001   0.001591
    36  H    0.007452  -0.000010   0.000000   0.000003   0.000024
    37  H    0.584918  -0.005366  -0.000168   0.000016  -0.000170
    38  H   -0.005366   0.580929  -0.005403  -0.000180   0.000017
    39  H   -0.000168  -0.005403   0.583077  -0.005328  -0.000173
    40  H    0.000016  -0.000180  -0.005328   0.581727  -0.005347
    41  H   -0.000170   0.000017  -0.000173  -0.005347   0.585556
 Mulliken charges:
               1
     1  C   -0.330832
     2  N   -0.528013
     3  C   -0.327295
     4  S    1.336442
     5  O   -0.545544
     6  O   -0.556998
     7  N   -0.734475
     8  C    0.166597
     9  C   -0.499243
    10  S    1.114955
    11  O   -0.540337
    12  O   -0.539731
    13  C   -0.514816
    14  C   -0.294735
    15  C   -0.371409
    16  C    0.146461
    17  C   -0.198990
    18  C   -0.132995
    19  C   -0.141128
    20  C   -0.136924
    21  C   -0.180271
    22  H    0.183388
    23  H    0.168047
    24  H    0.201330
    25  H    0.180095
    26  H    0.203105
    27  H    0.167193
    28  H    0.384817
    29  H    0.219351
    30  H    0.225019
    31  H    0.231024
    32  H    0.249762
    33  H    0.201709
    34  H    0.153855
    35  H    0.175056
    36  H    0.153366
    37  H    0.142831
    38  H    0.143077
    39  H    0.141361
    40  H    0.142461
    41  H    0.142438
 Sum of Mulliken charges =   0.00000
 Mulliken charges with hydrogens summed into heavy atoms:
               1
     1  C    0.221933
     2  N   -0.528013
     3  C    0.223098
     4  S    1.336442
     5  O   -0.545544
     6  O   -0.556998
     7  N   -0.349658
     8  C    0.166597
     9  C   -0.054874
    10  S    1.114955
    11  O   -0.540337
    12  O   -0.539731
    13  C   -0.034031
    14  C    0.060828
    15  C   -0.042987
    16  C    0.146461
    17  C   -0.056159
    18  C    0.010081
    19  C    0.000233
    20  C    0.005537
    21  C   -0.037834
 Electronic spatial extent (au):  <R**2>=           7088.7232
 Charge=              0.0000 electrons
 Dipole moment (field-independent basis, Debye):
    X=              0.4018    Y=             -1.6126    Z=              1.8200  Tot=              2.4646
 Quadrupole moment (field-independent basis, Debye-Ang):
   XX=           -138.8462   YY=           -158.8196   ZZ=           -124.6023
   XY=             -6.9057   XZ=              6.6079   YZ=             17.7744
 Traceless Quadrupole moment (field-independent basis, Debye-Ang):
   XX=              1.9099   YY=            -18.0636   ZZ=             16.1537
   XY=             -6.9057   XZ=              6.6079   YZ=             17.7744
 Octapole moment (field-independent basis, Debye-Ang**2):
  XXX=            -33.2699  YYY=            -52.7023  ZZZ=              6.7480  XYY=              5.7593
  XXY=             14.7768  XXZ=            -59.3289  XZZ=            -16.6125  YZZ=              1.0360
  YYZ=             18.5907  XYZ=            -15.8068
 Hexadecapole moment (field-independent basis, Debye-Ang**3):
 XXXX=          -5595.2796 YYYY=          -2685.6019 ZZZZ=          -1163.1287 XXXY=             14.0330
 XXXZ=             10.9564 YYYX=            -32.7894 YYYZ=            124.8568 ZZZX=              7.2164
 ZZZY=             14.1840 XXYY=          -1382.6986 XXZZ=          -1045.5933 YYZZ=           -606.1720
 XXYZ=            106.7790 YYXZ=              6.4301 ZZXY=             -3.4708
 N-N= 2.232481523517D+03 E-N=-8.491246308257D+03  KE= 1.702569936413D+03
 No NMR shielding tensors so no spin-rotation constants.
 Leave Link  601 at Fri Oct  2 06:24:29 2020, MaxMem=  2147483648 cpu:         0.3
 (Enter /prod/apps/gaussian/g09d1/l9999.exe)
 1\1\GINC-PIRINEUS42\SP\RB3LYP\6-31G(d)\C13H20N2O4S2\UBAFAR01\02-Oct-20
 20\0\\#p b3lyp/6-31G(d) scrf=(iefpcm,read,solvent=n-Octanol) geom=allc
 heck guess=read\\SM40.n.28.pdb.xyz\\0,1\C,0,3.338,0.536,2.067\N,0,3.42
 5,-0.378,0.915\C,0,2.191,-0.444,0.118\S,0,4.829,-0.173,0.003\O,0,4.702
 ,0.882,-1.011\O,0,5.925,-0.112,0.975\N,0,4.826,-1.602,-0.878\C,0,5.465
 ,-2.844,-0.384\C,0,4.907,-4.004,-1.273\S,0,3.782,-4.511,0.075\O,0,2.40
 1,-4.049,-0.151\O,0,4.013,-5.893,0.528\C,0,4.795,-3.28,0.96\C,0,7.001,
 -2.734,-0.394\C,0,7.81,-3.964,0.062\C,0,7.893,-4.182,1.56\C,0,7.531,-5
 .411,2.123\C,0,7.633,-5.629,3.497\C,0,8.104,-4.616,4.332\C,0,8.469,-3.
 385,3.783\C,0,8.364,-3.172,2.41\H,0,2.532,0.173,2.707\H,0,3.115,1.567,
 1.767\H,0,4.275,0.509,2.62\H,0,1.388,-0.749,0.791\H,0,2.305,-1.203,-0.
 654\H,0,1.936,0.521,-0.334\H,0,5.078,-1.375,-1.839\H,0,5.631,-4.793,-1
 .476\H,0,4.393,-3.7,-2.184\H,0,5.477,-3.777,1.65\H,0,4.203,-2.509,1.45
 2\H,0,7.274,-1.869,0.216\H,0,7.29,-2.493,-1.423\H,0,8.826,-3.834,-0.33
 1\H,0,7.428,-4.876,-0.41\H,0,7.156,-6.198,1.475\H,0,7.344,-6.589,3.913
 \H,0,8.184,-4.782,5.401\H,0,8.836,-2.591,4.425\H,0,8.647,-2.21,1.991\\
 Version=AM64L-G09RevD.01\State=1-A\HF=-1714.0686804\RMSD=4.385e-09\Dip
 ole=0.8453325,0.3836197,-0.2801356\Quadrupole=-0.9378065,-12.5936868,1
 3.5314933,-12.740881,-4.1508964,6.1305959\PG=C01 [X(C13H20N2O4S2)]\\@


 You can't act like a skunk without someone's getting wind of it.
 -- Lorene Workman
 Job cpu time:       0 days  0 hours  5 minutes  1.6 seconds.
 File lengths (MBytes):  RWF=    220 Int=      0 D2E=      0 Chk=      7 Scr=      1
 Normal termination of Gaussian 09 at Fri Oct  2 06:24:29 2020.
