 Entering Gaussian System, Link 0=g09
 Initial command:
 /prod/apps/gaussian/g09d1/l1.exe "/tmp/ubafar01/1462935/Gau-22218.inp" -scrdir="/tmp/ubafar01/1462935/"
 Entering Link 1 = /prod/apps/gaussian/g09d1/l1.exe PID=     22219.
  
 Copyright (c) 1988,1990,1992,1993,1995,1998,2003,2009,2013,
            Gaussian, Inc.  All Rights Reserved.
  
 This is part of the Gaussian(R) 09 program.  It is based on
 the Gaussian(R) 03 system (copyright 2003, Gaussian, Inc.),
 the Gaussian(R) 98 system (copyright 1998, Gaussian, Inc.),
 the Gaussian(R) 94 system (copyright 1995, Gaussian, Inc.),
 the Gaussian 92(TM) system (copyright 1992, Gaussian, Inc.),
 the Gaussian 90(TM) system (copyright 1990, Gaussian, Inc.),
 the Gaussian 88(TM) system (copyright 1988, Gaussian, Inc.),
 the Gaussian 86(TM) system (copyright 1986, Carnegie Mellon
 University), and the Gaussian 82(TM) system (copyright 1983,
 Carnegie Mellon University). Gaussian is a federally registered
 trademark of Gaussian, Inc.
  
 This software contains proprietary and confidential information,
 including trade secrets, belonging to Gaussian, Inc.
  
 This software is provided under written license and may be
 used, copied, transmitted, or stored only in accord with that
 written license.
  
 The following legend is applicable only to US Government
 contracts under FAR:
  
                    RESTRICTED RIGHTS LEGEND
  
 Use, reproduction and disclosure by the US Government is
 subject to restrictions as set forth in subparagraphs (a)
 and (c) of the Commercial Computer Software - Restricted
 Rights clause in FAR 52.227-19.
  
 Gaussian, Inc.
 340 Quinnipiac St., Bldg. 40, Wallingford CT 06492
  
  
 ---------------------------------------------------------------
 Warning -- This program may not be used in any manner that
 competes with the business of Gaussian, Inc. or will provide
 assistance to any competitor of Gaussian, Inc.  The licensee
 of this program is prohibited from giving any competitor of
 Gaussian, Inc. access to this program.  By using this program,
 the user acknowledges that Gaussian, Inc. is engaged in the
 business of creating and licensing software in the field of
 computational chemistry and represents and warrants to the
 licensee that it is not a competitor of Gaussian, Inc. and that
 it will not use this program in any manner prohibited above.
 ---------------------------------------------------------------
  

 Cite this work as:
 Gaussian 09, Revision D.01,
 M. J. Frisch, G. W. Trucks, H. B. Schlegel, G. E. Scuseria, 
 M. A. Robb, J. R. Cheeseman, G. Scalmani, V. Barone, B. Mennucci, 
 G. A. Petersson, H. Nakatsuji, M. Caricato, X. Li, H. P. Hratchian, 
 A. F. Izmaylov, J. Bloino, G. Zheng, J. L. Sonnenberg, M. Hada, 
 M. Ehara, K. Toyota, R. Fukuda, J. Hasegawa, M. Ishida, T. Nakajima, 
 Y. Honda, O. Kitao, H. Nakai, T. Vreven, J. A. Montgomery, Jr., 
 J. E. Peralta, F. Ogliaro, M. Bearpark, J. J. Heyd, E. Brothers, 
 K. N. Kudin, V. N. Staroverov, T. Keith, R. Kobayashi, J. Normand, 
 K. Raghavachari, A. Rendell, J. C. Burant, S. S. Iyengar, J. Tomasi, 
 M. Cossi, N. Rega, J. M. Millam, M. Klene, J. E. Knox, J. B. Cross, 
 V. Bakken, C. Adamo, J. Jaramillo, R. Gomperts, R. E. Stratmann, 
 O. Yazyev, A. J. Austin, R. Cammi, C. Pomelli, J. W. Ochterski, 
 R. L. Martin, K. Morokuma, V. G. Zakrzewski, G. A. Voth, 
 P. Salvador, J. J. Dannenberg, S. Dapprich, A. D. Daniels, 
 O. Farkas, J. B. Foresman, J. V. Ortiz, J. Cioslowski, 
 and D. J. Fox, Gaussian, Inc., Wallingford CT, 2013.
 
 ******************************************
 Gaussian 09:  AM64L-G09RevD.01 24-Apr-2013
                 2-Oct-2020 
 ******************************************
 %nproc=1
 Will use up to    1 processors via shared memory.
 %Chk=SM40.n.1.pdb.xyz.mst.n.o.chk
 %mem=16GB
 -----------------
 #p b3lyp/6-31G(d)
 -----------------
 1/38=1/1;
 2/12=2,17=6,18=5,40=1/2;
 3/5=1,6=6,7=1,11=2,16=1,25=1,30=1,74=-5/1,2,3;
 4//1;
 5/5=2,38=5/2;
 6/7=2,8=2,9=2,10=2,28=1/1;
 99/5=1,9=1/99;
 Leave Link    1 at Fri Oct  2 06:11:05 2020, MaxMem=  2147483648 cpu:         0.0
 (Enter /prod/apps/gaussian/g09d1/l101.exe)
 ----------------
 SM40.n.1.pdb.xyz
 ----------------
 Symbolic Z-matrix:
 Charge =  0 Multiplicity = 1
 C                     2.917    -0.692     3.156 
 N                     4.323    -1.064     3.351 
 C                     4.519    -2.31      4.095 
 S                     5.305    -0.85      2.015 
 O                     5.013     0.488     1.508 
 O                     6.655    -1.25      2.414 
 N                     4.779    -1.969     0.843 
 C                     5.736    -2.936     0.272 
 C                     4.935    -4.082    -0.435 
 S                     5.949    -5.327     0.432 
 O                     5.169    -6.312     1.196 
 O                     7.066    -5.786    -0.414 
 C                     6.388    -3.829     1.376 
 C                     6.828    -2.322    -0.625 
 C                     6.416    -1.819    -2.023 
 C                     5.445    -0.66     -2.082 
 C                     5.867     0.647    -1.808 
 C                     4.979     1.716    -1.883 
 C                     3.644     1.5      -2.233 
 C                     3.209     0.205    -2.511 
 C                     4.106    -0.864    -2.44 
 H                     2.462    -0.595     4.144 
 H                     2.364    -1.447     2.582 
 H                     2.868     0.269     2.648 
 H                     4.038    -2.192     5.068 
 H                     5.584    -2.474     4.248 
 H                     4.072    -3.175     3.587 
 H                     4.273    -1.457     0.12 
 H                     4.994    -4.14     -1.52 
 H                     3.903    -4.141    -0.089 
 H                     7.453    -3.691     1.547 
 H                     5.838    -3.834     2.316 
 H                     7.595    -3.089    -0.771 
 H                     7.295    -1.522    -0.046 
 H                     6.006    -2.655    -2.602 
 H                     7.344    -1.532    -2.531 
 H                     6.903     0.828    -1.539 
 H                     5.329     2.722    -1.67 
 H                     2.953     2.334    -2.292 
 H                     2.177     0.024    -2.794 
 H                     3.766    -1.866    -2.686 
 
 NAtoms=     41 NQM=       41 NQMF=       0 NMMI=      0 NMMIF=      0
                NMic=       0 NMicF=      0.
                    Isotopes and Nuclear Properties:
 (Nuclear quadrupole moments (NQMom) in fm**2, nuclear magnetic moments (NMagM)
  in nuclear magnetons)

  Atom         1           2           3           4           5           6           7           8           9          10
 IAtWgt=          12          14          12          32          16          16          14          12          12          32
 AtmWgt=  12.0000000  14.0030740  12.0000000  31.9720718  15.9949146  15.9949146  14.0030740  12.0000000  12.0000000  31.9720718
 NucSpn=           0           2           0           0           0           0           2           0           0           0
 AtZEff=   0.0000000   0.0000000   0.0000000   0.0000000   0.0000000   0.0000000   0.0000000   0.0000000   0.0000000   0.0000000
 NQMom=    0.0000000   2.0440000   0.0000000   0.0000000   0.0000000   0.0000000   2.0440000   0.0000000   0.0000000   0.0000000
 NMagM=    0.0000000   0.4037610   0.0000000   0.0000000   0.0000000   0.0000000   0.4037610   0.0000000   0.0000000   0.0000000
 AtZNuc=   6.0000000   7.0000000   6.0000000  16.0000000   8.0000000   8.0000000   7.0000000   6.0000000   6.0000000  16.0000000

  Atom        11          12          13          14          15          16          17          18          19          20
 IAtWgt=          16          16          12          12          12          12          12          12          12          12
 AtmWgt=  15.9949146  15.9949146  12.0000000  12.0000000  12.0000000  12.0000000  12.0000000  12.0000000  12.0000000  12.0000000
 NucSpn=           0           0           0           0           0           0           0           0           0           0
 AtZEff=   0.0000000   0.0000000   0.0000000   0.0000000   0.0000000   0.0000000   0.0000000   0.0000000   0.0000000   0.0000000
 NQMom=    0.0000000   0.0000000   0.0000000   0.0000000   0.0000000   0.0000000   0.0000000   0.0000000   0.0000000   0.0000000
 NMagM=    0.0000000   0.0000000   0.0000000   0.0000000   0.0000000   0.0000000   0.0000000   0.0000000   0.0000000   0.0000000
 AtZNuc=   8.0000000   8.0000000   6.0000000   6.0000000   6.0000000   6.0000000   6.0000000   6.0000000   6.0000000   6.0000000

  Atom        21          22          23          24          25          26          27          28          29          30
 IAtWgt=          12           1           1           1           1           1           1           1           1           1
 AtmWgt=  12.0000000   1.0078250   1.0078250   1.0078250   1.0078250   1.0078250   1.0078250   1.0078250   1.0078250   1.0078250
 NucSpn=           0           1           1           1           1           1           1           1           1           1
 AtZEff=   0.0000000   0.0000000   0.0000000   0.0000000   0.0000000   0.0000000   0.0000000   0.0000000   0.0000000   0.0000000
 NQMom=    0.0000000   0.0000000   0.0000000   0.0000000   0.0000000   0.0000000   0.0000000   0.0000000   0.0000000   0.0000000
 NMagM=    0.0000000   2.7928460   2.7928460   2.7928460   2.7928460   2.7928460   2.7928460   2.7928460   2.7928460   2.7928460
 AtZNuc=   6.0000000   1.0000000   1.0000000   1.0000000   1.0000000   1.0000000   1.0000000   1.0000000   1.0000000   1.0000000

  Atom        31          32          33          34          35          36          37          38          39          40
 IAtWgt=           1           1           1           1           1           1           1           1           1           1
 AtmWgt=   1.0078250   1.0078250   1.0078250   1.0078250   1.0078250   1.0078250   1.0078250   1.0078250   1.0078250   1.0078250
 NucSpn=           1           1           1           1           1           1           1           1           1           1
 AtZEff=   0.0000000   0.0000000   0.0000000   0.0000000   0.0000000   0.0000000   0.0000000   0.0000000   0.0000000   0.0000000
 NQMom=    0.0000000   0.0000000   0.0000000   0.0000000   0.0000000   0.0000000   0.0000000   0.0000000   0.0000000   0.0000000
 NMagM=    2.7928460   2.7928460   2.7928460   2.7928460   2.7928460   2.7928460   2.7928460   2.7928460   2.7928460   2.7928460
 AtZNuc=   1.0000000   1.0000000   1.0000000   1.0000000   1.0000000   1.0000000   1.0000000   1.0000000   1.0000000   1.0000000

  Atom        41
 IAtWgt=           1
 AtmWgt=   1.0078250
 NucSpn=           1
 AtZEff=   0.0000000
 NQMom=    0.0000000
 NMagM=    2.7928460
 AtZNuc=   1.0000000
 Leave Link  101 at Fri Oct  2 06:11:05 2020, MaxMem=  2147483648 cpu:         0.1
 (Enter /prod/apps/gaussian/g09d1/l202.exe)
                          Input orientation:                          
 ---------------------------------------------------------------------
 Center     Atomic      Atomic             Coordinates (Angstroms)
 Number     Number       Type             X           Y           Z
 ---------------------------------------------------------------------
      1          6           0        2.917000   -0.692000    3.156000
      2          7           0        4.323000   -1.064000    3.351000
      3          6           0        4.519000   -2.310000    4.095000
      4         16           0        5.305000   -0.850000    2.015000
      5          8           0        5.013000    0.488000    1.508000
      6          8           0        6.655000   -1.250000    2.414000
      7          7           0        4.779000   -1.969000    0.843000
      8          6           0        5.736000   -2.936000    0.272000
      9          6           0        4.935000   -4.082000   -0.435000
     10         16           0        5.949000   -5.327000    0.432000
     11          8           0        5.169000   -6.312000    1.196000
     12          8           0        7.066000   -5.786000   -0.414000
     13          6           0        6.388000   -3.829000    1.376000
     14          6           0        6.828000   -2.322000   -0.625000
     15          6           0        6.416000   -1.819000   -2.023000
     16          6           0        5.445000   -0.660000   -2.082000
     17          6           0        5.867000    0.647000   -1.808000
     18          6           0        4.979000    1.716000   -1.883000
     19          6           0        3.644000    1.500000   -2.233000
     20          6           0        3.209000    0.205000   -2.511000
     21          6           0        4.106000   -0.864000   -2.440000
     22          1           0        2.462000   -0.595000    4.144000
     23          1           0        2.364000   -1.447000    2.582000
     24          1           0        2.868000    0.269000    2.648000
     25          1           0        4.038000   -2.192000    5.068000
     26          1           0        5.584000   -2.474000    4.248000
     27          1           0        4.072000   -3.175000    3.587000
     28          1           0        4.273000   -1.457000    0.120000
     29          1           0        4.994000   -4.140000   -1.520000
     30          1           0        3.903000   -4.141000   -0.089000
     31          1           0        7.453000   -3.691000    1.547000
     32          1           0        5.838000   -3.834000    2.316000
     33          1           0        7.595000   -3.089000   -0.771000
     34          1           0        7.295000   -1.522000   -0.046000
     35          1           0        6.006000   -2.655000   -2.602000
     36          1           0        7.344000   -1.532000   -2.531000
     37          1           0        6.903000    0.828000   -1.539000
     38          1           0        5.329000    2.722000   -1.670000
     39          1           0        2.953000    2.334000   -2.292000
     40          1           0        2.177000    0.024000   -2.794000
     41          1           0        3.766000   -1.866000   -2.686000
 ---------------------------------------------------------------------
                    Distance matrix (angstroms):
                    1          2          3          4          5
     1  C    0.000000
     2  N    1.467394   0.000000
     3  C    2.462935   1.464400   0.000000
     4  S    2.651299   1.671830   2.660037   0.000000
     5  O    2.915737   2.506283   3.842578   1.460328   0.000000
     6  O    3.851567   2.520077   2.917509   1.463455   2.556882
     7  N    3.232297   2.705000   3.280150   1.703649   2.556136
     8  C    4.615166   3.870555   4.060578   2.752309   3.711361
     9  C    5.334764   4.880232   4.882002   4.072496   4.966511
    10  S    6.172230   5.416420   4.956285   4.792093   5.987328
    11  O    6.363765   5.735961   4.984246   5.524735   6.808941
    12  O    7.477161   6.632990   6.237056   5.776267   6.875461
    13  C    5.005698   3.976189   3.632283   3.233520   4.532608
    14  C    5.678801   4.864788   5.254524   3.384658   3.967369
    15  C    6.350998   5.816404   6.424143   4.298689   4.445067
    16  C    5.816223   5.562337   6.460287   4.103792   3.793762
    17  C    5.927623   5.650375   6.738424   4.143933   3.427893
    18  C    5.953304   5.962675   7.221964   4.678145   3.606663
    19  C    5.862995   6.181925   7.438098   5.130977   4.110156
    20  C    5.744977   6.100361   7.188919   5.098129   4.414393
    21  C    5.723506   5.798514   6.705797   4.613548   4.270510
    22  H    1.092052   2.076567   2.678596   3.560943   3.824786
    23  H    1.097866   2.139096   2.770914   3.054076   3.451797
    24  H    1.088111   2.094785   3.386864   2.755326   2.438972
    25  H    2.676263   2.074054   1.091794   3.567501   4.561428
    26  H    3.388344   2.093521   1.088361   2.775159   4.075179
    27  H    2.772197   2.138929   1.098225   3.065469   4.315703
    28  H    3.411929   3.255197   4.072929   2.241539   2.501433
    29  H    6.169895   5.799884   5.924757   4.839116   5.530599
    30  H    4.837130   4.634429   4.608457   4.150072   5.020971
    31  H    5.670818   4.466816   4.124054   3.592243   4.839335
    32  H    4.371499   3.322552   2.688341   3.046136   4.473608
    33  H    6.561297   5.638927   5.809180   4.244881   4.965430
    34  H    5.487129   4.536756   5.047277   2.942687   3.415046
    35  H    6.822745   6.387643   6.868770   5.006607   5.268453
    36  H    7.255749   6.628981   7.244983   5.028793   5.082075
    37  H    6.343628   5.843643   6.875497   4.242665   3.601654
    38  H    6.384623   6.368381   7.694956   5.132152   3.897473
    39  H    6.232068   6.728057   8.050644   5.849787   4.700140
    40  H    6.038440   6.599249   7.641390   5.802994   5.173528
    41  H    6.018973   6.115458   6.837112   5.049770   4.968497
                    6          7          8          9         10
     6  O    0.000000
     7  N    2.550368   0.000000
     8  C    2.876686   1.475459   0.000000
     9  C    4.369831   2.474346   1.566769   0.000000
    10  S    4.587885   3.579663   2.405795   1.824804   0.000000
    11  O    5.414385   4.374741   3.545792   2.772691   1.470483
    12  O    5.361138   4.623841   3.219005   2.728593   1.474478
    13  C    2.792843   2.516460   1.562488   2.335581   1.824243
    14  C    3.227171   2.545198   1.540801   2.591746   3.304529
    15  C    4.479716   3.303971   2.641423   3.136283   4.307108
    16  C    4.693210   3.273020   3.287274   3.831813   5.324951
    17  C    4.695193   3.880077   4.145051   5.011706   6.380674
    18  C    5.483643   4.588061   5.182488   5.976240   7.476896
    19  C    6.182494   4.773255   5.507230   6.004849   7.682654
    20  C    6.184462   4.294239   4.898643   5.066283   6.838996
    21  C    5.496154   3.528745   3.782199   3.881081   5.618132
    22  H    4.582922   4.260630   5.584957   6.264355   6.951974
    23  H    4.298804   3.021395   4.350127   4.759785   5.703431
    24  H    4.086990   3.452331   4.913535   5.719141   6.761541
    25  H    3.844447   4.295281   5.141824   5.887250   5.913767
    26  H    2.451280   3.535120   4.005637   4.993731   4.778566
    27  H    3.428329   3.079581   3.716886   4.212351   4.255380
    28  H    3.313489   1.020249   2.085884   2.763493   4.228856
    29  H    5.156295   3.216090   2.282859   1.088150   2.476146
    30  H    4.711305   2.520632   2.223114   1.090056   2.421601
    31  H    2.710530   3.257480   2.267981   3.228239   2.486310
    32  H    2.711853   2.601814   2.234892   2.906013   2.406414
    33  H    3.796017   3.433548   2.137087   2.859116   3.027403
    34  H    2.556401   2.705621   2.128615   3.503501   4.064262
    35  H    5.249332   3.720773   2.900299   2.807002   4.043265
    36  H    5.000727   4.260759   3.523307   4.086441   5.012726
    37  H    4.472784   4.243643   4.336970   5.403697   6.532915
    38  H    5.849283   5.350061   5.995830   6.926390   8.342014
    39  H    6.978273   5.628349   6.487841   6.967197   8.665282
    40  H    6.985616   4.895939   5.552336   5.480026   7.298511
    41  H    5.893707   3.672958   3.711545   3.368118   5.144505
                   11         12         13         14         15
    11  O    0.000000
    12  O    2.543105   0.000000
    13  C    2.771940   2.737450   0.000000
    14  C    4.689181   3.478572   2.543354   0.000000
    15  C    5.666041   4.329950   3.948935   1.541803   0.000000
    16  C    6.539615   5.629009   4.784305   2.607256   1.513143
    17  C    7.611761   6.690615   5.517597   3.337360   2.535504
    18  C    8.600298   7.924237   6.584329   4.615930   3.818481
    19  C    8.666661   8.252554   6.996618   5.227925   4.329416
    20  C    7.749499   7.427378   6.441115   4.799988   3.823554
    21  C    6.635599   6.090350   5.344212   3.581797   2.534169
    22  H    6.978728   8.301726   5.790860   6.692372   7.427259
    23  H    5.784224   7.064824   4.829175   5.565768   6.145170
    24  H    7.121269   7.978852   5.549954   5.753904   6.226258
    25  H    5.765930   7.220661   4.672594   6.341234   7.488411
    26  H    4.921095   5.907615   3.275794   5.031577   6.359771
    27  H    4.094027   5.638205   3.268041   5.105300   6.229380
    28  H    5.052882   5.179406   3.417184   2.798442   3.052203
    29  H    3.482078   2.868054   3.229051   2.733076   2.768056
    30  H    2.822627   3.579975   2.901516   3.485926   3.930294
    31  H    3.494209   2.895568   1.087433   2.642417   4.162289
    32  H    2.800437   3.573680   1.089094   3.451916   4.818841
    33  H    4.488017   2.771480   2.571781   1.094483   2.137860
    34  H    5.385772   4.285973   2.857793   1.092396   2.183891
    35  H    5.338448   3.964102   4.165175   2.166818   1.096466
    36  H    6.439686   4.759778   4.631932   2.126780   1.096183
    37  H    7.840063   6.710975   5.518161   3.280781   2.734599
    38  H    9.479067   8.773869   7.301726   5.364789   4.682612
    39  H    9.582803   9.293979   7.952108   6.282742   5.414069
    40  H    8.063316   7.957564   7.068736   5.642701   4.686172
    41  H    6.066733   5.605210   5.218055   3.719073   2.732083
                   16         17         18         19         20
    16  C    0.000000
    17  C    1.400503   0.000000
    18  C    2.429431   1.391736   0.000000
    19  C    2.816381   2.418670   1.396918   0.000000
    20  C    2.435562   2.784697   2.410478   1.394107   0.000000
    21  C    1.400964   2.404925   2.780068   2.417600   1.397287
    22  H    6.904027   6.968708   6.928257   6.815591   6.744408
    23  H    5.644894   5.993992   6.064571   5.788561   5.420496
    24  H    5.465974   5.384498   5.203853   5.093299   5.170654
    25  H    7.446420   7.660583   8.029592   8.190891   7.992127
    26  H    6.586260   6.818788   7.450590   7.845995   7.648643
    27  H    6.352001   6.850966   7.393607   7.477380   7.025295
    28  H    2.618701   3.268767   3.818164   3.830940   3.288845
    29  H    3.553821   4.874468   5.867259   5.842985   4.800764
    30  H    4.297345   5.453183   6.219378   6.040256   5.023488
    31  H    5.136990   5.708736   6.864490   7.466148   7.046823
    32  H    5.437934   6.089957   7.012274   7.345651   6.820930
    33  H    3.498751   4.244885   5.582833   6.229508   5.754566
    34  H    2.882853   3.138214   4.384412   5.219699   5.074855
    35  H    2.136620   3.398965   4.547233   4.793666   4.001386
    36  H    2.137332   2.729890   4.069721   4.792893   4.485063
    37  H    2.152849   1.085550   2.146778   3.399162   3.870213
    38  H    3.408977   2.148049   1.086234   2.156265   3.396612
    39  H    3.901051   3.401709   2.157286   1.084674   2.155490
    40  H    3.413887   3.869939   3.397645   2.155316   1.085299
    41  H    2.153670   3.391202   3.866122   3.398536   2.151724
                   21         22         23         24         25
    21  C    0.000000
    22  H    6.791476   0.000000
    23  H    5.347423   1.781952   0.000000
    24  H    5.357619   1.774640   1.789701   0.000000
    25  H    7.624846   2.426512   3.088284   3.644423   0.000000
    26  H    7.036045   3.645318   3.768114   4.178601   1.772580
    27  H    6.454968   3.091723   2.629310   3.767290   1.777866
    28  H    2.633085   4.496147   3.115417   3.368068   5.007809
    29  H    3.516692   7.145554   5.567365   6.428949   6.936165
    30  H    4.038210   5.706916   4.093947   5.292494   5.514660
    31  H    5.923724   6.421815   5.657268   6.157599   5.129003
    32  H    5.868582   5.022955   4.223411   5.075996   3.675550
    33  H    4.461985   7.531597   6.426674   6.731289   6.895707
    34  H    4.041525   6.463228   5.588092   5.483033   6.099995
    35  H    2.616090   7.893798   6.449596   6.779330   7.931979
    36  H    3.307438   8.322711   7.137954   7.078151   8.313245
    37  H    3.390852   7.351456   6.539173   5.841633   7.809038
    38  H    3.866268   7.281811   6.652164   5.542459   8.438882
    39  H    3.402722   7.088175   6.196673   5.354909   8.708128
    40  H    2.152882   6.971387   5.576754   5.491163   8.377650
    41  H    1.086333   7.068575   5.467448   5.815169   7.765615
                   26         27         28         29         30
    26  H    0.000000
    27  H    1.792893   0.000000
    28  H    4.448977   3.874534   0.000000
    29  H    6.032701   5.278519   3.226132   0.000000
    30  H    4.941075   3.804562   2.717432   1.799456   0.000000
    31  H    3.502806   3.982338   4.139986   3.956611   3.934653
    32  H    2.376287   2.273429   3.594686   3.939653   3.102015
    33  H    5.441756   5.604560   3.806966   2.903585   3.899063
    34  H    4.719350   5.130188   3.027254   3.784336   4.285636
    35  H    6.865373   6.504958   3.442060   2.097640   3.598051
    36  H    7.066810   7.129892   4.057643   3.653257   4.960920
    37  H    6.792079   7.093268   3.858809   5.322186   5.982764
    38  H    7.879477   7.999419   4.667256   6.871810   7.185667
    39  H    8.532914   8.134118   4.683143   6.831862   6.905167
    40  H    8.212029   7.385241   3.883037   5.186276   5.257692
    41  H    7.194105   6.415423   2.880619   2.835245   3.455257
                   31         32         33         34         35
    31  H    0.000000
    32  H    1.794446   0.000000
    33  H    2.399102   3.629276   0.000000
    34  H    2.695770   3.612096   1.752459   0.000000
    35  H    4.514566   5.060137   2.462892   3.078692   0.000000
    36  H    4.615544   5.573208   2.363229   2.485503   1.748260
    37  H    5.499751   6.142434   4.051120   2.811621   3.750449
    38  H    7.482448   7.689500   6.301641   4.951168   5.499007
    39  H    8.443254   8.221990   7.298667   6.226252   5.857220
    40  H    7.776997   7.375580   6.567954   6.011285   4.677087
    41  H    5.902786   5.760748   4.452437   4.420608   2.376379
                   36         37         38         39         40
    36  H    0.000000
    37  H    2.597719   0.000000
    38  H    4.785192   2.466145   0.000000
    39  H    5.855250   4.293896   2.486524   0.000000
    40  H    5.402610   4.955453   4.298568   2.488027   0.000000
    41  H    3.596897   4.291155   4.952269   4.296069   2.471575
                   41
    41  H    0.000000
 Stoichiometry    C13H20N2O4S2
 Framework group  C1[X(C13H20N2O4S2)]
 Deg. of freedom   117
 Full point group                 C1      NOp   1
 Largest Abelian subgroup         C1      NOp   1
 Largest concise Abelian subgroup C1      NOp   1
                         Standard orientation:                         
 ---------------------------------------------------------------------
 Center     Atomic      Atomic             Coordinates (Angstroms)
 Number     Number       Type             X           Y           Z
 ---------------------------------------------------------------------
      1          6           0       -0.546139    3.503286    1.428297
      2          7           0        0.171376    3.208001    0.182815
      3          6           0        1.620882    3.400557    0.262314
      4         16           0       -0.338886    1.833630   -0.620773
      5          8           0       -1.796327    1.911029   -0.670100
      6          8           0        0.472993    1.726948   -1.833692
      7          7           0        0.071500    0.511486    0.372172
      8          6           0        0.912853   -0.574881   -0.165331
      9          6           0        1.473252   -1.418425    1.030140
     10         16           0        3.150617   -1.313404    0.319278
     11          8           0        4.161840   -0.774244    1.240721
     12          8           0        3.464987   -2.511062   -0.481268
     13          6           0        2.292643   -0.044695   -0.671742
     14          6           0        0.246812   -1.439474   -1.252961
     15          6           0       -0.851206   -2.429931   -0.816486
     16          6           0       -2.118867   -1.843779   -0.234196
     17          6           0       -3.079138   -1.243963   -1.058520
     18          6           0       -4.254942   -0.723813   -0.525737
     19          6           0       -4.495931   -0.790643    0.848614
     20          6           0       -3.550790   -1.386740    1.682227
     21          6           0       -2.374615   -1.912704    1.141502
     22          1           0       -0.336353    4.542371    1.690727
     23          1           0       -0.225853    2.855727    2.254974
     24          1           0       -1.615307    3.389484    1.261218
     25          1           0        1.800272    4.439697    0.545192
     26          1           0        2.061728    3.222640   -0.716732
     27          1           0        2.088721    2.748681    1.012170
     28          1           0       -0.784671    0.158193    0.800032
     29          1           0        1.103027   -2.435315    1.143892
     30          1           0        1.437968   -0.874308    1.974022
     31          1           0        2.472056   -0.101290   -1.742778
     32          1           0        2.553087    0.938599   -0.282607
     33          1           0        1.038869   -2.025218   -1.729870
     34          1           0       -0.130368   -0.750792   -2.012422
     35          1           0       -0.429496   -3.145016   -0.100210
     36          1           0       -1.106470   -3.016099   -1.706915
     37          1           0       -2.905069   -1.189813   -2.128654
     38          1           0       -4.987696   -0.266366   -1.184310
     39          1           0       -5.413059   -0.385715    1.262652
     40          1           0       -3.729591   -1.454541    2.750547
     41          1           0       -1.656448   -2.401074    1.794075
 ---------------------------------------------------------------------
 Rotational constants (GHZ):      0.3374014      0.2243538      0.1606101
 Leave Link  202 at Fri Oct  2 06:11:05 2020, MaxMem=  2147483648 cpu:         0.0
 (Enter /prod/apps/gaussian/g09d1/l301.exe)
 Standard basis: 6-31G(d) (6D, 7F)
 Ernie: Thresh=  0.10000D-02 Tol=  0.10000D-05 Strict=F.
 There are   363 symmetry adapted cartesian basis functions of A   symmetry.
 There are   363 symmetry adapted basis functions of A   symmetry.
   363 basis functions,   716 primitive gaussians,   363 cartesian basis functions
    88 alpha electrons       88 beta electrons
       nuclear repulsion energy      2241.7968893260 Hartrees.
 IExCor=  402 DFT=T Ex+Corr=B3LYP ExCW=0 ScaHFX=  0.200000
 ScaDFX=  0.800000  0.720000  1.000000  0.810000 ScalE2=  1.000000  1.000000
 IRadAn=      0 IRanWt=     -1 IRanGd=            0 ICorTp=0 IEmpDi=  4
 NAtoms=   41 NActive=   41 NUniq=   41 SFac= 1.00D+00 NAtFMM=   60 NAOKFM=F Big=F
 Integral buffers will be    131072 words long.
 Raffenetti 2 integral format.
 Two-electron integral symmetry is turned on.
 Leave Link  301 at Fri Oct  2 06:11:05 2020, MaxMem=  2147483648 cpu:         0.0
 (Enter /prod/apps/gaussian/g09d1/l302.exe)
 NPDir=0 NMtPBC=     1 NCelOv=     1 NCel=       1 NClECP=     1 NCelD=      1
         NCelK=      1 NCelE2=     1 NClLst=     1 CellRange=     0.0.
 One-electron integrals computed using PRISM.
 NBasis=   363 RedAO= T EigKep=  4.65D-04  NBF=   363
 NBsUse=   363 1.00D-06 EigRej= -1.00D+00 NBFU=   363
 Precomputing XC quadrature grid using
 IXCGrd= 4 IRadAn=           0 IRanWt=          -1 IRanGd=           0 AccXCQ= 0.00D+00.
 Generated NRdTot=       0 NPtTot=           0 NUsed=           0 NTot=          32
 NSgBfM=   360   360   360   360   360 MxSgAt=    41 MxSgA2=    41.
 Leave Link  302 at Fri Oct  2 06:11:06 2020, MaxMem=  2147483648 cpu:         1.3
 (Enter /prod/apps/gaussian/g09d1/l303.exe)
 DipDrv:  MaxL=1.
 Leave Link  303 at Fri Oct  2 06:11:07 2020, MaxMem=  2147483648 cpu:         0.0
 (Enter /prod/apps/gaussian/g09d1/l401.exe)
 ExpMin= 1.17D-01 ExpMax= 2.19D+04 ExpMxC= 3.30D+03 IAcc=1 IRadAn=         1 AccDes= 0.00D+00
 Harris functional with IExCor=  402 and IRadAn=       1 diagonalized for initial guess.
 HarFok:  IExCor=  402 AccDes= 0.00D+00 IRadAn=         1 IDoV= 1 UseB2=F ITyADJ=14
 ICtDFT=  3500011 ScaDFX=  1.000000  1.000000  1.000000  1.000000
 FoFCou: FMM=F IPFlag=           0 FMFlag=      100000 FMFlg1=           0
         NFxFlg=           0 DoJE=T BraDBF=F KetDBF=T FulRan=T
         wScrn=  0.000000 ICntrl=     500 IOpCl=  0 I1Cent=   200000004 NGrid=           0
         NMat0=    1 NMatS0=      1 NMatT0=    0 NMatD0=    1 NMtDS0=    0 NMtDT0=    0
 Petite list used in FoFCou.
 Harris En= -1714.14257634050    
 JPrj=0 DoOrth=F DoCkMO=F.
 Leave Link  401 at Fri Oct  2 06:11:12 2020, MaxMem=  2147483648 cpu:         5.4
 (Enter /prod/apps/gaussian/g09d1/l502.exe)
 Closed shell SCF:
 Using DIIS extrapolation, IDIIS=  1040.
 Integral symmetry usage will be decided dynamically.
 IVT=      418784 IEndB=      418784 NGot=  2147483648 MDV=  2147213637
 LenX=  2147213637 LenY=  2147081427
 Requested convergence on RMS density matrix=1.00D-08 within 128 cycles.
 Requested convergence on MAX density matrix=1.00D-06.
 Requested convergence on             energy=1.00D-06.
 No special actions if energy rises.
 Fock matrices will be formed incrementally for  20 cycles.
 Integral accuracy reduced to 1.0D-05 until final iterations.

 Cycle   1  Pass 0  IDiag  1:
 FoFJK:  IHMeth= 1 ICntrl=       0 DoSepK=F KAlg= 0 I1Cent=   0 FoldK=F
 IRaf= 800000000 NMat=   1 IRICut=       1 DoRegI=T DoRafI=F ISym2E= 0.
 FoFCou: FMM=F IPFlag=           0 FMFlag=      100000 FMFlg1=           0
         NFxFlg=           0 DoJE=F BraDBF=F KetDBF=F FulRan=T
         wScrn=  0.000000 ICntrl=       0 IOpCl=  0 I1Cent=           0 NGrid=           0
         NMat0=    1 NMatS0=      1 NMatT0=    0 NMatD0=    1 NMtDS0=    0 NMtDT0=    0
 Symmetry not used in FoFCou.
 E= -1713.20147739986    
 DIIS: error= 3.24D-02 at cycle   1 NSaved=   1.
 NSaved= 1 IEnMin= 1 EnMin= -1713.20147739986     IErMin= 1 ErrMin= 3.24D-02
 ErrMax= 3.24D-02  0.00D+00 EMaxC= 1.00D-01 BMatC= 9.87D-01 BMatP= 9.87D-01
 IDIUse=3 WtCom= 6.76D-01 WtEn= 3.24D-01
 Coeff-Com:  0.100D+01
 Coeff-En:   0.100D+01
 Coeff:      0.100D+01
 Gap=     0.348 Goal=   None    Shift=    0.000
 GapD=    0.348 DampG=1.000 DampE=0.500 DampFc=0.5000 IDamp=-1.
 Damping current iteration by 5.00D-01
 RMSDP=6.90D-03 MaxDP=6.01D-01              OVMax= 2.31D-01

 Cycle   2  Pass 0  IDiag  1:
 RMSU=  3.45D-03    CP:  9.99D-01
 E= -1713.38505377551     Delta-E=       -0.183576375648 Rises=F Damp=T
 DIIS: error= 1.40D-02 at cycle   2 NSaved=   2.
 NSaved= 2 IEnMin= 2 EnMin= -1713.38505377551     IErMin= 2 ErrMin= 1.40D-02
 ErrMax= 1.40D-02  0.00D+00 EMaxC= 1.00D-01 BMatC= 1.63D-01 BMatP= 9.87D-01
 IDIUse=3 WtCom= 8.60D-01 WtEn= 1.40D-01
 Coeff-Com:  0.246D+00 0.754D+00
 Coeff-En:   0.389D+00 0.611D+00
 Coeff:      0.266D+00 0.734D+00
 Gap=     0.286 Goal=   None    Shift=    0.000
 RMSDP=2.00D-03 MaxDP=1.34D-01 DE=-1.84D-01 OVMax= 2.01D-01

 Cycle   3  Pass 0  IDiag  1:
 RMSU=  1.59D-03    CP:  9.89D-01  6.53D-01
 E= -1713.95205829604     Delta-E=       -0.567004520529 Rises=F Damp=F
 DIIS: error= 8.40D-03 at cycle   3 NSaved=   3.
 NSaved= 3 IEnMin= 3 EnMin= -1713.95205829604     IErMin= 3 ErrMin= 8.40D-03
 ErrMax= 8.40D-03  0.00D+00 EMaxC= 1.00D-01 BMatC= 9.50D-02 BMatP= 1.63D-01
 IDIUse=3 WtCom= 9.16D-01 WtEn= 8.40D-02
 Coeff-Com:  0.986D-01 0.441D+00 0.460D+00
 Coeff-En:   0.000D+00 0.000D+00 0.100D+01
 Coeff:      0.903D-01 0.404D+00 0.505D+00
 Gap=     0.248 Goal=   None    Shift=    0.000
 RMSDP=1.21D-03 MaxDP=3.84D-02 DE=-5.67D-01 OVMax= 7.91D-02

 Cycle   4  Pass 0  IDiag  1:
 RMSU=  7.28D-04    CP:  9.95D-01  7.24D-01  4.13D-01
 E= -1714.02928677788     Delta-E=       -0.077228481845 Rises=F Damp=F
 DIIS: error= 2.93D-03 at cycle   4 NSaved=   4.
 NSaved= 4 IEnMin= 4 EnMin= -1714.02928677788     IErMin= 4 ErrMin= 2.93D-03
 ErrMax= 2.93D-03  0.00D+00 EMaxC= 1.00D-01 BMatC= 1.16D-02 BMatP= 9.50D-02
 IDIUse=3 WtCom= 9.71D-01 WtEn= 2.93D-02
 Coeff-Com:  0.863D-02 0.845D-01 0.273D+00 0.633D+00
 Coeff-En:   0.000D+00 0.000D+00 0.102D+00 0.898D+00
 Coeff:      0.837D-02 0.820D-01 0.268D+00 0.641D+00
 Gap=     0.237 Goal=   None    Shift=    0.000
 RMSDP=3.90D-04 MaxDP=1.56D-02 DE=-7.72D-02 OVMax= 2.29D-02

 Cycle   5  Pass 0  IDiag  1:
 RMSU=  1.79D-04    CP:  9.94D-01  7.14D-01  5.52D-01  6.37D-01
 E= -1714.03885015739     Delta-E=       -0.009563379504 Rises=F Damp=F
 DIIS: error= 9.75D-04 at cycle   5 NSaved=   5.
 NSaved= 5 IEnMin= 5 EnMin= -1714.03885015739     IErMin= 5 ErrMin= 9.75D-04
 ErrMax= 9.75D-04  0.00D+00 EMaxC= 1.00D-01 BMatC= 1.03D-03 BMatP= 1.16D-02
 IDIUse=3 WtCom= 9.90D-01 WtEn= 9.75D-03
 EnCoef did     3 forward-backward iterations
 Coeff-Com: -0.178D-02 0.192D-01 0.113D+00 0.350D+00 0.519D+00
 Coeff-En:   0.000D+00 0.000D+00 0.000D+00 0.202D-03 0.100D+01
 Coeff:     -0.177D-02 0.190D-01 0.112D+00 0.347D+00 0.524D+00
 Gap=     0.237 Goal=   None    Shift=    0.000
 RMSDP=1.17D-04 MaxDP=6.37D-03 DE=-9.56D-03 OVMax= 7.96D-03

 Cycle   6  Pass 0  IDiag  1:
 RMSU=  5.66D-05    CP:  9.94D-01  7.18D-01  5.44D-01  7.07D-01  5.15D-01
 E= -1714.03970902334     Delta-E=       -0.000858865953 Rises=F Damp=F
 DIIS: error= 4.35D-04 at cycle   6 NSaved=   6.
 NSaved= 6 IEnMin= 6 EnMin= -1714.03970902334     IErMin= 6 ErrMin= 4.35D-04
 ErrMax= 4.35D-04  0.00D+00 EMaxC= 1.00D-01 BMatC= 1.14D-04 BMatP= 1.03D-03
 IDIUse=3 WtCom= 9.96D-01 WtEn= 4.35D-03
 Coeff-Com: -0.170D-02 0.424D-02 0.415D-01 0.144D+00 0.309D+00 0.503D+00
 Coeff-En:   0.000D+00 0.000D+00 0.000D+00 0.000D+00 0.390D-01 0.961D+00
 Coeff:     -0.170D-02 0.422D-02 0.413D-01 0.143D+00 0.308D+00 0.505D+00
 Gap=     0.237 Goal=   None    Shift=    0.000
 RMSDP=3.56D-05 MaxDP=1.77D-03 DE=-8.59D-04 OVMax= 2.91D-03

 Cycle   7  Pass 0  IDiag  1:
 RMSU=  2.24D-05    CP:  9.94D-01  7.17D-01  5.45D-01  7.05D-01  5.81D-01
                    CP:  5.62D-01
 E= -1714.03979787456     Delta-E=       -0.000088851221 Rises=F Damp=F
 DIIS: error= 1.29D-04 at cycle   7 NSaved=   7.
 NSaved= 7 IEnMin= 7 EnMin= -1714.03979787456     IErMin= 7 ErrMin= 1.29D-04
 ErrMax= 1.29D-04  0.00D+00 EMaxC= 1.00D-01 BMatC= 1.49D-05 BMatP= 1.14D-04
 IDIUse=3 WtCom= 9.99D-01 WtEn= 1.29D-03
 Coeff-Com: -0.872D-03 0.265D-03 0.120D-01 0.464D-01 0.132D+00 0.319D+00
 Coeff-Com:  0.491D+00
 Coeff-En:   0.000D+00 0.000D+00 0.000D+00 0.000D+00 0.000D+00 0.768D-01
 Coeff-En:   0.923D+00
 Coeff:     -0.871D-03 0.265D-03 0.120D-01 0.464D-01 0.132D+00 0.318D+00
 Coeff:      0.492D+00
 Gap=     0.237 Goal=   None    Shift=    0.000
 RMSDP=1.14D-05 MaxDP=4.96D-04 DE=-8.89D-05 OVMax= 7.91D-04

 Cycle   8  Pass 0  IDiag  1:
 RMSU=  5.31D-06    CP:  9.94D-01  7.17D-01  5.45D-01  7.05D-01  5.85D-01
                    CP:  6.18D-01  5.77D-01
 E= -1714.03981043484     Delta-E=       -0.000012560276 Rises=F Damp=F
 DIIS: error= 2.39D-05 at cycle   8 NSaved=   8.
 NSaved= 8 IEnMin= 8 EnMin= -1714.03981043484     IErMin= 8 ErrMin= 2.39D-05
 ErrMax= 2.39D-05  0.00D+00 EMaxC= 1.00D-01 BMatC= 6.20D-07 BMatP= 1.49D-05
 IDIUse=1 WtCom= 1.00D+00 WtEn= 0.00D+00
 Coeff-Com: -0.283D-03-0.215D-03 0.210D-02 0.975D-02 0.383D-01 0.113D+00
 Coeff-Com:  0.238D+00 0.599D+00
 Coeff:     -0.283D-03-0.215D-03 0.210D-02 0.975D-02 0.383D-01 0.113D+00
 Coeff:      0.238D+00 0.599D+00
 Gap=     0.237 Goal=   None    Shift=    0.000
 RMSDP=3.02D-06 MaxDP=1.55D-04 DE=-1.26D-05 OVMax= 1.59D-04

 Initial convergence to 1.0D-05 achieved.  Increase integral accuracy.
 Cycle   9  Pass 1  IDiag  1:
 E= -1714.03956406743     Delta-E=        0.000246367412 Rises=F Damp=F
 DIIS: error= 7.98D-05 at cycle   1 NSaved=   1.
 NSaved= 1 IEnMin= 1 EnMin= -1714.03956406743     IErMin= 1 ErrMin= 7.98D-05
 ErrMax= 7.98D-05  0.00D+00 EMaxC= 1.00D-01 BMatC= 8.97D-07 BMatP= 8.97D-07
 IDIUse=1 WtCom= 1.00D+00 WtEn= 0.00D+00
 Coeff-Com:  0.100D+01
 Coeff:      0.100D+01
 Gap=     0.237 Goal=   None    Shift=    0.000
 RMSDP=3.02D-06 MaxDP=1.55D-04 DE= 2.46D-04 OVMax= 2.91D-04

 Cycle  10  Pass 1  IDiag  1:
 RMSU=  2.71D-05    CP:  1.00D+00
 E= -1714.03956459040     Delta-E=       -0.000000522977 Rises=F Damp=F
 DIIS: error= 3.05D-05 at cycle   2 NSaved=   2.
 NSaved= 2 IEnMin= 2 EnMin= -1714.03956459040     IErMin= 2 ErrMin= 3.05D-05
 ErrMax= 3.05D-05  0.00D+00 EMaxC= 1.00D-01 BMatC= 5.38D-07 BMatP= 8.97D-07
 IDIUse=1 WtCom= 1.00D+00 WtEn= 0.00D+00
 Coeff-Com:  0.406D+00 0.594D+00
 Coeff:      0.406D+00 0.594D+00
 Gap=     0.237 Goal=   None    Shift=    0.000
 RMSDP=3.69D-06 MaxDP=1.15D-04 DE=-5.23D-07 OVMax= 2.85D-04

 Cycle  11  Pass 1  IDiag  1:
 RMSU=  3.69D-06    CP:  1.00D+00  9.95D-01
 E= -1714.03956473650     Delta-E=       -0.000000146093 Rises=F Damp=F
 DIIS: error= 2.44D-05 at cycle   3 NSaved=   3.
 NSaved= 3 IEnMin= 3 EnMin= -1714.03956473650     IErMin= 3 ErrMin= 2.44D-05
 ErrMax= 2.44D-05  0.00D+00 EMaxC= 1.00D-01 BMatC= 3.86D-07 BMatP= 5.38D-07
 IDIUse=1 WtCom= 1.00D+00 WtEn= 0.00D+00
 Coeff-Com: -0.296D-02 0.459D+00 0.544D+00
 Coeff:     -0.296D-02 0.459D+00 0.544D+00
 Gap=     0.237 Goal=   None    Shift=    0.000
 RMSDP=1.73D-06 MaxDP=7.45D-05 DE=-1.46D-07 OVMax= 1.17D-04

 Cycle  12  Pass 1  IDiag  1:
 RMSU=  5.37D-07    CP:  1.00D+00  1.01D+00  5.64D-01
 E= -1714.03956506102     Delta-E=       -0.000000324525 Rises=F Damp=F
 DIIS: error= 4.78D-06 at cycle   4 NSaved=   4.
 NSaved= 4 IEnMin= 4 EnMin= -1714.03956506102     IErMin= 4 ErrMin= 4.78D-06
 ErrMax= 4.78D-06  0.00D+00 EMaxC= 1.00D-01 BMatC= 1.14D-08 BMatP= 3.86D-07
 IDIUse=1 WtCom= 1.00D+00 WtEn= 0.00D+00
 Coeff-Com: -0.972D-02 0.274D+00 0.338D+00 0.398D+00
 Coeff:     -0.972D-02 0.274D+00 0.338D+00 0.398D+00
 Gap=     0.237 Goal=   None    Shift=    0.000
 RMSDP=3.28D-07 MaxDP=1.54D-05 DE=-3.25D-07 OVMax= 2.37D-05

 Cycle  13  Pass 1  IDiag  1:
 RMSU=  1.97D-07    CP:  1.00D+00  1.01D+00  5.61D-01  5.14D-01
 E= -1714.03956507027     Delta-E=       -0.000000009245 Rises=F Damp=F
 DIIS: error= 9.17D-07 at cycle   5 NSaved=   5.
 NSaved= 5 IEnMin= 5 EnMin= -1714.03956507027     IErMin= 5 ErrMin= 9.17D-07
 ErrMax= 9.17D-07  0.00D+00 EMaxC= 1.00D-01 BMatC= 5.31D-10 BMatP= 1.14D-08
 IDIUse=1 WtCom= 1.00D+00 WtEn= 0.00D+00
 Coeff-Com: -0.485D-02 0.108D+00 0.135D+00 0.224D+00 0.538D+00
 Coeff:     -0.485D-02 0.108D+00 0.135D+00 0.224D+00 0.538D+00
 Gap=     0.237 Goal=   None    Shift=    0.000
 RMSDP=8.05D-08 MaxDP=3.52D-06 DE=-9.25D-09 OVMax= 5.47D-06

 Cycle  14  Pass 1  IDiag  1:
 RMSU=  6.48D-08    CP:  1.00D+00  1.01D+00  5.63D-01  5.49D-01  7.81D-01
 E= -1714.03956507068     Delta-E=       -0.000000000413 Rises=F Damp=F
 DIIS: error= 2.62D-07 at cycle   6 NSaved=   6.
 NSaved= 6 IEnMin= 6 EnMin= -1714.03956507068     IErMin= 6 ErrMin= 2.62D-07
 ErrMax= 2.62D-07  0.00D+00 EMaxC= 1.00D-01 BMatC= 5.51D-11 BMatP= 5.31D-10
 IDIUse=1 WtCom= 1.00D+00 WtEn= 0.00D+00
 Coeff-Com: -0.139D-02 0.237D-01 0.304D-01 0.729D-01 0.294D+00 0.581D+00
 Coeff:     -0.139D-02 0.237D-01 0.304D-01 0.729D-01 0.294D+00 0.581D+00
 Gap=     0.237 Goal=   None    Shift=    0.000
 RMSDP=2.78D-08 MaxDP=1.43D-06 DE=-4.13D-10 OVMax= 1.92D-06

 Cycle  15  Pass 1  IDiag  1:
 RMSU=  2.06D-08    CP:  1.00D+00  1.01D+00  5.63D-01  5.57D-01  8.29D-01
                    CP:  7.64D-01
 E= -1714.03956507066     Delta-E=        0.000000000017 Rises=F Damp=F
 DIIS: error= 1.11D-07 at cycle   7 NSaved=   7.
 NSaved= 7 IEnMin= 6 EnMin= -1714.03956507068     IErMin= 7 ErrMin= 1.11D-07
 ErrMax= 1.11D-07  0.00D+00 EMaxC= 1.00D-01 BMatC= 1.10D-11 BMatP= 5.51D-11
 IDIUse=1 WtCom= 1.00D+00 WtEn= 0.00D+00
 Coeff-Com: -0.262D-03 0.668D-03 0.126D-02 0.162D-01 0.112D+00 0.360D+00
 Coeff-Com:  0.509D+00
 Coeff:     -0.262D-03 0.668D-03 0.126D-02 0.162D-01 0.112D+00 0.360D+00
 Coeff:      0.509D+00
 Gap=     0.237 Goal=   None    Shift=    0.000
 RMSDP=1.04D-08 MaxDP=5.03D-07 DE= 1.73D-11 OVMax= 5.98D-07

 Cycle  16  Pass 1  IDiag  1:
 RMSU=  6.52D-09    CP:  1.00D+00  1.01D+00  5.63D-01  5.60D-01  8.35D-01
                    CP:  7.86D-01  6.28D-01
 E= -1714.03956507072     Delta-E=       -0.000000000060 Rises=F Damp=F
 DIIS: error= 3.68D-08 at cycle   8 NSaved=   8.
 NSaved= 8 IEnMin= 8 EnMin= -1714.03956507072     IErMin= 8 ErrMin= 3.68D-08
 ErrMax= 3.68D-08  0.00D+00 EMaxC= 1.00D-01 BMatC= 8.85D-13 BMatP= 1.10D-11
 IDIUse=1 WtCom= 1.00D+00 WtEn= 0.00D+00
 Coeff-Com:  0.179D-04-0.233D-02-0.275D-02 0.574D-03 0.284D-01 0.129D+00
 Coeff-Com:  0.280D+00 0.567D+00
 Coeff:      0.179D-04-0.233D-02-0.275D-02 0.574D-03 0.284D-01 0.129D+00
 Coeff:      0.280D+00 0.567D+00
 Gap=     0.237 Goal=   None    Shift=    0.000
 RMSDP=3.31D-09 MaxDP=2.78D-07 DE=-5.96D-11 OVMax= 1.81D-07

 SCF Done:  E(RB3LYP) =  -1714.03956507     A.U. after   16 cycles
            NFock= 16  Conv=0.33D-08     -V/T= 2.0067
 KE= 1.702590185306D+03 PE=-8.509377405117D+03 EE= 2.850950765415D+03
 Leave Link  502 at Fri Oct  2 06:18:36 2020, MaxMem=  2147483648 cpu:       443.9
 (Enter /prod/apps/gaussian/g09d1/l601.exe)
 Copying SCF densities to generalized density rwf, IOpCl= 0 IROHF=0.

 **********************************************************************

            Population analysis using the SCF density.

 **********************************************************************

 Orbital symmetries:
       Occupied  (A) (A) (A) (A) (A) (A) (A) (A) (A) (A) (A) (A)
                 (A) (A) (A) (A) (A) (A) (A) (A) (A) (A) (A) (A)
                 (A) (A) (A) (A) (A) (A) (A) (A) (A) (A) (A) (A)
                 (A) (A) (A) (A) (A) (A) (A) (A) (A) (A) (A) (A)
                 (A) (A) (A) (A) (A) (A) (A) (A) (A) (A) (A) (A)
                 (A) (A) (A) (A) (A) (A) (A) (A) (A) (A) (A) (A)
                 (A) (A) (A) (A) (A) (A) (A) (A) (A) (A) (A) (A)
                 (A) (A) (A) (A)
       Virtual   (A) (A) (A) (A) (A) (A) (A) (A) (A) (A) (A) (A)
                 (A) (A) (A) (A) (A) (A) (A) (A) (A) (A) (A) (A)
                 (A) (A) (A) (A) (A) (A) (A) (A) (A) (A) (A) (A)
                 (A) (A) (A) (A) (A) (A) (A) (A) (A) (A) (A) (A)
                 (A) (A) (A) (A) (A) (A) (A) (A) (A) (A) (A) (A)
                 (A) (A) (A) (A) (A) (A) (A) (A) (A) (A) (A) (A)
                 (A) (A) (A) (A) (A) (A) (A) (A) (A) (A) (A) (A)
                 (A) (A) (A) (A) (A) (A) (A) (A) (A) (A) (A) (A)
                 (A) (A) (A) (A) (A) (A) (A) (A) (A) (A) (A) (A)
                 (A) (A) (A) (A) (A) (A) (A) (A) (A) (A) (A) (A)
                 (A) (A) (A) (A) (A) (A) (A) (A) (A) (A) (A) (A)
                 (A) (A) (A) (A) (A) (A) (A) (A) (A) (A) (A) (A)
                 (A) (A) (A) (A) (A) (A) (A) (A) (A) (A) (A) (A)
                 (A) (A) (A) (A) (A) (A) (A) (A) (A) (A) (A) (A)
                 (A) (A) (A) (A) (A) (A) (A) (A) (A) (A) (A) (A)
                 (A) (A) (A) (A) (A) (A) (A) (A) (A) (A) (A) (A)
                 (A) (A) (A) (A) (A) (A) (A) (A) (A) (A) (A) (A)
                 (A) (A) (A) (A) (A) (A) (A) (A) (A) (A) (A) (A)
                 (A) (A) (A) (A) (A) (A) (A) (A) (A) (A) (A) (A)
                 (A) (A) (A) (A) (A) (A) (A) (A) (A) (A) (A) (A)
                 (A) (A) (A) (A) (A) (A) (A) (A) (A) (A) (A) (A)
                 (A) (A) (A) (A) (A) (A) (A) (A) (A) (A) (A) (A)
                 (A) (A) (A) (A) (A) (A) (A) (A) (A) (A) (A)
 The electronic state is 1-A.
 Alpha  occ. eigenvalues --  -89.13840 -89.09101 -19.15773 -19.15475 -19.14588
 Alpha  occ. eigenvalues --  -19.14342 -14.38448 -14.37978 -10.28068 -10.23530
 Alpha  occ. eigenvalues --  -10.23472 -10.23317 -10.23134 -10.20716 -10.20571
 Alpha  occ. eigenvalues --  -10.20469 -10.20072 -10.20004 -10.19752 -10.19690
 Alpha  occ. eigenvalues --  -10.19540  -8.16095  -8.12155  -6.12566  -6.12514
 Alpha  occ. eigenvalues --   -6.12501  -6.08575  -6.08510  -6.08442  -1.13408
 Alpha  occ. eigenvalues --   -1.09852  -1.01866  -0.99513  -0.95411  -0.94683
 Alpha  occ. eigenvalues --   -0.86609  -0.85774  -0.80064  -0.75310  -0.74651
 Alpha  occ. eigenvalues --   -0.74049  -0.72957  -0.72047  -0.67759  -0.63715
 Alpha  occ. eigenvalues --   -0.61447  -0.60428  -0.59111  -0.57354  -0.55280
 Alpha  occ. eigenvalues --   -0.53152  -0.52226  -0.51745  -0.50644  -0.49357
 Alpha  occ. eigenvalues --   -0.48744  -0.47458  -0.47149  -0.46901  -0.45896
 Alpha  occ. eigenvalues --   -0.45337  -0.44718  -0.44119  -0.43123  -0.42933
 Alpha  occ. eigenvalues --   -0.42808  -0.42237  -0.42003  -0.40209  -0.40065
 Alpha  occ. eigenvalues --   -0.39741  -0.38634  -0.36846  -0.36357  -0.35379
 Alpha  occ. eigenvalues --   -0.34681  -0.34575  -0.33394  -0.33029  -0.32451
 Alpha  occ. eigenvalues --   -0.31615  -0.31430  -0.29855  -0.29273  -0.28497
 Alpha  occ. eigenvalues --   -0.26614  -0.25858  -0.25019
 Alpha virt. eigenvalues --   -0.01339  -0.01122   0.02792   0.04209   0.05000
 Alpha virt. eigenvalues --    0.05749   0.06403   0.07253   0.07774   0.08621
 Alpha virt. eigenvalues --    0.08975   0.09726   0.10231   0.10544   0.10786
 Alpha virt. eigenvalues --    0.12063   0.12746   0.13002   0.14142   0.14674
 Alpha virt. eigenvalues --    0.15034   0.15223   0.15782   0.16307   0.16924
 Alpha virt. eigenvalues --    0.17531   0.18025   0.18393   0.18701   0.18919
 Alpha virt. eigenvalues --    0.19418   0.19595   0.20616   0.21495   0.22796
 Alpha virt. eigenvalues --    0.23572   0.26521   0.27624   0.29584   0.30045
 Alpha virt. eigenvalues --    0.31431   0.32801   0.33995   0.34666   0.35167
 Alpha virt. eigenvalues --    0.35695   0.38178   0.41255   0.43329   0.45232
 Alpha virt. eigenvalues --    0.46023   0.47010   0.48366   0.49062   0.49129
 Alpha virt. eigenvalues --    0.50276   0.52766   0.52823   0.53488   0.53926
 Alpha virt. eigenvalues --    0.55567   0.56228   0.56736   0.57309   0.57875
 Alpha virt. eigenvalues --    0.58221   0.58910   0.59366   0.59903   0.60296
 Alpha virt. eigenvalues --    0.60721   0.61165   0.61556   0.62495   0.64070
 Alpha virt. eigenvalues --    0.64321   0.66090   0.66769   0.69510   0.70484
 Alpha virt. eigenvalues --    0.71520   0.72655   0.73829   0.75006   0.76225
 Alpha virt. eigenvalues --    0.76792   0.78359   0.78981   0.79956   0.80691
 Alpha virt. eigenvalues --    0.81544   0.81875   0.82416   0.83129   0.83374
 Alpha virt. eigenvalues --    0.83431   0.84206   0.85122   0.85487   0.85906
 Alpha virt. eigenvalues --    0.86302   0.86950   0.87817   0.88281   0.89091
 Alpha virt. eigenvalues --    0.89765   0.90720   0.90856   0.92020   0.92917
 Alpha virt. eigenvalues --    0.93147   0.93381   0.94524   0.95507   0.96466
 Alpha virt. eigenvalues --    0.97016   0.97546   0.98844   1.00184   1.00949
 Alpha virt. eigenvalues --    1.02321   1.03484   1.05486   1.06354   1.07191
 Alpha virt. eigenvalues --    1.08364   1.09431   1.09637   1.10396   1.11921
 Alpha virt. eigenvalues --    1.13859   1.14137   1.15326   1.15495   1.15901
 Alpha virt. eigenvalues --    1.16557   1.17218   1.18721   1.20241   1.21373
 Alpha virt. eigenvalues --    1.22179   1.23946   1.25550   1.26813   1.28174
 Alpha virt. eigenvalues --    1.31282   1.33178   1.35205   1.37176   1.41336
 Alpha virt. eigenvalues --    1.42365   1.43684   1.44439   1.45239   1.45920
 Alpha virt. eigenvalues --    1.47588   1.48052   1.49024   1.50185   1.51059
 Alpha virt. eigenvalues --    1.54587   1.58501   1.63077   1.63847   1.66822
 Alpha virt. eigenvalues --    1.70094   1.71898   1.72804   1.73927   1.75027
 Alpha virt. eigenvalues --    1.77113   1.77755   1.78592   1.78945   1.80200
 Alpha virt. eigenvalues --    1.80737   1.80802   1.81174   1.82001   1.82316
 Alpha virt. eigenvalues --    1.83801   1.86029   1.87577   1.88221   1.88829
 Alpha virt. eigenvalues --    1.89702   1.91209   1.91393   1.92379   1.93162
 Alpha virt. eigenvalues --    1.93923   1.94906   1.96196   1.96773   1.97616
 Alpha virt. eigenvalues --    1.99593   2.00621   2.03204   2.04328   2.04689
 Alpha virt. eigenvalues --    2.05874   2.06824   2.07190   2.09190   2.09736
 Alpha virt. eigenvalues --    2.12050   2.13114   2.13995   2.14526   2.15975
 Alpha virt. eigenvalues --    2.17126   2.18859   2.19444   2.19760   2.21489
 Alpha virt. eigenvalues --    2.24109   2.24291   2.26010   2.27669   2.28416
 Alpha virt. eigenvalues --    2.30052   2.30731   2.32214   2.32859   2.35003
 Alpha virt. eigenvalues --    2.36982   2.39621   2.40861   2.42367   2.42800
 Alpha virt. eigenvalues --    2.46797   2.46943   2.51752   2.52418   2.57321
 Alpha virt. eigenvalues --    2.57969   2.58986   2.64874   2.69080   2.70726
 Alpha virt. eigenvalues --    2.71740   2.72350   2.72640   2.72956   2.74417
 Alpha virt. eigenvalues --    2.76102   2.76993   2.78413   2.82757   2.83226
 Alpha virt. eigenvalues --    2.85386   2.88765   3.04571   3.40318   3.75691
 Alpha virt. eigenvalues --    3.80940   3.93328   3.95605   4.03226   4.03825
 Alpha virt. eigenvalues --    4.06951   4.08666   4.10594   4.13216   4.16279
 Alpha virt. eigenvalues --    4.21767   4.26532   4.29561   4.30911   4.33936
 Alpha virt. eigenvalues --    4.35002   4.42722   4.52090   4.69673   4.73718
          Condensed to atoms (all electrons):
               1          2          3          4          5          6
     1  C    5.007688   0.282053  -0.051837  -0.013557  -0.007200   0.001616
     2  N    0.282053   7.153021   0.277765   0.174403  -0.057477  -0.052642
     3  C   -0.051837   0.277765   5.017225  -0.011917   0.001691  -0.005029
     4  S   -0.013557   0.174403  -0.011917  13.550202   0.454585   0.399009
     5  O   -0.007200  -0.057477   0.001691   0.454585   8.217192  -0.038041
     6  O    0.001616  -0.052642  -0.005029   0.399009  -0.038041   8.290388
     7  N   -0.001055  -0.059535  -0.001132   0.118746  -0.055208  -0.053002
     8  C    0.000107   0.000479  -0.000030  -0.011617  -0.000077   0.008295
     9  C   -0.000005  -0.000114   0.000026   0.000077  -0.000077   0.000171
    10  S   -0.000002  -0.000022  -0.000114   0.000344   0.000004   0.000573
    11  O    0.000000   0.000000  -0.000014  -0.000036   0.000000   0.000000
    12  O    0.000000   0.000000   0.000000  -0.000002   0.000000   0.000000
    13  C   -0.000027   0.000921  -0.002929  -0.003511  -0.000031   0.004447
    14  C    0.000004  -0.000137  -0.000013  -0.000881   0.000795  -0.008378
    15  C    0.000000   0.000000   0.000000  -0.000421  -0.000055   0.000184
    16  C    0.000000  -0.000001   0.000000   0.000384  -0.000533  -0.000031
    17  C    0.000000   0.000000   0.000000   0.001633   0.001496  -0.000045
    18  C   -0.000001   0.000000   0.000000   0.000560   0.000385   0.000001
    19  C   -0.000001   0.000000   0.000000   0.000058  -0.000095   0.000000
    20  C    0.000000   0.000000   0.000000  -0.000107   0.000078   0.000000
    21  C   -0.000001   0.000001   0.000000  -0.000351  -0.000148   0.000000
    22  H    0.375544  -0.035339  -0.003860   0.002648   0.000137  -0.000050
    23  H    0.366906  -0.049118  -0.002407  -0.009071  -0.000097  -0.000037
    24  H    0.376798  -0.032875   0.004602   0.000102   0.010498   0.000044
    25  H   -0.004021  -0.034897   0.373347   0.002865  -0.000051   0.000123
    26  H    0.004707  -0.032350   0.376467  -0.002136   0.000024   0.010646
    27  H   -0.002166  -0.047511   0.364675  -0.010596  -0.000051  -0.000173
    28  H   -0.000131   0.000878   0.000072  -0.011142   0.004994   0.001286
    29  H    0.000000   0.000000   0.000000  -0.000038   0.000001   0.000000
    30  H   -0.000008  -0.000065  -0.000013   0.000061   0.000001   0.000004
    31  H   -0.000001   0.000028  -0.000049  -0.000334  -0.000001   0.000644
    32  H    0.000003  -0.001418   0.005078  -0.000739  -0.000011  -0.003153
    33  H    0.000000   0.000002   0.000000   0.000062  -0.000002  -0.000050
    34  H   -0.000002   0.000010   0.000003   0.004669  -0.000937   0.009713
    35  H    0.000000   0.000000   0.000000   0.000004   0.000000  -0.000002
    36  H    0.000000   0.000000   0.000000   0.000005   0.000000  -0.000001
    37  H    0.000000   0.000000   0.000000   0.000093   0.000036  -0.000009
    38  H    0.000000   0.000000   0.000000   0.000007  -0.000006   0.000000
    39  H    0.000000   0.000000   0.000000   0.000000  -0.000002   0.000000
    40  H    0.000000   0.000000   0.000000  -0.000001   0.000000   0.000000
    41  H    0.000000   0.000000   0.000000   0.000006   0.000000   0.000000
               7          8          9         10         11         12
     1  C   -0.001055   0.000107  -0.000005  -0.000002   0.000000   0.000000
     2  N   -0.059535   0.000479  -0.000114  -0.000022   0.000000   0.000000
     3  C   -0.001132  -0.000030   0.000026  -0.000114  -0.000014   0.000000
     4  S    0.118746  -0.011617   0.000077   0.000344  -0.000036  -0.000002
     5  O   -0.055208  -0.000077  -0.000077   0.000004   0.000000   0.000000
     6  O   -0.053002   0.008295   0.000171   0.000573   0.000000   0.000000
     7  N    7.401711   0.274871  -0.051964   0.004595  -0.000148  -0.000032
     8  C    0.274871   4.831265   0.333125  -0.095753   0.002700   0.000445
     9  C   -0.051964   0.333125   5.781952   0.109979  -0.045424  -0.045111
    10  S    0.004595  -0.095753   0.109979  13.904938   0.436024   0.408772
    11  O   -0.000148   0.002700  -0.045424   0.436024   8.205127  -0.044068
    12  O   -0.000032   0.000445  -0.045111   0.408772  -0.044068   8.247595
    13  C   -0.046645   0.350856  -0.184146   0.133005  -0.046373  -0.045308
    14  C   -0.066612   0.355412  -0.067934   0.009250  -0.000082  -0.002524
    15  C   -0.003818  -0.031997  -0.006901  -0.000886   0.000000  -0.000110
    16  C    0.000794  -0.004373  -0.000952   0.000026   0.000000   0.000000
    17  C   -0.000319  -0.000882  -0.000002   0.000002   0.000000   0.000000
    18  C    0.000046  -0.000008  -0.000001   0.000000   0.000000   0.000000
    19  C    0.000077   0.000000   0.000000   0.000000   0.000000   0.000000
    20  C   -0.000518  -0.000019   0.000005   0.000000   0.000000   0.000000
    21  C   -0.004340   0.002156   0.000363   0.000025   0.000000   0.000000
    22  H   -0.000087   0.000002   0.000000   0.000000   0.000000   0.000000
    23  H    0.007784  -0.000030   0.000001   0.000008   0.000000   0.000000
    24  H   -0.000620  -0.000001   0.000001   0.000000   0.000000   0.000000
    25  H   -0.000127  -0.000011  -0.000001   0.000001   0.000000   0.000000
    26  H   -0.000502   0.000006   0.000007  -0.000028   0.000000   0.000000
    27  H    0.007233   0.000097  -0.000015   0.000414   0.000052   0.000000
    28  H    0.283136  -0.028168  -0.004736   0.000007   0.000002   0.000001
    29  H    0.001240  -0.023675   0.339642  -0.009925   0.000662  -0.000151
    30  H    0.001202  -0.025276   0.323417   0.002350  -0.000279   0.001163
    31  H    0.001442  -0.025525   0.009678  -0.013202   0.000708  -0.000539
    32  H   -0.002266  -0.023890   0.003884  -0.003244   0.000833   0.001209
    33  H    0.005230  -0.031379  -0.001981   0.006186   0.000024   0.006676
    34  H   -0.006503  -0.030094   0.005301  -0.000172   0.000001   0.000089
    35  H   -0.000048  -0.007794   0.001390   0.000090   0.000001   0.000130
    36  H   -0.000118   0.004773   0.000206   0.000039   0.000000  -0.000006
    37  H   -0.000016   0.000086   0.000000   0.000000   0.000000   0.000000
    38  H   -0.000001   0.000000   0.000000   0.000000   0.000000   0.000000
    39  H    0.000000   0.000000   0.000000   0.000000   0.000000   0.000000
    40  H   -0.000005   0.000001  -0.000001   0.000000   0.000000   0.000000
    41  H    0.000026  -0.000221   0.000666   0.000034   0.000000   0.000000
              13         14         15         16         17         18
     1  C   -0.000027   0.000004   0.000000   0.000000   0.000000  -0.000001
     2  N    0.000921  -0.000137   0.000000  -0.000001   0.000000   0.000000
     3  C   -0.002929  -0.000013   0.000000   0.000000   0.000000   0.000000
     4  S   -0.003511  -0.000881  -0.000421   0.000384   0.001633   0.000560
     5  O   -0.000031   0.000795  -0.000055  -0.000533   0.001496   0.000385
     6  O    0.004447  -0.008378   0.000184  -0.000031  -0.000045   0.000001
     7  N   -0.046645  -0.066612  -0.003818   0.000794  -0.000319   0.000046
     8  C    0.350856   0.355412  -0.031997  -0.004373  -0.000882  -0.000008
     9  C   -0.184146  -0.067934  -0.006901  -0.000952  -0.000002  -0.000001
    10  S    0.133005   0.009250  -0.000886   0.000026   0.000002   0.000000
    11  O   -0.046373  -0.000082   0.000000   0.000000   0.000000   0.000000
    12  O   -0.045308  -0.002524  -0.000110   0.000000   0.000000   0.000000
    13  C    5.694303  -0.052948   0.004010   0.000090  -0.000005   0.000000
    14  C   -0.052948   5.195213   0.336263  -0.039380  -0.002002   0.000022
    15  C    0.004010   0.336263   5.182167   0.347645  -0.060484   0.006151
    16  C    0.000090  -0.039380   0.347645   4.678727   0.546438  -0.016568
    17  C   -0.000005  -0.002002  -0.060484   0.546438   4.934083   0.530227
    18  C    0.000000   0.000022   0.006151  -0.016568   0.530227   4.839676
    19  C    0.000000   0.000012   0.000356  -0.034903  -0.034231   0.546776
    20  C    0.000000  -0.000122   0.006983  -0.024978  -0.046075  -0.025591
    21  C   -0.000010  -0.002446  -0.054445   0.535398  -0.042325  -0.047053
    22  H    0.000001   0.000000   0.000000   0.000000   0.000000   0.000000
    23  H   -0.000045   0.000006   0.000000   0.000000   0.000000   0.000000
    24  H    0.000002  -0.000001   0.000000   0.000000  -0.000001   0.000001
    25  H    0.000147   0.000000   0.000000   0.000000   0.000000   0.000000
    26  H   -0.000735  -0.000005   0.000000   0.000000   0.000000   0.000000
    27  H   -0.002786   0.000029   0.000000   0.000000   0.000000   0.000000
    28  H    0.004454  -0.002083   0.000231   0.008211  -0.000441  -0.000635
    29  H    0.009433  -0.007220   0.002825  -0.000227   0.000004   0.000000
    30  H    0.002618   0.004979  -0.000064   0.000003   0.000003   0.000000
    31  H    0.349552  -0.004060   0.000194  -0.000004   0.000000   0.000000
    32  H    0.322901   0.004141  -0.000108   0.000001   0.000000   0.000000
    33  H   -0.006400   0.350450  -0.030517   0.004608   0.000034   0.000002
    34  H   -0.004287   0.359438  -0.032202  -0.005722   0.002479  -0.000062
    35  H   -0.000029  -0.037966   0.362102  -0.039125   0.004416  -0.000182
    36  H   -0.000138  -0.034072   0.362305  -0.030242  -0.005611   0.000076
    37  H    0.000000   0.000747  -0.008568  -0.048472   0.357457  -0.042272
    38  H    0.000000   0.000001  -0.000180   0.003730  -0.038036   0.357945
    39  H    0.000000   0.000000   0.000007   0.000734   0.004650  -0.041708
    40  H    0.000000   0.000001  -0.000178   0.003841   0.000812   0.004538
    41  H    0.000006   0.000223  -0.010494  -0.047582   0.006177   0.000355
              19         20         21         22         23         24
     1  C   -0.000001   0.000000  -0.000001   0.375544   0.366906   0.376798
     2  N    0.000000   0.000000   0.000001  -0.035339  -0.049118  -0.032875
     3  C    0.000000   0.000000   0.000000  -0.003860  -0.002407   0.004602
     4  S    0.000058  -0.000107  -0.000351   0.002648  -0.009071   0.000102
     5  O   -0.000095   0.000078  -0.000148   0.000137  -0.000097   0.010498
     6  O    0.000000   0.000000   0.000000  -0.000050  -0.000037   0.000044
     7  N    0.000077  -0.000518  -0.004340  -0.000087   0.007784  -0.000620
     8  C    0.000000  -0.000019   0.002156   0.000002  -0.000030  -0.000001
     9  C    0.000000   0.000005   0.000363   0.000000   0.000001   0.000001
    10  S    0.000000   0.000000   0.000025   0.000000   0.000008   0.000000
    11  O    0.000000   0.000000   0.000000   0.000000   0.000000   0.000000
    12  O    0.000000   0.000000   0.000000   0.000000   0.000000   0.000000
    13  C    0.000000   0.000000  -0.000010   0.000001  -0.000045   0.000002
    14  C    0.000012  -0.000122  -0.002446   0.000000   0.000006  -0.000001
    15  C    0.000356   0.006983  -0.054445   0.000000   0.000000   0.000000
    16  C   -0.034903  -0.024978   0.535398   0.000000   0.000000   0.000000
    17  C   -0.034231  -0.046075  -0.042325   0.000000   0.000000  -0.000001
    18  C    0.546776  -0.025591  -0.047053   0.000000   0.000000   0.000001
    19  C    4.850168   0.553400  -0.036249   0.000000   0.000000   0.000004
    20  C    0.553400   4.871763   0.514774   0.000000   0.000001   0.000002
    21  C   -0.036249   0.514774   5.015843   0.000000   0.000000   0.000000
    22  H    0.000000   0.000000   0.000000   0.544245  -0.039442  -0.020150
    23  H    0.000000   0.000001   0.000000  -0.039442   0.594583  -0.031225
    24  H    0.000004   0.000002   0.000000  -0.020150  -0.031225   0.485800
    25  H    0.000000   0.000000   0.000000   0.005531  -0.001549   0.000014
    26  H    0.000000   0.000000   0.000000   0.000007  -0.000207  -0.000193
    27  H    0.000000   0.000000   0.000000  -0.001553   0.009231  -0.000196
    28  H   -0.000183   0.001938   0.016866   0.000001   0.000031   0.000065
    29  H    0.000000   0.000004  -0.000091   0.000000   0.000000   0.000000
    30  H    0.000000  -0.000004  -0.000070   0.000000   0.000122  -0.000001
    31  H    0.000000   0.000000   0.000000   0.000000   0.000000   0.000000
    32  H    0.000000   0.000000   0.000000  -0.000002   0.000033  -0.000002
    33  H    0.000000   0.000002  -0.000085   0.000000   0.000000   0.000000
    34  H   -0.000001   0.000008   0.000066   0.000000   0.000001   0.000000
    35  H   -0.000004   0.000273  -0.004920   0.000000   0.000000   0.000000
    36  H    0.000025  -0.000223   0.003130   0.000000   0.000000   0.000000
    37  H    0.004856   0.000360   0.006068   0.000000   0.000000   0.000000
    38  H   -0.042907   0.004594   0.000852   0.000000   0.000000   0.000000
    39  H    0.359880  -0.043686   0.004773   0.000000   0.000000   0.000000
    40  H   -0.042117   0.357132  -0.040686   0.000000   0.000000   0.000000
    41  H    0.004801  -0.045289   0.354357   0.000000   0.000000   0.000000
              25         26         27         28         29         30
     1  C   -0.004021   0.004707  -0.002166  -0.000131   0.000000  -0.000008
     2  N   -0.034897  -0.032350  -0.047511   0.000878   0.000000  -0.000065
     3  C    0.373347   0.376467   0.364675   0.000072   0.000000  -0.000013
     4  S    0.002865  -0.002136  -0.010596  -0.011142  -0.000038   0.000061
     5  O   -0.000051   0.000024  -0.000051   0.004994   0.000001   0.000001
     6  O    0.000123   0.010646  -0.000173   0.001286   0.000000   0.000004
     7  N   -0.000127  -0.000502   0.007233   0.283136   0.001240   0.001202
     8  C   -0.000011   0.000006   0.000097  -0.028168  -0.023675  -0.025276
     9  C   -0.000001   0.000007  -0.000015  -0.004736   0.339642   0.323417
    10  S    0.000001  -0.000028   0.000414   0.000007  -0.009925   0.002350
    11  O    0.000000   0.000000   0.000052   0.000002   0.000662  -0.000279
    12  O    0.000000   0.000000   0.000000   0.000001  -0.000151   0.001163
    13  C    0.000147  -0.000735  -0.002786   0.004454   0.009433   0.002618
    14  C    0.000000  -0.000005   0.000029  -0.002083  -0.007220   0.004979
    15  C    0.000000   0.000000   0.000000   0.000231   0.002825  -0.000064
    16  C    0.000000   0.000000   0.000000   0.008211  -0.000227   0.000003
    17  C    0.000000   0.000000   0.000000  -0.000441   0.000004   0.000003
    18  C    0.000000   0.000000   0.000000  -0.000635   0.000000   0.000000
    19  C    0.000000   0.000000   0.000000  -0.000183   0.000000   0.000000
    20  C    0.000000   0.000000   0.000000   0.001938   0.000004  -0.000004
    21  C    0.000000   0.000000   0.000000   0.016866  -0.000091  -0.000070
    22  H    0.005531   0.000007  -0.001553   0.000001   0.000000   0.000000
    23  H   -0.001549  -0.000207   0.009231   0.000031   0.000000   0.000122
    24  H    0.000014  -0.000193  -0.000196   0.000065   0.000000  -0.000001
    25  H    0.541117  -0.020045  -0.038061   0.000003   0.000000  -0.000001
    26  H   -0.020045   0.492929  -0.034184  -0.000012   0.000000  -0.000005
    27  H   -0.038061  -0.034184   0.588419  -0.000015   0.000000   0.000241
    28  H    0.000003  -0.000012  -0.000015   0.357488   0.000338   0.000495
    29  H    0.000000   0.000000   0.000000   0.000338   0.492429  -0.020634
    30  H   -0.000001  -0.000005   0.000241   0.000495  -0.020634   0.499626
    31  H   -0.000001   0.000063   0.000019  -0.000096  -0.000262  -0.000267
    32  H   -0.000142   0.001411   0.005548   0.000078  -0.000276   0.000235
    33  H    0.000000   0.000000  -0.000001  -0.000018  -0.000387  -0.000087
    34  H    0.000000  -0.000003   0.000003  -0.000244   0.000173  -0.000107
    35  H    0.000000   0.000000   0.000000   0.000017   0.007061  -0.000084
    36  H    0.000000   0.000000   0.000000   0.000067  -0.000190   0.000001
    37  H    0.000000   0.000000   0.000000   0.000026   0.000000   0.000000
    38  H    0.000000   0.000000   0.000000  -0.000001   0.000000   0.000000
    39  H    0.000000   0.000000   0.000000  -0.000001   0.000000   0.000000
    40  H    0.000000   0.000000   0.000000   0.000026  -0.000001   0.000000
    41  H    0.000000   0.000000   0.000000   0.000182   0.001111   0.000095
              31         32         33         34         35         36
     1  C   -0.000001   0.000003   0.000000  -0.000002   0.000000   0.000000
     2  N    0.000028  -0.001418   0.000002   0.000010   0.000000   0.000000
     3  C   -0.000049   0.005078   0.000000   0.000003   0.000000   0.000000
     4  S   -0.000334  -0.000739   0.000062   0.004669   0.000004   0.000005
     5  O   -0.000001  -0.000011  -0.000002  -0.000937   0.000000   0.000000
     6  O    0.000644  -0.003153  -0.000050   0.009713  -0.000002  -0.000001
     7  N    0.001442  -0.002266   0.005230  -0.006503  -0.000048  -0.000118
     8  C   -0.025525  -0.023890  -0.031379  -0.030094  -0.007794   0.004773
     9  C    0.009678   0.003884  -0.001981   0.005301   0.001390   0.000206
    10  S   -0.013202  -0.003244   0.006186  -0.000172   0.000090   0.000039
    11  O    0.000708   0.000833   0.000024   0.000001   0.000001   0.000000
    12  O   -0.000539   0.001209   0.006676   0.000089   0.000130  -0.000006
    13  C    0.349552   0.322901  -0.006400  -0.004287  -0.000029  -0.000138
    14  C   -0.004060   0.004141   0.350450   0.359438  -0.037966  -0.034072
    15  C    0.000194  -0.000108  -0.030517  -0.032202   0.362102   0.362305
    16  C   -0.000004   0.000001   0.004608  -0.005722  -0.039125  -0.030242
    17  C    0.000000   0.000000   0.000034   0.002479   0.004416  -0.005611
    18  C    0.000000   0.000000   0.000002  -0.000062  -0.000182   0.000076
    19  C    0.000000   0.000000   0.000000  -0.000001  -0.000004   0.000025
    20  C    0.000000   0.000000   0.000002   0.000008   0.000273  -0.000223
    21  C    0.000000   0.000000  -0.000085   0.000066  -0.004920   0.003130
    22  H    0.000000  -0.000002   0.000000   0.000000   0.000000   0.000000
    23  H    0.000000   0.000033   0.000000   0.000001   0.000000   0.000000
    24  H    0.000000  -0.000002   0.000000   0.000000   0.000000   0.000000
    25  H   -0.000001  -0.000142   0.000000   0.000000   0.000000   0.000000
    26  H    0.000063   0.001411   0.000000  -0.000003   0.000000   0.000000
    27  H    0.000019   0.005548  -0.000001   0.000003   0.000000   0.000000
    28  H   -0.000096   0.000078  -0.000018  -0.000244   0.000017   0.000067
    29  H   -0.000262  -0.000276  -0.000387   0.000173   0.007061  -0.000190
    30  H   -0.000267   0.000235  -0.000087  -0.000107  -0.000084   0.000001
    31  H    0.472509  -0.018059   0.000158   0.002461   0.000013  -0.000015
    32  H   -0.018059   0.500839   0.000281  -0.000033  -0.000001   0.000002
    33  H    0.000158   0.000281   0.556889  -0.025788  -0.002772  -0.004328
    34  H    0.002461  -0.000033  -0.025788   0.531209   0.004752  -0.002934
    35  H    0.000013  -0.000001  -0.002772   0.004752   0.589519  -0.031632
    36  H   -0.000015   0.000002  -0.004328  -0.002934  -0.031632   0.570999
    37  H    0.000000   0.000000  -0.000083   0.001214   0.000053   0.003498
    38  H    0.000000   0.000000   0.000000   0.000002   0.000003  -0.000005
    39  H    0.000000   0.000000   0.000000   0.000000   0.000000   0.000000
    40  H    0.000000   0.000000   0.000000   0.000000  -0.000007   0.000003
    41  H    0.000000   0.000000  -0.000022   0.000004   0.005830   0.000075
              37         38         39         40         41
     1  C    0.000000   0.000000   0.000000   0.000000   0.000000
     2  N    0.000000   0.000000   0.000000   0.000000   0.000000
     3  C    0.000000   0.000000   0.000000   0.000000   0.000000
     4  S    0.000093   0.000007   0.000000  -0.000001   0.000006
     5  O    0.000036  -0.000006  -0.000002   0.000000   0.000000
     6  O   -0.000009   0.000000   0.000000   0.000000   0.000000
     7  N   -0.000016  -0.000001   0.000000  -0.000005   0.000026
     8  C    0.000086   0.000000   0.000000   0.000001  -0.000221
     9  C    0.000000   0.000000   0.000000  -0.000001   0.000666
    10  S    0.000000   0.000000   0.000000   0.000000   0.000034
    11  O    0.000000   0.000000   0.000000   0.000000   0.000000
    12  O    0.000000   0.000000   0.000000   0.000000   0.000000
    13  C    0.000000   0.000000   0.000000   0.000000   0.000006
    14  C    0.000747   0.000001   0.000000   0.000001   0.000223
    15  C   -0.008568  -0.000180   0.000007  -0.000178  -0.010494
    16  C   -0.048472   0.003730   0.000734   0.003841  -0.047582
    17  C    0.357457  -0.038036   0.004650   0.000812   0.006177
    18  C   -0.042272   0.357945  -0.041708   0.004538   0.000355
    19  C    0.004856  -0.042907   0.359880  -0.042117   0.004801
    20  C    0.000360   0.004594  -0.043686   0.357132  -0.045289
    21  C    0.006068   0.000852   0.004773  -0.040686   0.354357
    22  H    0.000000   0.000000   0.000000   0.000000   0.000000
    23  H    0.000000   0.000000   0.000000   0.000000   0.000000
    24  H    0.000000   0.000000   0.000000   0.000000   0.000000
    25  H    0.000000   0.000000   0.000000   0.000000   0.000000
    26  H    0.000000   0.000000   0.000000   0.000000   0.000000
    27  H    0.000000   0.000000   0.000000   0.000000   0.000000
    28  H    0.000026  -0.000001  -0.000001   0.000026   0.000182
    29  H    0.000000   0.000000   0.000000  -0.000001   0.001111
    30  H    0.000000   0.000000   0.000000   0.000000   0.000095
    31  H    0.000000   0.000000   0.000000   0.000000   0.000000
    32  H    0.000000   0.000000   0.000000   0.000000   0.000000
    33  H   -0.000083   0.000000   0.000000   0.000000  -0.000022
    34  H    0.001214   0.000002   0.000000   0.000000   0.000004
    35  H    0.000053   0.000003   0.000000  -0.000007   0.005830
    36  H    0.003498  -0.000005   0.000000   0.000003   0.000075
    37  H    0.596605  -0.005653  -0.000180   0.000018  -0.000180
    38  H   -0.005653   0.586337  -0.005436  -0.000186   0.000018
    39  H   -0.000180  -0.005436   0.592457  -0.005538  -0.000183
    40  H    0.000018  -0.000186  -0.005538   0.595218  -0.005580
    41  H   -0.000180   0.000018  -0.000183  -0.005580   0.613904
 Mulliken charges:
               1
     1  C   -0.335411
     2  N   -0.486061
     3  C   -0.341606
     4  S    1.365933
     5  O   -0.531820
     6  O   -0.566503
     7  N   -0.753516
     8  C    0.176144
     9  C   -0.500531
    10  S    1.106685
    11  O   -0.509711
    12  O   -0.528227
    13  C   -0.480393
    14  C   -0.288119
    15  C   -0.369997
    16  C    0.162465
    17  C   -0.159450
    18  C   -0.112679
    19  C   -0.129720
    20  C   -0.124703
    21  C   -0.221452
    22  H    0.172366
    23  H    0.154521
    24  H    0.207334
    25  H    0.175759
    26  H    0.204139
    27  H    0.161348
    28  H    0.367013
    29  H    0.208153
    30  H    0.210348
    31  H    0.224949
    32  H    0.206867
    33  H    0.173296
    34  H    0.187495
    35  H    0.148913
    36  H    0.164311
    37  H    0.134317
    38  H    0.138922
    39  H    0.134232
    40  H    0.132710
    41  H    0.121681
 Sum of Mulliken charges =   0.00000
 Mulliken charges with hydrogens summed into heavy atoms:
               1
     1  C    0.198809
     2  N   -0.486061
     3  C    0.199640
     4  S    1.365933
     5  O   -0.531820
     6  O   -0.566503
     7  N   -0.386503
     8  C    0.176144
     9  C   -0.082029
    10  S    1.106685
    11  O   -0.509711
    12  O   -0.528227
    13  C   -0.048577
    14  C    0.072672
    15  C   -0.056773
    16  C    0.162465
    17  C   -0.025133
    18  C    0.026243
    19  C    0.004512
    20  C    0.008006
    21  C   -0.099772
 Electronic spatial extent (au):  <R**2>=           6976.2668
 Charge=              0.0000 electrons
 Dipole moment (field-independent basis, Debye):
    X=             -3.6851    Y=              1.7067    Z=              2.5720  Tot=              4.8071
 Quadrupole moment (field-independent basis, Debye-Ang):
   XX=           -158.7568   YY=           -136.6190   ZZ=           -135.7038
   XY=             15.1452   XZ=             -6.3554   YZ=              7.0149
 Traceless Quadrupole moment (field-independent basis, Debye-Ang):
   XX=            -15.0636   YY=              7.0742   ZZ=              7.9894
   XY=             15.1452   XZ=             -6.3554   YZ=              7.0149
 Octapole moment (field-independent basis, Debye-Ang**2):
  XXX=           -112.8074  YYY=             70.7824  ZZZ=              3.1026  XYY=             11.6389
  XXY=             68.6539  XXZ=            -22.4769  XZZ=            -10.3248  YZZ=             -7.7316
  YYZ=             33.0038  XYZ=             -8.4149
 Hexadecapole moment (field-independent basis, Debye-Ang**3):
 XXXX=          -5268.2902 YYYY=          -3079.9264 ZZZZ=           -919.8212 XXXY=             95.5993
 XXXZ=           -130.5760 YYYX=             35.4271 YYYZ=             62.8024 ZZZX=             -6.1806
 ZZZY=              5.3423 XXYY=          -1511.3835 XXZZ=           -966.2418 YYZZ=           -671.4845
 XXYZ=             -8.9588 YYXZ=             23.2415 ZZXY=             -7.6820
 N-N= 2.241796889326D+03 E-N=-8.509377396918D+03  KE= 1.702590185306D+03
 No NMR shielding tensors so no spin-rotation constants.
 Leave Link  601 at Fri Oct  2 06:18:36 2020, MaxMem=  2147483648 cpu:         0.4
 (Enter /prod/apps/gaussian/g09d1/l9999.exe)
 1\1\GINC-PIRINEUS43\SP\RB3LYP\6-31G(d)\C13H20N2O4S2\UBAFAR01\02-Oct-20
 20\0\\#p b3lyp/6-31G(d)\\SM40.n.1.pdb.xyz\\0,1\C,0,2.917,-0.692,3.156\
 N,0,4.323,-1.064,3.351\C,0,4.519,-2.31,4.095\S,0,5.305,-0.85,2.015\O,0
 ,5.013,0.488,1.508\O,0,6.655,-1.25,2.414\N,0,4.779,-1.969,0.843\C,0,5.
 736,-2.936,0.272\C,0,4.935,-4.082,-0.435\S,0,5.949,-5.327,0.432\O,0,5.
 169,-6.312,1.196\O,0,7.066,-5.786,-0.414\C,0,6.388,-3.829,1.376\C,0,6.
 828,-2.322,-0.625\C,0,6.416,-1.819,-2.023\C,0,5.445,-0.66,-2.082\C,0,5
 .867,0.647,-1.808\C,0,4.979,1.716,-1.883\C,0,3.644,1.5,-2.233\C,0,3.20
 9,0.205,-2.511\C,0,4.106,-0.864,-2.44\H,0,2.462,-0.595,4.144\H,0,2.364
 ,-1.447,2.582\H,0,2.868,0.269,2.648\H,0,4.038,-2.192,5.068\H,0,5.584,-
 2.474,4.248\H,0,4.072,-3.175,3.587\H,0,4.273,-1.457,0.12\H,0,4.994,-4.
 14,-1.52\H,0,3.903,-4.141,-0.089\H,0,7.453,-3.691,1.547\H,0,5.838,-3.8
 34,2.316\H,0,7.595,-3.089,-0.771\H,0,7.295,-1.522,-0.046\H,0,6.006,-2.
 655,-2.602\H,0,7.344,-1.532,-2.531\H,0,6.903,0.828,-1.539\H,0,5.329,2.
 722,-1.67\H,0,2.953,2.334,-2.292\H,0,2.177,0.024,-2.794\H,0,3.766,-1.8
 66,-2.686\\Version=AM64L-G09RevD.01\State=1-A\HF=-1714.0395651\RMSD=3.
 314e-09\Dipole=-1.4376219,1.2234588,-0.11507\Quadrupole=8.2301944,-18.
 2364213,10.006227,1.7003754,-2.5675265,-3.287271\PG=C01 [X(C13H20N2O4S
 2)]\\@


 THERE IS AN OLD, OLD RECIPE IN MAINE FOR STEWING COOT. PLACE THE
 BIRD IN A KETTLE OF WATER WITH A RED BUILDING BRICK FREE OF MORTAR AND
[...]
     8  C    0.345472   0.353199  -0.032440  -0.004371  -0.000873  -0.000009
     9  C   -0.178421  -0.067901  -0.006784  -0.000920  -0.000002   0.000000
    10  S    0.136154   0.010328  -0.000896   0.000029   0.000001   0.000000
    11  O   -0.046632  -0.000083   0.000000   0.000000   0.000000   0.000000
    12  O   -0.045623  -0.002392  -0.000108   0.000000   0.000000   0.000000
    13  C    5.693790  -0.053271   0.004020   0.000091  -0.000005   0.000000
    14  C   -0.053271   5.189306   0.337157  -0.038939  -0.002093   0.000020
    15  C    0.004020   0.337157   5.181054   0.347625  -0.060668   0.006144
    16  C    0.000091  -0.038939   0.347625   4.685398   0.546548  -0.017699
    17  C   -0.000005  -0.002093  -0.060668   0.546548   4.943874   0.528621
    18  C    0.000000   0.000020   0.006144  -0.017699   0.528621   4.855889
    19  C    0.000000   0.000012   0.000337  -0.034687  -0.035304   0.545140
    20  C    0.000000  -0.000127   0.006935  -0.026040  -0.045831  -0.026579
    21  C   -0.000010  -0.002379  -0.054534   0.533632  -0.042512  -0.047101
    22  H    0.000001   0.000000   0.000000   0.000000   0.000000   0.000000
    23  H   -0.000044   0.000006   0.000000   0.000000   0.000000   0.000000
    24  H    0.000002  -0.000001   0.000000   0.000000  -0.000001   0.000001
    25  H    0.000143   0.000000   0.000000   0.000000   0.000000   0.000000
    26  H   -0.000762  -0.000006   0.000000   0.000000   0.000000   0.000000
    27  H   -0.002834   0.000028   0.000000   0.000000   0.000000   0.000000
    28  H    0.004401  -0.002029   0.000193   0.008485  -0.000429  -0.000638
    29  H    0.009127  -0.006827   0.003015  -0.000239   0.000004   0.000000
    30  H    0.002486   0.004790  -0.000060  -0.000002   0.000003   0.000000
    31  H    0.349793  -0.004024   0.000186  -0.000004   0.000000   0.000000
    32  H    0.323946   0.004110  -0.000105   0.000001   0.000000   0.000000
    33  H   -0.006540   0.351032  -0.030563   0.004571   0.000038   0.000002
    34  H   -0.004310   0.360092  -0.031980  -0.005600   0.002521  -0.000066
    35  H   -0.000029  -0.037693   0.363590  -0.038702   0.004337  -0.000179
    36  H   -0.000136  -0.033456   0.363456  -0.030070  -0.005470   0.000078
    37  H    0.000000   0.000729  -0.008437  -0.047843   0.358545  -0.042517
    38  H    0.000000   0.000001  -0.000178   0.003713  -0.038476   0.359095
    39  H    0.000000   0.000000   0.000007   0.000699   0.004606  -0.041728
    40  H    0.000000   0.000001  -0.000173   0.003761   0.000784   0.004479
    41  H    0.000005   0.000225  -0.010011  -0.047415   0.005982   0.000346
              19         20         21         22         23         24
     1  C   -0.000001   0.000000  -0.000001   0.377339   0.370321   0.376257
     2  N    0.000000   0.000000   0.000001  -0.034467  -0.048383  -0.033645
     3  C    0.000000   0.000000   0.000000  -0.003741  -0.002256   0.004565
     4  S    0.000058  -0.000114  -0.000341   0.002554  -0.008844   0.000096
     5  O   -0.000094   0.000077  -0.000144   0.000130  -0.000109   0.010093
     6  O    0.000000   0.000000   0.000000  -0.000049  -0.000038   0.000045
     7  N    0.000075  -0.000515  -0.004312  -0.000086   0.007541  -0.000650
     8  C    0.000000  -0.000021   0.002141   0.000002  -0.000025  -0.000002
     9  C    0.000000   0.000005   0.000405   0.000000   0.000002   0.000001
    10  S    0.000000   0.000000   0.000026   0.000000   0.000007   0.000000
    11  O    0.000000   0.000000   0.000000   0.000000   0.000000   0.000000
    12  O    0.000000   0.000000   0.000000   0.000000   0.000000   0.000000
    13  C    0.000000   0.000000  -0.000010   0.000001  -0.000044   0.000002
    14  C    0.000012  -0.000127  -0.002379   0.000000   0.000006  -0.000001
    15  C    0.000337   0.006935  -0.054534   0.000000   0.000000   0.000000
    16  C   -0.034687  -0.026040   0.533632   0.000000   0.000000   0.000000
    17  C   -0.035304  -0.045831  -0.042512   0.000000   0.000000  -0.000001
    18  C    0.545140  -0.026579  -0.047101   0.000000   0.000000   0.000001
    19  C    4.860626   0.551954  -0.037142   0.000000   0.000000   0.000004
    20  C    0.551954   4.876418   0.514254   0.000000   0.000001   0.000002
    21  C   -0.037142   0.514254   5.021401   0.000000   0.000000   0.000000
    22  H    0.000000   0.000000   0.000000   0.527213  -0.036899  -0.020220
    23  H    0.000000   0.000001   0.000000  -0.036899   0.577249  -0.030698
    24  H    0.000004   0.000002   0.000000  -0.020220  -0.030698   0.491994
    25  H    0.000000   0.000000   0.000000   0.005193  -0.001449   0.000018
    26  H    0.000000   0.000000   0.000000   0.000013  -0.000194  -0.000197
    27  H    0.000000   0.000000   0.000000  -0.001486   0.008789  -0.000188
    28  H   -0.000178   0.001936   0.016794   0.000000   0.000045   0.000060
    29  H    0.000000   0.000004  -0.000044   0.000000   0.000000   0.000000
    30  H    0.000000  -0.000003  -0.000063   0.000000   0.000115  -0.000001
    31  H    0.000000   0.000000   0.000000   0.000000   0.000000   0.000000
    32  H    0.000000   0.000000   0.000000  -0.000002   0.000032  -0.000002
    33  H    0.000000   0.000002  -0.000089   0.000000   0.000000   0.000000
    34  H   -0.000001   0.000009   0.000071   0.000000   0.000001   0.000000
    35  H   -0.000004   0.000278  -0.004584   0.000000   0.000000   0.000000
    36  H    0.000025  -0.000220   0.003088   0.000000   0.000000   0.000000
    37  H    0.004825   0.000316   0.006023   0.000000   0.000000   0.000000
    38  H   -0.042529   0.004555   0.000810   0.000000   0.000000   0.000000
    39  H    0.361481  -0.042770   0.004739   0.000000   0.000000   0.000000
    40  H   -0.041676   0.359224  -0.039441   0.000000   0.000000   0.000000
    41  H    0.004690  -0.043172   0.357406   0.000000   0.000000   0.000000
              25         26         27         28         29         30
     1  C   -0.003888   0.004639  -0.001863  -0.000139   0.000000  -0.000006
     2  N   -0.033965  -0.033036  -0.047271   0.000834   0.000000  -0.000065
     3  C    0.375725   0.375983   0.366031   0.000072   0.000000  -0.000009
     4  S    0.002808  -0.002131  -0.010477  -0.011165  -0.000037   0.000021
     5  O   -0.000049   0.000026  -0.000053   0.004719   0.000001   0.000001
     6  O    0.000117   0.010272  -0.000174   0.001254   0.000000   0.000004
     7  N   -0.000123  -0.000534   0.007151   0.283968   0.001148   0.001073
     8  C   -0.000010   0.000016   0.000085  -0.027947  -0.024189  -0.025064
     9  C   -0.000001   0.000007  -0.000005  -0.004696   0.342273   0.326456
    10  S    0.000001  -0.000031   0.000402  -0.000012  -0.010346   0.001862
    11  O    0.000000   0.000000   0.000048   0.000002   0.000644  -0.000364
    12  O    0.000000   0.000000   0.000000   0.000001  -0.000224   0.001128
    13  C    0.000143  -0.000762  -0.002834   0.004401   0.009127   0.002486
    14  C    0.000000  -0.000006   0.000028  -0.002029  -0.006827   0.004790
    15  C    0.000000   0.000000   0.000000   0.000193   0.003015  -0.000060
    16  C    0.000000   0.000000   0.000000   0.008485  -0.000239  -0.000002
    17  C    0.000000   0.000000   0.000000  -0.000429   0.000004   0.000003
    18  C    0.000000   0.000000   0.000000  -0.000638   0.000000   0.000000
    19  C    0.000000   0.000000   0.000000  -0.000178   0.000000   0.000000
    20  C    0.000000   0.000000   0.000000   0.001936   0.000004  -0.000003
    21  C    0.000000   0.000000   0.000000   0.016794  -0.000044  -0.000063
    22  H    0.005193   0.000013  -0.001486   0.000000   0.000000   0.000000
    23  H   -0.001449  -0.000194   0.008789   0.000045   0.000000   0.000115
    24  H    0.000018  -0.000197  -0.000188   0.000060   0.000000  -0.000001
    25  H    0.522413  -0.019821  -0.035926   0.000002   0.000000  -0.000001
    26  H   -0.019821   0.497125  -0.034258  -0.000012   0.000000  -0.000004
    27  H   -0.035926  -0.034258   0.581092  -0.000009   0.000000   0.000232
    28  H    0.000002  -0.000012  -0.000009   0.352050   0.000326   0.000477
    29  H    0.000000   0.000000   0.000000   0.000326   0.473873  -0.018271
    30  H   -0.000001  -0.000004   0.000232   0.000477  -0.018271   0.480795
    31  H   -0.000001   0.000055   0.000019  -0.000092  -0.000255  -0.000254
    32  H   -0.000150   0.001329   0.005820   0.000075  -0.000259   0.000231
    33  H    0.000000   0.000000  -0.000001  -0.000015  -0.000375  -0.000090
    34  H    0.000000  -0.000003   0.000003  -0.000241   0.000175  -0.000103
    35  H    0.000000   0.000000   0.000000   0.000015   0.007051  -0.000072
    36  H    0.000000   0.000000   0.000000   0.000066  -0.000189   0.000001
    37  H    0.000000   0.000000   0.000000   0.000025   0.000000   0.000000
    38  H    0.000000   0.000000   0.000000  -0.000001   0.000000   0.000000
    39  H    0.000000   0.000000   0.000000  -0.000001   0.000000   0.000000
    40  H    0.000000   0.000000   0.000000   0.000026  -0.000001   0.000000
    41  H    0.000000   0.000000   0.000000   0.000187   0.000987   0.000074
              31         32         33         34         35         36
     1  C    0.000000   0.000003   0.000000  -0.000002   0.000000   0.000000
     2  N    0.000027  -0.001464   0.000002   0.000009   0.000000   0.000000
     3  C   -0.000047   0.005509   0.000000   0.000004   0.000000   0.000000
     4  S   -0.000248  -0.000761   0.000064   0.004990   0.000007   0.000005
     5  O   -0.000001  -0.000010  -0.000002  -0.000936   0.000000   0.000000
     6  O    0.000695  -0.003079  -0.000051   0.009485  -0.000002  -0.000001
     7  N    0.001422  -0.002058   0.005262  -0.006627  -0.000052  -0.000117
     8  C   -0.025773  -0.023881  -0.032065  -0.031136  -0.007915   0.004759
     9  C    0.009449   0.003620  -0.002047   0.005305   0.001589   0.000200
    10  S   -0.012940  -0.003070   0.006105  -0.000241   0.000056   0.000038
    11  O    0.000700   0.000702   0.000022   0.000001   0.000001   0.000000
    12  O   -0.000607   0.001178   0.006281   0.000087   0.000127  -0.000006
    13  C    0.349793   0.323946  -0.006540  -0.004310  -0.000029  -0.000136
    14  C   -0.004024   0.004110   0.351032   0.360092  -0.037693  -0.033456
    15  C    0.000186  -0.000105  -0.030563  -0.031980   0.363590   0.363456
    16  C   -0.000004   0.000001   0.004571  -0.005600  -0.038702  -0.030070
    17  C    0.000000   0.000000   0.000038   0.002521   0.004337  -0.005470
    18  C    0.000000   0.000000   0.000002  -0.000066  -0.000179   0.000078
    19  C    0.000000   0.000000   0.000000  -0.000001  -0.000004   0.000025
    20  C    0.000000   0.000000   0.000002   0.000009   0.000278  -0.000220
    21  C    0.000000   0.000000  -0.000089   0.000071  -0.004584   0.003088
    22  H    0.000000  -0.000002   0.000000   0.000000   0.000000   0.000000
    23  H    0.000000   0.000032   0.000000   0.000001   0.000000   0.000000
    24  H    0.000000  -0.000002   0.000000   0.000000   0.000000   0.000000
    25  H   -0.000001  -0.000150   0.000000   0.000000   0.000000   0.000000
    26  H    0.000055   0.001329   0.000000  -0.000003   0.000000   0.000000
    27  H    0.000019   0.005820  -0.000001   0.000003   0.000000   0.000000
    28  H   -0.000092   0.000075  -0.000015  -0.000241   0.000015   0.000066
    29  H   -0.000255  -0.000259  -0.000375   0.000175   0.007051  -0.000189
    30  H   -0.000254   0.000231  -0.000090  -0.000103  -0.000072   0.000001
    31  H    0.464533  -0.016997   0.000199   0.002478   0.000013  -0.000015
    32  H   -0.016997   0.490582   0.000274  -0.000042  -0.000001   0.000002
    33  H    0.000199   0.000274   0.560077  -0.025840  -0.002702  -0.004414
    34  H    0.002478  -0.000042  -0.025840   0.533857   0.004706  -0.002970
    35  H    0.000013  -0.000001  -0.002702   0.004706   0.579642  -0.030817
    36  H   -0.000015   0.000002  -0.004414  -0.002970  -0.030817   0.561782
    37  H    0.000000   0.000000  -0.000084   0.001211   0.000050   0.003408
    38  H    0.000000   0.000000   0.000000   0.000002   0.000003  -0.000004
    39  H    0.000000   0.000000   0.000000   0.000000   0.000000   0.000000
    40  H    0.000000   0.000000   0.000000   0.000000  -0.000007   0.000003
    41  H    0.000000   0.000000  -0.000022   0.000004   0.005530   0.000080
              37         38         39         40         41
     1  C    0.000000   0.000000   0.000000   0.000000   0.000000
     2  N    0.000000   0.000000   0.000000   0.000000   0.000000
     3  C    0.000000   0.000000   0.000000   0.000000   0.000000
     4  S    0.000104   0.000007   0.000000  -0.000001   0.000006
     5  O    0.000034  -0.000005  -0.000002   0.000000   0.000000
     6  O   -0.000009   0.000000   0.000000   0.000000   0.000000
     7  N   -0.000017  -0.000001   0.000000  -0.000005   0.000024
     8  C    0.000087   0.000000   0.000000   0.000001  -0.000211
     9  C    0.000000   0.000000   0.000000  -0.000001   0.000592
    10  S    0.000000   0.000000   0.000000   0.000000   0.000029
    11  O    0.000000   0.000000   0.000000   0.000000   0.000000
    12  O    0.000000   0.000000   0.000000   0.000000   0.000000
    13  C    0.000000   0.000000   0.000000   0.000000   0.000005
    14  C    0.000729   0.000001   0.000000   0.000001   0.000225
    15  C   -0.008437  -0.000178   0.000007  -0.000173  -0.010011
    16  C   -0.047843   0.003713   0.000699   0.003761  -0.047415
    17  C    0.358545  -0.038476   0.004606   0.000784   0.005982
    18  C   -0.042517   0.359095  -0.041728   0.004479   0.000346
    19  C    0.004825  -0.042529   0.361481  -0.041676   0.004690
    20  C    0.000316   0.004555  -0.042770   0.359224  -0.043172
    21  C    0.006023   0.000810   0.004739  -0.039441   0.357406
    22  H    0.000000   0.000000   0.000000   0.000000   0.000000
    23  H    0.000000   0.000000   0.000000   0.000000   0.000000
    24  H    0.000000   0.000000   0.000000   0.000000   0.000000
    25  H    0.000000   0.000000   0.000000   0.000000   0.000000
    26  H    0.000000   0.000000   0.000000   0.000000   0.000000
    27  H    0.000000   0.000000   0.000000   0.000000   0.000000
    28  H    0.000025  -0.000001  -0.000001   0.000026   0.000187
    29  H    0.000000   0.000000   0.000000  -0.000001   0.000987
    30  H    0.000000   0.000000   0.000000   0.000000   0.000074
    31  H    0.000000   0.000000   0.000000   0.000000   0.000000
    32  H    0.000000   0.000000   0.000000   0.000000   0.000000
    33  H   -0.000084   0.000000   0.000000   0.000000  -0.000022
    34  H    0.001211   0.000002   0.000000   0.000000   0.000004
    35  H    0.000050   0.000003   0.000000  -0.000007   0.005530
    36  H    0.003408  -0.000004   0.000000   0.000003   0.000080
    37  H    0.590371  -0.005529  -0.000175   0.000017  -0.000173
    38  H   -0.005529   0.580657  -0.005308  -0.000180   0.000017
    39  H   -0.000175  -0.005308   0.581563  -0.005355  -0.000175
    40  H    0.000017  -0.000180  -0.005355   0.579937  -0.005328
    41  H   -0.000173   0.000017  -0.000175  -0.005328   0.594430
 Mulliken charges:
               1
     1  C   -0.338818
     2  N   -0.492260
     3  C   -0.343995
     4  S    1.358941
     5  O   -0.541472
     6  O   -0.576465
     7  N   -0.749663
     8  C    0.173001
     9  C   -0.502966
    10  S    1.101319
    11  O   -0.529444
    12  O   -0.547446
    13  C   -0.482671
    14  C   -0.284752
    15  C   -0.372737
    16  C    0.157443
    17  C   -0.166958
    18  C   -0.124331
    19  C   -0.137609
    20  C   -0.130574
    21  C   -0.228095
    22  H    0.184506
    23  H    0.164828
    24  H    0.202467
    25  H    0.188966
    26  H    0.201522
    27  H    0.164845
    28  H    0.371590
    29  H    0.222628
    30  H    0.224684
    31  H    0.231692
    32  H    0.214469
    33  H    0.170969
    34  H    0.185085
    35  H    0.155766
    36  H    0.170897
    37  H    0.139039
    38  H    0.143351
    39  H    0.142419
    40  H    0.143935
    41  H    0.135895
 Sum of Mulliken charges =   0.00000
 Mulliken charges with hydrogens summed into heavy atoms:
               1
     1  C    0.212982
     2  N   -0.492260
     3  C    0.211337
     4  S    1.358941
     5  O   -0.541472
     6  O   -0.576465
     7  N   -0.378074
     8  C    0.173001
     9  C   -0.055653
    10  S    1.101319
    11  O   -0.529444
    12  O   -0.547446
    13  C   -0.036511
    14  C    0.071302
    15  C   -0.046074
    16  C    0.157443
    17  C   -0.027919
    18  C    0.019020
    19  C    0.004810
    20  C    0.013361
    21  C   -0.092200
 Electronic spatial extent (au):  <R**2>=           6977.0517
 Charge=              0.0000 electrons
 Dipole moment (field-independent basis, Debye):
    X=             -3.9982    Y=              1.8696    Z=              3.2121  Tot=              5.4589
 Quadrupole moment (field-independent basis, Debye-Ang):
   XX=           -161.5723   YY=           -135.5684   ZZ=           -134.9947
   XY=             16.9972   XZ=             -7.1240   YZ=              7.7535
 Traceless Quadrupole moment (field-independent basis, Debye-Ang):
   XX=            -17.5272   YY=              8.4767   ZZ=              9.0504
   XY=             16.9972   XZ=             -7.1240   YZ=              7.7535
 Octapole moment (field-independent basis, Debye-Ang**2):
  XXX=           -124.9779  YYY=             76.5026  ZZZ=              6.4233  XYY=             11.1663
  XXY=             74.5951  XXZ=            -21.7151  XZZ=            -12.0306  YZZ=             -8.1381
  YYZ=             37.9710  XYZ=             -8.0781
 Hexadecapole moment (field-independent basis, Debye-Ang**3):
 XXXX=          -5324.8338 YYYY=          -3045.7707 ZZZZ=           -913.4355 XXXY=            119.5775
 XXXZ=           -147.8050 YYYX=             53.5886 YYYZ=             75.7615 ZZZX=            -10.5472
 ZZZY=              8.6374 XXYY=          -1521.0799 XXZZ=           -965.1262 YYZZ=           -664.9701
 XXYZ=             -9.1913 YYXZ=             24.3389 ZZXY=             -4.4895
 N-N= 2.241781366688D+03 E-N=-8.509532820012D+03  KE= 1.702604586418D+03
 No NMR shielding tensors so no spin-rotation constants.
 Leave Link  601 at Fri Oct  2 06:23:36 2020, MaxMem=  2147483648 cpu:         0.3
 (Enter /prod/apps/gaussian/g09d1/l9999.exe)
 1\1\GINC-PIRINEUS43\SP\RB3LYP\6-31G(d)\C13H20N2O4S2\UBAFAR01\02-Oct-20
 20\0\\#p b3lyp/6-31G(d) scrf=(iefpcm,read,solvent=n-Octanol) geom=allc
 heck guess=read\\SM40.n.1.pdb.xyz\\0,1\C,0,2.917,-0.692,3.156\N,0,4.32
 3,-1.064,3.351\C,0,4.519,-2.31,4.095\S,0,5.305,-0.85,2.015\O,0,5.013,0
 .488,1.508\O,0,6.655,-1.25,2.414\N,0,4.779,-1.969,0.843\C,0,5.736,-2.9
 36,0.272\C,0,4.935,-4.082,-0.435\S,0,5.949,-5.327,0.432\O,0,5.169,-6.3
 12,1.196\O,0,7.066,-5.786,-0.414\C,0,6.388,-3.829,1.376\C,0,6.828,-2.3
 22,-0.625\C,0,6.416,-1.819,-2.023\C,0,5.445,-0.66,-2.082\C,0,5.867,0.6
 47,-1.808\C,0,4.979,1.716,-1.883\C,0,3.644,1.5,-2.233\C,0,3.209,0.205,
 -2.511\C,0,4.106,-0.864,-2.44\H,0,2.462,-0.595,4.144\H,0,2.364,-1.447,
 2.582\H,0,2.868,0.269,2.648\H,0,4.038,-2.192,5.068\H,0,5.584,-2.474,4.
 248\H,0,4.072,-3.175,3.587\H,0,4.273,-1.457,0.12\H,0,4.994,-4.14,-1.52
 \H,0,3.903,-4.141,-0.089\H,0,7.453,-3.691,1.547\H,0,5.838,-3.834,2.316
 \H,0,7.595,-3.089,-0.771\H,0,7.295,-1.522,-0.046\H,0,6.006,-2.655,-2.6
 02\H,0,7.344,-1.532,-2.531\H,0,6.903,0.828,-1.539\H,0,5.329,2.722,-1.6
 7\H,0,2.953,2.334,-2.292\H,0,2.177,0.024,-2.794\H,0,3.766,-1.866,-2.68
 6\\Version=AM64L-G09RevD.01\State=1-A\HF=-1714.0662712\RMSD=3.845e-09\
 Dipole=-1.71819,1.2807261,-0.1417326\Quadrupole=9.2503972,-20.7566338,
 11.5062366,2.0097889,-2.9317705,-3.3679877\PG=C01 [X(C13H20N2O4S2)]\\@


 TO ERR IS HUMAN - AND TO BLAME IT ON A COMPUTER IS EVEN MORE SO.
 Job cpu time:       0 days  0 hours  5 minutes  0.0 seconds.
 File lengths (MBytes):  RWF=    211 Int=      0 D2E=      0 Chk=      7 Scr=      1
 Normal termination of Gaussian 09 at Fri Oct  2 06:23:36 2020.
