 Entering Gaussian System, Link 0=g09
 Initial command:
 /prod/apps/gaussian/g09d1/l1.exe "/tmp/ubafar01/1462893/Gau-190091.inp" -scrdir="/tmp/ubafar01/1462893/"
 Entering Link 1 = /prod/apps/gaussian/g09d1/l1.exe PID=    190092.
  
 Copyright (c) 1988,1990,1992,1993,1995,1998,2003,2009,2013,
            Gaussian, Inc.  All Rights Reserved.
  
 This is part of the Gaussian(R) 09 program.  It is based on
 the Gaussian(R) 03 system (copyright 2003, Gaussian, Inc.),
 the Gaussian(R) 98 system (copyright 1998, Gaussian, Inc.),
 the Gaussian(R) 94 system (copyright 1995, Gaussian, Inc.),
 the Gaussian 92(TM) system (copyright 1992, Gaussian, Inc.),
 the Gaussian 90(TM) system (copyright 1990, Gaussian, Inc.),
 the Gaussian 88(TM) system (copyright 1988, Gaussian, Inc.),
 the Gaussian 86(TM) system (copyright 1986, Carnegie Mellon
 University), and the Gaussian 82(TM) system (copyright 1983,
 Carnegie Mellon University). Gaussian is a federally registered
 trademark of Gaussian, Inc.
  
 This software contains proprietary and confidential information,
 including trade secrets, belonging to Gaussian, Inc.
  
 This software is provided under written license and may be
 used, copied, transmitted, or stored only in accord with that
 written license.
  
 The following legend is applicable only to US Government
 contracts under FAR:
  
                    RESTRICTED RIGHTS LEGEND
  
 Use, reproduction and disclosure by the US Government is
 subject to restrictions as set forth in subparagraphs (a)
 and (c) of the Commercial Computer Software - Restricted
 Rights clause in FAR 52.227-19.
  
 Gaussian, Inc.
 340 Quinnipiac St., Bldg. 40, Wallingford CT 06492
  
  
 ---------------------------------------------------------------
 Warning -- This program may not be used in any manner that
 competes with the business of Gaussian, Inc. or will provide
 assistance to any competitor of Gaussian, Inc.  The licensee
 of this program is prohibited from giving any competitor of
 Gaussian, Inc. access to this program.  By using this program,
 the user acknowledges that Gaussian, Inc. is engaged in the
 business of creating and licensing software in the field of
 computational chemistry and represents and warrants to the
 licensee that it is not a competitor of Gaussian, Inc. and that
 it will not use this program in any manner prohibited above.
 ---------------------------------------------------------------
  

 Cite this work as:
 Gaussian 09, Revision D.01,
 M. J. Frisch, G. W. Trucks, H. B. Schlegel, G. E. Scuseria, 
 M. A. Robb, J. R. Cheeseman, G. Scalmani, V. Barone, B. Mennucci, 
 G. A. Petersson, H. Nakatsuji, M. Caricato, X. Li, H. P. Hratchian, 
 A. F. Izmaylov, J. Bloino, G. Zheng, J. L. Sonnenberg, M. Hada, 
 M. Ehara, K. Toyota, R. Fukuda, J. Hasegawa, M. Ishida, T. Nakajima, 
 Y. Honda, O. Kitao, H. Nakai, T. Vreven, J. A. Montgomery, Jr., 
 J. E. Peralta, F. Ogliaro, M. Bearpark, J. J. Heyd, E. Brothers, 
 K. N. Kudin, V. N. Staroverov, T. Keith, R. Kobayashi, J. Normand, 
 K. Raghavachari, A. Rendell, J. C. Burant, S. S. Iyengar, J. Tomasi, 
 M. Cossi, N. Rega, J. M. Millam, M. Klene, J. E. Knox, J. B. Cross, 
 V. Bakken, C. Adamo, J. Jaramillo, R. Gomperts, R. E. Stratmann, 
 O. Yazyev, A. J. Austin, R. Cammi, C. Pomelli, J. W. Ochterski, 
 R. L. Martin, K. Morokuma, V. G. Zakrzewski, G. A. Voth, 
 P. Salvador, J. J. Dannenberg, S. Dapprich, A. D. Daniels, 
 O. Farkas, J. B. Foresman, J. V. Ortiz, J. Cioslowski, 
 and D. J. Fox, Gaussian, Inc., Wallingford CT, 2013.
 
 ******************************************
 Gaussian 09:  AM64L-G09RevD.01 24-Apr-2013
                 2-Oct-2020 
 ******************************************
 %nproc=1
 Will use up to    1 processors via shared memory.
 %Chk=SM40.n.28.pdb.xyz.mst.n.w.chk
 %mem=16GB
 -----------------
 #p b3lyp/6-31G(d)
 -----------------
 1/38=1/1;
 2/12=2,17=6,18=5,40=1/2;
 3/5=1,6=6,7=1,11=2,16=1,25=1,30=1,74=-5/1,2,3;
 4//1;
 5/5=2,38=5/2;
 6/7=2,8=2,9=2,10=2,28=1/1;
 99/5=1,9=1/99;
 Leave Link    1 at Fri Oct  2 01:29:20 2020, MaxMem=  2147483648 cpu:         0.0
 (Enter /prod/apps/gaussian/g09d1/l101.exe)
 -----------------
 SM40.n.28.pdb.xyz
 -----------------
 Symbolic Z-matrix:
 Charge =  0 Multiplicity = 1
 C                     3.307     0.46      2.116 
 N                     3.402    -0.394     0.918 
 C                     2.186    -0.372     0.088 
 S                     4.83     -0.198     0.049 
 O                     4.757     0.897    -0.931 
 O                     5.903    -0.173     1.053 
 N                     4.828    -1.598    -0.868 
 C                     5.455    -2.857    -0.393 
 C                     4.896    -3.994    -1.312 
 S                     3.746    -4.505     0.007 
 O                     2.372    -4.01     -0.221 
 O                     3.915    -5.908     0.435 
 C                     4.772    -3.32      0.935 
 C                     6.992    -2.759    -0.403 
 C                     7.793    -3.989     0.067 
 C                     7.9      -4.177     1.568 
 C                     7.56     -5.4       2.16 
 C                     7.691    -5.594     3.537 
 C                     8.167    -4.563     4.346 
 C                     8.511    -3.338     3.769 
 C                     8.378    -3.149     2.393 
 H                     2.464     0.094     2.703 
 H                     3.134     1.514     1.866 
 H                     4.219     0.366     2.702 
 H                     1.361    -0.72      0.712 
 H                     2.309    -1.059    -0.748 
 H                     1.957     0.633    -0.284 
 H                     5.114    -1.355    -1.819 
 H                     5.614    -4.789    -1.511 
 H                     4.403    -3.672    -2.229 
 H                     5.441    -3.854     1.61 
 H                     4.189    -2.562     1.455 
 H                     7.274    -1.889     0.195 
 H                     7.279    -2.534    -1.436 
 H                     8.805    -3.877    -0.342 
 H                     7.393    -4.906    -0.379 
 H                     7.184    -6.203     1.533 
 H                     7.419    -6.55      3.974 
 H                     8.27     -4.71      5.416 
 H                     8.883    -2.53      4.389 
 H                     8.649    -2.193     1.955 
 
 NAtoms=     41 NQM=       41 NQMF=       0 NMMI=      0 NMMIF=      0
                NMic=       0 NMicF=      0.
                    Isotopes and Nuclear Properties:
 (Nuclear quadrupole moments (NQMom) in fm**2, nuclear magnetic moments (NMagM)
  in nuclear magnetons)

  Atom         1           2           3           4           5           6           7           8           9          10
 IAtWgt=          12          14          12          32          16          16          14          12          12          32
 AtmWgt=  12.0000000  14.0030740  12.0000000  31.9720718  15.9949146  15.9949146  14.0030740  12.0000000  12.0000000  31.9720718
 NucSpn=           0           2           0           0           0           0           2           0           0           0
 AtZEff=   0.0000000   0.0000000   0.0000000   0.0000000   0.0000000   0.0000000   0.0000000   0.0000000   0.0000000   0.0000000
 NQMom=    0.0000000   2.0440000   0.0000000   0.0000000   0.0000000   0.0000000   2.0440000   0.0000000   0.0000000   0.0000000
 NMagM=    0.0000000   0.4037610   0.0000000   0.0000000   0.0000000   0.0000000   0.4037610   0.0000000   0.0000000   0.0000000
 AtZNuc=   6.0000000   7.0000000   6.0000000  16.0000000   8.0000000   8.0000000   7.0000000   6.0000000   6.0000000  16.0000000

  Atom        11          12          13          14          15          16          17          18          19          20
 IAtWgt=          16          16          12          12          12          12          12          12          12          12
 AtmWgt=  15.9949146  15.9949146  12.0000000  12.0000000  12.0000000  12.0000000  12.0000000  12.0000000  12.0000000  12.0000000
 NucSpn=           0           0           0           0           0           0           0           0           0           0
 AtZEff=   0.0000000   0.0000000   0.0000000   0.0000000   0.0000000   0.0000000   0.0000000   0.0000000   0.0000000   0.0000000
 NQMom=    0.0000000   0.0000000   0.0000000   0.0000000   0.0000000   0.0000000   0.0000000   0.0000000   0.0000000   0.0000000
 NMagM=    0.0000000   0.0000000   0.0000000   0.0000000   0.0000000   0.0000000   0.0000000   0.0000000   0.0000000   0.0000000
 AtZNuc=   8.0000000   8.0000000   6.0000000   6.0000000   6.0000000   6.0000000   6.0000000   6.0000000   6.0000000   6.0000000

  Atom        21          22          23          24          25          26          27          28          29          30
 IAtWgt=          12           1           1           1           1           1           1           1           1           1
 AtmWgt=  12.0000000   1.0078250   1.0078250   1.0078250   1.0078250   1.0078250   1.0078250   1.0078250   1.0078250   1.0078250
 NucSpn=           0           1           1           1           1           1           1           1           1           1
 AtZEff=   0.0000000   0.0000000   0.0000000   0.0000000   0.0000000   0.0000000   0.0000000   0.0000000   0.0000000   0.0000000
 NQMom=    0.0000000   0.0000000   0.0000000   0.0000000   0.0000000   0.0000000   0.0000000   0.0000000   0.0000000   0.0000000
 NMagM=    0.0000000   2.7928460   2.7928460   2.7928460   2.7928460   2.7928460   2.7928460   2.7928460   2.7928460   2.7928460
 AtZNuc=   6.0000000   1.0000000   1.0000000   1.0000000   1.0000000   1.0000000   1.0000000   1.0000000   1.0000000   1.0000000

  Atom        31          32          33          34          35          36          37          38          39          40
 IAtWgt=           1           1           1           1           1           1           1           1           1           1
 AtmWgt=   1.0078250   1.0078250   1.0078250   1.0078250   1.0078250   1.0078250   1.0078250   1.0078250   1.0078250   1.0078250
 NucSpn=           1           1           1           1           1           1           1           1           1           1
 AtZEff=   0.0000000   0.0000000   0.0000000   0.0000000   0.0000000   0.0000000   0.0000000   0.0000000   0.0000000   0.0000000
 NQMom=    0.0000000   0.0000000   0.0000000   0.0000000   0.0000000   0.0000000   0.0000000   0.0000000   0.0000000   0.0000000
 NMagM=    2.7928460   2.7928460   2.7928460   2.7928460   2.7928460   2.7928460   2.7928460   2.7928460   2.7928460   2.7928460
 AtZNuc=   1.0000000   1.0000000   1.0000000   1.0000000   1.0000000   1.0000000   1.0000000   1.0000000   1.0000000   1.0000000

  Atom        41
 IAtWgt=           1
 AtmWgt=   1.0078250
 NucSpn=           1
 AtZEff=   0.0000000
 NQMom=    0.0000000
 NMagM=    2.7928460
 AtZNuc=   1.0000000
 Leave Link  101 at Fri Oct  2 01:29:20 2020, MaxMem=  2147483648 cpu:         0.1
 (Enter /prod/apps/gaussian/g09d1/l202.exe)
                          Input orientation:                          
 ---------------------------------------------------------------------
 Center     Atomic      Atomic             Coordinates (Angstroms)
 Number     Number       Type             X           Y           Z
 ---------------------------------------------------------------------
      1          6           0        3.307000    0.460000    2.116000
      2          7           0        3.402000   -0.394000    0.918000
      3          6           0        2.186000   -0.372000    0.088000
      4         16           0        4.830000   -0.198000    0.049000
      5          8           0        4.757000    0.897000   -0.931000
      6          8           0        5.903000   -0.173000    1.053000
      7          7           0        4.828000   -1.598000   -0.868000
      8          6           0        5.455000   -2.857000   -0.393000
      9          6           0        4.896000   -3.994000   -1.312000
     10         16           0        3.746000   -4.505000    0.007000
     11          8           0        2.372000   -4.010000   -0.221000
     12          8           0        3.915000   -5.908000    0.435000
     13          6           0        4.772000   -3.320000    0.935000
     14          6           0        6.992000   -2.759000   -0.403000
     15          6           0        7.793000   -3.989000    0.067000
     16          6           0        7.900000   -4.177000    1.568000
     17          6           0        7.560000   -5.400000    2.160000
     18          6           0        7.691000   -5.594000    3.537000
     19          6           0        8.167000   -4.563000    4.346000
     20          6           0        8.511000   -3.338000    3.769000
     21          6           0        8.378000   -3.149000    2.393000
     22          1           0        2.464000    0.094000    2.703000
     23          1           0        3.134000    1.514000    1.866000
     24          1           0        4.219000    0.366000    2.702000
     25          1           0        1.361000   -0.720000    0.712000
     26          1           0        2.309000   -1.059000   -0.748000
     27          1           0        1.957000    0.633000   -0.284000
     28          1           0        5.114000   -1.355000   -1.819000
     29          1           0        5.614000   -4.789000   -1.511000
     30          1           0        4.403000   -3.672000   -2.229000
     31          1           0        5.441000   -3.854000    1.610000
     32          1           0        4.189000   -2.562000    1.455000
     33          1           0        7.274000   -1.889000    0.195000
     34          1           0        7.279000   -2.534000   -1.436000
     35          1           0        8.805000   -3.877000   -0.342000
     36          1           0        7.393000   -4.906000   -0.379000
     37          1           0        7.184000   -6.203000    1.533000
     38          1           0        7.419000   -6.550000    3.974000
     39          1           0        8.270000   -4.710000    5.416000
     40          1           0        8.883000   -2.530000    4.389000
     41          1           0        8.649000   -2.193000    1.955000
 ---------------------------------------------------------------------
                    Distance matrix (angstroms):
                    1          2          3          4          5
     1  C    0.000000
     2  N    1.474295   0.000000
     3  C    2.462042   1.472427   0.000000
     4  S    2.650468   1.683081   2.650006   0.000000
     5  O    3.402599   2.630876   3.042822   1.471310   0.000000
     6  O    2.875739   2.514372   3.845376   1.469684   2.528729
     7  N    3.931038   2.583193   3.065481   1.673587   2.496805
     8  C    4.680969   3.464087   4.134362   2.766997   3.856055
     9  C    5.840738   4.490538   4.735291   4.033149   4.907786
    10  S    5.412192   4.224758   4.418354   4.441517   5.575264
    11  O    5.129980   3.928572   3.655834   4.543788   5.501906
    12  O    6.614140   5.558836   5.810090   5.795716   6.991634
    13  C    4.222486   3.230892   4.011921   3.245804   4.611428
    14  C    5.503321   4.497373   5.388551   3.381903   4.317447
    15  C    6.642003   5.738389   6.672449   4.811587   5.838347
    16  C    6.549635   5.913171   7.022693   5.250210   6.470620
    17  C    7.240825   6.625071   7.645511   6.242598   7.554025
    18  C    7.608522   7.231506   8.334861   7.033369   8.408594
    19  C    7.336418   7.199790   8.453840   6.975170   8.323847
    20  C    6.651228   6.549597   7.896363   6.103094   7.356476
    21  C    6.230301   5.875902   7.166981   5.176006   6.366375
    22  H    1.090493   2.074660   2.670705   3.567483   4.371340
    23  H    1.096971   2.147322   2.759888   3.018087   3.292116
    24  H    1.088107   2.104221   3.392747   2.780256   3.710808
    25  H    2.674048   2.077112   1.091378   3.570156   4.104504
    26  H    3.392029   2.100578   1.089034   2.780642   3.138810
    27  H    2.759063   2.141859   1.095833   3.009249   2.885880
    28  H    4.695072   3.368328   3.629893   2.215565   2.446936
    29  H    6.784495   5.487168   5.815314   4.911775   5.779398
    30  H    6.095381   4.653052   4.601476   4.176157   4.762970
    31  H    4.839482   4.075290   5.003582   4.021987   5.431072
    32  H    3.216726   2.368114   3.267537   2.824219   4.240319
    33  H    4.994510   4.213091   5.310413   2.975556   3.919816
    34  H    6.112080   5.015181   5.738943   3.695906   4.288038
    35  H    7.421545   6.550672   7.502072   5.430336   6.286836
    36  H    7.191271   6.161853   6.920122   5.377492   6.397500
    37  H    7.730885   6.958896   7.814639   6.618429   7.897571
    38  H    8.336714   7.960638   8.980700   7.902939   9.306077
    39  H    7.889884   7.909316   9.177194   7.810021   9.168644
    40  H    6.722976   6.830205   8.246537   6.379705   7.554509
    41  H    5.966682   5.642941   6.969369   4.711435   5.746717
                    6          7          8          9         10
     6  O    0.000000
     7  N    2.622306   0.000000
     8  C    3.081473   1.484532   0.000000
     9  C    4.605140   2.437740   1.565187   0.000000
    10  S    4.951059   3.222887   2.407610   1.823015   0.000000
    11  O    5.367831   3.502612   3.296040   2.749748   1.478136
    12  O    6.101171   4.594288   3.516502   2.770878   1.476534
    13  C    3.346146   2.493838   1.563471   2.349183   1.821561
    14  C    3.161211   2.499408   1.540154   2.597060   3.708522
    15  C    4.371058   3.922031   2.638042   3.208469   4.080204
    16  C    4.503915   4.692816   3.400874   4.165562   4.449721
    17  C    5.593981   5.575645   4.173210   4.596577   4.470238
    18  C    6.225306   6.600667   5.285430   5.821067   5.404613
    19  C    5.936467   6.864834   5.720446   6.560196   6.194798
    20  C    4.918897   6.172022   5.185821   6.270177   6.182213
    21  C    4.096071   5.063815   4.048579   5.154161   5.383972
    22  H    3.823678   4.604715   5.219166   6.224676   5.482950
    23  H    3.342798   4.475370   5.440199   6.598666   6.329201
    24  H    2.417763   4.119839   4.636211   5.964908   5.586895
    25  H    4.587511   3.909907   4.748540   5.226077   4.528960
    26  H    4.116483   2.578814   3.640899   3.952833   3.809188
    27  H    4.243598   3.682534   4.942468   5.577063   5.448325
    28  H    3.204377   1.022373   2.098990   2.696089   3.889499
    29  H    5.288201   3.348690   2.237818   1.089564   2.423717
    30  H    5.026383   2.516828   2.267559   1.089781   2.474921
    31  H    3.751460   3.406727   2.237457   2.975686   2.422072
    32  H    2.967612   2.594985   2.259399   3.194802   2.463372
    33  H    2.358063   2.682828   2.142785   3.515247   4.396087
    34  H    3.696325   2.684422   2.125830   2.797439   4.295251
    35  H    4.907876   4.613789   3.502214   4.029252   5.109762
    36  H    5.164495   4.214405   2.820362   2.817311   3.689228
    37  H    6.183224   5.702768   4.230205   4.267159   4.126951
    38  H    7.176115   7.394630   6.047002   6.390654   5.780142
    39  H    6.724792   7.811566   6.715826   7.560590   7.054494
    40  H    5.056159   6.704304   5.892846   7.109210   7.035007
    41  H    3.526261   4.787838   4.019407   5.291682   5.760161
                   11         12         13         14         15
    11  O    0.000000
    12  O    2.532506   0.000000
    13  C    2.751806   2.771677   0.000000
    14  C    4.789836   4.481782   2.652049   0.000000
    15  C    5.428685   4.342450   3.213631   1.541234   0.000000
    16  C    5.812675   4.490019   3.304470   2.592302   1.516507
    17  C    5.875083   4.064445   3.687814   3.723771   2.534928
    18  C    6.702491   4.896854   4.523499   4.904021   3.824569
    19  C    7.399008   5.931648   4.970513   5.214215   4.333497
    20  C    7.352483   6.232469   4.691695   4.477520   3.826765
    21  C    6.606539   5.600376   3.893359   3.144950   2.541279
    22  H    5.039946   6.578239   4.484204   6.187861   7.212325
    23  H    5.954057   7.598935   5.188194   6.187977   7.431399
    24  H    5.577160   6.677932   4.124887   5.205399   6.219544
    25  H    3.566050   5.789213   4.294724   6.091708   7.243826
    26  H    2.998349   5.243236   3.743124   4.993948   6.270836
    27  H    4.661936   6.865523   5.003638   6.072154   7.452851
    28  H    4.137776   5.219955   3.400398   2.739189   4.203807
    29  H    3.575123   2.815258   2.974868   2.692108   2.806800
    30  H    2.875981   3.512084   3.204834   3.297084   4.106605
    31  H    3.577102   2.815709   1.090111   2.767091   2.816199
    32  H    2.864816   3.508731   1.088510   3.368647   4.117243
    33  H    5.357360   5.243362   2.975797   1.092716   2.166967
    34  H    5.266256   5.118693   3.538995   1.095483   2.154119
    35  H    6.435512   5.351709   4.266857   2.130872   1.097255
    36  H    5.102766   3.709863   3.333412   2.184259   1.095356
    37  H    5.571455   3.461068   3.806184   3.955515   2.724304
    38  H    7.037175   5.021424   5.164788   5.806216   4.686496
    39  H    8.188539   6.723956   5.852133   6.269007   5.418410
    40  H    8.113915   7.192081   5.427203   5.156703   4.690039
    41  H    6.887466   6.206640   4.164332   2.937034   2.742790
                   16         17         18         19         20
    16  C    0.000000
    17  C    1.400640   0.000000
    18  C    2.434857   1.396756   0.000000
    19  C    2.817369   2.418184   1.394280   0.000000
    20  C    2.433443   2.783007   2.411589   1.397101   0.000000
    21  C    1.402103   2.406328   2.785450   2.420357   1.395273
    22  H    7.005695   7.513195   7.769841   7.543958   7.034287
    23  H    7.429067   8.214579   8.607099   8.271120   7.488354
    24  H    5.956053   6.686015   6.947921   6.525679   5.768827
    25  H    7.445946   7.901057   8.473807   8.619527   8.204979
    26  H    6.807721   7.407682   8.239744   8.517219   8.003870
    27  H    7.866718   8.588587   9.287321   9.327348   8.668943
    28  H    5.215098   6.178785   7.300465   7.590738   6.833567
    29  H    3.883372   4.199581   5.517632   6.393226   6.194870
    30  H    5.186641   5.675910   6.910267   7.628381   7.277584
    31  H    2.480479   2.680070   3.435612   3.926761   3.788461
    32  H    4.048767   4.462612   5.078558   5.309083   4.963512
    33  H    2.740793   4.033626   5.006983   5.017821   4.050092
    34  H    3.479814   4.606966   5.853552   6.191681   5.408906
    35  H    2.134742   3.182697   4.385855   4.780689   4.156595
    36  H    2.139930   2.591997   3.987130   4.800245   4.573232
    37  H    2.149083   1.085962   2.154982   3.401302   3.868960
    38  H    3.413404   2.152435   1.085767   2.155471   3.398740
    39  H    3.902319   3.403195   2.155769   1.084951   2.157099
    40  H    3.411296   3.867256   3.396302   2.155828   1.084273
    41  H    2.155696   3.393051   3.871342   3.400898   2.149573
                   21         22         23         24         25
    21  C    0.000000
    22  H    6.751929   0.000000
    23  H    7.037104   1.779289   0.000000
    24  H    5.454172   1.775953   1.787184   0.000000
    25  H    7.613415   2.417289   3.076687   3.647967   0.000000
    26  H    7.146100   3.641818   3.759515   4.192997   1.773478
    27  H    7.918276   3.077294   2.604609   3.755546   1.782650
    28  H    5.622551   5.437884   5.072552   4.919584   4.571017
    29  H    5.056729   7.178021   7.568510   6.802163   6.291780
    30  H    6.118581   6.501315   6.728594   6.376054   5.159220
    31  H    3.120270   5.063979   5.848351   4.527046   5.222524
    32  H    4.332682   3.404037   4.230334   3.182624   3.455806
    33  H    2.763624   5.775678   5.613577   4.550066   6.049580
    34  H    4.030790   6.871821   6.668623   5.907338   6.551887
    35  H    2.862261   8.077694   8.130091   6.949848   8.154183
    36  H    3.426552   7.667709   8.024681   6.881920   7.422796
    37  H    3.390008   7.956099   8.721552   7.301339   8.040190
    38  H    3.871181   8.385118   9.371925   7.725868   9.018254
    39  H    3.403956   8.009271   8.815848   7.038620   9.261857
    40  H    2.149931   7.136633   7.467963   5.743316   8.566033
    41  H    1.085919   6.636573   6.645675   5.170241   7.538549
                   26         27         28         29         30
    26  H    0.000000
    27  H    1.789431   0.000000
    28  H    3.017065   4.034231   0.000000
    29  H    5.041636   6.654116   3.483851   0.000000
    30  H    3.661416   5.319677   2.458070   1.797146   0.000000
    31  H    4.814729   5.988210   4.255581   3.262636   3.981016
    32  H    3.262916   4.267783   3.609924   3.973325   3.853538
    33  H    5.121462   5.904271   3.001158   3.751804   4.159027
    34  H    5.229710   6.299260   2.494786   2.804082   3.193003
    35  H    7.092530   8.199913   4.708024   3.518634   4.793787
    36  H    6.386128   7.761420   4.458368   2.111860   3.726306
    37  H    7.445087   8.795107   6.246912   3.705433   5.319076
    38  H    8.863434   9.977951   8.115411   6.036917   7.473711
    39  H    9.319776  10.044482   8.576805   7.419158   8.630015
    40  H    8.471723   8.933699   7.356986   7.113328   8.072948
    41  H    6.984824   7.601464   5.238468   5.288062   6.141809
                   31         32         33         34         35
    31  H    0.000000
    32  H    1.805767   0.000000
    33  H    3.036995   3.399670   0.000000
    34  H    3.794570   4.231639   1.753913   0.000000
    35  H    3.889387   5.125026   2.566023   2.308498   0.000000
    36  H    2.978780   4.373043   3.073423   2.599352   1.747557
    37  H    2.926052   4.715187   4.517625   4.720757   3.399050
    38  H    4.095045   5.716853   6.002232   6.739136   5.262488
    39  H    4.818881   6.079308   6.017383   7.257201   5.842489
    40  H    4.617703   5.535613   4.537554   6.041809   4.919640
    41  H    3.628941   4.503083   2.254028   3.673154   2.852438
                   36         37         38         39         40
    36  H    0.000000
    37  H    2.319835   0.000000
    38  H    4.653173   2.476715   0.000000
    39  H    5.864262   4.299550   2.487803   0.000000
    40  H    5.531663   4.953208   4.298363   2.486543   0.000000
    41  H    3.792817   4.290036   4.957087   4.296214   2.468336
                   41
    41  H    0.000000
 Stoichiometry    C13H20N2O4S2
 Framework group  C1[X(C13H20N2O4S2)]
 Deg. of freedom   117
 Full point group                 C1      NOp   1
 Largest Abelian subgroup         C1      NOp   1
 Largest concise Abelian subgroup C1      NOp   1
                         Standard orientation:                         
 ---------------------------------------------------------------------
 Center     Atomic      Atomic             Coordinates (Angstroms)
 Number     Number       Type             X           Y           Z
 ---------------------------------------------------------------------
      1          6           0       -2.863572   -1.825483   -2.083181
      2          7           0       -2.709119   -0.747566   -1.089307
      3          6           0       -3.828463    0.209047   -1.087528
      4         16           0       -2.264312   -1.286653    0.441801
      5          8           0       -3.418144   -1.670037    1.270319
      6          8           0       -1.199358   -2.274610    0.218677
      7          7           0       -1.701473    0.136649    1.118792
      8          6           0       -0.282528    0.559078    1.009319
      9          6           0       -0.250952    2.077109    1.389314
     10         16           0       -0.133210    2.523808   -0.374199
     11          8           0       -1.429767    2.963499   -0.931423
     12          8           0        1.068836    3.312520   -0.710610
     13          6           0        0.106323    0.722192   -0.496214
     14          6           0        0.633787   -0.313196    1.887715
     15          6           0        2.143133   -0.001356    1.881876
     16          6           0        2.924610   -0.527402    0.693447
     17          6           0        3.746045    0.325578   -0.054524
     18          6           0        4.498215   -0.158033   -1.127504
     19          6           0        4.440250   -1.508505   -1.469385
     20          6           0        3.625943   -2.371180   -0.731424
     21          6           0        2.876183   -1.883185    0.339326
     22          1           0       -2.931958   -1.349825   -3.062082
     23          1           0       -3.768045   -2.423069   -1.915358
     24          1           0       -1.987241   -2.470016   -2.058741
     25          1           0       -3.882677    0.646753   -2.085817
     26          1           0       -3.624258    0.999850   -0.367164
     27          1           0       -4.784346   -0.272909   -0.853316
     28          1           0       -2.051643    0.192297    2.077713
     29          1           0        0.655696    2.378706    1.912934
     30          1           0       -1.139099    2.466667    1.886367
     31          1           0        1.152212    0.498048   -0.706493
     32          1           0       -0.563471    0.247126   -1.210735
     33          1           0        0.474975   -1.355800    1.601739
     34          1           0        0.263967   -0.211203    2.913831
     35          1           0        2.557260   -0.447442    2.794824
     36          1           0        2.316976    1.076232    1.973462
     37          1           0        3.789032    1.378892    0.206237
     38          1           0        5.126223    0.522467   -1.694439
     39          1           0        5.023025   -1.887735   -2.302257
     40          1           0        3.574347   -3.423301   -0.988382
     41          1           0        2.247142   -2.562755    0.906523
 ---------------------------------------------------------------------
 Rotational constants (GHZ):      0.3569737      0.2020413      0.1627726
 Leave Link  202 at Fri Oct  2 01:29:20 2020, MaxMem=  2147483648 cpu:         0.0
 (Enter /prod/apps/gaussian/g09d1/l301.exe)
 Standard basis: 6-31G(d) (6D, 7F)
 Ernie: Thresh=  0.10000D-02 Tol=  0.10000D-05 Strict=F.
 There are   363 symmetry adapted cartesian basis functions of A   symmetry.
 There are   363 symmetry adapted basis functions of A   symmetry.
   363 basis functions,   716 primitive gaussians,   363 cartesian basis functions
    88 alpha electrons       88 beta electrons
       nuclear repulsion energy      2228.7104777345 Hartrees.
 IExCor=  402 DFT=T Ex+Corr=B3LYP ExCW=0 ScaHFX=  0.200000
 ScaDFX=  0.800000  0.720000  1.000000  0.810000 ScalE2=  1.000000  1.000000
 IRadAn=      0 IRanWt=     -1 IRanGd=            0 ICorTp=0 IEmpDi=  4
 NAtoms=   41 NActive=   41 NUniq=   41 SFac= 1.00D+00 NAtFMM=   60 NAOKFM=F Big=F
 Integral buffers will be    131072 words long.
 Raffenetti 2 integral format.
 Two-electron integral symmetry is turned on.
 Leave Link  301 at Fri Oct  2 01:29:20 2020, MaxMem=  2147483648 cpu:         0.0
 (Enter /prod/apps/gaussian/g09d1/l302.exe)
 NPDir=0 NMtPBC=     1 NCelOv=     1 NCel=       1 NClECP=     1 NCelD=      1
         NCelK=      1 NCelE2=     1 NClLst=     1 CellRange=     0.0.
 One-electron integrals computed using PRISM.
 NBasis=   363 RedAO= T EigKep=  4.68D-04  NBF=   363
 NBsUse=   363 1.00D-06 EigRej= -1.00D+00 NBFU=   363
 Precomputing XC quadrature grid using
 IXCGrd= 4 IRadAn=           0 IRanWt=          -1 IRanGd=           0 AccXCQ= 0.00D+00.
 Generated NRdTot=       0 NPtTot=           0 NUsed=           0 NTot=          32
 NSgBfM=   359   359   359   359   360 MxSgAt=    41 MxSgA2=    41.
 Leave Link  302 at Fri Oct  2 01:29:22 2020, MaxMem=  2147483648 cpu:         1.3
 (Enter /prod/apps/gaussian/g09d1/l303.exe)
 DipDrv:  MaxL=1.
 Leave Link  303 at Fri Oct  2 01:29:22 2020, MaxMem=  2147483648 cpu:         0.0
 (Enter /prod/apps/gaussian/g09d1/l401.exe)
 ExpMin= 1.17D-01 ExpMax= 2.19D+04 ExpMxC= 3.30D+03 IAcc=1 IRadAn=         1 AccDes= 0.00D+00
 Harris functional with IExCor=  402 and IRadAn=       1 diagonalized for initial guess.
 HarFok:  IExCor=  402 AccDes= 0.00D+00 IRadAn=         1 IDoV= 1 UseB2=F ITyADJ=14
 ICtDFT=  3500011 ScaDFX=  1.000000  1.000000  1.000000  1.000000
 FoFCou: FMM=F IPFlag=           0 FMFlag=      100000 FMFlg1=           0
         NFxFlg=           0 DoJE=T BraDBF=F KetDBF=T FulRan=T
         wScrn=  0.000000 ICntrl=     500 IOpCl=  0 I1Cent=   200000004 NGrid=           0
         NMat0=    1 NMatS0=      1 NMatT0=    0 NMatD0=    1 NMtDS0=    0 NMtDT0=    0
 Petite list used in FoFCou.
 Harris En= -1714.14697187980    
 JPrj=0 DoOrth=F DoCkMO=F.
 Leave Link  401 at Fri Oct  2 01:29:27 2020, MaxMem=  2147483648 cpu:         5.1
 (Enter /prod/apps/gaussian/g09d1/l502.exe)
 Closed shell SCF:
 Using DIIS extrapolation, IDIIS=  1040.
 Integral symmetry usage will be decided dynamically.
 IVT=      418784 IEndB=      418784 NGot=  2147483648 MDV=  2147213637
 LenX=  2147213637 LenY=  2147081427
 Requested convergence on RMS density matrix=1.00D-08 within 128 cycles.
 Requested convergence on MAX density matrix=1.00D-06.
 Requested convergence on             energy=1.00D-06.
 No special actions if energy rises.
 Fock matrices will be formed incrementally for  20 cycles.
 Integral accuracy reduced to 1.0D-05 until final iterations.

 Cycle   1  Pass 0  IDiag  1:
 FoFJK:  IHMeth= 1 ICntrl=       0 DoSepK=F KAlg= 0 I1Cent=   0 FoldK=F
 IRaf= 790000000 NMat=   1 IRICut=       1 DoRegI=T DoRafI=F ISym2E= 0.
 FoFCou: FMM=F IPFlag=           0 FMFlag=      100000 FMFlg1=           0
         NFxFlg=           0 DoJE=F BraDBF=F KetDBF=F FulRan=T
         wScrn=  0.000000 ICntrl=       0 IOpCl=  0 I1Cent=           0 NGrid=           0
         NMat0=    1 NMatS0=      1 NMatT0=    0 NMatD0=    1 NMtDS0=    0 NMtDT0=    0
 Symmetry not used in FoFCou.
 E= -1713.19653326563    
 DIIS: error= 3.03D-02 at cycle   1 NSaved=   1.
 NSaved= 1 IEnMin= 1 EnMin= -1713.19653326563     IErMin= 1 ErrMin= 3.03D-02
 ErrMax= 3.03D-02  0.00D+00 EMaxC= 1.00D-01 BMatC= 9.93D-01 BMatP= 9.93D-01
 IDIUse=3 WtCom= 6.97D-01 WtEn= 3.03D-01
 Coeff-Com:  0.100D+01
 Coeff-En:   0.100D+01
 Coeff:      0.100D+01
 Gap=     0.353 Goal=   None    Shift=    0.000
 GapD=    0.353 DampG=1.000 DampE=0.500 DampFc=0.5000 IDamp=-1.
 Damping current iteration by 5.00D-01
 RMSDP=7.06D-03 MaxDP=6.03D-01              OVMax= 2.47D-01

 Cycle   2  Pass 0  IDiag  1:
 RMSU=  3.53D-03    CP:  9.99D-01
 E= -1713.36869823280     Delta-E=       -0.172164967175 Rises=F Damp=T
 DIIS: error= 1.47D-02 at cycle   2 NSaved=   2.
 NSaved= 2 IEnMin= 2 EnMin= -1713.36869823280     IErMin= 2 ErrMin= 1.47D-02
 ErrMax= 1.47D-02  0.00D+00 EMaxC= 1.00D-01 BMatC= 1.74D-01 BMatP= 9.93D-01
 IDIUse=3 WtCom= 8.53D-01 WtEn= 1.47D-01
 Coeff-Com:  0.253D+00 0.747D+00
 Coeff-En:   0.399D+00 0.601D+00
 Coeff:      0.274D+00 0.726D+00
 Gap=     0.294 Goal=   None    Shift=    0.000
 RMSDP=2.10D-03 MaxDP=1.30D-01 DE=-1.72D-01 OVMax= 2.07D-01

 Cycle   3  Pass 0  IDiag  1:
 RMSU=  1.65D-03    CP:  9.90D-01  6.38D-01
 E= -1713.94369592209     Delta-E=       -0.574997689285 Rises=F Damp=F
 DIIS: error= 1.03D-02 at cycle   3 NSaved=   3.
 NSaved= 3 IEnMin= 3 EnMin= -1713.94369592209     IErMin= 3 ErrMin= 1.03D-02
 ErrMax= 1.03D-02  0.00D+00 EMaxC= 1.00D-01 BMatC= 1.04D-01 BMatP= 1.74D-01
 IDIUse=3 WtCom= 8.97D-01 WtEn= 1.03D-01
 Coeff-Com:  0.104D+00 0.443D+00 0.453D+00
 Coeff-En:   0.000D+00 0.000D+00 0.100D+01
 Coeff:      0.932D-01 0.397D+00 0.510D+00
 Gap=     0.241 Goal=   None    Shift=    0.000
 RMSDP=1.31D-03 MaxDP=4.48D-02 DE=-5.75D-01 OVMax= 8.18D-02

 Cycle   4  Pass 0  IDiag  1:
 RMSU=  7.62D-04    CP:  9.95D-01  7.22D-01  3.85D-01
 E= -1714.02705854715     Delta-E=       -0.083362625056 Rises=F Damp=F
 DIIS: error= 3.36D-03 at cycle   4 NSaved=   4.
 NSaved= 4 IEnMin= 4 EnMin= -1714.02705854715     IErMin= 4 ErrMin= 3.36D-03
 ErrMax= 3.36D-03  0.00D+00 EMaxC= 1.00D-01 BMatC= 1.44D-02 BMatP= 1.04D-01
 IDIUse=3 WtCom= 9.66D-01 WtEn= 3.36D-02
 Coeff-Com:  0.110D-01 0.787D-01 0.283D+00 0.627D+00
 Coeff-En:   0.000D+00 0.000D+00 0.124D+00 0.876D+00
 Coeff:      0.106D-01 0.761D-01 0.278D+00 0.635D+00
 Gap=     0.238 Goal=   None    Shift=    0.000
 RMSDP=4.14D-04 MaxDP=1.78D-02 DE=-8.34D-02 OVMax= 2.24D-02

 Cycle   5  Pass 0  IDiag  1:
 RMSU=  1.74D-04    CP:  9.95D-01  7.07D-01  5.40D-01  6.48D-01
 E= -1714.03901803658     Delta-E=       -0.011959489439 Rises=F Damp=F
 DIIS: error= 9.54D-04 at cycle   5 NSaved=   5.
 NSaved= 5 IEnMin= 5 EnMin= -1714.03901803658     IErMin= 5 ErrMin= 9.54D-04
 ErrMax= 9.54D-04  0.00D+00 EMaxC= 1.00D-01 BMatC= 1.00D-03 BMatP= 1.44D-02
 IDIUse=3 WtCom= 9.90D-01 WtEn= 9.54D-03
 Coeff-Com: -0.615D-03 0.168D-01 0.119D+00 0.341D+00 0.524D+00
 Coeff-En:   0.000D+00 0.000D+00 0.000D+00 0.000D+00 0.100D+01
 Coeff:     -0.609D-03 0.166D-01 0.117D+00 0.338D+00 0.529D+00
 Gap=     0.238 Goal=   None    Shift=    0.000
 RMSDP=1.09D-04 MaxDP=6.86D-03 DE=-1.20D-02 OVMax= 5.56D-03

 Cycle   6  Pass 0  IDiag  1:
 RMSU=  5.91D-05    CP:  9.94D-01  7.09D-01  5.33D-01  7.03D-01  5.42D-01
 E= -1714.03979066348     Delta-E=       -0.000772626898 Rises=F Damp=F
 DIIS: error= 5.26D-04 at cycle   6 NSaved=   6.
 NSaved= 6 IEnMin= 6 EnMin= -1714.03979066348     IErMin= 6 ErrMin= 5.26D-04
 ErrMax= 5.26D-04  0.00D+00 EMaxC= 1.00D-01 BMatC= 1.44D-04 BMatP= 1.00D-03
 IDIUse=3 WtCom= 9.95D-01 WtEn= 5.26D-03
 Coeff-Com: -0.127D-02 0.357D-02 0.463D-01 0.147D+00 0.326D+00 0.478D+00
 Coeff-En:   0.000D+00 0.000D+00 0.000D+00 0.000D+00 0.676D-01 0.932D+00
 Coeff:     -0.127D-02 0.355D-02 0.461D-01 0.146D+00 0.325D+00 0.480D+00
 Gap=     0.238 Goal=   None    Shift=    0.000
 RMSDP=3.87D-05 MaxDP=2.01D-03 DE=-7.73D-04 OVMax= 3.13D-03

 Cycle   7  Pass 0  IDiag  1:
 RMSU=  2.49D-05    CP:  9.94D-01  7.09D-01  5.34D-01  7.03D-01  6.03D-01
                    CP:  5.32D-01
 E= -1714.03988953193     Delta-E=       -0.000098868444 Rises=F Damp=F
 DIIS: error= 2.01D-04 at cycle   7 NSaved=   7.
 NSaved= 7 IEnMin= 7 EnMin= -1714.03988953193     IErMin= 7 ErrMin= 2.01D-04
 ErrMax= 2.01D-04  0.00D+00 EMaxC= 1.00D-01 BMatC= 2.10D-05 BMatP= 1.44D-04
 IDIUse=3 WtCom= 9.98D-01 WtEn= 2.01D-03
 Coeff-Com: -0.766D-03-0.961D-04 0.133D-01 0.469D-01 0.142D+00 0.319D+00
 Coeff-Com:  0.481D+00
 Coeff-En:   0.000D+00 0.000D+00 0.000D+00 0.000D+00 0.000D+00 0.117D+00
 Coeff-En:   0.883D+00
 Coeff:     -0.764D-03-0.959D-04 0.133D-01 0.468D-01 0.141D+00 0.318D+00
 Coeff:      0.481D+00
 Gap=     0.238 Goal=   None    Shift=    0.000
 RMSDP=1.30D-05 MaxDP=6.37D-04 DE=-9.89D-05 OVMax= 1.01D-03

 Cycle   8  Pass 0  IDiag  1:
 RMSU=  6.13D-06    CP:  9.94D-01  7.09D-01  5.34D-01  7.03D-01  6.06D-01
                    CP:  6.04D-01  5.73D-01
 E= -1714.03990645484     Delta-E=       -0.000016922910 Rises=F Damp=F
 DIIS: error= 3.71D-05 at cycle   8 NSaved=   8.
 NSaved= 8 IEnMin= 8 EnMin= -1714.03990645484     IErMin= 8 ErrMin= 3.71D-05
 ErrMax= 3.71D-05  0.00D+00 EMaxC= 1.00D-01 BMatC= 6.55D-07 BMatP= 2.10D-05
 IDIUse=1 WtCom= 1.00D+00 WtEn= 0.00D+00
 Coeff-Com: -0.245D-03-0.331D-03 0.190D-02 0.821D-02 0.377D-01 0.106D+00
 Coeff-Com:  0.221D+00 0.625D+00
 Coeff:     -0.245D-03-0.331D-03 0.190D-02 0.821D-02 0.377D-01 0.106D+00
 Coeff:      0.221D+00 0.625D+00
 Gap=     0.238 Goal=   None    Shift=    0.000
 RMSDP=3.19D-06 MaxDP=1.61D-04 DE=-1.69D-05 OVMax= 2.43D-04

 Initial convergence to 1.0D-05 achieved.  Increase integral accuracy.
 Cycle   9  Pass 1  IDiag  1:
 E= -1714.04000569852     Delta-E=       -0.000099243684 Rises=F Damp=F
 DIIS: error= 5.57D-05 at cycle   1 NSaved=   1.
 NSaved= 1 IEnMin= 1 EnMin= -1714.04000569852     IErMin= 1 ErrMin= 5.57D-05
 ErrMax= 5.57D-05  0.00D+00 EMaxC= 1.00D-01 BMatC= 8.08D-07 BMatP= 8.08D-07
 IDIUse=1 WtCom= 1.00D+00 WtEn= 0.00D+00
 Coeff-Com:  0.100D+01
 Coeff:      0.100D+01
 Gap=     0.238 Goal=   None    Shift=    0.000
 RMSDP=3.19D-06 MaxDP=1.61D-04 DE=-9.92D-05 OVMax= 3.29D-04

 Cycle  10  Pass 1  IDiag  1:
 RMSU=  2.30D-05    CP:  1.00D+00
 E= -1714.04000603159     Delta-E=       -0.000000333068 Rises=F Damp=F
 DIIS: error= 2.95D-05 at cycle   2 NSaved=   2.
 NSaved= 2 IEnMin= 2 EnMin= -1714.04000603159     IErMin= 2 ErrMin= 2.95D-05
 ErrMax= 2.95D-05  0.00D+00 EMaxC= 1.00D-01 BMatC= 5.84D-07 BMatP= 8.08D-07
 IDIUse=1 WtCom= 1.00D+00 WtEn= 0.00D+00
 Coeff-Com:  0.442D+00 0.558D+00
 Coeff:      0.442D+00 0.558D+00
 Gap=     0.238 Goal=   None    Shift=    0.000
 RMSDP=3.67D-06 MaxDP=1.29D-04 DE=-3.33D-07 OVMax= 3.49D-04

 Cycle  11  Pass 1  IDiag  1:
 RMSU=  3.66D-06    CP:  1.00D+00  9.90D-01
 E= -1714.04000627073     Delta-E=       -0.000000239141 Rises=F Damp=F
 DIIS: error= 2.16D-05 at cycle   3 NSaved=   3.
 NSaved= 3 IEnMin= 3 EnMin= -1714.04000627073     IErMin= 3 ErrMin= 2.16D-05
 ErrMax= 2.16D-05  0.00D+00 EMaxC= 1.00D-01 BMatC= 3.36D-07 BMatP= 5.84D-07
 IDIUse=1 WtCom= 1.00D+00 WtEn= 0.00D+00
 Coeff-Com:  0.358D-02 0.430D+00 0.567D+00
 Coeff:      0.358D-02 0.430D+00 0.567D+00
 Gap=     0.238 Goal=   None    Shift=    0.000
 RMSDP=1.64D-06 MaxDP=6.37D-05 DE=-2.39D-07 OVMax= 1.30D-04

 Cycle  12  Pass 1  IDiag  1:
 RMSU=  5.65D-07    CP:  1.00D+00  1.00D+00  5.87D-01
 E= -1714.04000655986     Delta-E=       -0.000000289135 Rises=F Damp=F
 DIIS: error= 4.11D-06 at cycle   4 NSaved=   4.
 NSaved= 4 IEnMin= 4 EnMin= -1714.04000655986     IErMin= 4 ErrMin= 4.11D-06
 ErrMax= 4.11D-06  0.00D+00 EMaxC= 1.00D-01 BMatC= 1.32D-08 BMatP= 3.36D-07
 IDIUse=1 WtCom= 1.00D+00 WtEn= 0.00D+00
 Coeff-Com: -0.812D-02 0.253D+00 0.353D+00 0.402D+00
 Coeff:     -0.812D-02 0.253D+00 0.353D+00 0.402D+00
 Gap=     0.238 Goal=   None    Shift=    0.000
 RMSDP=3.42D-07 MaxDP=1.59D-05 DE=-2.89D-07 OVMax= 2.10D-05

 Cycle  13  Pass 1  IDiag  1:
 RMSU=  1.84D-07    CP:  1.00D+00  1.00D+00  5.90D-01  4.92D-01
 E= -1714.04000657056     Delta-E=       -0.000000010694 Rises=F Damp=F
 DIIS: error= 9.42D-07 at cycle   5 NSaved=   5.
 NSaved= 5 IEnMin= 5 EnMin= -1714.04000657056     IErMin= 5 ErrMin= 9.42D-07
 ErrMax= 9.42D-07  0.00D+00 EMaxC= 1.00D-01 BMatC= 5.55D-10 BMatP= 1.32D-08
 IDIUse=1 WtCom= 1.00D+00 WtEn= 0.00D+00
 Coeff-Com: -0.514D-02 0.123D+00 0.173D+00 0.234D+00 0.476D+00
 Coeff:     -0.514D-02 0.123D+00 0.173D+00 0.234D+00 0.476D+00
 Gap=     0.238 Goal=   None    Shift=    0.000
 RMSDP=7.84D-08 MaxDP=4.15D-06 DE=-1.07D-08 OVMax= 6.94D-06

 Cycle  14  Pass 1  IDiag  1:
 RMSU=  6.24D-08    CP:  1.00D+00  1.00D+00  5.93D-01  5.18D-01  7.62D-01
 E= -1714.04000657101     Delta-E=       -0.000000000451 Rises=F Damp=F
 DIIS: error= 2.72D-07 at cycle   6 NSaved=   6.
 NSaved= 6 IEnMin= 6 EnMin= -1714.04000657101     IErMin= 6 ErrMin= 2.72D-07
 ErrMax= 2.72D-07  0.00D+00 EMaxC= 1.00D-01 BMatC= 5.01D-11 BMatP= 5.55D-10
 IDIUse=1 WtCom= 1.00D+00 WtEn= 0.00D+00
 Coeff-Com: -0.142D-02 0.248D-01 0.359D-01 0.602D-01 0.258D+00 0.623D+00
 Coeff:     -0.142D-02 0.248D-01 0.359D-01 0.602D-01 0.258D+00 0.623D+00
 Gap=     0.238 Goal=   None    Shift=    0.000
 RMSDP=2.47D-08 MaxDP=1.46D-06 DE=-4.51D-10 OVMax= 1.47D-06

 Cycle  15  Pass 1  IDiag  1:
 RMSU=  1.80D-08    CP:  1.00D+00  1.00D+00  5.92D-01  5.19D-01  8.23D-01
                    CP:  8.04D-01
 E= -1714.04000657111     Delta-E=       -0.000000000100 Rises=F Damp=F
 DIIS: error= 1.07D-07 at cycle   7 NSaved=   7.
 NSaved= 7 IEnMin= 7 EnMin= -1714.04000657111     IErMin= 7 ErrMin= 1.07D-07
 ErrMax= 1.07D-07  0.00D+00 EMaxC= 1.00D-01 BMatC= 7.20D-12 BMatP= 5.01D-11
 IDIUse=1 WtCom= 1.00D+00 WtEn= 0.00D+00
 Coeff-Com: -0.205D-03 0.881D-04 0.586D-03 0.745D-02 0.913D-01 0.352D+00
 Coeff-Com:  0.548D+00
 Coeff:     -0.205D-03 0.881D-04 0.586D-03 0.745D-02 0.913D-01 0.352D+00
 Coeff:      0.548D+00
 Gap=     0.238 Goal=   None    Shift=    0.000
 RMSDP=9.66D-09 MaxDP=7.65D-07 DE=-1.00D-10 OVMax= 5.14D-07

 SCF Done:  E(RB3LYP) =  -1714.04000657     A.U. after   15 cycles
            NFock= 15  Conv=0.97D-08     -V/T= 2.0068
 KE= 1.702505660097D+03 PE=-8.483469381684D+03 EE= 2.838213237282D+03
 Leave Link  502 at Fri Oct  2 01:35:59 2020, MaxMem=  2147483648 cpu:       392.5
 (Enter /prod/apps/gaussian/g09d1/l601.exe)
 Copying SCF densities to generalized density rwf, IOpCl= 0 IROHF=0.

 **********************************************************************

            Population analysis using the SCF density.

 **********************************************************************

 Orbital symmetries:
       Occupied  (A) (A) (A) (A) (A) (A) (A) (A) (A) (A) (A) (A)
                 (A) (A) (A) (A) (A) (A) (A) (A) (A) (A) (A) (A)
                 (A) (A) (A) (A) (A) (A) (A) (A) (A) (A) (A) (A)
                 (A) (A) (A) (A) (A) (A) (A) (A) (A) (A) (A) (A)
                 (A) (A) (A) (A) (A) (A) (A) (A) (A) (A) (A) (A)
                 (A) (A) (A) (A) (A) (A) (A) (A) (A) (A) (A) (A)
                 (A) (A) (A) (A) (A) (A) (A) (A) (A) (A) (A) (A)
                 (A) (A) (A) (A)
       Virtual   (A) (A) (A) (A) (A) (A) (A) (A) (A) (A) (A) (A)
                 (A) (A) (A) (A) (A) (A) (A) (A) (A) (A) (A) (A)
                 (A) (A) (A) (A) (A) (A) (A) (A) (A) (A) (A) (A)
                 (A) (A) (A) (A) (A) (A) (A) (A) (A) (A) (A) (A)
                 (A) (A) (A) (A) (A) (A) (A) (A) (A) (A) (A) (A)
                 (A) (A) (A) (A) (A) (A) (A) (A) (A) (A) (A) (A)
                 (A) (A) (A) (A) (A) (A) (A) (A) (A) (A) (A) (A)
                 (A) (A) (A) (A) (A) (A) (A) (A) (A) (A) (A) (A)
                 (A) (A) (A) (A) (A) (A) (A) (A) (A) (A) (A) (A)
                 (A) (A) (A) (A) (A) (A) (A) (A) (A) (A) (A) (A)
                 (A) (A) (A) (A) (A) (A) (A) (A) (A) (A) (A) (A)
                 (A) (A) (A) (A) (A) (A) (A) (A) (A) (A) (A) (A)
                 (A) (A) (A) (A) (A) (A) (A) (A) (A) (A) (A) (A)
                 (A) (A) (A) (A) (A) (A) (A) (A) (A) (A) (A) (A)
                 (A) (A) (A) (A) (A) (A) (A) (A) (A) (A) (A) (A)
                 (A) (A) (A) (A) (A) (A) (A) (A) (A) (A) (A) (A)
                 (A) (A) (A) (A) (A) (A) (A) (A) (A) (A) (A) (A)
                 (A) (A) (A) (A) (A) (A) (A) (A) (A) (A) (A) (A)
                 (A) (A) (A) (A) (A) (A) (A) (A) (A) (A) (A) (A)
                 (A) (A) (A) (A) (A) (A) (A) (A) (A) (A) (A) (A)
                 (A) (A) (A) (A) (A) (A) (A) (A) (A) (A) (A) (A)
                 (A) (A) (A) (A) (A) (A) (A) (A) (A) (A) (A) (A)
                 (A) (A) (A) (A) (A) (A) (A) (A) (A) (A) (A)
 The electronic state is 1-A.
 Alpha  occ. eigenvalues --  -89.13882 -89.08993 -19.15415 -19.15191 -19.14261
 Alpha  occ. eigenvalues --  -19.14107 -14.38955 -14.38319 -10.28508 -10.23840
 Alpha  occ. eigenvalues --  -10.22910 -10.22608 -10.22295 -10.20989 -10.20879
 Alpha  occ. eigenvalues --  -10.20410 -10.19521 -10.19481 -10.19356 -10.19344
 Alpha  occ. eigenvalues --  -10.19325  -8.16125  -8.12028  -6.12622  -6.12545
 Alpha  occ. eigenvalues --   -6.12501  -6.08443  -6.08390  -6.08316  -1.12951
 Alpha  occ. eigenvalues --   -1.09374  -1.00920  -0.98913  -0.96034  -0.94491
 Alpha  occ. eigenvalues --   -0.86558  -0.85606  -0.80171  -0.75083  -0.74743
 Alpha  occ. eigenvalues --   -0.73307  -0.73009  -0.71657  -0.67982  -0.63330
 Alpha  occ. eigenvalues --   -0.61065  -0.60443  -0.58595  -0.57909  -0.54733
 Alpha  occ. eigenvalues --   -0.53705  -0.51971  -0.51466  -0.50120  -0.49174
 Alpha  occ. eigenvalues --   -0.48486  -0.47054  -0.46743  -0.45949  -0.45660
 Alpha  occ. eigenvalues --   -0.44991  -0.44599  -0.44141  -0.42889  -0.42616
 Alpha  occ. eigenvalues --   -0.42114  -0.41957  -0.41381  -0.41231  -0.40240
 Alpha  occ. eigenvalues --   -0.39245  -0.37737  -0.37451  -0.35974  -0.35049
 Alpha  occ. eigenvalues --   -0.34583  -0.34138  -0.33912  -0.32808  -0.32139
 Alpha  occ. eigenvalues --   -0.31140  -0.30897  -0.29400  -0.28906  -0.28863
 Alpha  occ. eigenvalues --   -0.26288  -0.25486  -0.24747
 Alpha virt. eigenvalues --   -0.00944  -0.00689   0.02837   0.03695   0.05269
 Alpha virt. eigenvalues --    0.05818   0.06509   0.06852   0.07172   0.08377
 Alpha virt. eigenvalues --    0.08692   0.09203   0.09742   0.10886   0.11644
 Alpha virt. eigenvalues --    0.12800   0.13385   0.14116   0.14676   0.14914
 Alpha virt. eigenvalues --    0.15124   0.15941   0.15989   0.16570   0.16851
 Alpha virt. eigenvalues --    0.17784   0.18112   0.18489   0.18913   0.19196
 Alpha virt. eigenvalues --    0.19774   0.20401   0.21433   0.22057   0.22584
 Alpha virt. eigenvalues --    0.24852   0.25478   0.26293   0.28914   0.30164
 Alpha virt. eigenvalues --    0.31977   0.33689   0.34665   0.35115   0.36119
 Alpha virt. eigenvalues --    0.36469   0.39806   0.41558   0.43020   0.43834
 Alpha virt. eigenvalues --    0.44733   0.47611   0.47742   0.49377   0.49836
 Alpha virt. eigenvalues --    0.51192   0.51593   0.52392   0.53196   0.54269
 Alpha virt. eigenvalues --    0.55427   0.55613   0.55945   0.56932   0.57629
 Alpha virt. eigenvalues --    0.58668   0.59205   0.59882   0.60182   0.60399
 Alpha virt. eigenvalues --    0.61169   0.61704   0.61874   0.63626   0.64185
 Alpha virt. eigenvalues --    0.65393   0.66187   0.67687   0.69330   0.70665
 Alpha virt. eigenvalues --    0.71991   0.72745   0.74147   0.74893   0.76336
 Alpha virt. eigenvalues --    0.76671   0.78251   0.78717   0.79770   0.80112
 Alpha virt. eigenvalues --    0.81061   0.81483   0.82419   0.83162   0.83438
 Alpha virt. eigenvalues --    0.83868   0.84188   0.84628   0.85359   0.86167
 Alpha virt. eigenvalues --    0.86974   0.87415   0.87965   0.88715   0.89711
 Alpha virt. eigenvalues --    0.90361   0.91271   0.91919   0.92152   0.93120
 Alpha virt. eigenvalues --    0.93325   0.94439   0.95340   0.95605   0.96677
 Alpha virt. eigenvalues --    0.97258   0.97514   0.98699   0.99713   1.00886
 Alpha virt. eigenvalues --    1.02694   1.03073   1.04003   1.06324   1.06989
 Alpha virt. eigenvalues --    1.07667   1.08684   1.09769   1.10530   1.10673
 Alpha virt. eigenvalues --    1.11174   1.12726   1.14241   1.15749   1.17287
 Alpha virt. eigenvalues --    1.17907   1.18348   1.19781   1.20447   1.22273
 Alpha virt. eigenvalues --    1.22908   1.24645   1.26100   1.27966   1.28217
 Alpha virt. eigenvalues --    1.31240   1.33647   1.37136   1.37318   1.41732
 Alpha virt. eigenvalues --    1.42370   1.43381   1.44120   1.44523   1.46491
 Alpha virt. eigenvalues --    1.47872   1.48155   1.49726   1.51015   1.52416
 Alpha virt. eigenvalues --    1.55217   1.56653   1.58790   1.65537   1.66012
 Alpha virt. eigenvalues --    1.70668   1.71040   1.72655   1.73503   1.74650
 Alpha virt. eigenvalues --    1.77323   1.78603   1.79482   1.80157   1.80605
 Alpha virt. eigenvalues --    1.80980   1.81441   1.81687   1.82353   1.83004
 Alpha virt. eigenvalues --    1.84376   1.84991   1.85994   1.86643   1.87740
 Alpha virt. eigenvalues --    1.89768   1.91005   1.91502   1.91918   1.93988
 Alpha virt. eigenvalues --    1.94752   1.95517   1.97155   1.97671   1.98782
 Alpha virt. eigenvalues --    1.99718   2.01248   2.02232   2.04064   2.05391
 Alpha virt. eigenvalues --    2.05575   2.06962   2.08242   2.09189   2.10027
 Alpha virt. eigenvalues --    2.12515   2.13634   2.13811   2.14322   2.15040
 Alpha virt. eigenvalues --    2.16055   2.16278   2.17868   2.19014   2.20030
 Alpha virt. eigenvalues --    2.21250   2.24113   2.25850   2.26890   2.27527
 Alpha virt. eigenvalues --    2.29714   2.30828   2.31071   2.32408   2.35621
 Alpha virt. eigenvalues --    2.36821   2.37939   2.40832   2.41817   2.44474
 Alpha virt. eigenvalues --    2.45465   2.48228   2.51570   2.54604   2.57881
 Alpha virt. eigenvalues --    2.58434   2.60212   2.63660   2.65454   2.69501
 Alpha virt. eigenvalues --    2.71886   2.72008   2.72724   2.73357   2.74328
 Alpha virt. eigenvalues --    2.75798   2.77131   2.79032   2.82827   2.83313
 Alpha virt. eigenvalues --    2.87915   2.89145   3.05543   3.40444   3.79966
 Alpha virt. eigenvalues --    3.81628   3.89826   3.95713   3.98796   4.00981
 Alpha virt. eigenvalues --    4.07914   4.09150   4.11794   4.15736   4.18166
 Alpha virt. eigenvalues --    4.20114   4.24688   4.25210   4.32379   4.33368
 Alpha virt. eigenvalues --    4.36005   4.44259   4.50394   4.69149   4.75814
          Condensed to atoms (all electrons):
               1          2          3          4          5          6
     1  C    4.993934   0.289516  -0.050103  -0.027526  -0.002537  -0.003795
     2  N    0.289516   7.214396   0.268086   0.129424  -0.056596  -0.055082
     3  C   -0.050103   0.268086   5.001639  -0.010040   0.001638   0.001686
     4  S   -0.027526   0.129424  -0.010040  13.626269   0.447810   0.409377
     5  O   -0.002537  -0.056596   0.001638   0.447810   8.227469  -0.045842
     6  O   -0.003795  -0.055082   0.001686   0.409377  -0.045842   8.275363
     7  N    0.002349  -0.042512  -0.009202   0.118615  -0.056550  -0.053776
     8  C    0.000037  -0.005558   0.000478   0.004897   0.002174   0.007346
     9  C    0.000004  -0.000359   0.000049   0.000445  -0.000085   0.000055
    10  S    0.000005  -0.000097   0.000011  -0.000066   0.000008   0.000124
    11  O    0.000000  -0.000063   0.000116  -0.000466   0.000000   0.000000
    12  O    0.000000   0.000000   0.000000   0.000001   0.000000   0.000000
    13  C    0.000081  -0.009996   0.000017  -0.006600  -0.000096  -0.000098
    14  C    0.000009  -0.000206  -0.000005  -0.003137  -0.000170  -0.008617
    15  C    0.000000   0.000000   0.000000   0.000016  -0.000001   0.000101
    16  C    0.000000   0.000000   0.000000  -0.000047   0.000000  -0.000013
    17  C    0.000000   0.000000   0.000000  -0.000001   0.000000   0.000000
    18  C    0.000000   0.000000   0.000000   0.000000   0.000000   0.000000
    19  C    0.000000   0.000000   0.000000   0.000000   0.000000   0.000000
    20  C    0.000000   0.000000   0.000000   0.000003   0.000000  -0.000016
    21  C    0.000000  -0.000001   0.000000   0.000004   0.000000   0.000013
    22  H    0.378821  -0.038850  -0.002784   0.002231  -0.000110   0.000224
    23  H    0.371495  -0.046412  -0.002370  -0.003438   0.002660  -0.000519
    24  H    0.377483  -0.031080   0.004568  -0.004379  -0.000180   0.011591
    25  H   -0.003733  -0.034198   0.376389   0.003119   0.000035  -0.000050
    26  H    0.004501  -0.031408   0.374782  -0.002997  -0.001604   0.000019
    27  H   -0.002493  -0.045114   0.368662  -0.008407   0.005493  -0.000039
    28  H   -0.000058   0.002540  -0.000216  -0.016800   0.005417  -0.000044
    29  H    0.000000   0.000000  -0.000001   0.000010   0.000000   0.000001
    30  H    0.000000   0.000004  -0.000017   0.000100  -0.000010   0.000002
    31  H    0.000000   0.000302   0.000000  -0.000519   0.000000  -0.000186
    32  H   -0.000564   0.019821  -0.000868   0.003533   0.000028  -0.000812
    33  H    0.000010  -0.000048  -0.000003   0.002006  -0.000270   0.014964
    34  H    0.000000   0.000007   0.000000   0.000203  -0.000011   0.000158
    35  H    0.000000   0.000000   0.000000  -0.000013   0.000000   0.000001
    36  H    0.000000   0.000000   0.000000   0.000007   0.000000  -0.000003
    37  H    0.000000   0.000000   0.000000   0.000000   0.000000   0.000000
    38  H    0.000000   0.000000   0.000000   0.000000   0.000000   0.000000
    39  H    0.000000   0.000000   0.000000   0.000000   0.000000   0.000000
    40  H    0.000000   0.000000   0.000000   0.000000   0.000000  -0.000001
    41  H    0.000000   0.000001   0.000000   0.000047   0.000000   0.000265
               7          8          9         10         11         12
     1  C    0.002349   0.000037   0.000004   0.000005   0.000000   0.000000
     2  N   -0.042512  -0.005558  -0.000359  -0.000097  -0.000063   0.000000
     3  C   -0.009202   0.000478   0.000049   0.000011   0.000116   0.000000
     4  S    0.118615   0.004897   0.000445  -0.000066  -0.000466   0.000001
     5  O   -0.056550   0.002174  -0.000085   0.000008   0.000000   0.000000
     6  O   -0.053776   0.007346   0.000055   0.000124   0.000000   0.000000
     7  N    7.413859   0.191298  -0.048914   0.005076   0.000112  -0.000038
     8  C    0.191298   4.888022   0.342046  -0.107071  -0.000249   0.001700
     9  C   -0.048914   0.342046   5.756357   0.117253  -0.043298  -0.045176
    10  S    0.005076  -0.107071   0.117253  13.892746   0.414232   0.429551
    11  O    0.000112  -0.000249  -0.043298   0.414232   8.238761  -0.046979
    12  O   -0.000038   0.001700  -0.045176   0.429551  -0.046979   8.220958
    13  C   -0.043289   0.354566  -0.197823   0.152422  -0.044170  -0.045093
    14  C   -0.061216   0.394200  -0.048149   0.002589  -0.000069  -0.000236
    15  C    0.004554  -0.031850  -0.005080  -0.000403  -0.000002   0.000032
    16  C   -0.000048  -0.003540  -0.000392   0.000174   0.000000  -0.000129
    17  C   -0.000003   0.000770  -0.000067   0.000595   0.000000  -0.000267
    18  C    0.000000   0.000004   0.000000  -0.000015   0.000000  -0.000004
    19  C    0.000000   0.000004   0.000000   0.000001   0.000000   0.000000
    20  C    0.000000  -0.000038   0.000001  -0.000006   0.000000   0.000000
    21  C   -0.000016  -0.000953   0.000008   0.000051   0.000000   0.000001
    22  H   -0.000080   0.000002   0.000000  -0.000005   0.000000   0.000000
    23  H   -0.000075  -0.000008   0.000000   0.000000   0.000000   0.000000
    24  H    0.000107   0.000016   0.000000   0.000007   0.000000   0.000000
    25  H   -0.000013   0.000004   0.000003   0.000007   0.000143   0.000000
    26  H    0.011728  -0.000088  -0.000056   0.001357   0.003423   0.000002
    27  H   -0.000184  -0.000029  -0.000001   0.000016   0.000034   0.000000
    28  H    0.299633  -0.025990  -0.006135   0.000168   0.000025   0.000002
    29  H    0.003375  -0.028672   0.328387  -0.004525   0.001131   0.000736
    30  H   -0.003701  -0.022018   0.338041  -0.007098  -0.000251   0.000701
    31  H    0.002913  -0.026323   0.005541  -0.005974   0.001125   0.000619
    32  H   -0.006953  -0.021803   0.008533  -0.010420   0.000532   0.000614
    33  H   -0.002976  -0.031540   0.004930  -0.000200   0.000001   0.000002
    34  H   -0.002162  -0.041376  -0.007378   0.000026   0.000001   0.000002
    35  H   -0.000136   0.004460   0.000059   0.000034   0.000000   0.000000
    36  H    0.000061  -0.007119   0.001486  -0.000330   0.000002   0.000084
    37  H    0.000000  -0.000005  -0.000074   0.000866   0.000001   0.001259
    38  H    0.000000   0.000000   0.000000  -0.000002   0.000000  -0.000001
    39  H    0.000000   0.000000   0.000000   0.000000   0.000000   0.000000
    40  H    0.000000   0.000000   0.000000   0.000000   0.000000   0.000000
    41  H    0.000003   0.000189   0.000001   0.000001   0.000000   0.000000
              13         14         15         16         17         18
     1  C    0.000081   0.000009   0.000000   0.000000   0.000000   0.000000
     2  N   -0.009996  -0.000206   0.000000   0.000000   0.000000   0.000000
     3  C    0.000017  -0.000005   0.000000   0.000000   0.000000   0.000000
     4  S   -0.006600  -0.003137   0.000016  -0.000047  -0.000001   0.000000
     5  O   -0.000096  -0.000170  -0.000001   0.000000   0.000000   0.000000
     6  O   -0.000098  -0.008617   0.000101  -0.000013   0.000000   0.000000
     7  N   -0.043289  -0.061216   0.004554  -0.000048  -0.000003   0.000000
     8  C    0.354566   0.394200  -0.031850  -0.003540   0.000770   0.000004
     9  C   -0.197823  -0.048149  -0.005080  -0.000392  -0.000067   0.000000
    10  S    0.152422   0.002589  -0.000403   0.000174   0.000595  -0.000015
    11  O   -0.044170  -0.000069  -0.000002   0.000000   0.000000   0.000000
    12  O   -0.045093  -0.000236   0.000032  -0.000129  -0.000267  -0.000004
    13  C    5.728007  -0.039995  -0.002664  -0.003963  -0.005781  -0.000316
    14  C   -0.039995   5.139294   0.317729  -0.033731   0.001195  -0.000182
    15  C   -0.002664   0.317729   5.207613   0.349766  -0.052201   0.007173
    16  C   -0.003963  -0.033731   0.349766   4.673049   0.540840  -0.022895
    17  C   -0.005781   0.001195  -0.052201   0.540840   4.982620   0.518680
    18  C   -0.000316  -0.000182   0.007173  -0.022895   0.518680   4.865486
    19  C    0.000061  -0.000002   0.000365  -0.034895  -0.035839   0.551206
    20  C    0.000192   0.000321   0.006137  -0.017710  -0.046112  -0.025741
    21  C    0.000135  -0.003925  -0.067899   0.541565  -0.042025  -0.046971
    22  H    0.000122   0.000000   0.000000   0.000000   0.000000   0.000000
    23  H   -0.000023   0.000000   0.000000   0.000000   0.000000   0.000000
    24  H    0.000131   0.000001   0.000000   0.000000   0.000000   0.000000
    25  H    0.000138   0.000000   0.000000   0.000000   0.000000   0.000000
    26  H   -0.000003   0.000022   0.000000   0.000000   0.000000   0.000000
    27  H   -0.000030   0.000000   0.000000   0.000000   0.000000   0.000000
    28  H    0.005005  -0.000911  -0.000045   0.000005   0.000000   0.000000
    29  H    0.005244  -0.005069   0.000537   0.000173  -0.000031   0.000000
    30  H    0.008948   0.001324   0.000100  -0.000002   0.000000   0.000000
    31  H    0.321640  -0.007260  -0.001701   0.010789   0.009368   0.000781
    32  H    0.333804   0.000785   0.000095   0.000002   0.000059   0.000002
    33  H   -0.004171   0.366609  -0.031944  -0.007125   0.000189   0.000001
    34  H    0.005690   0.352632  -0.028156   0.004124  -0.000125   0.000002
    35  H   -0.000082  -0.031675   0.357841  -0.027495   0.001036  -0.000239
    36  H   -0.000073  -0.041305   0.360812  -0.036718  -0.004234   0.000216
    37  H   -0.000188   0.000184  -0.011556  -0.044421   0.354784  -0.042994
    38  H   -0.000005   0.000001  -0.000180   0.003766  -0.038425   0.358060
    39  H    0.000000   0.000000   0.000007   0.000709   0.004733  -0.043055
    40  H    0.000000   0.000002  -0.000185   0.003636   0.000836   0.004584
    41  H   -0.000039   0.000957  -0.009077  -0.047845   0.005926   0.000354
              19         20         21         22         23         24
     1  C    0.000000   0.000000   0.000000   0.378821   0.371495   0.377483
     2  N    0.000000   0.000000  -0.000001  -0.038850  -0.046412  -0.031080
     3  C    0.000000   0.000000   0.000000  -0.002784  -0.002370   0.004568
     4  S    0.000000   0.000003   0.000004   0.002231  -0.003438  -0.004379
     5  O    0.000000   0.000000   0.000000  -0.000110   0.002660  -0.000180
     6  O    0.000000  -0.000016   0.000013   0.000224  -0.000519   0.011591
     7  N    0.000000   0.000000  -0.000016  -0.000080  -0.000075   0.000107
     8  C    0.000004  -0.000038  -0.000953   0.000002  -0.000008   0.000016
     9  C    0.000000   0.000001   0.000008   0.000000   0.000000   0.000000
    10  S    0.000001  -0.000006   0.000051  -0.000005   0.000000   0.000007
    11  O    0.000000   0.000000   0.000000   0.000000   0.000000   0.000000
    12  O    0.000000   0.000000   0.000001   0.000000   0.000000   0.000000
    13  C    0.000061   0.000192   0.000135   0.000122  -0.000023   0.000131
    14  C   -0.000002   0.000321  -0.003925   0.000000   0.000000   0.000001
    15  C    0.000365   0.006137  -0.067899   0.000000   0.000000   0.000000
    16  C   -0.034895  -0.017710   0.541565   0.000000   0.000000   0.000000
    17  C   -0.035839  -0.046112  -0.042025   0.000000   0.000000   0.000000
    18  C    0.551206  -0.025741  -0.046971   0.000000   0.000000   0.000000
    19  C    4.856860   0.545903  -0.035387   0.000000   0.000000   0.000000
    20  C    0.545903   4.858970   0.528696   0.000000   0.000000   0.000000
    21  C   -0.035387   0.528696   4.970675   0.000000   0.000000   0.000001
    22  H    0.000000   0.000000   0.000000   0.546531  -0.040632  -0.021036
    23  H    0.000000   0.000000   0.000000  -0.040632   0.576258  -0.030040
    24  H    0.000000   0.000000   0.000001  -0.021036  -0.030040   0.488897
    25  H    0.000000   0.000000   0.000000   0.005331  -0.001408   0.000009
    26  H    0.000000   0.000000   0.000000   0.000068  -0.000201  -0.000184
    27  H    0.000000   0.000000   0.000000  -0.001794   0.008633  -0.000176
    28  H    0.000000   0.000000   0.000001   0.000001   0.000008  -0.000004
    29  H    0.000000   0.000000   0.000003   0.000000   0.000000   0.000000
    30  H    0.000000   0.000000   0.000000   0.000000   0.000000   0.000000
    31  H   -0.000122  -0.000455  -0.000068  -0.000003   0.000000  -0.000006
    32  H   -0.000003  -0.000007   0.000002  -0.000429   0.000130  -0.000079
    33  H    0.000000  -0.000072   0.003419   0.000000   0.000000   0.000002
    34  H    0.000000   0.000000   0.000224   0.000000   0.000000   0.000000
    35  H    0.000041  -0.000065  -0.004713   0.000000   0.000000   0.000000
    36  H   -0.000004  -0.000150   0.004903   0.000000   0.000000   0.000000
    37  H    0.004731   0.000311   0.006286   0.000000   0.000000   0.000000
    38  H   -0.043127   0.004561   0.000794   0.000000   0.000000   0.000000
    39  H    0.359814  -0.042951   0.004770   0.000000   0.000000   0.000000
    40  H   -0.043081   0.358258  -0.039405   0.000000   0.000000   0.000000
    41  H    0.004705  -0.041060   0.355907   0.000000   0.000000   0.000000
              25         26         27         28         29         30
     1  C   -0.003733   0.004501  -0.002493  -0.000058   0.000000   0.000000
     2  N   -0.034198  -0.031408  -0.045114   0.002540   0.000000   0.000004
     3  C    0.376389   0.374782   0.368662  -0.000216  -0.000001  -0.000017
     4  S    0.003119  -0.002997  -0.008407  -0.016800   0.000010   0.000100
     5  O    0.000035  -0.001604   0.005493   0.005417   0.000000  -0.000010
     6  O   -0.000050   0.000019  -0.000039  -0.000044   0.000001   0.000002
     7  N   -0.000013   0.011728  -0.000184   0.299633   0.003375  -0.003701
     8  C    0.000004  -0.000088  -0.000029  -0.025990  -0.028672  -0.022018
     9  C    0.000003  -0.000056  -0.000001  -0.006135   0.328387   0.338041
    10  S    0.000007   0.001357   0.000016   0.000168  -0.004525  -0.007098
    11  O    0.000143   0.003423   0.000034   0.000025   0.001131  -0.000251
    12  O    0.000000   0.000002   0.000000   0.000002   0.000736   0.000701
    13  C    0.000138  -0.000003  -0.000030   0.005005   0.005244   0.008948
    14  C    0.000000   0.000022   0.000000  -0.000911  -0.005069   0.001324
    15  C    0.000000   0.000000   0.000000  -0.000045   0.000537   0.000100
    16  C    0.000000   0.000000   0.000000   0.000005   0.000173  -0.000002
    17  C    0.000000   0.000000   0.000000   0.000000  -0.000031   0.000000
    18  C    0.000000   0.000000   0.000000   0.000000   0.000000   0.000000
    19  C    0.000000   0.000000   0.000000   0.000000   0.000000   0.000000
    20  C    0.000000   0.000000   0.000000   0.000000   0.000000   0.000000
    21  C    0.000000   0.000000   0.000000   0.000001   0.000003   0.000000
    22  H    0.005331   0.000068  -0.001794   0.000001   0.000000   0.000000
    23  H   -0.001408  -0.000201   0.008633   0.000008   0.000000   0.000000
    24  H    0.000009  -0.000184  -0.000176  -0.000004   0.000000   0.000000
    25  H    0.537454  -0.020969  -0.037293   0.000001   0.000000  -0.000001
    26  H   -0.020969   0.489276  -0.029776  -0.000562   0.000004   0.000071
    27  H   -0.037293  -0.029776   0.577117   0.000080   0.000000   0.000000
    28  H    0.000001  -0.000562   0.000080   0.371291   0.000028   0.002993
    29  H    0.000000   0.000004   0.000000   0.000028   0.501780  -0.019073
    30  H   -0.000001   0.000071   0.000000   0.002993  -0.019073   0.491145
    31  H   -0.000001   0.000002   0.000000  -0.000089  -0.000016  -0.000225
    32  H   -0.000332  -0.000393   0.000127   0.000154  -0.000244  -0.000307
    33  H    0.000000   0.000001   0.000000  -0.000657   0.000212  -0.000084
    34  H    0.000000  -0.000001   0.000000   0.005150   0.000589   0.000406
    35  H    0.000000   0.000000   0.000000  -0.000003  -0.000185  -0.000001
    36  H    0.000000   0.000000   0.000000   0.000002   0.007455   0.000006
    37  H    0.000000   0.000000   0.000000   0.000000   0.000027   0.000001
    38  H    0.000000   0.000000   0.000000   0.000000   0.000000   0.000000
    39  H    0.000000   0.000000   0.000000   0.000000   0.000000   0.000000
    40  H    0.000000   0.000000   0.000000   0.000000   0.000000   0.000000
    41  H    0.000000   0.000000   0.000000   0.000000   0.000000   0.000000
              31         32         33         34         35         36
     1  C    0.000000  -0.000564   0.000010   0.000000   0.000000   0.000000
     2  N    0.000302   0.019821  -0.000048   0.000007   0.000000   0.000000
     3  C    0.000000  -0.000868  -0.000003   0.000000   0.000000   0.000000
     4  S   -0.000519   0.003533   0.002006   0.000203  -0.000013   0.000007
     5  O    0.000000   0.000028  -0.000270  -0.000011   0.000000   0.000000
     6  O   -0.000186  -0.000812   0.014964   0.000158   0.000001  -0.000003
     7  N    0.002913  -0.006953  -0.002976  -0.002162  -0.000136   0.000061
     8  C   -0.026323  -0.021803  -0.031540  -0.041376   0.004460  -0.007119
     9  C    0.005541   0.008533   0.004930  -0.007378   0.000059   0.001486
    10  S   -0.005974  -0.010420  -0.000200   0.000026   0.000034  -0.000330
    11  O    0.001125   0.000532   0.000001   0.000001   0.000000   0.000002
    12  O    0.000619   0.000614   0.000002   0.000002   0.000000   0.000084
    13  C    0.321640   0.333804  -0.004171   0.005690  -0.000082  -0.000073
    14  C   -0.007260   0.000785   0.366609   0.352632  -0.031675  -0.041305
    15  C   -0.001701   0.000095  -0.031944  -0.028156   0.357841   0.360812
    16  C    0.010789   0.000002  -0.007125   0.004124  -0.027495  -0.036718
    17  C    0.009368   0.000059   0.000189  -0.000125   0.001036  -0.004234
    18  C    0.000781   0.000002   0.000001   0.000002  -0.000239   0.000216
    19  C   -0.000122  -0.000003   0.000000   0.000000   0.000041  -0.000004
    20  C   -0.000455  -0.000007  -0.000072   0.000000  -0.000065  -0.000150
    21  C   -0.000068   0.000002   0.003419   0.000224  -0.004713   0.004903
    22  H   -0.000003  -0.000429   0.000000   0.000000   0.000000   0.000000
    23  H    0.000000   0.000130   0.000000   0.000000   0.000000   0.000000
    24  H   -0.000006  -0.000079   0.000002   0.000000   0.000000   0.000000
    25  H   -0.000001  -0.000332   0.000000   0.000000   0.000000   0.000000
    26  H    0.000002  -0.000393   0.000001  -0.000001   0.000000   0.000000
    27  H    0.000000   0.000127   0.000000   0.000000   0.000000   0.000000
    28  H   -0.000089   0.000154  -0.000657   0.005150  -0.000003   0.000002
    29  H   -0.000016  -0.000244   0.000212   0.000589  -0.000185   0.007455
    30  H   -0.000225  -0.000307  -0.000084   0.000406  -0.000001   0.000006
    31  H    0.471130  -0.012139   0.000398   0.000117   0.000170   0.000008
    32  H   -0.012139   0.440814   0.000127  -0.000082   0.000001  -0.000002
    33  H    0.000398   0.000127   0.500719  -0.031750  -0.000990   0.004298
    34  H    0.000117  -0.000082  -0.031750   0.615783  -0.006453  -0.000830
    35  H    0.000170   0.000001  -0.000990  -0.006453   0.572027  -0.032837
    36  H    0.000008  -0.000002   0.004298  -0.000830  -0.032837   0.588694
    37  H   -0.000056   0.000003   0.000008  -0.000009   0.000186   0.007714
    38  H    0.000020   0.000000   0.000000   0.000000   0.000003  -0.000010
    39  H   -0.000001   0.000000   0.000000   0.000000   0.000000   0.000000
    40  H    0.000000   0.000000   0.000008   0.000000  -0.000001   0.000003
    41  H    0.000062  -0.000001   0.004682  -0.000170   0.001589   0.000022
              37         38         39         40         41
     1  C    0.000000   0.000000   0.000000   0.000000   0.000000
     2  N    0.000000   0.000000   0.000000   0.000000   0.000001
     3  C    0.000000   0.000000   0.000000   0.000000   0.000000
     4  S    0.000000   0.000000   0.000000   0.000000   0.000047
     5  O    0.000000   0.000000   0.000000   0.000000   0.000000
     6  O    0.000000   0.000000   0.000000  -0.000001   0.000265
     7  N    0.000000   0.000000   0.000000   0.000000   0.000003
     8  C   -0.000005   0.000000   0.000000   0.000000   0.000189
     9  C   -0.000074   0.000000   0.000000   0.000000   0.000001
    10  S    0.000866  -0.000002   0.000000   0.000000   0.000001
    11  O    0.000001   0.000000   0.000000   0.000000   0.000000
    12  O    0.001259  -0.000001   0.000000   0.000000   0.000000
    13  C   -0.000188  -0.000005   0.000000   0.000000  -0.000039
    14  C    0.000184   0.000001   0.000000   0.000002   0.000957
    15  C   -0.011556  -0.000180   0.000007  -0.000185  -0.009077
    16  C   -0.044421   0.003766   0.000709   0.003636  -0.047845
    17  C    0.354784  -0.038425   0.004733   0.000836   0.005926
    18  C   -0.042994   0.358060  -0.043055   0.004584   0.000354
    19  C    0.004731  -0.043127   0.359814  -0.043081   0.004705
    20  C    0.000311   0.004561  -0.042951   0.358258  -0.041060
    21  C    0.006286   0.000794   0.004770  -0.039405   0.355907
    22  H    0.000000   0.000000   0.000000   0.000000   0.000000
    23  H    0.000000   0.000000   0.000000   0.000000   0.000000
    24  H    0.000000   0.000000   0.000000   0.000000   0.000000
    25  H    0.000000   0.000000   0.000000   0.000000   0.000000
    26  H    0.000000   0.000000   0.000000   0.000000   0.000000
    27  H    0.000000   0.000000   0.000000   0.000000   0.000000
    28  H    0.000000   0.000000   0.000000   0.000000   0.000000
    29  H    0.000027   0.000000   0.000000   0.000000   0.000000
    30  H    0.000001   0.000000   0.000000   0.000000   0.000000
    31  H   -0.000056   0.000020  -0.000001   0.000000   0.000062
    32  H    0.000003   0.000000   0.000000   0.000000  -0.000001
    33  H    0.000008   0.000000   0.000000   0.000008   0.004682
    34  H   -0.000009   0.000000   0.000000   0.000000  -0.000170
    35  H    0.000186   0.000003   0.000000  -0.000001   0.001589
    36  H    0.007714  -0.000010   0.000000   0.000003   0.000022
    37  H    0.586866  -0.005402  -0.000171   0.000017  -0.000172
    38  H   -0.005402   0.588144  -0.005533  -0.000184   0.000017
    39  H   -0.000171  -0.005533   0.594307  -0.005450  -0.000177
    40  H    0.000017  -0.000184  -0.005450   0.591221  -0.005470
    41  H   -0.000172   0.000017  -0.000177  -0.005470   0.590454
 Mulliken charges:
               1
     1  C   -0.327436
     2  N   -0.526516
     3  C   -0.322512
     4  S    1.336321
     5  O   -0.528670
     6  O   -0.552395
     7  N   -0.721841
     8  C    0.162017
     9  C   -0.500209
    10  S    1.118894
    11  O   -0.524092
    12  O   -0.518340
    13  C   -0.511706
    14  C   -0.291994
    15  C   -0.369934
    16  C    0.152373
    17  C   -0.196521
    18  C   -0.124136
    19  C   -0.131229
    20  C   -0.128971
    21  C   -0.176091
    22  H    0.172392
    23  H    0.165945
    24  H    0.204349
    25  H    0.175362
    26  H    0.202987
    27  H    0.165175
    28  H    0.359013
    29  H    0.208123
    30  H    0.208947
    31  H    0.230156
    32  H    0.246272
    33  H    0.209246
    34  H    0.133389
    35  H    0.167441
    36  H    0.147845
    37  H    0.141805
    38  H    0.137504
    39  H    0.132996
    40  H    0.135212
    41  H    0.138831
 Sum of Mulliken charges =   0.00000
 Mulliken charges with hydrogens summed into heavy atoms:
               1
     1  C    0.215250
     2  N   -0.526516
     3  C    0.221013
     4  S    1.336321
     5  O   -0.528670
     6  O   -0.552395
     7  N   -0.362828
     8  C    0.162017
     9  C   -0.083140
    10  S    1.118894
    11  O   -0.524092
    12  O   -0.518340
    13  C   -0.035278
    14  C    0.050640
    15  C   -0.054647
    16  C    0.152373
    17  C   -0.054716
    18  C    0.013368
    19  C    0.001767
    20  C    0.006241
    21  C   -0.037260
 Electronic spatial extent (au):  <R**2>=           7123.6891
 Charge=              0.0000 electrons
 Dipole moment (field-independent basis, Debye):
    X=              0.6623    Y=             -1.5314    Z=              1.3637  Tot=              2.1549
 Quadrupole moment (field-independent basis, Debye-Ang):
   XX=           -137.0482   YY=           -157.9253   ZZ=           -126.9112
   XY=             -5.2706   XZ=              5.2915   YZ=             16.8988
 Traceless Quadrupole moment (field-independent basis, Debye-Ang):
   XX=              3.5800   YY=            -17.2971   ZZ=             13.7170
   XY=             -5.2706   XZ=              5.2915   YZ=             16.8988
 Octapole moment (field-independent basis, Debye-Ang**2):
  XXX=            -35.1825  YYY=            -50.5499  ZZZ=              3.4246  XYY=              7.9805
  XXY=             11.4998  XXZ=            -56.0805  XZZ=            -15.5705  YZZ=              0.5789
  YYZ=             16.5743  XYZ=            -16.7912
 Hexadecapole moment (field-independent basis, Debye-Ang**3):
 XXXX=          -5559.3793 YYYY=          -2732.6195 ZZZZ=          -1177.7631 XXXY=             22.5381
 XXXZ=            -11.0161 YYYX=            -29.1481 YYYZ=            117.8651 ZZZX=              2.3744
 ZZZY=              7.5026 XXYY=          -1384.2898 XXZZ=          -1056.9886 YYZZ=           -619.3273
 XXYZ=            101.4733 YYXZ=              6.5373 ZZXY=             -2.4971
 N-N= 2.228710477735D+03 E-N=-8.483469434700D+03  KE= 1.702505660097D+03
 No NMR shielding tensors so no spin-rotation constants.
 Leave Link  601 at Fri Oct  2 01:36:00 2020, MaxMem=  2147483648 cpu:         0.4
 (Enter /prod/apps/gaussian/g09d1/l9999.exe)
 1\1\GINC-PIRINEUS16\SP\RB3LYP\6-31G(d)\C13H20N2O4S2\UBAFAR01\02-Oct-20
 20\0\\#p b3lyp/6-31G(d)\\SM40.n.28.pdb.xyz\\0,1\C,0,3.307,0.46,2.116\N
 ,0,3.402,-0.394,0.918\C,0,2.186,-0.372,0.088\S,0,4.83,-0.198,0.049\O,0
 ,4.757,0.897,-0.931\O,0,5.903,-0.173,1.053\N,0,4.828,-1.598,-0.868\C,0
 ,5.455,-2.857,-0.393\C,0,4.896,-3.994,-1.312\S,0,3.746,-4.505,0.007\O,
 0,2.372,-4.01,-0.221\O,0,3.915,-5.908,0.435\C,0,4.772,-3.32,0.935\C,0,
 6.992,-2.759,-0.403\C,0,7.793,-3.989,0.067\C,0,7.9,-4.177,1.568\C,0,7.
 56,-5.4,2.16\C,0,7.691,-5.594,3.537\C,0,8.167,-4.563,4.346\C,0,8.511,-
 3.338,3.769\C,0,8.378,-3.149,2.393\H,0,2.464,0.094,2.703\H,0,3.134,1.5
 14,1.866\H,0,4.219,0.366,2.702\H,0,1.361,-0.72,0.712\H,0,2.309,-1.059,
 -0.748\H,0,1.957,0.633,-0.284\H,0,5.114,-1.355,-1.819\H,0,5.614,-4.789
 ,-1.511\H,0,4.403,-3.672,-2.229\H,0,5.441,-3.854,1.61\H,0,4.189,-2.562
 ,1.455\H,0,7.274,-1.889,0.195\H,0,7.279,-2.534,-1.436\H,0,8.805,-3.877
 ,-0.342\H,0,7.393,-4.906,-0.379\H,0,7.184,-6.203,1.533\H,0,7.419,-6.55
 ,3.974\H,0,8.27,-4.71,5.416\H,0,8.883,-2.53,4.389\H,0,8.649,-2.193,1.9
 55\\Version=AM64L-G09RevD.01\State=1-A\HF=-1714.0400066\RMSD=9.664e-09
 \Dipole=0.7835547,0.3094714,-0.0950792\Quadrupole=-1.1135187,-11.24664
 35,12.3601622,-12.290025,-3.6473538,4.7241426\PG=C01 [X(C13H20N2O4S2)]
 \\@


 THE FIRST AND LAST THING REQUIRED OF GENIUS IS THE LOVE OF TRUTH.

                          -- GOETHE
 Job cpu time:       0 days  0 hours  6 minutes 39.6 seconds.
 File lengths (MBytes):  RWF=     73 Int=      0 D2E=      0 Chk=      6 Scr=      1
 Normal termination of Gaussian 09 at Fri Oct  2 01:36:00 2020.
 Initial command:
 /prod/apps/gaussian/g09d1/l1.exe "/tmp/ubafar01/1462893/Gau-190091.inp" -scrdir="/tmp/ubafar01/1462893/"
 Entering Link 1 = /prod/apps/gaussian/g09d1/l1.exe PID=    190189.
  
 Copyright (c) 1988,1990,1992,1993,1995,1998,2003,2009,2013,
            Gaussian, Inc.  All Rights Reserved.
  
 This is part of the Gaussian(R) 09 program.  It is based on
 the Gaussian(R) 03 system (copyright 2003, Gaussian, Inc.),
 the Gaussian(R) 98 system (copyright 1998, Gaussian, Inc.),
 the Gaussian(R) 94 system (copyright 1995, Gaussian, Inc.),
 the Gaussian 92(TM) system (copyright 1992, Gaussian, Inc.),
[...]
    18  C   -0.000326  -0.000190   0.007055  -0.024132   0.512852   4.895322
    19  C    0.000062  -0.000002   0.000322  -0.034995  -0.037729   0.547323
    20  C    0.000191   0.000314   0.005941  -0.019439  -0.045889  -0.028696
    21  C    0.000096  -0.004060  -0.066494   0.538958  -0.044258  -0.046617
    22  H    0.000113   0.000000   0.000000   0.000000   0.000000   0.000000
    23  H   -0.000022   0.000000   0.000000   0.000000   0.000000   0.000000
    24  H    0.000129   0.000001   0.000000   0.000000   0.000000   0.000000
    25  H    0.000128   0.000000   0.000000   0.000000   0.000000   0.000000
    26  H   -0.000008   0.000021   0.000000   0.000000   0.000000   0.000000
    27  H   -0.000029   0.000000   0.000000   0.000000   0.000000   0.000000
    28  H    0.004327  -0.000481  -0.000034   0.000004   0.000000   0.000000
    29  H    0.005174  -0.005101   0.000888   0.000132  -0.000023   0.000000
    30  H    0.008376   0.001119   0.000090  -0.000002   0.000000   0.000000
    31  H    0.322855  -0.007140  -0.001773   0.010819   0.009808   0.000814
    32  H    0.333687   0.000858   0.000088  -0.000001   0.000054   0.000002
    33  H   -0.004261   0.366675  -0.033049  -0.007822   0.000197   0.000002
    34  H    0.005363   0.362146  -0.026860   0.003972  -0.000114   0.000002
    35  H   -0.000085  -0.029696   0.361177  -0.027642   0.001064  -0.000238
    36  H   -0.000111  -0.040383   0.364998  -0.038795  -0.004119   0.000274
    37  H   -0.000205   0.000175  -0.010881  -0.043459   0.356968  -0.044108
    38  H   -0.000005   0.000001  -0.000169   0.003730  -0.038485   0.360932
    39  H    0.000000   0.000000   0.000007   0.000635   0.004626  -0.042226
    40  H    0.000000   0.000002  -0.000173   0.003589   0.000755   0.004545
    41  H   -0.000038   0.000868  -0.008629  -0.046005   0.005920   0.000294
              19         20         21         22         23         24
     1  C    0.000000   0.000000   0.000000   0.381260   0.373020   0.376871
     2  N    0.000000   0.000000  -0.000001  -0.036813  -0.046119  -0.032156
     3  C    0.000000   0.000000   0.000000  -0.002829  -0.002238   0.004543
     4  S    0.000000   0.000003   0.000000   0.002368  -0.003798  -0.004130
     5  O    0.000000   0.000000   0.000000  -0.000105   0.002594  -0.000171
     6  O    0.000000  -0.000015   0.000012   0.000215  -0.000499   0.011155
     7  N    0.000000   0.000000  -0.000018  -0.000086  -0.000074   0.000103
     8  C    0.000004  -0.000038  -0.000942   0.000003  -0.000008   0.000015
     9  C    0.000000   0.000001   0.000012   0.000000   0.000000   0.000000
    10  S    0.000001  -0.000006   0.000051  -0.000006   0.000000   0.000007
    11  O    0.000000   0.000000   0.000000   0.000000   0.000000   0.000000
    12  O    0.000000   0.000000   0.000001   0.000000   0.000000   0.000000
    13  C    0.000062   0.000191   0.000096   0.000113  -0.000022   0.000129
    14  C   -0.000002   0.000314  -0.004060   0.000000   0.000000   0.000001
    15  C    0.000322   0.005941  -0.066494   0.000000   0.000000   0.000000
    16  C   -0.034995  -0.019439   0.538958   0.000000   0.000000   0.000000
    17  C   -0.037729  -0.045889  -0.044258   0.000000   0.000000   0.000000
    18  C    0.547323  -0.028696  -0.046617   0.000000   0.000000   0.000000
    19  C    4.883092   0.542031  -0.037469   0.000000   0.000000   0.000000
    20  C    0.542031   4.887630   0.524180   0.000000   0.000000   0.000000
    21  C   -0.037469   0.524180   4.991717   0.000000   0.000000   0.000001
    22  H    0.000000   0.000000   0.000000   0.521655  -0.037596  -0.020318
    23  H    0.000000   0.000000   0.000000  -0.037596   0.567683  -0.030567
    24  H    0.000000   0.000000   0.000001  -0.020318  -0.030567   0.497135
    25  H    0.000000   0.000000   0.000000   0.004936  -0.001344   0.000018
    26  H    0.000000   0.000000   0.000000   0.000057  -0.000192  -0.000191
    27  H    0.000000   0.000000   0.000000  -0.001668   0.008282  -0.000175
    28  H    0.000000   0.000000   0.000001   0.000001   0.000007  -0.000004
    29  H    0.000000   0.000000   0.000002   0.000000   0.000000   0.000000
    30  H    0.000000   0.000000   0.000000   0.000000   0.000000   0.000000
    31  H   -0.000129  -0.000449   0.000019  -0.000003   0.000000  -0.000006
    32  H   -0.000003  -0.000007   0.000001  -0.000409   0.000128  -0.000099
    33  H   -0.000001  -0.000074   0.003744   0.000000   0.000000   0.000003
    34  H    0.000000   0.000000   0.000201   0.000000   0.000000   0.000000
    35  H    0.000039  -0.000063  -0.004836   0.000000   0.000000   0.000000
    36  H   -0.000005  -0.000149   0.004867   0.000000   0.000000   0.000000
    37  H    0.004725   0.000250   0.006321   0.000000   0.000000   0.000000
    38  H   -0.042120   0.004537   0.000711   0.000000   0.000000   0.000000
    39  H    0.363303  -0.041951   0.004657   0.000000   0.000000   0.000000
    40  H   -0.041995   0.361550  -0.039196   0.000000   0.000000   0.000000
    41  H    0.004660  -0.041959   0.358222   0.000000   0.000000   0.000000
              25         26         27         28         29         30
     1  C   -0.003590   0.004529  -0.002227  -0.000043   0.000000   0.000000
     2  N   -0.033439  -0.032466  -0.045271   0.002083   0.000000   0.000005
     3  C    0.378088   0.373137   0.371746  -0.000233  -0.000001  -0.000016
     4  S    0.003113  -0.002586  -0.008739  -0.014369  -0.000004   0.000132
     5  O    0.000028  -0.001628   0.005569   0.004364   0.000000  -0.000010
     6  O   -0.000050   0.000026  -0.000038  -0.000123   0.000001   0.000002
     7  N    0.000003   0.012017  -0.000186   0.299478   0.003177  -0.003105
     8  C    0.000004  -0.000092  -0.000028  -0.022159  -0.028174  -0.021747
     9  C    0.000002  -0.000069  -0.000001  -0.005641   0.333740   0.343259
    10  S    0.000018   0.001322   0.000012   0.000089  -0.005942  -0.008546
    11  O    0.000148   0.003219   0.000032   0.000017   0.001093  -0.000381
    12  O    0.000000   0.000002   0.000000   0.000001   0.000581   0.000675
    13  C    0.000128  -0.000008  -0.000029   0.004327   0.005174   0.008376
    14  C    0.000000   0.000021   0.000000  -0.000481  -0.005101   0.001119
    15  C    0.000000   0.000000   0.000000  -0.000034   0.000888   0.000090
    16  C    0.000000   0.000000   0.000000   0.000004   0.000132  -0.000002
    17  C    0.000000   0.000000   0.000000   0.000000  -0.000023   0.000000
    18  C    0.000000   0.000000   0.000000   0.000000   0.000000   0.000000
    19  C    0.000000   0.000000   0.000000   0.000000   0.000000   0.000000
    20  C    0.000000   0.000000   0.000000   0.000000   0.000000   0.000000
    21  C    0.000000   0.000000   0.000000   0.000001   0.000002   0.000000
    22  H    0.004936   0.000057  -0.001668   0.000001   0.000000   0.000000
    23  H   -0.001344  -0.000192   0.008282   0.000007   0.000000   0.000000
    24  H    0.000018  -0.000191  -0.000175  -0.000004   0.000000   0.000000
    25  H    0.522618  -0.021570  -0.034602   0.000000   0.000000  -0.000001
    26  H   -0.021570   0.496914  -0.029868  -0.000472   0.000003   0.000072
    27  H   -0.034602  -0.029868   0.567555   0.000073   0.000000   0.000000
    28  H    0.000000  -0.000472   0.000073   0.315440   0.000042   0.002366
    29  H    0.000000   0.000003   0.000000   0.000042   0.469564  -0.014226
    30  H   -0.000001   0.000072   0.000000   0.002366  -0.014226   0.453964
    31  H   -0.000001   0.000002   0.000000  -0.000073  -0.000030  -0.000204
    32  H   -0.000313  -0.000391   0.000124   0.000139  -0.000224  -0.000296
    33  H    0.000000   0.000001   0.000000  -0.000601   0.000195  -0.000073
    34  H    0.000000  -0.000001   0.000000   0.004095   0.000553   0.000342
    35  H    0.000000   0.000000   0.000000  -0.000003  -0.000163  -0.000001
    36  H    0.000000   0.000000   0.000000   0.000001   0.006947   0.000016
    37  H    0.000000   0.000000   0.000000   0.000000   0.000027   0.000001
    38  H    0.000000   0.000000   0.000000   0.000000   0.000000   0.000000
    39  H    0.000000   0.000000   0.000000   0.000000   0.000000   0.000000
    40  H    0.000000   0.000000   0.000000   0.000000   0.000000   0.000000
    41  H    0.000000   0.000000   0.000000   0.000000   0.000000   0.000000
              31         32         33         34         35         36
     1  C   -0.000001  -0.000660   0.000009   0.000000   0.000000   0.000000
     2  N    0.000296   0.020126  -0.000056   0.000007   0.000000   0.000000
     3  C    0.000000  -0.000844  -0.000002   0.000000   0.000000   0.000000
     4  S   -0.000482   0.003751   0.002291   0.000216  -0.000014   0.000009
     5  O    0.000000   0.000028  -0.000267  -0.000010   0.000000   0.000000
     6  O   -0.000189  -0.000834   0.013692   0.000143   0.000001  -0.000003
     7  N    0.002938  -0.007171  -0.003348  -0.001807  -0.000129   0.000056
     8  C   -0.026940  -0.022159  -0.033862  -0.038593   0.004288  -0.007126
     9  C    0.005332   0.008174   0.004941  -0.007201   0.000067   0.001950
    10  S   -0.005863  -0.009929  -0.000227  -0.000011   0.000029  -0.000311
    11  O    0.001113   0.000390   0.000001   0.000001   0.000000   0.000002
    12  O    0.000452   0.000599   0.000002   0.000002   0.000000   0.000065
    13  C    0.322855   0.333687  -0.004261   0.005363  -0.000085  -0.000111
    14  C   -0.007140   0.000858   0.366675   0.362146  -0.029696  -0.040383
    15  C   -0.001773   0.000088  -0.033049  -0.026860   0.361177   0.364998
    16  C    0.010819  -0.000001  -0.007822   0.003972  -0.027642  -0.038795
    17  C    0.009808   0.000054   0.000197  -0.000114   0.001064  -0.004119
    18  C    0.000814   0.000002   0.000002   0.000002  -0.000238   0.000274
    19  C   -0.000129  -0.000003  -0.000001   0.000000   0.000039  -0.000005
    20  C   -0.000449  -0.000007  -0.000074   0.000000  -0.000063  -0.000149
    21  C    0.000019   0.000001   0.003744   0.000201  -0.004836   0.004867
    22  H   -0.000003  -0.000409   0.000000   0.000000   0.000000   0.000000
    23  H    0.000000   0.000128   0.000000   0.000000   0.000000   0.000000
    24  H   -0.000006  -0.000099   0.000003   0.000000   0.000000   0.000000
    25  H   -0.000001  -0.000313   0.000000   0.000000   0.000000   0.000000
    26  H    0.000002  -0.000391   0.000001  -0.000001   0.000000   0.000000
    27  H    0.000000   0.000124   0.000000   0.000000   0.000000   0.000000
    28  H   -0.000073   0.000139  -0.000601   0.004095  -0.000003   0.000001
    29  H   -0.000030  -0.000224   0.000195   0.000553  -0.000163   0.006947
    30  H   -0.000204  -0.000296  -0.000073   0.000342  -0.000001   0.000016
    31  H    0.468836  -0.010832   0.000422   0.000109   0.000159   0.000027
    32  H   -0.010832   0.432140   0.000128  -0.000076   0.000000  -0.000002
    33  H    0.000422   0.000128   0.518198  -0.030464  -0.000885   0.004336
    34  H    0.000109  -0.000076  -0.030464   0.569974  -0.006257  -0.000875
    35  H    0.000159   0.000000  -0.000885  -0.006257   0.552167  -0.030433
    36  H    0.000027  -0.000002   0.004336  -0.000875  -0.030433   0.570288
    37  H   -0.000041   0.000003   0.000009  -0.000009   0.000173   0.007253
    38  H    0.000020   0.000000   0.000000   0.000000   0.000003  -0.000009
    39  H   -0.000001   0.000000   0.000000   0.000000   0.000000   0.000000
    40  H    0.000000   0.000000   0.000008   0.000000   0.000000   0.000003
    41  H    0.000059   0.000000   0.004740  -0.000159   0.001486   0.000021
              37         38         39         40         41
     1  C    0.000000   0.000000   0.000000   0.000000   0.000000
     2  N    0.000000   0.000000   0.000000   0.000000   0.000001
     3  C    0.000000   0.000000   0.000000   0.000000   0.000000
     4  S    0.000000   0.000000   0.000000   0.000000   0.000050
     5  O    0.000000   0.000000   0.000000   0.000000   0.000000
     6  O    0.000000   0.000000   0.000000  -0.000001   0.000278
     7  N    0.000000   0.000000   0.000000   0.000000   0.000003
     8  C    0.000001   0.000000   0.000000   0.000000   0.000166
     9  C   -0.000080   0.000000   0.000000   0.000000   0.000001
    10  S    0.000847  -0.000002   0.000000   0.000000   0.000001
    11  O    0.000001   0.000000   0.000000   0.000000   0.000000
    12  O    0.001214  -0.000001   0.000000   0.000000   0.000000
    13  C   -0.000205  -0.000005   0.000000   0.000000  -0.000038
    14  C    0.000175   0.000001   0.000000   0.000002   0.000868
    15  C   -0.010881  -0.000169   0.000007  -0.000173  -0.008629
    16  C   -0.043459   0.003730   0.000635   0.003589  -0.046005
    17  C    0.356968  -0.038485   0.004626   0.000755   0.005920
    18  C   -0.044108   0.360932  -0.042226   0.004545   0.000294
    19  C    0.004725  -0.042120   0.363303  -0.041995   0.004660
    20  C    0.000250   0.004537  -0.041951   0.361550  -0.041959
    21  C    0.006321   0.000711   0.004657  -0.039196   0.358222
    22  H    0.000000   0.000000   0.000000   0.000000   0.000000
    23  H    0.000000   0.000000   0.000000   0.000000   0.000000
    24  H    0.000000   0.000000   0.000000   0.000000   0.000000
    25  H    0.000000   0.000000   0.000000   0.000000   0.000000
    26  H    0.000000   0.000000   0.000000   0.000000   0.000000
    27  H    0.000000   0.000000   0.000000   0.000000   0.000000
    28  H    0.000000   0.000000   0.000000   0.000000   0.000000
    29  H    0.000027   0.000000   0.000000   0.000000   0.000000
    30  H    0.000001   0.000000   0.000000   0.000000   0.000000
    31  H   -0.000041   0.000020  -0.000001   0.000000   0.000059
    32  H    0.000003   0.000000   0.000000   0.000000   0.000000
    33  H    0.000009   0.000000   0.000000   0.000008   0.004740
    34  H   -0.000009   0.000000   0.000000   0.000000  -0.000159
    35  H    0.000173   0.000003   0.000000   0.000000   0.001486
    36  H    0.007253  -0.000009   0.000000   0.000003   0.000021
    37  H    0.578254  -0.005226  -0.000163   0.000016  -0.000165
    38  H   -0.005226   0.570460  -0.005275  -0.000173   0.000016
    39  H   -0.000163  -0.005275   0.571996  -0.005185  -0.000167
    40  H    0.000016  -0.000173  -0.005185   0.570568  -0.005221
    41  H   -0.000165   0.000016  -0.000167  -0.005221   0.576230
 Mulliken charges:
               1
     1  C   -0.327145
     2  N   -0.527851
     3  C   -0.326190
     4  S    1.337073
     5  O   -0.565777
     6  O   -0.575963
     7  N   -0.733351
     8  C    0.157017
     9  C   -0.491769
    10  S    1.116474
    11  O   -0.564256
    12  O   -0.562013
    13  C   -0.508068
    14  C   -0.291302
    15  C   -0.372148
    16  C    0.147965
    17  C   -0.208611
    18  C   -0.142865
    19  C   -0.151116
    20  C   -0.147892
    21  C   -0.189883
    22  H    0.189225
    23  H    0.170745
    24  H    0.197833
    25  H    0.185804
    26  H    0.198213
    27  H    0.169439
    28  H    0.411706
    29  H    0.231768
    30  H    0.238189
    31  H    0.230075
    32  H    0.253828
    33  H    0.195400
    34  H    0.165310
    35  H    0.179790
    36  H    0.161212
    37  H    0.148100
    38  H    0.151056
    39  H    0.149743
    40  H    0.150908
    41  H    0.149326
 Sum of Mulliken charges =   0.00000
 Mulliken charges with hydrogens summed into heavy atoms:
               1
     1  C    0.230658
     2  N   -0.527851
     3  C    0.227266
     4  S    1.337073
     5  O   -0.565777
     6  O   -0.575963
     7  N   -0.321645
     8  C    0.157017
     9  C   -0.021812
    10  S    1.116474
    11  O   -0.564256
    12  O   -0.562013
    13  C   -0.024165
    14  C    0.069408
    15  C   -0.031145
    16  C    0.147965
    17  C   -0.060511
    18  C    0.008190
    19  C   -0.001373
    20  C    0.003016
    21  C   -0.040557
 Electronic spatial extent (au):  <R**2>=           7124.5714
 Charge=              0.0000 electrons
 Dipole moment (field-independent basis, Debye):
    X=              0.4957    Y=             -1.5186    Z=              2.4964  Tot=              2.9638
 Quadrupole moment (field-independent basis, Debye-Ang):
   XX=           -138.0357   YY=           -161.8427   ZZ=           -123.1930
   XY=             -6.3413   XZ=              6.5256   YZ=             20.2958
 Traceless Quadrupole moment (field-independent basis, Debye-Ang):
   XX=              2.9881   YY=            -20.8189   ZZ=             17.8308
   XY=             -6.3413   XZ=              6.5256   YZ=             20.2958
 Octapole moment (field-independent basis, Debye-Ang**2):
  XXX=            -37.6535  YYY=            -59.7973  ZZZ=             10.1434  XYY=             11.3414
  XXY=             14.0801  XXZ=            -60.1080  XZZ=            -16.8018  YZZ=              1.1065
  YYZ=             22.2708  XYZ=            -19.6931
 Hexadecapole moment (field-independent basis, Debye-Ang**3):
 XXXX=          -5563.9275 YYYY=          -2786.5137 ZZZZ=          -1139.5817 XXXY=             14.3617
 XXXZ=              5.0890 YYYX=            -42.1395 YYYZ=            147.8215 ZZZX=             11.0396
 ZZZY=             21.9973 XXYY=          -1395.3505 XXZZ=          -1037.2195 YYZZ=           -616.6074
 XXYZ=            118.1593 YYXZ=              9.0499 ZZXY=             -4.4605
 N-N= 2.228714038723D+03 E-N=-8.483704594827D+03  KE= 1.702522740771D+03
 No NMR shielding tensors so no spin-rotation constants.
 Leave Link  601 at Fri Oct  2 01:41:23 2020, MaxMem=  2147483648 cpu:         0.3
 (Enter /prod/apps/gaussian/g09d1/l9999.exe)
 1\1\GINC-PIRINEUS16\SP\RB3LYP\6-31G(d)\C13H20N2O4S2\UBAFAR01\02-Oct-20
 20\0\\#p b3lyp/6-31G(d) scrf=(iefpcm,read,solvent=Water) geom=allcheck
  guess=read\\SM40.n.28.pdb.xyz\\0,1\C,0,3.307,0.46,2.116\N,0,3.402,-0.
 394,0.918\C,0,2.186,-0.372,0.088\S,0,4.83,-0.198,0.049\O,0,4.757,0.897
 ,-0.931\O,0,5.903,-0.173,1.053\N,0,4.828,-1.598,-0.868\C,0,5.455,-2.85
 7,-0.393\C,0,4.896,-3.994,-1.312\S,0,3.746,-4.505,0.007\O,0,2.372,-4.0
 1,-0.221\O,0,3.915,-5.908,0.435\C,0,4.772,-3.32,0.935\C,0,6.992,-2.759
 ,-0.403\C,0,7.793,-3.989,0.067\C,0,7.9,-4.177,1.568\C,0,7.56,-5.4,2.16
 \C,0,7.691,-5.594,3.537\C,0,8.167,-4.563,4.346\C,0,8.511,-3.338,3.769\
 C,0,8.378,-3.149,2.393\H,0,2.464,0.094,2.703\H,0,3.134,1.514,1.866\H,0
 ,4.219,0.366,2.702\H,0,1.361,-0.72,0.712\H,0,2.309,-1.059,-0.748\H,0,1
 .957,0.633,-0.284\H,0,5.114,-1.355,-1.819\H,0,5.614,-4.789,-1.511\H,0,
 4.403,-3.672,-2.229\H,0,5.441,-3.854,1.61\H,0,4.189,-2.562,1.455\H,0,7
 .274,-1.889,0.195\H,0,7.279,-2.534,-1.436\H,0,8.805,-3.877,-0.342\H,0,
 7.393,-4.906,-0.379\H,0,7.184,-6.203,1.533\H,0,7.419,-6.55,3.974\H,0,8
 .27,-4.71,5.416\H,0,8.883,-2.53,4.389\H,0,8.649,-2.193,1.955\\Version=
 AM64L-G09RevD.01\State=1-A\HF=-1714.0642265\RMSD=6.176e-09\Dipole=0.98
 96263,0.3738762,-0.490435\Quadrupole=-1.3307843,-13.9652516,15.2960359
 ,-14.370919,-5.1358359,5.9415463\PG=C01 [X(C13H20N2O4S2)]\\@


          EVOLUTION
 IN THE BEGINNING GOD MADE MAN.
 HE WORKED THE DIRT WITH HIS HANDS.
 THEN GOD DECIDED TO GIVE MAN SCIENCE,
 MAN SHOULD BE USEFUL (LIKE AN APPLIANCE.)
 BUT SOON MAN'S KNOWLEDGE GREW TOO GREAT,
 TO THE HEADING SCIENCE HE COULDN'T RELATE
 SO GOD SAID "LETS HAVE DIFFERENT FIELDS,
 WE'LL DIVIDE THEM UP, SEE WHAT IT YIELDS."
 ENTER PHYSICS, CHEMISTRY, BIO
 THEY SPRANG UP AROUND THE NILE.
 BUT CHEMISTRY SURPASSED THE REST
 FAR AND AWAY IT WAS THE BEST.
 EXPERIMENT WAS GOD'S DECREE
 EXPERIMENT DID CHEMISTS WITH LOTS OF GLEE
 BUT SOON THEIR TESTS BEGAN TO BOG,
 THEY FOUND THEMSELVES DEEP IN A FOG.
 "GIVE US SOME HELP" THEY CRIED TO GOD.
 GOD LOOKED AROUND, THEN GAVE THE NOD.
 ENTER EINSTEIN, HEISENBERG, BOHR,
 REACTION PATHS WERE CLEAR ONCE MORE.
 WITH THEORISTS GOD SEND DIRECTION
 AND THEN HE STOPPED, HE'D MADE PERFECTION.
          -- THOMAS A. HOLME, 1981
 Job cpu time:       0 days  0 hours  5 minutes 23.4 seconds.
 File lengths (MBytes):  RWF=    229 Int=      0 D2E=      0 Chk=      7 Scr=      1
 Normal termination of Gaussian 09 at Fri Oct  2 01:41:23 2020.
