 Entering Gaussian System, Link 0=g09
 Initial command:
 /prod/apps/gaussian/g09d1/l1.exe "/tmp/ubafar01/1462947/Gau-2834.inp" -scrdir="/tmp/ubafar01/1462947/"
 Entering Link 1 = /prod/apps/gaussian/g09d1/l1.exe PID=      2835.
  
 Copyright (c) 1988,1990,1992,1993,1995,1998,2003,2009,2013,
            Gaussian, Inc.  All Rights Reserved.
  
 This is part of the Gaussian(R) 09 program.  It is based on
 the Gaussian(R) 03 system (copyright 2003, Gaussian, Inc.),
 the Gaussian(R) 98 system (copyright 1998, Gaussian, Inc.),
 the Gaussian(R) 94 system (copyright 1995, Gaussian, Inc.),
 the Gaussian 92(TM) system (copyright 1992, Gaussian, Inc.),
 the Gaussian 90(TM) system (copyright 1990, Gaussian, Inc.),
 the Gaussian 88(TM) system (copyright 1988, Gaussian, Inc.),
 the Gaussian 86(TM) system (copyright 1986, Carnegie Mellon
 University), and the Gaussian 82(TM) system (copyright 1983,
 Carnegie Mellon University). Gaussian is a federally registered
 trademark of Gaussian, Inc.
  
 This software contains proprietary and confidential information,
 including trade secrets, belonging to Gaussian, Inc.
  
 This software is provided under written license and may be
 used, copied, transmitted, or stored only in accord with that
 written license.
  
 The following legend is applicable only to US Government
 contracts under FAR:
  
                    RESTRICTED RIGHTS LEGEND
  
 Use, reproduction and disclosure by the US Government is
 subject to restrictions as set forth in subparagraphs (a)
 and (c) of the Commercial Computer Software - Restricted
 Rights clause in FAR 52.227-19.
  
 Gaussian, Inc.
 340 Quinnipiac St., Bldg. 40, Wallingford CT 06492
  
  
 ---------------------------------------------------------------
 Warning -- This program may not be used in any manner that
 competes with the business of Gaussian, Inc. or will provide
 assistance to any competitor of Gaussian, Inc.  The licensee
 of this program is prohibited from giving any competitor of
 Gaussian, Inc. access to this program.  By using this program,
 the user acknowledges that Gaussian, Inc. is engaged in the
 business of creating and licensing software in the field of
 computational chemistry and represents and warrants to the
 licensee that it is not a competitor of Gaussian, Inc. and that
 it will not use this program in any manner prohibited above.
 ---------------------------------------------------------------
  

 Cite this work as:
 Gaussian 09, Revision D.01,
 M. J. Frisch, G. W. Trucks, H. B. Schlegel, G. E. Scuseria, 
 M. A. Robb, J. R. Cheeseman, G. Scalmani, V. Barone, B. Mennucci, 
 G. A. Petersson, H. Nakatsuji, M. Caricato, X. Li, H. P. Hratchian, 
 A. F. Izmaylov, J. Bloino, G. Zheng, J. L. Sonnenberg, M. Hada, 
 M. Ehara, K. Toyota, R. Fukuda, J. Hasegawa, M. Ishida, T. Nakajima, 
 Y. Honda, O. Kitao, H. Nakai, T. Vreven, J. A. Montgomery, Jr., 
 J. E. Peralta, F. Ogliaro, M. Bearpark, J. J. Heyd, E. Brothers, 
 K. N. Kudin, V. N. Staroverov, T. Keith, R. Kobayashi, J. Normand, 
 K. Raghavachari, A. Rendell, J. C. Burant, S. S. Iyengar, J. Tomasi, 
 M. Cossi, N. Rega, J. M. Millam, M. Klene, J. E. Knox, J. B. Cross, 
 V. Bakken, C. Adamo, J. Jaramillo, R. Gomperts, R. E. Stratmann, 
 O. Yazyev, A. J. Austin, R. Cammi, C. Pomelli, J. W. Ochterski, 
 R. L. Martin, K. Morokuma, V. G. Zakrzewski, G. A. Voth, 
 P. Salvador, J. J. Dannenberg, S. Dapprich, A. D. Daniels, 
 O. Farkas, J. B. Foresman, J. V. Ortiz, J. Cioslowski, 
 and D. J. Fox, Gaussian, Inc., Wallingford CT, 2013.
 
 ******************************************
 Gaussian 09:  AM64L-G09RevD.01 24-Apr-2013
                 2-Oct-2020 
 ******************************************
 %nproc=1
 Will use up to    1 processors via shared memory.
 %Chk=SM40.n.30.pdb.xyz.mst.n.o.chk
 %mem=16GB
 -----------------
 #p b3lyp/6-31G(d)
 -----------------
 1/38=1/1;
 2/12=2,17=6,18=5,40=1/2;
 3/5=1,6=6,7=1,11=2,16=1,25=1,30=1,74=-5/1,2,3;
 4//1;
 5/5=2,38=5/2;
 6/7=2,8=2,9=2,10=2,28=1/1;
 99/5=1,9=1/99;
 Leave Link    1 at Fri Oct  2 06:12:39 2020, MaxMem=  2147483648 cpu:         0.0
 (Enter /prod/apps/gaussian/g09d1/l101.exe)
 -----------------
 SM40.n.30.pdb.xyz
 -----------------
 Symbolic Z-matrix:
 Charge =  0 Multiplicity = 1
 C                     3.399     0.752    -1.102 
 N                     3.283    -0.407    -0.204 
 C                     2.551    -0.131     1.039 
 S                     2.818    -1.825    -0.973 
 O                     1.36     -1.983    -1.035 
 O                     3.606    -1.895    -2.21 
 N                     3.318    -2.972     0.155 
 C                     4.673    -3.574     0.079 
 C                     4.837    -4.486    -1.186 
 S                     4.242    -5.91     -0.208 
 O                     2.771    -6.015    -0.304 
 O                     5.064    -7.126    -0.287 
 C                     4.687    -4.734     1.127 
 C                     5.733    -2.474     0.25 
 C                     7.213    -2.899     0.26 
 C                     7.727    -3.515     1.548 
 C                     8.425    -4.729     1.53 
 C                     8.928    -5.288     2.707 
 C                     8.74     -4.635     3.926 
 C                     8.048    -3.422     3.957 
 C                     7.548    -2.868     2.78 
 H                     3.944     1.529    -0.561 
 H                     2.422     1.151    -1.402 
 H                     3.965     0.467    -1.986 
 H                     3.086     0.662     1.566 
 H                     2.55     -1.028     1.658 
 H                     1.52      0.191     0.854 
 H                     2.579    -3.676     0.2 
 H                     5.877    -4.658    -1.467 
 H                     4.238    -4.218    -2.053 
 H                     5.687    -4.959     1.498 
 H                     3.966    -4.666     1.942 
 H                     5.501    -1.932     1.171 
 H                     5.579    -1.766    -0.566 
 H                     7.795    -1.992     0.053 
 H                     7.429    -3.576    -0.573 
 H                     8.576    -5.238     0.582 
 H                     9.464    -6.231     2.669 
 H                     9.127    -5.066     4.843 
 H                     7.9      -2.906     4.9 
 H                     7.014    -1.923     2.817 
 
 NAtoms=     41 NQM=       41 NQMF=       0 NMMI=      0 NMMIF=      0
                NMic=       0 NMicF=      0.
                    Isotopes and Nuclear Properties:
 (Nuclear quadrupole moments (NQMom) in fm**2, nuclear magnetic moments (NMagM)
  in nuclear magnetons)

  Atom         1           2           3           4           5           6           7           8           9          10
 IAtWgt=          12          14          12          32          16          16          14          12          12          32
 AtmWgt=  12.0000000  14.0030740  12.0000000  31.9720718  15.9949146  15.9949146  14.0030740  12.0000000  12.0000000  31.9720718
 NucSpn=           0           2           0           0           0           0           2           0           0           0
 AtZEff=   0.0000000   0.0000000   0.0000000   0.0000000   0.0000000   0.0000000   0.0000000   0.0000000   0.0000000   0.0000000
 NQMom=    0.0000000   2.0440000   0.0000000   0.0000000   0.0000000   0.0000000   2.0440000   0.0000000   0.0000000   0.0000000
 NMagM=    0.0000000   0.4037610   0.0000000   0.0000000   0.0000000   0.0000000   0.4037610   0.0000000   0.0000000   0.0000000
 AtZNuc=   6.0000000   7.0000000   6.0000000  16.0000000   8.0000000   8.0000000   7.0000000   6.0000000   6.0000000  16.0000000

  Atom        11          12          13          14          15          16          17          18          19          20
 IAtWgt=          16          16          12          12          12          12          12          12          12          12
 AtmWgt=  15.9949146  15.9949146  12.0000000  12.0000000  12.0000000  12.0000000  12.0000000  12.0000000  12.0000000  12.0000000
 NucSpn=           0           0           0           0           0           0           0           0           0           0
 AtZEff=   0.0000000   0.0000000   0.0000000   0.0000000   0.0000000   0.0000000   0.0000000   0.0000000   0.0000000   0.0000000
 NQMom=    0.0000000   0.0000000   0.0000000   0.0000000   0.0000000   0.0000000   0.0000000   0.0000000   0.0000000   0.0000000
 NMagM=    0.0000000   0.0000000   0.0000000   0.0000000   0.0000000   0.0000000   0.0000000   0.0000000   0.0000000   0.0000000
 AtZNuc=   8.0000000   8.0000000   6.0000000   6.0000000   6.0000000   6.0000000   6.0000000   6.0000000   6.0000000   6.0000000

  Atom        21          22          23          24          25          26          27          28          29          30
 IAtWgt=          12           1           1           1           1           1           1           1           1           1
 AtmWgt=  12.0000000   1.0078250   1.0078250   1.0078250   1.0078250   1.0078250   1.0078250   1.0078250   1.0078250   1.0078250
 NucSpn=           0           1           1           1           1           1           1           1           1           1
 AtZEff=   0.0000000   0.0000000   0.0000000   0.0000000   0.0000000   0.0000000   0.0000000   0.0000000   0.0000000   0.0000000
 NQMom=    0.0000000   0.0000000   0.0000000   0.0000000   0.0000000   0.0000000   0.0000000   0.0000000   0.0000000   0.0000000
 NMagM=    0.0000000   2.7928460   2.7928460   2.7928460   2.7928460   2.7928460   2.7928460   2.7928460   2.7928460   2.7928460
 AtZNuc=   6.0000000   1.0000000   1.0000000   1.0000000   1.0000000   1.0000000   1.0000000   1.0000000   1.0000000   1.0000000

  Atom        31          32          33          34          35          36          37          38          39          40
 IAtWgt=           1           1           1           1           1           1           1           1           1           1
 AtmWgt=   1.0078250   1.0078250   1.0078250   1.0078250   1.0078250   1.0078250   1.0078250   1.0078250   1.0078250   1.0078250
 NucSpn=           1           1           1           1           1           1           1           1           1           1
 AtZEff=   0.0000000   0.0000000   0.0000000   0.0000000   0.0000000   0.0000000   0.0000000   0.0000000   0.0000000   0.0000000
 NQMom=    0.0000000   0.0000000   0.0000000   0.0000000   0.0000000   0.0000000   0.0000000   0.0000000   0.0000000   0.0000000
 NMagM=    2.7928460   2.7928460   2.7928460   2.7928460   2.7928460   2.7928460   2.7928460   2.7928460   2.7928460   2.7928460
 AtZNuc=   1.0000000   1.0000000   1.0000000   1.0000000   1.0000000   1.0000000   1.0000000   1.0000000   1.0000000   1.0000000

  Atom        41
 IAtWgt=           1
 AtmWgt=   1.0078250
 NucSpn=           1
 AtZEff=   0.0000000
 NQMom=    0.0000000
 NMagM=    2.7928460
 AtZNuc=   1.0000000
 Leave Link  101 at Fri Oct  2 06:12:39 2020, MaxMem=  2147483648 cpu:         0.1
 (Enter /prod/apps/gaussian/g09d1/l202.exe)
                          Input orientation:                          
 ---------------------------------------------------------------------
 Center     Atomic      Atomic             Coordinates (Angstroms)
 Number     Number       Type             X           Y           Z
 ---------------------------------------------------------------------
      1          6           0        3.399000    0.752000   -1.102000
      2          7           0        3.283000   -0.407000   -0.204000
      3          6           0        2.551000   -0.131000    1.039000
      4         16           0        2.818000   -1.825000   -0.973000
      5          8           0        1.360000   -1.983000   -1.035000
      6          8           0        3.606000   -1.895000   -2.210000
      7          7           0        3.318000   -2.972000    0.155000
      8          6           0        4.673000   -3.574000    0.079000
      9          6           0        4.837000   -4.486000   -1.186000
     10         16           0        4.242000   -5.910000   -0.208000
     11          8           0        2.771000   -6.015000   -0.304000
     12          8           0        5.064000   -7.126000   -0.287000
     13          6           0        4.687000   -4.734000    1.127000
     14          6           0        5.733000   -2.474000    0.250000
     15          6           0        7.213000   -2.899000    0.260000
     16          6           0        7.727000   -3.515000    1.548000
     17          6           0        8.425000   -4.729000    1.530000
     18          6           0        8.928000   -5.288000    2.707000
     19          6           0        8.740000   -4.635000    3.926000
     20          6           0        8.048000   -3.422000    3.957000
     21          6           0        7.548000   -2.868000    2.780000
     22          1           0        3.944000    1.529000   -0.561000
     23          1           0        2.422000    1.151000   -1.402000
     24          1           0        3.965000    0.467000   -1.986000
     25          1           0        3.086000    0.662000    1.566000
     26          1           0        2.550000   -1.028000    1.658000
     27          1           0        1.520000    0.191000    0.854000
     28          1           0        2.579000   -3.676000    0.200000
     29          1           0        5.877000   -4.658000   -1.467000
     30          1           0        4.238000   -4.218000   -2.053000
     31          1           0        5.687000   -4.959000    1.498000
     32          1           0        3.966000   -4.666000    1.942000
     33          1           0        5.501000   -1.932000    1.171000
     34          1           0        5.579000   -1.766000   -0.566000
     35          1           0        7.795000   -1.992000    0.053000
     36          1           0        7.429000   -3.576000   -0.573000
     37          1           0        8.576000   -5.238000    0.582000
     38          1           0        9.464000   -6.231000    2.669000
     39          1           0        9.127000   -5.066000    4.843000
     40          1           0        7.900000   -2.906000    4.900000
     41          1           0        7.014000   -1.923000    2.817000
 ---------------------------------------------------------------------
                    Distance matrix (angstroms):
                    1          2          3          4          5
     1  C    0.000000
     2  N    1.470762   0.000000
     3  C    2.466308   1.468690   0.000000
     4  S    2.644831   1.678782   2.643685   0.000000
     5  O    3.412072   2.621501   3.024874   1.467846   0.000000
     6  O    2.876999   2.518434   3.844570   1.468337   2.536313
     7  N    3.931258   2.590238   3.072625   1.684634   2.495593
     8  C    4.661771   3.470170   4.156770   2.758030   3.840345
     9  C    5.432453   4.474090   5.398374   3.347036   4.286880
    10  S    6.774373   5.585938   6.149092   4.393202   4.940767
    11  O    6.842768   5.632212   6.039330   4.243332   4.333856
    12  O    8.093166   6.951533   7.550064   5.797906   6.381972
    13  C    6.059998   4.739800   5.075219   4.045422   4.828165
    14  C    4.205061   3.237453   4.029553   3.227097   4.584259
    15  C    5.452654   4.676565   5.477491   4.689327   6.064131
    16  C    6.630337   5.698974   6.204959   5.771466   7.039716
    17  C    7.888565   6.937334   7.475731   6.792398   8.002123
    18  C    9.031053   8.010250   8.369170   7.928863   9.066433
    19  C    9.100925   8.044360   8.180740   8.183299   9.279495
    20  C    8.039214   7.007808   7.040058   7.362622   8.468774
    21  C    6.737101   5.757691   5.957538   6.127459   7.323168
    22  H    1.092445   2.076648   2.693705   3.561873   4.385872
    23  H    1.097146   2.145667   2.760189   3.032727   3.329338
    24  H    1.087675   2.098696   3.392289   2.755910   3.700395
    25  H    2.687804   2.077130   1.092155   3.564199   4.091491
    26  H    3.392168   2.095226   1.089849   2.762100   3.095218
    27  H    2.769711   2.141293   1.095842   3.014463   2.884475
    28  H    4.687727   3.368263   3.643039   2.204371   2.424342
    29  H    5.961695   5.137607   6.151101   4.198500   5.267403
    30  H    5.129252   4.342182   5.395369   2.984837   3.783442
    31  H    6.679107   5.421875   5.775358   4.915176   5.830574
    32  H    6.240364   4.817768   4.835686   4.229233   4.780403
    33  H    4.097412   3.022544   3.458833   3.436084   4.692219
    34  H    3.373429   2.692497   3.797109   2.791460   4.250531
    35  H    5.309273   4.789198   5.651111   5.084397   6.526335
    36  H    5.937367   5.231447   6.185584   4.948467   6.291570
    37  H    8.094275   7.209175   7.911443   6.871765   8.079627
    38  H    9.988341   8.965370   9.362503   8.766203   9.871167
    39  H   10.099611   9.018360   9.059162   9.172427  10.216754
    40  H    8.346494   7.322056   7.156797   7.841391   8.879626
    41  H    5.965099   5.034388   5.127467   5.655097   6.841726
                    6          7          8          9         10
     6  O    0.000000
     7  N    2.614593   0.000000
     8  C    3.032664   1.484657   0.000000
     9  C    3.045853   2.529395   1.568077   0.000000
    10  S    4.531305   3.101192   2.392703   1.827097   0.000000
    11  O    4.615676   3.125658   3.118136   2.717374   1.477864
    12  O    5.760821   4.527648   3.592150   2.798094   1.469891
    13  C    4.512655   2.433842   1.563362   2.331088   1.833910
    14  C    3.303176   2.467641   1.537154   2.629269   3.773452
    15  C    4.485462   3.897099   2.634385   3.202321   4.255818
    16  C    5.807719   4.655597   3.389448   4.095082   4.578732
    17  C    6.726211   5.573071   4.185323   4.506601   4.681121
    18  C    8.000814   6.583970   5.286701   5.703940   5.553621
    19  C    8.456716   6.810587   5.697861   6.433363   6.240800
    20  C    7.752095   6.085278   5.143210   6.155734   6.166280
    21  C    6.433210   4.979392   4.007426   5.069181   5.395511
    22  H    3.815393   4.600384   5.194386   6.112962   7.453330
    23  H    3.366428   4.497354   5.439300   6.136338   7.388894
    24  H    2.399604   4.102342   4.592948   5.092405   6.626020
    25  H    4.589861   3.905215   4.761663   6.094375   6.904679
    26  H    4.102225   2.574484   3.671850   5.027571   5.493518
    27  H    4.253338   3.704858   4.971646   6.085920   6.764564
    28  H    3.167774   1.021647   2.099972   2.770498   2.814745
    29  H    3.652897   3.467270   2.239372   1.090938   2.413671
    30  H    2.412551   2.697069   2.269226   1.087343   2.503379
    31  H    5.240985   3.371050   2.227102   2.854835   2.429581
    32  H    5.004712   2.546156   2.272242   3.251988   2.499242
    33  H    3.876023   2.622851   2.138741   3.538257   4.394452
    34  H    2.571402   2.662029   2.122669   2.886757   4.369035
    35  H    4.762174   4.584139   3.500041   4.062625   5.295532
    36  H    4.485628   4.218426   2.832074   2.814664   3.967083
    37  H    6.608465   5.741398   4.272624   4.203742   4.456371
    38  H    8.770502   7.396931   6.059821   6.270182   5.970716
    39  H    9.501657   7.752849   6.690282   7.422219   7.077299
    40  H    8.367357   6.596522   5.839674   6.994124   6.963953
    41  H    6.073383   4.674084   3.962667   5.228031   5.721082
                   11         12         13         14         15
    11  O    0.000000
    12  O    2.548030   0.000000
    13  C    2.712891   2.804138   0.000000
    14  C    4.649628   4.730437   2.640236   0.000000
    15  C    5.455173   4.773357   3.240307   1.539846   0.000000
    16  C    5.851653   4.847485   3.302242   2.597022   1.517431
    17  C    6.081535   4.510368   3.759665   3.737685   2.535891
    18  C    6.892264   5.222334   4.559539   4.915635   3.825749
    19  C    7.444882   6.121064   4.926562   5.217753   4.334164
    20  C    7.261301   6.374591   4.585473   4.472111   3.826038
    21  C    6.498799   5.805800   3.794692   3.138528   2.542358
    22  H    7.638973   8.731466   6.528902   4.458952   5.564853
    23  H    7.258027   8.759687   6.794063   5.180005   6.489871
    24  H    6.802285   7.857993   6.104298   4.095730   5.188832
    25  H    6.941070   8.246153   5.645595   4.309636   5.605220
    26  H    5.363623   6.876687   4.310820   3.768935   5.215229
    27  H    6.435868   8.209769   5.861744   5.021594   6.504705
    28  H    2.400375   4.279590   2.534237   3.375651   4.699073
    29  H    3.583470   2.853838   2.854945   2.781848   2.803838
    30  H    2.905219   3.501071   3.252731   3.252748   3.992537
    31  H    3.586836   2.875803   1.090076   2.781159   2.846914
    32  H    2.879643   3.496519   1.090271   3.284816   4.061333
    33  H    5.128295   5.412427   2.918173   1.093540   2.167015
    34  H    5.099756   5.391907   3.531421   1.091254   2.153119
    35  H    6.446127   5.825111   4.281554   2.126729   1.097370
    36  H    5.264793   4.275222   3.427758   2.183609   1.094931
    37  H    5.923407   4.080913   3.959212   3.979016   2.726238
    38  H    7.326775   5.375775   5.238177   5.821252   4.687484
    39  H    8.233526   6.860646   5.799352   6.271630   5.418780
    40  H    7.940664   7.263351   5.282091   5.148302   4.690588
    41  H    6.669944   6.364631   4.021536   2.921310   2.744162
                   16         17         18         19         20
    16  C    0.000000
    17  C    1.400473   0.000000
    18  C    2.434997   1.396717   0.000000
    19  C    2.816994   2.418445   1.395605   0.000000
    20  C    2.432071   2.782213   2.412231   1.396851   0.000000
    21  C    1.403023   2.407270   2.786778   2.420014   1.393645
    22  H    6.648376   7.975851   9.054920   9.007202   7.859233
    23  H    7.656179   8.899833  10.033576  10.088732   9.015713
    24  H    6.519059   7.697550   8.931721   9.153293   8.192341
    25  H    6.243920   7.587430   8.416255   8.099106   6.856922
    26  H    5.744441   6.944740   7.741246   7.514677   6.422199
    27  H    7.262432   8.505434   9.398485   9.211724   8.080666
    28  H    5.323996   6.087152   7.013800   7.263655   6.639994
    29  H    3.717415   3.934381   5.208433   6.105878   5.971659
    30  H    5.063056   5.534436   6.767466   7.496021   7.160294
    31  H    2.499847   2.747830   3.474767   3.914201   3.739435
    32  H    3.952867   4.478437   5.059007   5.169941   4.719161
    33  H    2.757371   4.062249   5.036503   5.038587   4.058215
    34  H    3.484523   4.612190   5.859421   6.196866   5.412562
    35  H    2.135223   3.173263   4.380756   4.783158   4.165348
    36  H    2.142701   2.596928   3.992035   4.804290   4.574689
    37  H    2.150043   1.086548   2.154537   3.401888   3.868755
    38  H    3.413278   2.152405   1.085352   2.156720   3.399188
    39  H    3.901618   3.403284   2.156706   1.084629   2.156843
    40  H    3.411263   3.867280   3.397051   2.154929   1.085085
    41  H    2.157126   3.394249   3.872818   3.400574   2.148431
                   21         22         23         24         25
    21  C    0.000000
    22  H    6.594293   0.000000
    23  H    7.740631   1.779508   0.000000
    24  H    6.831901   1.777332   1.785990   0.000000
    25  H    5.817572   2.451934   3.080429   3.664338   0.000000
    26  H    5.442838   3.661345   3.758727   4.185210   1.775348
    27  H    7.028779   3.109380   2.612420   3.757632   1.783575
    28  H    5.656874   5.434553   5.088318   4.885084   4.576161
    29  H    4.902382   6.544944   6.759122   5.494609   6.729871
    30  H    6.011363   5.944788   5.705070   4.693426   6.183742
    31  H    3.078819   7.026498   7.510148   6.674205   6.193986
    32  H    4.094603   6.681581   6.885039   6.463503   5.413258
    33  H    2.766801   4.171642   5.060184   4.252193   3.566102
    34  H    4.035726   3.678352   4.378862   3.099627   4.081134
    35  H    2.874876   5.254012   6.392543   4.987294   5.613160
    36  H    3.428999   6.181132   6.935547   5.508331   6.434098
    37  H    3.391886   8.279744   9.089956   7.771935   8.119012
    38  H    3.872098  10.055889  10.984386   9.837237   9.455630
    39  H    3.403001   9.978012  11.072856  10.192918   8.946641
    40  H    2.149360   8.071040   9.283477   8.618489   6.857170
    41  H    1.086071   5.722944   6.952403   6.170681   4.865841
                   26         27         28         29         30
    26  H    0.000000
    27  H    1.786974   0.000000
    28  H    3.022997   4.062374   0.000000
    29  H    5.831934   6.919775   3.823613   0.000000
    30  H    5.176579   5.939483   2.849922   1.795360   0.000000
    31  H    5.031812   6.655909   3.604242   2.986290   3.906185
    32  H    3.914174   5.545909   2.436890   3.908103   4.029232
    33  H    3.124546   4.522829   3.538709   3.812020   4.149113
    34  H    3.829577   4.724588   3.637974   3.043726   3.165715
    35  H    5.569142   6.691989   5.483076   3.618934   4.694951
    36  H    5.939218   7.151426   4.912233   2.092526   3.575618
    37  H    7.429304   8.907029   6.208847   3.437936   5.177052
    38  H    8.711873  10.375136   7.747723   5.696261   7.325335
    39  H    8.349048  10.070483   8.146524   7.109505   8.495660
    40  H    6.531458   8.164920   7.141144   6.906571   7.967170
    41  H    4.698042   6.205353   5.439754   5.208229   6.057235
                   31         32         33         34         35
    31  H    0.000000
    32  H    1.801340   0.000000
    33  H    3.050288   3.228842   0.000000
    34  H    3.803552   4.159547   1.746657   0.000000
    35  H    3.915965   5.037841   2.552638   2.311902   0.000000
    36  H    3.039127   4.416525   3.075948   2.588175   1.742093
    37  H    3.043554   4.840339   4.553261   4.728075   3.380284
    38  H    4.153908   5.762444   6.035791   6.744974   5.253393
    39  H    4.799383   5.933947   6.037666   7.261927   5.845323
    40  H    4.548162   5.227210   4.539749   6.046801   4.933541
    41  H    3.566229   4.192848   2.235747   3.678119   2.873050
                   36         37         38         39         40
    36  H    0.000000
    37  H    2.326344   0.000000
    38  H    4.658413   2.475916   0.000000
    39  H    5.868250   4.299919   2.489391   0.000000
    40  H    5.533938   4.953819   4.298730   2.484830   0.000000
    41  H    3.794303   4.292353   4.958152   4.295101   2.467828
                   41
    41  H    0.000000
 Stoichiometry    C13H20N2O4S2
 Framework group  C1[X(C13H20N2O4S2)]
 Deg. of freedom   117
 Full point group                 C1      NOp   1
 Largest Abelian subgroup         C1      NOp   1
 Largest concise Abelian subgroup C1      NOp   1
                         Standard orientation:                         
 ---------------------------------------------------------------------
 Center     Atomic      Atomic             Coordinates (Angstroms)
 Number     Number       Type             X           Y           Z
 ---------------------------------------------------------------------
      1          6           0       -3.780724   -2.493788    0.790203
      2          7           0       -2.893464   -1.771522   -0.134049
      3          6           0       -2.997239   -2.211937   -1.531302
      4         16           0       -2.911208   -0.104365    0.062376
      5          8           0       -3.949035    0.549247   -0.744023
      6          8           0       -2.862291    0.135920    1.510092
      7          7           0       -1.464923    0.315775   -0.692432
      8          6           0       -0.201106    0.407223    0.081267
      9          6           0       -0.223693    1.600625    1.098196
     10         16           0        0.471709    2.686555   -0.196199
     11          8           0       -0.617054    3.310790   -0.976587
     12          8           0        1.633389    3.493160    0.204389
     13          6           0        0.852703    1.032180   -0.889822
     14          6           0        0.136635   -0.969389    0.676004
     15          6           0        1.447896   -1.105121    1.471804
     16          6           0        2.722508   -1.208850    0.654980
     17          6           0        3.819094   -0.383989    0.935025
     18          6           0        5.006760   -0.493459    0.208192
     19          6           0        5.115101   -1.437086   -0.814326
     20          6           0        4.029469   -2.267803   -1.101564
     21          6           0        2.846447   -2.155005   -0.373565
     22          1           0       -3.499710   -3.548802    0.752635
     23          1           0       -4.838973   -2.401214    0.515851
     24          1           0       -3.630343   -2.118875    1.800086
     25          1           0       -2.737850   -3.272413   -1.561488
     26          1           0       -2.279571   -1.655593   -2.133967
     27          1           0       -4.005439   -2.075667   -1.938528
     28          1           0       -1.654845    1.161601   -1.233053
     29          1           0        0.503619    1.499149    1.904958
     30          1           0       -1.199320    1.883590    1.486006
     31          1           0        1.876983    0.755003   -0.640243
     32          1           0        0.659683    0.923232   -1.957325
     33          1           0        0.128076   -1.694115   -0.142853
     34          1           0       -0.696300   -1.237904    1.327889
     35          1           0        1.348238   -2.015678    2.076102
     36          1           0        1.550283   -0.289432    2.195020
     37          1           0        3.738973    0.349250    1.732852
     38          1           0        5.842856    0.158034    0.441622
     39          1           0        6.034595   -1.524643   -1.382907
     40          1           0        4.106139   -3.006336   -1.892828
     41          1           0        2.010414   -2.808552   -0.604810
 ---------------------------------------------------------------------
 Rotational constants (GHZ):      0.3756871      0.1814206      0.1390132
 Leave Link  202 at Fri Oct  2 06:12:39 2020, MaxMem=  2147483648 cpu:         0.0
 (Enter /prod/apps/gaussian/g09d1/l301.exe)
 Standard basis: 6-31G(d) (6D, 7F)
 Ernie: Thresh=  0.10000D-02 Tol=  0.10000D-05 Strict=F.
 There are   363 symmetry adapted cartesian basis functions of A   symmetry.
 There are   363 symmetry adapted basis functions of A   symmetry.
   363 basis functions,   716 primitive gaussians,   363 cartesian basis functions
    88 alpha electrons       88 beta electrons
       nuclear repulsion energy      2197.3054719893 Hartrees.
 IExCor=  402 DFT=T Ex+Corr=B3LYP ExCW=0 ScaHFX=  0.200000
 ScaDFX=  0.800000  0.720000  1.000000  0.810000 ScalE2=  1.000000  1.000000
 IRadAn=      0 IRanWt=     -1 IRanGd=            0 ICorTp=0 IEmpDi=  4
 NAtoms=   41 NActive=   41 NUniq=   41 SFac= 1.00D+00 NAtFMM=   60 NAOKFM=F Big=F
 Integral buffers will be    131072 words long.
 Raffenetti 2 integral format.
 Two-electron integral symmetry is turned on.
 Leave Link  301 at Fri Oct  2 06:12:39 2020, MaxMem=  2147483648 cpu:         0.0
 (Enter /prod/apps/gaussian/g09d1/l302.exe)
 NPDir=0 NMtPBC=     1 NCelOv=     1 NCel=       1 NClECP=     1 NCelD=      1
         NCelK=      1 NCelE2=     1 NClLst=     1 CellRange=     0.0.
 One-electron integrals computed using PRISM.
 NBasis=   363 RedAO= T EigKep=  4.68D-04  NBF=   363
 NBsUse=   363 1.00D-06 EigRej= -1.00D+00 NBFU=   363
 Precomputing XC quadrature grid using
 IXCGrd= 4 IRadAn=           0 IRanWt=          -1 IRanGd=           0 AccXCQ= 0.00D+00.
 Generated NRdTot=       0 NPtTot=           0 NUsed=           0 NTot=          32
 NSgBfM=   359   359   359   359   359 MxSgAt=    41 MxSgA2=    41.
 Leave Link  302 at Fri Oct  2 06:12:40 2020, MaxMem=  2147483648 cpu:         1.5
 (Enter /prod/apps/gaussian/g09d1/l303.exe)
 DipDrv:  MaxL=1.
 Leave Link  303 at Fri Oct  2 06:12:40 2020, MaxMem=  2147483648 cpu:         0.1
 (Enter /prod/apps/gaussian/g09d1/l401.exe)
 ExpMin= 1.17D-01 ExpMax= 2.19D+04 ExpMxC= 3.30D+03 IAcc=1 IRadAn=         1 AccDes= 0.00D+00
 Harris functional with IExCor=  402 and IRadAn=       1 diagonalized for initial guess.
 HarFok:  IExCor=  402 AccDes= 0.00D+00 IRadAn=         1 IDoV= 1 UseB2=F ITyADJ=14
 ICtDFT=  3500011 ScaDFX=  1.000000  1.000000  1.000000  1.000000
 FoFCou: FMM=F IPFlag=           0 FMFlag=      100000 FMFlg1=           0
         NFxFlg=           0 DoJE=T BraDBF=F KetDBF=T FulRan=T
         wScrn=  0.000000 ICntrl=     500 IOpCl=  0 I1Cent=   200000004 NGrid=           0
         NMat0=    1 NMatS0=      1 NMatT0=    0 NMatD0=    1 NMtDS0=    0 NMtDT0=    0
 Petite list used in FoFCou.
 Harris En= -1714.14292174152    
 JPrj=0 DoOrth=F DoCkMO=F.
 Leave Link  401 at Fri Oct  2 06:12:47 2020, MaxMem=  2147483648 cpu:         6.3
 (Enter /prod/apps/gaussian/g09d1/l502.exe)
 Closed shell SCF:
 Using DIIS extrapolation, IDIIS=  1040.
 Integral symmetry usage will be decided dynamically.
 IVT=      418784 IEndB=      418784 NGot=  2147483648 MDV=  2147213637
 LenX=  2147213637 LenY=  2147081427
 Requested convergence on RMS density matrix=1.00D-08 within 128 cycles.
 Requested convergence on MAX density matrix=1.00D-06.
 Requested convergence on             energy=1.00D-06.
 No special actions if energy rises.
 Fock matrices will be formed incrementally for  20 cycles.
 Integral accuracy reduced to 1.0D-05 until final iterations.

 Cycle   1  Pass 0  IDiag  1:
 FoFJK:  IHMeth= 1 ICntrl=       0 DoSepK=F KAlg= 0 I1Cent=   0 FoldK=F
 IRaf= 770000000 NMat=   1 IRICut=       1 DoRegI=T DoRafI=F ISym2E= 0.
 FoFCou: FMM=F IPFlag=           0 FMFlag=      100000 FMFlg1=           0
         NFxFlg=           0 DoJE=F BraDBF=F KetDBF=F FulRan=T
         wScrn=  0.000000 ICntrl=       0 IOpCl=  0 I1Cent=           0 NGrid=           0
         NMat0=    1 NMatS0=      1 NMatT0=    0 NMatD0=    1 NMtDS0=    0 NMtDT0=    0
 Symmetry not used in FoFCou.
 E= -1713.20131988113    
 DIIS: error= 4.25D-02 at cycle   1 NSaved=   1.
 NSaved= 1 IEnMin= 1 EnMin= -1713.20131988113     IErMin= 1 ErrMin= 4.25D-02
 ErrMax= 4.25D-02  0.00D+00 EMaxC= 1.00D-01 BMatC= 9.90D-01 BMatP= 9.90D-01
 IDIUse=3 WtCom= 5.75D-01 WtEn= 4.25D-01
 Coeff-Com:  0.100D+01
 Coeff-En:   0.100D+01
 Coeff:      0.100D+01
 Gap=     0.339 Goal=   None    Shift=    0.000
 GapD=    0.339 DampG=1.000 DampE=0.500 DampFc=0.5000 IDamp=-1.
 Damping current iteration by 5.00D-01
 RMSDP=6.94D-03 MaxDP=5.96D-01              OVMax= 2.32D-01

 Cycle   2  Pass 0  IDiag  1:
 RMSU=  3.47D-03    CP:  9.99D-01
 E= -1713.38339386965     Delta-E=       -0.182073988514 Rises=F Damp=T
 DIIS: error= 1.78D-02 at cycle   2 NSaved=   2.
 NSaved= 2 IEnMin= 2 EnMin= -1713.38339386965     IErMin= 2 ErrMin= 1.78D-02
 ErrMax= 1.78D-02  0.00D+00 EMaxC= 1.00D-01 BMatC= 1.66D-01 BMatP= 9.90D-01
 IDIUse=3 WtCom= 8.22D-01 WtEn= 1.78D-01
 Coeff-Com:  0.247D+00 0.753D+00
 Coeff-En:   0.391D+00 0.609D+00
 Coeff:      0.273D+00 0.727D+00
 Gap=     0.299 Goal=   None    Shift=    0.000
 RMSDP=2.02D-03 MaxDP=1.26D-01 DE=-1.82D-01 OVMax= 1.92D-01

 Cycle   3  Pass 0  IDiag  1:
 RMSU=  1.61D-03    CP:  9.90D-01  6.55D-01
 E= -1713.95169951944     Delta-E=       -0.568305649795 Rises=F Damp=F
 DIIS: error= 9.64D-03 at cycle   3 NSaved=   3.
 NSaved= 3 IEnMin= 3 EnMin= -1713.95169951944     IErMin= 3 ErrMin= 9.64D-03
 ErrMax= 9.64D-03  0.00D+00 EMaxC= 1.00D-01 BMatC= 9.54D-02 BMatP= 1.66D-01
 IDIUse=3 WtCom= 9.04D-01 WtEn= 9.64D-02
 Coeff-Com:  0.104D+00 0.438D+00 0.458D+00
 Coeff-En:   0.000D+00 0.000D+00 0.100D+01
 Coeff:      0.941D-01 0.396D+00 0.510D+00
 Gap=     0.239 Goal=   None    Shift=    0.000
 RMSDP=1.27D-03 MaxDP=3.62D-02 DE=-5.68D-01 OVMax= 8.16D-02

 Cycle   4  Pass 0  IDiag  1:
 RMSU=  7.53D-04    CP:  9.95D-01  7.26D-01  3.89D-01
 E= -1714.02801778895     Delta-E=       -0.076318269513 Rises=F Damp=F
 DIIS: error= 3.21D-03 at cycle   4 NSaved=   4.
 NSaved= 4 IEnMin= 4 EnMin= -1714.02801778895     IErMin= 4 ErrMin= 3.21D-03
 ErrMax= 3.21D-03  0.00D+00 EMaxC= 1.00D-01 BMatC= 1.40D-02 BMatP= 9.54D-02
 IDIUse=3 WtCom= 9.68D-01 WtEn= 3.21D-02
 Coeff-Com:  0.125D-01 0.826D-01 0.288D+00 0.617D+00
 Coeff-En:   0.000D+00 0.000D+00 0.132D+00 0.868D+00
 Coeff:      0.121D-01 0.800D-01 0.283D+00 0.625D+00
 Gap=     0.237 Goal=   None    Shift=    0.000
 RMSDP=4.22D-04 MaxDP=1.48D-02 DE=-7.63D-02 OVMax= 2.30D-02

 Cycle   5  Pass 0  IDiag  1:
 RMSU=  1.85D-04    CP:  9.95D-01  7.13D-01  5.43D-01  6.24D-01
 E= -1714.03965168112     Delta-E=       -0.011633892170 Rises=F Damp=F
 DIIS: error= 8.79D-04 at cycle   5 NSaved=   5.
 NSaved= 5 IEnMin= 5 EnMin= -1714.03965168112     IErMin= 5 ErrMin= 8.79D-04
 ErrMax= 8.79D-04  0.00D+00 EMaxC= 1.00D-01 BMatC= 1.11D-03 BMatP= 1.40D-02
 IDIUse=3 WtCom= 9.91D-01 WtEn= 8.79D-03
 Coeff-Com: -0.305D-03 0.173D-01 0.121D+00 0.343D+00 0.520D+00
 Coeff-En:   0.000D+00 0.000D+00 0.000D+00 0.000D+00 0.100D+01
 Coeff:     -0.302D-03 0.171D-01 0.120D+00 0.340D+00 0.524D+00
 Gap=     0.237 Goal=   None    Shift=    0.000
 RMSDP=1.17D-04 MaxDP=6.62D-03 DE=-1.16D-02 OVMax= 7.39D-03

 Cycle   6  Pass 0  IDiag  1:
 RMSU=  5.85D-05    CP:  9.94D-01  7.16D-01  5.36D-01  6.90D-01  5.27D-01
 E= -1714.04054604690     Delta-E=       -0.000894365776 Rises=F Damp=F
 DIIS: error= 4.23D-04 at cycle   6 NSaved=   6.
 NSaved= 6 IEnMin= 6 EnMin= -1714.04054604690     IErMin= 6 ErrMin= 4.23D-04
 ErrMax= 4.23D-04  0.00D+00 EMaxC= 1.00D-01 BMatC= 1.38D-04 BMatP= 1.11D-03
 IDIUse=3 WtCom= 9.96D-01 WtEn= 4.23D-03
 Coeff-Com: -0.116D-02 0.371D-02 0.471D-01 0.148D+00 0.318D+00 0.485D+00
 Coeff-En:   0.000D+00 0.000D+00 0.000D+00 0.000D+00 0.491D-01 0.951D+00
 Coeff:     -0.116D-02 0.369D-02 0.469D-01 0.147D+00 0.317D+00 0.487D+00
 Gap=     0.237 Goal=   None    Shift=    0.000
 RMSDP=3.83D-05 MaxDP=1.64D-03 DE=-8.94D-04 OVMax= 2.66D-03

 Cycle   7  Pass 0  IDiag  1:
 RMSU=  2.42D-05    CP:  9.94D-01  7.15D-01  5.37D-01  6.89D-01  5.87D-01
                    CP:  5.31D-01
 E= -1714.04064792042     Delta-E=       -0.000101873517 Rises=F Damp=F
 DIIS: error= 1.54D-04 at cycle   7 NSaved=   7.
 NSaved= 7 IEnMin= 7 EnMin= -1714.04064792042     IErMin= 7 ErrMin= 1.54D-04
 ErrMax= 1.54D-04  0.00D+00 EMaxC= 1.00D-01 BMatC= 1.75D-05 BMatP= 1.38D-04
 IDIUse=3 WtCom= 9.98D-01 WtEn= 1.54D-03
 Coeff-Com: -0.708D-03-0.311D-04 0.134D-01 0.464D-01 0.133D+00 0.310D+00
 Coeff-Com:  0.498D+00
 Coeff-En:   0.000D+00 0.000D+00 0.000D+00 0.000D+00 0.000D+00 0.865D-01
 Coeff-En:   0.914D+00
 Coeff:     -0.707D-03-0.311D-04 0.134D-01 0.464D-01 0.133D+00 0.310D+00
 Coeff:      0.498D+00
 Gap=     0.237 Goal=   None    Shift=    0.000
 RMSDP=1.23D-05 MaxDP=5.69D-04 DE=-1.02D-04 OVMax= 7.35D-04

 Cycle   8  Pass 0  IDiag  1:
 RMSU=  5.99D-06    CP:  9.94D-01  7.15D-01  5.38D-01  6.89D-01  5.91D-01
                    CP:  6.00D-01  5.91D-01
 E= -1714.04066237004     Delta-E=       -0.000014449621 Rises=F Damp=F
 DIIS: error= 3.34D-05 at cycle   8 NSaved=   8.
 NSaved= 8 IEnMin= 8 EnMin= -1714.04066237004     IErMin= 8 ErrMin= 3.34D-05
 ErrMax= 3.34D-05  0.00D+00 EMaxC= 1.00D-01 BMatC= 7.54D-07 BMatP= 1.75D-05
 IDIUse=1 WtCom= 1.00D+00 WtEn= 0.00D+00
 Coeff-Com: -0.253D-03-0.316D-03 0.240D-02 0.978D-02 0.394D-01 0.113D+00
 Coeff-Com:  0.246D+00 0.590D+00
 Coeff:     -0.253D-03-0.316D-03 0.240D-02 0.978D-02 0.394D-01 0.113D+00
 Coeff:      0.246D+00 0.590D+00
 Gap=     0.237 Goal=   None    Shift=    0.000
 RMSDP=3.37D-06 MaxDP=1.49D-04 DE=-1.44D-05 OVMax= 2.40D-04

 Initial convergence to 1.0D-05 achieved.  Increase integral accuracy.
 Cycle   9  Pass 1  IDiag  1:
 E= -1714.04056735951     Delta-E=        0.000095010530 Rises=F Damp=F
 DIIS: error= 6.02D-05 at cycle   1 NSaved=   1.
 NSaved= 1 IEnMin= 1 EnMin= -1714.04056735951     IErMin= 1 ErrMin= 6.02D-05
 ErrMax= 6.02D-05  0.00D+00 EMaxC= 1.00D-01 BMatC= 8.81D-07 BMatP= 8.81D-07
 IDIUse=1 WtCom= 1.00D+00 WtEn= 0.00D+00
 Coeff-Com:  0.100D+01
 Coeff:      0.100D+01
 Gap=     0.237 Goal=   None    Shift=    0.000
 RMSDP=3.37D-06 MaxDP=1.49D-04 DE= 9.50D-05 OVMax= 3.79D-04

 Cycle  10  Pass 1  IDiag  1:
 RMSU=  2.46D-05    CP:  1.00D+00
 E= -1714.04056767535     Delta-E=       -0.000000315840 Rises=F Damp=F
 DIIS: error= 3.78D-05 at cycle   2 NSaved=   2.
 NSaved= 2 IEnMin= 2 EnMin= -1714.04056767535     IErMin= 2 ErrMin= 3.78D-05
 ErrMax= 3.78D-05  0.00D+00 EMaxC= 1.00D-01 BMatC= 6.91D-07 BMatP= 8.81D-07
 IDIUse=1 WtCom= 1.00D+00 WtEn= 0.00D+00
 Coeff-Com:  0.457D+00 0.543D+00
 Coeff:      0.457D+00 0.543D+00
 Gap=     0.237 Goal=   None    Shift=    0.000
 RMSDP=3.95D-06 MaxDP=1.76D-04 DE=-3.16D-07 OVMax= 3.93D-04

 Cycle  11  Pass 1  IDiag  1:
 RMSU=  3.93D-06    CP:  1.00D+00  9.85D-01
 E= -1714.04056798961     Delta-E=       -0.000000314259 Rises=F Damp=F
 DIIS: error= 3.03D-05 at cycle   3 NSaved=   3.
 NSaved= 3 IEnMin= 3 EnMin= -1714.04056798961     IErMin= 3 ErrMin= 3.03D-05
 ErrMax= 3.03D-05  0.00D+00 EMaxC= 1.00D-01 BMatC= 3.78D-07 BMatP= 6.91D-07
 IDIUse=1 WtCom= 1.00D+00 WtEn= 0.00D+00
 Coeff-Com:  0.200D-02 0.424D+00 0.574D+00
 Coeff:      0.200D-02 0.424D+00 0.574D+00
 Gap=     0.237 Goal=   None    Shift=    0.000
 RMSDP=1.69D-06 MaxDP=8.52D-05 DE=-3.14D-07 OVMax= 1.33D-04

 Cycle  12  Pass 1  IDiag  1:
 RMSU=  6.06D-07    CP:  1.00D+00  1.00D+00  6.11D-01
 E= -1714.04056831384     Delta-E=       -0.000000324236 Rises=F Damp=F
 DIIS: error= 4.73D-06 at cycle   4 NSaved=   4.
 NSaved= 4 IEnMin= 4 EnMin= -1714.04056831384     IErMin= 4 ErrMin= 4.73D-06
 ErrMax= 4.73D-06  0.00D+00 EMaxC= 1.00D-01 BMatC= 1.28D-08 BMatP= 3.78D-07
 IDIUse=1 WtCom= 1.00D+00 WtEn= 0.00D+00
 Coeff-Com: -0.843D-02 0.256D+00 0.361D+00 0.391D+00
 Coeff:     -0.843D-02 0.256D+00 0.361D+00 0.391D+00
 Gap=     0.237 Goal=   None    Shift=    0.000
 RMSDP=3.73D-07 MaxDP=1.49D-05 DE=-3.24D-07 OVMax= 3.45D-05

 Cycle  13  Pass 1  IDiag  1:
 RMSU=  1.82D-07    CP:  1.00D+00  1.00D+00  6.00D-01  4.68D-01
 E= -1714.04056832558     Delta-E=       -0.000000011736 Rises=F Damp=F
 DIIS: error= 1.16D-06 at cycle   5 NSaved=   5.
 NSaved= 5 IEnMin= 5 EnMin= -1714.04056832558     IErMin= 5 ErrMin= 1.16D-06
 ErrMax= 1.16D-06  0.00D+00 EMaxC= 1.00D-01 BMatC= 5.27D-10 BMatP= 1.28D-08
 IDIUse=1 WtCom= 1.00D+00 WtEn= 0.00D+00
 Coeff-Com: -0.481D-02 0.114D+00 0.161D+00 0.224D+00 0.506D+00
 Coeff:     -0.481D-02 0.114D+00 0.161D+00 0.224D+00 0.506D+00
 Gap=     0.237 Goal=   None    Shift=    0.000
 RMSDP=7.85D-08 MaxDP=3.96D-06 DE=-1.17D-08 OVMax= 8.39D-06

 Cycle  14  Pass 1  IDiag  1:
 RMSU=  6.30D-08    CP:  1.00D+00  1.00D+00  6.02D-01  4.99D-01  7.69D-01
 E= -1714.04056832603     Delta-E=       -0.000000000446 Rises=F Damp=F
 DIIS: error= 2.01D-07 at cycle   6 NSaved=   6.
 NSaved= 6 IEnMin= 6 EnMin= -1714.04056832603     IErMin= 6 ErrMin= 2.01D-07
 ErrMax= 2.01D-07  0.00D+00 EMaxC= 1.00D-01 BMatC= 3.65D-11 BMatP= 5.27D-10
 IDIUse=1 WtCom= 1.00D+00 WtEn= 0.00D+00
 Coeff-Com: -0.116D-02 0.202D-01 0.281D-01 0.564D-01 0.247D+00 0.650D+00
 Coeff:     -0.116D-02 0.202D-01 0.281D-01 0.564D-01 0.247D+00 0.650D+00
 Gap=     0.237 Goal=   None    Shift=    0.000
 RMSDP=2.41D-08 MaxDP=1.15D-06 DE=-4.46D-10 OVMax= 2.01D-06

 Cycle  15  Pass 1  IDiag  1:
 RMSU=  1.73D-08    CP:  1.00D+00  1.00D+00  6.01D-01  5.05D-01  8.22D-01
                    CP:  8.01D-01
 E= -1714.04056832612     Delta-E=       -0.000000000094 Rises=F Damp=F
 DIIS: error= 7.14D-08 at cycle   7 NSaved=   7.
 NSaved= 7 IEnMin= 7 EnMin= -1714.04056832612     IErMin= 7 ErrMin= 7.14D-08
 ErrMax= 7.14D-08  0.00D+00 EMaxC= 1.00D-01 BMatC= 5.13D-12 BMatP= 3.65D-11
 IDIUse=1 WtCom= 1.00D+00 WtEn= 0.00D+00
 Coeff-Com: -0.177D-03 0.268D-04-0.133D-03 0.900D-02 0.839D-01 0.352D+00
 Coeff-Com:  0.555D+00
 Coeff:     -0.177D-03 0.268D-04-0.133D-03 0.900D-02 0.839D-01 0.352D+00
 Coeff:      0.555D+00
 Gap=     0.237 Goal=   None    Shift=    0.000
 RMSDP=8.83D-09 MaxDP=5.79D-07 DE=-9.41D-11 OVMax= 4.73D-07

 SCF Done:  E(RB3LYP) =  -1714.04056833     A.U. after   15 cycles
            NFock= 15  Conv=0.88D-08     -V/T= 2.0068
 KE= 1.702542231116D+03 PE=-8.420257341404D+03 EE= 2.806369069973D+03
 Leave Link  502 at Fri Oct  2 06:19:13 2020, MaxMem=  2147483648 cpu:       386.5
 (Enter /prod/apps/gaussian/g09d1/l601.exe)
 Copying SCF densities to generalized density rwf, IOpCl= 0 IROHF=0.

 **********************************************************************

            Population analysis using the SCF density.

 **********************************************************************

 Orbital symmetries:
       Occupied  (A) (A) (A) (A) (A) (A) (A) (A) (A) (A) (A) (A)
                 (A) (A) (A) (A) (A) (A) (A) (A) (A) (A) (A) (A)
                 (A) (A) (A) (A) (A) (A) (A) (A) (A) (A) (A) (A)
                 (A) (A) (A) (A) (A) (A) (A) (A) (A) (A) (A) (A)
                 (A) (A) (A) (A) (A) (A) (A) (A) (A) (A) (A) (A)
                 (A) (A) (A) (A) (A) (A) (A) (A) (A) (A) (A) (A)
                 (A) (A) (A) (A) (A) (A) (A) (A) (A) (A) (A) (A)
                 (A) (A) (A) (A)
       Virtual   (A) (A) (A) (A) (A) (A) (A) (A) (A) (A) (A) (A)
                 (A) (A) (A) (A) (A) (A) (A) (A) (A) (A) (A) (A)
                 (A) (A) (A) (A) (A) (A) (A) (A) (A) (A) (A) (A)
                 (A) (A) (A) (A) (A) (A) (A) (A) (A) (A) (A) (A)
                 (A) (A) (A) (A) (A) (A) (A) (A) (A) (A) (A) (A)
                 (A) (A) (A) (A) (A) (A) (A) (A) (A) (A) (A) (A)
                 (A) (A) (A) (A) (A) (A) (A) (A) (A) (A) (A) (A)
                 (A) (A) (A) (A) (A) (A) (A) (A) (A) (A) (A) (A)
                 (A) (A) (A) (A) (A) (A) (A) (A) (A) (A) (A) (A)
                 (A) (A) (A) (A) (A) (A) (A) (A) (A) (A) (A) (A)
                 (A) (A) (A) (A) (A) (A) (A) (A) (A) (A) (A) (A)
                 (A) (A) (A) (A) (A) (A) (A) (A) (A) (A) (A) (A)
                 (A) (A) (A) (A) (A) (A) (A) (A) (A) (A) (A) (A)
                 (A) (A) (A) (A) (A) (A) (A) (A) (A) (A) (A) (A)
                 (A) (A) (A) (A) (A) (A) (A) (A) (A) (A) (A) (A)
                 (A) (A) (A) (A) (A) (A) (A) (A) (A) (A) (A) (A)
                 (A) (A) (A) (A) (A) (A) (A) (A) (A) (A) (A) (A)
                 (A) (A) (A) (A) (A) (A) (A) (A) (A) (A) (A) (A)
                 (A) (A) (A) (A) (A) (A) (A) (A) (A) (A) (A) (A)
                 (A) (A) (A) (A) (A) (A) (A) (A) (A) (A) (A) (A)
                 (A) (A) (A) (A) (A) (A) (A) (A) (A) (A) (A) (A)
                 (A) (A) (A) (A) (A) (A) (A) (A) (A) (A) (A) (A)
                 (A) (A) (A) (A) (A) (A) (A) (A) (A) (A) (A)
 The electronic state is 1-A.
 Alpha  occ. eigenvalues --  -89.13661 -89.09221 -19.15470 -19.15047 -19.14909
 Alpha  occ. eigenvalues --  -19.14525 -14.38352 -14.38122 -10.28232 -10.23425
 Alpha  occ. eigenvalues --  -10.23212 -10.23192 -10.22958 -10.21117 -10.21077
 Alpha  occ. eigenvalues --  -10.21013 -10.20270 -10.20175 -10.20132 -10.20040
 Alpha  occ. eigenvalues --  -10.20015  -8.15928  -8.12285  -6.12411  -6.12354
 Alpha  occ. eigenvalues --   -6.12306  -6.08710  -6.08633  -6.08566  -1.12956
 Alpha  occ. eigenvalues --   -1.10008  -1.01052  -0.99782  -0.95641  -0.94707
 Alpha  occ. eigenvalues --   -0.87003  -0.85395  -0.80527  -0.75639  -0.75108
 Alpha  occ. eigenvalues --   -0.73825  -0.72737  -0.71901  -0.68526  -0.63216
 Alpha  occ. eigenvalues --   -0.61712  -0.60338  -0.59332  -0.57286  -0.54413
 Alpha  occ. eigenvalues --   -0.53228  -0.52564  -0.51577  -0.50193  -0.49545
 Alpha  occ. eigenvalues --   -0.49031  -0.47452  -0.47186  -0.46825  -0.46287
 Alpha  occ. eigenvalues --   -0.45088  -0.44805  -0.44708  -0.43319  -0.42777
 Alpha  occ. eigenvalues --   -0.42606  -0.42356  -0.42021  -0.40992  -0.40191
 Alpha  occ. eigenvalues --   -0.39715  -0.38208  -0.36936  -0.36400  -0.35614
 Alpha  occ. eigenvalues --   -0.34945  -0.34781  -0.34650  -0.32700  -0.31701
 Alpha  occ. eigenvalues --   -0.31628  -0.30975  -0.30233  -0.29446  -0.28434
 Alpha  occ. eigenvalues --   -0.26282  -0.26263  -0.25396
 Alpha virt. eigenvalues --   -0.01656  -0.01323   0.03389   0.04328   0.05149
 Alpha virt. eigenvalues --    0.05986   0.06650   0.06870   0.07254   0.08449
 Alpha virt. eigenvalues --    0.08785   0.09091   0.09956   0.10269   0.11389
 Alpha virt. eigenvalues --    0.12660   0.12850   0.13121   0.14200   0.14704
 Alpha virt. eigenvalues --    0.15115   0.15544   0.15848   0.16255   0.16415
 Alpha virt. eigenvalues --    0.16890   0.17373   0.17964   0.18541   0.18944
 Alpha virt. eigenvalues --    0.19803   0.20483   0.20718   0.21488   0.22853
 Alpha virt. eigenvalues --    0.24471   0.24740   0.26043   0.28563   0.29429
 Alpha virt. eigenvalues --    0.31190   0.33551   0.34360   0.35131   0.35678
 Alpha virt. eigenvalues --    0.36327   0.38902   0.42511   0.44103   0.44562
 Alpha virt. eigenvalues --    0.45855   0.46774   0.47453   0.48102   0.48777
 Alpha virt. eigenvalues --    0.50167   0.50987   0.52195   0.53132   0.53952
 Alpha virt. eigenvalues --    0.54416   0.54943   0.56032   0.56566   0.57738
 Alpha virt. eigenvalues --    0.58124   0.58313   0.59540   0.59836   0.60537
 Alpha virt. eigenvalues --    0.60798   0.61750   0.62111   0.64021   0.64166
 Alpha virt. eigenvalues --    0.64534   0.65753   0.67491   0.68339   0.71138
 Alpha virt. eigenvalues --    0.71369   0.72807   0.73582   0.74475   0.75937
 Alpha virt. eigenvalues --    0.76673   0.77022   0.78518   0.78798   0.80107
 Alpha virt. eigenvalues --    0.80393   0.81323   0.81821   0.82433   0.83060
 Alpha virt. eigenvalues --    0.83344   0.83894   0.84398   0.84718   0.85434
 Alpha virt. eigenvalues --    0.86557   0.87180   0.88439   0.89375   0.90221
 Alpha virt. eigenvalues --    0.90456   0.90986   0.91556   0.92369   0.92577
 Alpha virt. eigenvalues --    0.93195   0.93631   0.94909   0.95334   0.96154
 Alpha virt. eigenvalues --    0.96807   0.97167   0.98955   0.99938   1.01549
 Alpha virt. eigenvalues --    1.03065   1.03538   1.04273   1.05564   1.06412
 Alpha virt. eigenvalues --    1.07775   1.08522   1.08958   1.10128   1.10529
 Alpha virt. eigenvalues --    1.11392   1.13232   1.13829   1.14757   1.15116
 Alpha virt. eigenvalues --    1.16420   1.17614   1.19073   1.19735   1.20827
 Alpha virt. eigenvalues --    1.22966   1.23240   1.25183   1.26650   1.29158
 Alpha virt. eigenvalues --    1.31893   1.33606   1.35250   1.38418   1.40494
 Alpha virt. eigenvalues --    1.41993   1.42880   1.43597   1.44830   1.46283
 Alpha virt. eigenvalues --    1.47087   1.48053   1.49273   1.50229   1.52476
 Alpha virt. eigenvalues --    1.55058   1.55996   1.59581   1.65573   1.67188
 Alpha virt. eigenvalues --    1.67897   1.71152   1.71551   1.71670   1.75456
 Alpha virt. eigenvalues --    1.76098   1.77511   1.78939   1.79954   1.80426
 Alpha virt. eigenvalues --    1.80756   1.81179   1.81516   1.82218   1.83227
 Alpha virt. eigenvalues --    1.84116   1.85025   1.85953   1.86956   1.87229
 Alpha virt. eigenvalues --    1.89100   1.90658   1.91384   1.93170   1.94564
 Alpha virt. eigenvalues --    1.95814   1.95912   1.96867   1.97347   1.98369
 Alpha virt. eigenvalues --    2.01034   2.02005   2.03319   2.03783   2.05933
 Alpha virt. eigenvalues --    2.07013   2.07524   2.07857   2.08813   2.10071
 Alpha virt. eigenvalues --    2.11615   2.12910   2.13666   2.14159   2.14745
 Alpha virt. eigenvalues --    2.15538   2.15953   2.17820   2.19049   2.19703
 Alpha virt. eigenvalues --    2.21734   2.23011   2.23364   2.26147   2.27940
 Alpha virt. eigenvalues --    2.29966   2.30512   2.30809   2.31380   2.35436
 Alpha virt. eigenvalues --    2.35834   2.37521   2.40277   2.41919   2.43089
 Alpha virt. eigenvalues --    2.44576   2.47225   2.50233   2.54547   2.57073
 Alpha virt. eigenvalues --    2.57776   2.60305   2.63212   2.64494   2.69848
 Alpha virt. eigenvalues --    2.70643   2.71366   2.72635   2.73323   2.74358
 Alpha virt. eigenvalues --    2.75198   2.77463   2.79948   2.82311   2.83427
 Alpha virt. eigenvalues --    2.87631   2.89838   3.04912   3.39713   3.79985
 Alpha virt. eigenvalues --    3.81277   3.90104   3.95311   4.01561   4.06750
 Alpha virt. eigenvalues --    4.07895   4.08509   4.11184   4.11923   4.18222
 Alpha virt. eigenvalues --    4.20111   4.23805   4.25424   4.31897   4.33410
 Alpha virt. eigenvalues --    4.34291   4.42304   4.50033   4.68780   4.74546
          Condensed to atoms (all electrons):
               1          2          3          4          5          6
     1  C    4.989247   0.293082  -0.049493  -0.026337  -0.002194  -0.004330
     2  N    0.293082   7.216598   0.275435   0.124888  -0.057403  -0.051365
     3  C   -0.049493   0.275435   4.992153  -0.010755   0.002127   0.001709
     4  S   -0.026337   0.124888  -0.010755  13.608192   0.454092   0.385048
     5  O   -0.002194  -0.057403   0.002127   0.454092   8.212818  -0.043166
     6  O   -0.004330  -0.051365   0.001709   0.385048  -0.043166   8.307174
     7  N    0.002315  -0.040826  -0.010795   0.122701  -0.058347  -0.053360
     8  C    0.000048  -0.007997   0.000598   0.008383   0.002204   0.007614
     9  C    0.000018  -0.000355  -0.000015  -0.005265  -0.000064  -0.004049
    10  S   -0.000001   0.000035   0.000002   0.000808  -0.000053  -0.000195
    11  O    0.000000   0.000000   0.000000   0.000197  -0.000017  -0.000001
    12  O    0.000000   0.000000   0.000000  -0.000001   0.000000   0.000000
    13  C    0.000002  -0.000202   0.000008   0.000493  -0.000106   0.000157
    14  C   -0.000095   0.006445  -0.000347  -0.008265  -0.000095  -0.008453
    15  C   -0.000006   0.000332  -0.000012  -0.000315   0.000000  -0.000013
    16  C    0.000000  -0.000003   0.000000  -0.000001   0.000000  -0.000001
    17  C    0.000000   0.000000   0.000000   0.000000   0.000000   0.000000
    18  C    0.000000   0.000000   0.000000   0.000000   0.000000   0.000000
    19  C    0.000000   0.000000   0.000000   0.000000   0.000000   0.000000
    20  C    0.000000   0.000000   0.000000   0.000000   0.000000   0.000000
    21  C    0.000000  -0.000001  -0.000001  -0.000004   0.000000   0.000000
    22  H    0.377787  -0.039912  -0.002916   0.001997  -0.000110   0.000233
    23  H    0.372015  -0.047412  -0.002394  -0.002980   0.002375  -0.000473
    24  H    0.377744  -0.031217   0.004613  -0.005188  -0.000197   0.012697
    25  H   -0.003737  -0.036179   0.372898   0.003325   0.000048  -0.000050
    26  H    0.004739  -0.033270   0.374704  -0.003362  -0.001780   0.000035
    27  H   -0.002175  -0.045559   0.374786  -0.007314   0.005357  -0.000041
    28  H   -0.000037   0.002067  -0.000197  -0.015008   0.006776  -0.000066
    29  H    0.000000   0.000000   0.000000   0.000149  -0.000002  -0.000128
    30  H    0.000008   0.000021  -0.000003   0.000851  -0.000360   0.012306
    31  H    0.000000   0.000002  -0.000001   0.000008   0.000000   0.000001
    32  H    0.000000  -0.000013  -0.000022   0.000141  -0.000006   0.000006
    33  H    0.000073   0.000595   0.000158  -0.000673   0.000004   0.000176
    34  H   -0.000111  -0.003008   0.000094   0.011575   0.000028   0.008709
    35  H    0.000000   0.000015   0.000000  -0.000022   0.000000  -0.000002
    36  H    0.000000  -0.000003   0.000000  -0.000008   0.000000   0.000016
    37  H    0.000000   0.000000   0.000000   0.000000   0.000000   0.000000
    38  H    0.000000   0.000000   0.000000   0.000000   0.000000   0.000000
    39  H    0.000000   0.000000   0.000000   0.000000   0.000000   0.000000
    40  H    0.000000   0.000000   0.000000   0.000000   0.000000   0.000000
    41  H    0.000000  -0.000005   0.000001  -0.000001   0.000000   0.000000
               7          8          9         10         11         12
     1  C    0.002315   0.000048   0.000018  -0.000001   0.000000   0.000000
     2  N   -0.040826  -0.007997  -0.000355   0.000035   0.000000   0.000000
     3  C   -0.010795   0.000598  -0.000015   0.000002   0.000000   0.000000
     4  S    0.122701   0.008383  -0.005265   0.000808   0.000197  -0.000001
     5  O   -0.058347   0.002204  -0.000064  -0.000053  -0.000017   0.000000
     6  O   -0.053360   0.007614  -0.004049  -0.000195  -0.000001   0.000000
     7  N    7.443180   0.203868  -0.072953   0.006319  -0.006312  -0.000057
     8  C    0.203868   4.913052   0.332205  -0.093796   0.000425   0.003031
     9  C   -0.072953   0.332205   5.772522   0.122236  -0.044399  -0.044995
    10  S    0.006319  -0.093796   0.122236  13.921854   0.384744   0.439024
    11  O   -0.006312   0.000425  -0.044399   0.384744   8.275598  -0.042419
    12  O   -0.000057   0.003031  -0.044995   0.439024  -0.042419   8.186742
    13  C   -0.051726   0.319034  -0.195545   0.127199  -0.046577  -0.044154
    14  C   -0.046839   0.378839  -0.045203   0.004499  -0.000043  -0.000124
    15  C    0.003359  -0.030757  -0.006139  -0.000040  -0.000002   0.000015
    16  C   -0.000043  -0.003208  -0.000694   0.000209   0.000000  -0.000030
    17  C   -0.000003   0.000752  -0.000058   0.000443   0.000000  -0.000023
    18  C    0.000000   0.000005   0.000000  -0.000007   0.000000   0.000000
    19  C    0.000000   0.000004   0.000000  -0.000001   0.000000   0.000000
    20  C    0.000000  -0.000036   0.000001  -0.000004   0.000000   0.000000
    21  C   -0.000021  -0.001274   0.000006   0.000069   0.000000   0.000000
    22  H   -0.000079   0.000005   0.000000   0.000000   0.000000   0.000000
    23  H   -0.000081  -0.000013   0.000000   0.000000   0.000000   0.000000
    24  H    0.000144   0.000018   0.000000   0.000000   0.000000   0.000000
    25  H   -0.000019   0.000025   0.000000   0.000000   0.000000   0.000000
    26  H    0.014943   0.000219   0.000037  -0.000006   0.000001   0.000000
    27  H   -0.000166  -0.000054   0.000000   0.000000   0.000000   0.000000
    28  H    0.287740  -0.026043  -0.002154   0.011936   0.019215   0.000062
    29  H    0.004444  -0.025559   0.319768  -0.005156   0.001417   0.001185
    30  H   -0.005239  -0.019164   0.342832  -0.009208  -0.000733   0.000434
    31  H    0.003190  -0.023953   0.004433  -0.003630   0.001363   0.000649
    32  H   -0.000740  -0.023630   0.010916  -0.011659  -0.000674   0.000576
    33  H    0.000349  -0.035061   0.005704  -0.000213   0.000001   0.000001
    34  H   -0.005331  -0.034623  -0.006539  -0.000117   0.000001   0.000001
    35  H   -0.000089   0.004508   0.000143   0.000015   0.000000   0.000000
    36  H    0.000035  -0.008373   0.001719  -0.000402   0.000001  -0.000026
    37  H    0.000000  -0.000013  -0.000092   0.000298   0.000000   0.000090
    38  H    0.000000   0.000000   0.000000   0.000000   0.000000   0.000000
    39  H    0.000000   0.000000   0.000000   0.000000   0.000000   0.000000
    40  H    0.000000   0.000000   0.000000   0.000000   0.000000   0.000000
    41  H   -0.000010   0.000202   0.000000   0.000002   0.000000   0.000000
              13         14         15         16         17         18
     1  C    0.000002  -0.000095  -0.000006   0.000000   0.000000   0.000000
     2  N   -0.000202   0.006445   0.000332  -0.000003   0.000000   0.000000
     3  C    0.000008  -0.000347  -0.000012   0.000000   0.000000   0.000000
     4  S    0.000493  -0.008265  -0.000315  -0.000001   0.000000   0.000000
     5  O   -0.000106  -0.000095   0.000000   0.000000   0.000000   0.000000
     6  O    0.000157  -0.008453  -0.000013  -0.000001   0.000000   0.000000
     7  N   -0.051726  -0.046839   0.003359  -0.000043  -0.000003   0.000000
     8  C    0.319034   0.378839  -0.030757  -0.003208   0.000752   0.000005
     9  C   -0.195545  -0.045203  -0.006139  -0.000694  -0.000058   0.000000
    10  S    0.127199   0.004499  -0.000040   0.000209   0.000443  -0.000007
    11  O   -0.046577  -0.000043  -0.000002   0.000000   0.000000   0.000000
    12  O   -0.044154  -0.000124   0.000015  -0.000030  -0.000023   0.000000
    13  C    5.774034  -0.033107  -0.004096  -0.003314  -0.004809  -0.000298
    14  C   -0.033107   5.096391   0.330347  -0.032383   0.000953  -0.000174
    15  C   -0.004096   0.330347   5.200477   0.344295  -0.049792   0.006974
    16  C   -0.003314  -0.032383   0.344295   4.677424   0.543113  -0.022706
    17  C   -0.004809   0.000953  -0.049792   0.543113   4.978862   0.519527
    18  C   -0.000298  -0.000174   0.006974  -0.022706   0.519527   4.861941
    19  C    0.000065  -0.000001   0.000366  -0.035076  -0.036156   0.551723
    20  C    0.000237   0.000278   0.006127  -0.017716  -0.045578  -0.026227
    21  C    0.000416  -0.003839  -0.067920   0.540051  -0.044700  -0.046305
    22  H    0.000000   0.000012  -0.000002   0.000000   0.000000   0.000000
    23  H    0.000000   0.000014   0.000000   0.000000   0.000000   0.000000
    24  H    0.000000  -0.000105  -0.000004   0.000000   0.000000   0.000000
    25  H   -0.000001  -0.000006  -0.000002   0.000000   0.000000   0.000000
    26  H   -0.000040  -0.000349  -0.000001   0.000000   0.000000   0.000000
    27  H    0.000000   0.000032   0.000000   0.000000   0.000000   0.000000
    28  H   -0.008141   0.004425  -0.000078  -0.000001   0.000000   0.000000
    29  H    0.004524  -0.006709   0.000835   0.000177   0.000029   0.000000
    30  H    0.008802   0.000371   0.000137   0.000007   0.000000   0.000000
    31  H    0.322734  -0.008001  -0.000532   0.010257   0.008504   0.000862
    32  H    0.339497  -0.000168   0.000081   0.000017   0.000046   0.000003
    33  H   -0.006125   0.365907  -0.037304  -0.009537   0.000184   0.000002
    34  H    0.005300   0.360935  -0.026260   0.003833  -0.000107   0.000002
    35  H   -0.000060  -0.035949   0.363396  -0.029205   0.000825  -0.000234
    36  H   -0.000032  -0.036963   0.358312  -0.037563  -0.004943   0.000238
    37  H   -0.000078   0.000166  -0.011107  -0.044803   0.355222  -0.043486
    38  H   -0.000004   0.000001  -0.000176   0.003766  -0.038369   0.358256
    39  H    0.000000   0.000000   0.000007   0.000722   0.004665  -0.042398
    40  H    0.000000   0.000002  -0.000182   0.003640   0.000837   0.004594
    41  H   -0.000037   0.000815  -0.009274  -0.048255   0.005975   0.000361
              19         20         21         22         23         24
     1  C    0.000000   0.000000   0.000000   0.377787   0.372015   0.377744
     2  N    0.000000   0.000000  -0.000001  -0.039912  -0.047412  -0.031217
     3  C    0.000000   0.000000  -0.000001  -0.002916  -0.002394   0.004613
     4  S    0.000000   0.000000  -0.000004   0.001997  -0.002980  -0.005188
     5  O    0.000000   0.000000   0.000000  -0.000110   0.002375  -0.000197
     6  O    0.000000   0.000000   0.000000   0.000233  -0.000473   0.012697
     7  N    0.000000   0.000000  -0.000021  -0.000079  -0.000081   0.000144
     8  C    0.000004  -0.000036  -0.001274   0.000005  -0.000013   0.000018
     9  C    0.000000   0.000001   0.000006   0.000000   0.000000   0.000000
    10  S   -0.000001  -0.000004   0.000069   0.000000   0.000000   0.000000
    11  O    0.000000   0.000000   0.000000   0.000000   0.000000   0.000000
    12  O    0.000000   0.000000   0.000000   0.000000   0.000000   0.000000
    13  C    0.000065   0.000237   0.000416   0.000000   0.000000   0.000000
    14  C   -0.000001   0.000278  -0.003839   0.000012   0.000014  -0.000105
    15  C    0.000366   0.006127  -0.067920  -0.000002   0.000000  -0.000004
    16  C   -0.035076  -0.017716   0.540051   0.000000   0.000000   0.000000
    17  C   -0.036156  -0.045578  -0.044700   0.000000   0.000000   0.000000
    18  C    0.551723  -0.026227  -0.046305   0.000000   0.000000   0.000000
    19  C    4.854018   0.547189  -0.035782   0.000000   0.000000   0.000000
    20  C    0.547189   4.859430   0.528197   0.000000   0.000000   0.000000
    21  C   -0.035782   0.528197   4.982656   0.000000   0.000000   0.000000
    22  H    0.000000   0.000000   0.000000   0.556046  -0.042057  -0.020751
    23  H    0.000000   0.000000   0.000000  -0.042057   0.578209  -0.029997
    24  H    0.000000   0.000000   0.000000  -0.020751  -0.029997   0.487117
    25  H    0.000000   0.000000   0.000000   0.005379  -0.001511  -0.000003
    26  H    0.000000   0.000000   0.000000   0.000045  -0.000217  -0.000192
    27  H    0.000000   0.000000   0.000000  -0.001782   0.008719  -0.000188
    28  H    0.000000   0.000000   0.000000   0.000001   0.000006  -0.000004
    29  H    0.000000   0.000000   0.000006   0.000000   0.000000   0.000000
    30  H    0.000000   0.000000   0.000000   0.000000   0.000000   0.000000
    31  H   -0.000110  -0.000518  -0.000293   0.000000   0.000000   0.000000
    32  H   -0.000005  -0.000010   0.000042   0.000000   0.000000   0.000000
    33  H   -0.000002  -0.000014   0.003778  -0.000026   0.000001  -0.000009
    34  H    0.000000  -0.000001   0.000228  -0.000069   0.000009   0.000554
    35  H    0.000038  -0.000068  -0.004747   0.000000   0.000000  -0.000001
    36  H   -0.000004  -0.000154   0.005031   0.000000   0.000000   0.000000
    37  H    0.004732   0.000347   0.006330   0.000000   0.000000   0.000000
    38  H   -0.042499   0.004545   0.000803   0.000000   0.000000   0.000000
    39  H    0.360241  -0.042682   0.004712   0.000000   0.000000   0.000000
    40  H   -0.042345   0.357945  -0.040458   0.000000   0.000000   0.000000
    41  H    0.004775  -0.043363   0.354541   0.000000   0.000000   0.000000
              25         26         27         28         29         30
     1  C   -0.003737   0.004739  -0.002175  -0.000037   0.000000   0.000008
     2  N   -0.036179  -0.033270  -0.045559   0.002067   0.000000   0.000021
     3  C    0.372898   0.374704   0.374786  -0.000197   0.000000  -0.000003
     4  S    0.003325  -0.003362  -0.007314  -0.015008   0.000149   0.000851
     5  O    0.000048  -0.001780   0.005357   0.006776  -0.000002  -0.000360
     6  O   -0.000050   0.000035  -0.000041  -0.000066  -0.000128   0.012306
     7  N   -0.000019   0.014943  -0.000166   0.287740   0.004444  -0.005239
     8  C    0.000025   0.000219  -0.000054  -0.026043  -0.025559  -0.019164
     9  C    0.000000   0.000037   0.000000  -0.002154   0.319768   0.342832
    10  S    0.000000  -0.000006   0.000000   0.011936  -0.005156  -0.009208
    11  O    0.000000   0.000001   0.000000   0.019215   0.001417  -0.000733
    12  O    0.000000   0.000000   0.000000   0.000062   0.001185   0.000434
    13  C   -0.000001  -0.000040   0.000000  -0.008141   0.004524   0.008802
    14  C   -0.000006  -0.000349   0.000032   0.004425  -0.006709   0.000371
    15  C   -0.000002  -0.000001   0.000000  -0.000078   0.000835   0.000137
    16  C    0.000000   0.000000   0.000000  -0.000001   0.000177   0.000007
    17  C    0.000000   0.000000   0.000000   0.000000   0.000029   0.000000
    18  C    0.000000   0.000000   0.000000   0.000000   0.000000   0.000000
    19  C    0.000000   0.000000   0.000000   0.000000   0.000000   0.000000
    20  C    0.000000   0.000000   0.000000   0.000000   0.000000   0.000000
    21  C    0.000000   0.000000   0.000000   0.000000   0.000006   0.000000
    22  H    0.005379   0.000045  -0.001782   0.000001   0.000000   0.000000
    23  H   -0.001511  -0.000217   0.008719   0.000006   0.000000   0.000000
    24  H   -0.000003  -0.000192  -0.000188  -0.000004   0.000000   0.000000
    25  H    0.557264  -0.023300  -0.037614  -0.000001   0.000000   0.000000
    26  H   -0.023300   0.508649  -0.030381  -0.000428   0.000000   0.000000
    27  H   -0.037614  -0.030381   0.563318   0.000070   0.000000   0.000000
    28  H   -0.000001  -0.000428   0.000070   0.339456  -0.000045  -0.000708
    29  H    0.000000   0.000000   0.000000  -0.000045   0.515972  -0.015903
    30  H    0.000000   0.000000   0.000000  -0.000708  -0.015903   0.439408
    31  H    0.000000   0.000001   0.000000   0.000224   0.000106  -0.000187
    32  H    0.000000   0.000115   0.000000   0.000000  -0.000307  -0.000261
    33  H    0.000059   0.000688   0.000006   0.000021   0.000051  -0.000064
    34  H   -0.000057  -0.000039   0.000000  -0.000005   0.000282   0.000392
    35  H    0.000000   0.000000   0.000000   0.000002  -0.000149  -0.000005
    36  H    0.000000   0.000000   0.000000   0.000000   0.007757  -0.000029
    37  H    0.000000   0.000000   0.000000   0.000000   0.000190   0.000001
    38  H    0.000000   0.000000   0.000000   0.000000   0.000000   0.000000
    39  H    0.000000   0.000000   0.000000   0.000000   0.000000   0.000000
    40  H    0.000000   0.000000   0.000000   0.000000   0.000000   0.000000
    41  H    0.000002   0.000000   0.000000   0.000000   0.000000   0.000000
              31         32         33         34         35         36
     1  C    0.000000   0.000000   0.000073  -0.000111   0.000000   0.000000
     2  N    0.000002  -0.000013   0.000595  -0.003008   0.000015  -0.000003
     3  C   -0.000001  -0.000022   0.000158   0.000094   0.000000   0.000000
     4  S    0.000008   0.000141  -0.000673   0.011575  -0.000022  -0.000008
     5  O    0.000000  -0.000006   0.000004   0.000028   0.000000   0.000000
     6  O    0.000001   0.000006   0.000176   0.008709  -0.000002   0.000016
     7  N    0.003190  -0.000740   0.000349  -0.005331  -0.000089   0.000035
     8  C   -0.023953  -0.023630  -0.035061  -0.034623   0.004508  -0.008373
     9  C    0.004433   0.010916   0.005704  -0.006539   0.000143   0.001719
    10  S   -0.003630  -0.011659  -0.000213  -0.000117   0.000015  -0.000402
    11  O    0.001363  -0.000674   0.000001   0.000001   0.000000   0.000001
    12  O    0.000649   0.000576   0.000001   0.000001   0.000000  -0.000026
    13  C    0.322734   0.339497  -0.006125   0.005300  -0.000060  -0.000032
    14  C   -0.008001  -0.000168   0.365907   0.360935  -0.035949  -0.036963
    15  C   -0.000532   0.000081  -0.037304  -0.026260   0.363396   0.358312
    16  C    0.010257   0.000017  -0.009537   0.003833  -0.029205  -0.037563
    17  C    0.008504   0.000046   0.000184  -0.000107   0.000825  -0.004943
    18  C    0.000862   0.000003   0.000002   0.000002  -0.000234   0.000238
    19  C   -0.000110  -0.000005  -0.000002   0.000000   0.000038  -0.000004
    20  C   -0.000518  -0.000010  -0.000014  -0.000001  -0.000068  -0.000154
    21  C   -0.000293   0.000042   0.003778   0.000228  -0.004747   0.005031
    22  H    0.000000   0.000000  -0.000026  -0.000069   0.000000   0.000000
    23  H    0.000000   0.000000   0.000001   0.000009   0.000000   0.000000
    24  H    0.000000   0.000000  -0.000009   0.000554  -0.000001   0.000000
    25  H    0.000000   0.000000   0.000059  -0.000057   0.000000   0.000000
    26  H    0.000001   0.000115   0.000688  -0.000039   0.000000   0.000000
    27  H    0.000000   0.000000   0.000006   0.000000   0.000000   0.000000
    28  H    0.000224   0.000000   0.000021  -0.000005   0.000002   0.000000
    29  H    0.000106  -0.000307   0.000051   0.000282  -0.000149   0.007757
    30  H   -0.000187  -0.000261  -0.000064   0.000392  -0.000005  -0.000029
    31  H    0.469441  -0.015190   0.000297   0.000116   0.000125  -0.000056
    32  H   -0.015190   0.490300   0.000766  -0.000091   0.000000  -0.000005
    33  H    0.000297   0.000766   0.570481  -0.032366  -0.001069   0.004959
    34  H    0.000116  -0.000091  -0.032366   0.536153  -0.005128  -0.000910
    35  H    0.000125   0.000000  -0.001069  -0.005128   0.570068  -0.032340
    36  H   -0.000056  -0.000005   0.004959  -0.000910  -0.032340   0.587204
    37  H    0.000048   0.000000   0.000006  -0.000006   0.000173   0.007458
    38  H    0.000016   0.000000   0.000000   0.000000   0.000003  -0.000010
    39  H   -0.000001   0.000000   0.000000   0.000000   0.000000   0.000000
    40  H    0.000000   0.000000   0.000008   0.000000   0.000000   0.000003
    41  H    0.000050  -0.000005   0.005322  -0.000142   0.001481   0.000030
              37         38         39         40         41
     1  C    0.000000   0.000000   0.000000   0.000000   0.000000
     2  N    0.000000   0.000000   0.000000   0.000000  -0.000005
     3  C    0.000000   0.000000   0.000000   0.000000   0.000001
     4  S    0.000000   0.000000   0.000000   0.000000  -0.000001
     5  O    0.000000   0.000000   0.000000   0.000000   0.000000
     6  O    0.000000   0.000000   0.000000   0.000000   0.000000
     7  N    0.000000   0.000000   0.000000   0.000000  -0.000010
     8  C   -0.000013   0.000000   0.000000   0.000000   0.000202
     9  C   -0.000092   0.000000   0.000000   0.000000   0.000000
    10  S    0.000298   0.000000   0.000000   0.000000   0.000002
    11  O    0.000000   0.000000   0.000000   0.000000   0.000000
    12  O    0.000090   0.000000   0.000000   0.000000   0.000000
    13  C   -0.000078  -0.000004   0.000000   0.000000  -0.000037
    14  C    0.000166   0.000001   0.000000   0.000002   0.000815
    15  C   -0.011107  -0.000176   0.000007  -0.000182  -0.009274
    16  C   -0.044803   0.003766   0.000722   0.003640  -0.048255
    17  C    0.355222  -0.038369   0.004665   0.000837   0.005975
    18  C   -0.043486   0.358256  -0.042398   0.004594   0.000361
    19  C    0.004732  -0.042499   0.360241  -0.042345   0.004775
    20  C    0.000347   0.004545  -0.042682   0.357945  -0.043363
    21  C    0.006330   0.000803   0.004712  -0.040458   0.354541
    22  H    0.000000   0.000000   0.000000   0.000000   0.000000
    23  H    0.000000   0.000000   0.000000   0.000000   0.000000
    24  H    0.000000   0.000000   0.000000   0.000000   0.000000
    25  H    0.000000   0.000000   0.000000   0.000000   0.000002
    26  H    0.000000   0.000000   0.000000   0.000000   0.000000
    27  H    0.000000   0.000000   0.000000   0.000000   0.000000
    28  H    0.000000   0.000000   0.000000   0.000000   0.000000
    29  H    0.000190   0.000000   0.000000   0.000000   0.000000
    30  H    0.000001   0.000000   0.000000   0.000000   0.000000
    31  H    0.000048   0.000016  -0.000001   0.000000   0.000050
    32  H    0.000000   0.000000   0.000000   0.000000  -0.000005
    33  H    0.000006   0.000000   0.000000   0.000008   0.005322
    34  H   -0.000006   0.000000   0.000000   0.000000  -0.000142
    35  H    0.000173   0.000003   0.000000   0.000000   0.001481
    36  H    0.007458  -0.000010   0.000000   0.000003   0.000030
    37  H    0.594919  -0.005430  -0.000175   0.000017  -0.000178
    38  H   -0.005430   0.584558  -0.005424  -0.000184   0.000017
    39  H   -0.000175  -0.005424   0.590007  -0.005459  -0.000181
    40  H    0.000017  -0.000184  -0.005459   0.593017  -0.005576
    41  H   -0.000178   0.000017  -0.000181  -0.005576   0.606063
 Mulliken charges:
               1
     1  C   -0.328561
     2  N   -0.524783
     3  C   -0.322335
     4  S    1.362653
     5  O   -0.521928
     6  O   -0.570187
     7  N   -0.739550
     8  C    0.158517
     9  C   -0.484020
    10  S    1.104796
    11  O   -0.541785
    12  O   -0.499981
    13  C   -0.504048
    14  C   -0.283212
    15  C   -0.371045
    16  C    0.157026
    17  C   -0.195399
    18  C   -0.122650
    19  C   -0.131170
    20  C   -0.127923
    21  C   -0.181519
    22  H    0.166201
    23  H    0.165785
    24  H    0.204968
    25  H    0.163481
    26  H    0.189190
    27  H    0.172988
    28  H    0.380913
    29  H    0.197064
    30  H    0.246294
    31  H    0.230045
    32  H    0.210280
    33  H    0.162863
    34  H    0.186698
    35  H    0.168275
    36  H    0.149058
    37  H    0.135370
    38  H    0.140131
    39  H    0.135965
    40  H    0.134142
    41  H    0.127391
 Sum of Mulliken charges =   0.00000
 Mulliken charges with hydrogens summed into heavy atoms:
               1
     1  C    0.208393
     2  N   -0.524783
     3  C    0.203324
     4  S    1.362653
     5  O   -0.521928
     6  O   -0.570187
     7  N   -0.358637
     8  C    0.158517
     9  C   -0.040662
    10  S    1.104796
    11  O   -0.541785
    12  O   -0.499981
    13  C   -0.063722
    14  C    0.066350
    15  C   -0.053712
    16  C    0.157026
    17  C   -0.060029
    18  C    0.017481
    19  C    0.004795
    20  C    0.006219
    21  C   -0.054128
 Electronic spatial extent (au):  <R**2>=           7821.0954
 Charge=              0.0000 electrons
 Dipole moment (field-independent basis, Debye):
    X=              2.1194    Y=             -7.4647    Z=             -0.0737  Tot=              7.7601
 Quadrupole moment (field-independent basis, Debye-Ang):
   XX=           -141.8839   YY=           -150.9345   ZZ=           -134.5384
   XY=              9.1957   XZ=             -1.6360   YZ=              6.6513
 Traceless Quadrupole moment (field-independent basis, Debye-Ang):
   XX=              0.5684   YY=             -8.4823   ZZ=              7.9139
   XY=              9.1957   XZ=             -1.6360   YZ=              6.6513
 Octapole moment (field-independent basis, Debye-Ang**2):
  XXX=             38.7876  YYY=            -83.5588  ZZZ=             -6.7693  XYY=            -55.6377
  XXY=            -49.1281  XXZ=            -13.9238  XZZ=             -2.3804  YZZ=              2.8355
  YYZ=              5.4977  XYZ=              5.1765
 Hexadecapole moment (field-independent basis, Debye-Ang**3):
 XXXX=          -6393.0866 YYYY=          -3077.6922 ZZZZ=           -795.4832 XXXY=            230.8257
 XXXZ=           -120.5391 YYYX=             27.6066 YYYZ=             63.4417 ZZZX=             13.6223
 ZZZY=              1.7546 XXYY=          -1558.1524 XXZZ=          -1230.4827 YYZZ=           -581.5093
 XXYZ=             65.9728 YYXZ=            -56.6870 ZZXY=             23.8492
 N-N= 2.197305471989D+03 E-N=-8.420257403144D+03  KE= 1.702542231116D+03
 No NMR shielding tensors so no spin-rotation constants.
 Leave Link  601 at Fri Oct  2 06:19:14 2020, MaxMem=  2147483648 cpu:         0.8
 (Enter /prod/apps/gaussian/g09d1/l9999.exe)
 1\1\GINC-PIRINEUS42\SP\RB3LYP\6-31G(d)\C13H20N2O4S2\UBAFAR01\02-Oct-20
 20\0\\#p b3lyp/6-31G(d)\\SM40.n.30.pdb.xyz\\0,1\C,0,3.399,0.752,-1.102
 \N,0,3.283,-0.407,-0.204\C,0,2.551,-0.131,1.039\S,0,2.818,-1.825,-0.97
 3\O,0,1.36,-1.983,-1.035\O,0,3.606,-1.895,-2.21\N,0,3.318,-2.972,0.155
 \C,0,4.673,-3.574,0.079\C,0,4.837,-4.486,-1.186\S,0,4.242,-5.91,-0.208
 \O,0,2.771,-6.015,-0.304\O,0,5.064,-7.126,-0.287\C,0,4.687,-4.734,1.12
 7\C,0,5.733,-2.474,0.25\C,0,7.213,-2.899,0.26\C,0,7.727,-3.515,1.548\C
 ,0,8.425,-4.729,1.53\C,0,8.928,-5.288,2.707\C,0,8.74,-4.635,3.926\C,0,
 8.048,-3.422,3.957\C,0,7.548,-2.868,2.78\H,0,3.944,1.529,-0.561\H,0,2.
 422,1.151,-1.402\H,0,3.965,0.467,-1.986\H,0,3.086,0.662,1.566\H,0,2.55
 ,-1.028,1.658\H,0,1.52,0.191,0.854\H,0,2.579,-3.676,0.2\H,0,5.877,-4.6
 58,-1.467\H,0,4.238,-4.218,-2.053\H,0,5.687,-4.959,1.498\H,0,3.966,-4.
 666,1.942\H,0,5.501,-1.932,1.171\H,0,5.579,-1.766,-0.566\H,0,7.795,-1.
 992,0.053\H,0,7.429,-3.576,-0.573\H,0,8.576,-5.238,0.582\H,0,9.464,-6.
 231,2.669\H,0,9.127,-5.066,4.843\H,0,7.9,-2.906,4.9\H,0,7.014,-1.923,2
 .817\\Version=AM64L-G09RevD.01\State=1-A\HF=-1714.0405683\RMSD=8.833e-
 09\Dipole=1.5989974,2.1465456,1.4685742\Quadrupole=-4.9600902,0.306863
 9,4.6532263,-7.358176,-5.5344848,-1.4180947\PG=C01 [X(C13H20N2O4S2)]\\
 @


 ABOVE ALL I AM AN OPTIMIST FOR NUMBER THEORY,
 AND I HOLD THE HOPE THAT WE MAY NOT BE FAR FROM
 A TIME WHEN IRREFUTABLE ARITHMETIC WILL CELEBRATE
 ITS TRIUMPHS IN PHYSICS AND CHEMISTRY.
   -- HERMANN MINKOWSKI, 1905
 Job cpu time:       0 days  0 hours  6 minutes 35.5 seconds.
 File lengths (MBytes):  RWF=     73 Int=      0 D2E=      0 Chk=      6 Scr=      1
 Normal termination of Gaussian 09 at Fri Oct  2 06:19:14 2020.
 Initial command:
 /prod/apps/gaussian/g09d1/l1.exe "/tmp/ubafar01/1462947/Gau-2834.inp" -scrdir="/tmp/ubafar01/1462947/"
 Entering Link 1 = /prod/apps/gaussian/g09d1/l1.exe PID=      3060.
  
 Copyright (c) 1988,1990,1992,1993,1995,1998,2003,2009,2013,
            Gaussian, Inc.  All Rights Reserved.
  
 This is part of the Gaussian(R) 09 program.  It is based on
 the Gaussian(R) 03 system (copyright 2003, Gaussian, Inc.),
 the Gaussian(R) 98 system (copyright 1998, Gaussian, Inc.),
 the Gaussian(R) 94 system (copyright 1995, Gaussian, Inc.),
[...]
    10  S    0.135021   0.004354  -0.000017   0.000237   0.000468  -0.000008
    11  O   -0.046995  -0.000051  -0.000002   0.000000   0.000000   0.000000
    12  O   -0.044431  -0.000127   0.000016  -0.000029  -0.000023   0.000000
    13  C    5.762421  -0.032205  -0.004002  -0.003587  -0.004950  -0.000305
    14  C   -0.032205   5.093454   0.329976  -0.031958   0.000983  -0.000178
    15  C   -0.004002   0.329976   5.198805   0.343998  -0.050058   0.006950
    16  C   -0.003587  -0.031958   0.343998   4.685523   0.542000  -0.023707
    17  C   -0.004950   0.000983  -0.050058   0.542000   4.989320   0.517659
    18  C   -0.000305  -0.000178   0.006950  -0.023707   0.517659   4.874502
    19  C    0.000067   0.000000   0.000349  -0.034933  -0.037121   0.550089
    20  C    0.000246   0.000274   0.006035  -0.018805  -0.045409  -0.027332
    21  C    0.000433  -0.003908  -0.067626   0.538910  -0.045017  -0.046110
    22  H    0.000000   0.000008  -0.000002   0.000000   0.000000   0.000000
    23  H    0.000000   0.000014   0.000000   0.000000   0.000000   0.000000
    24  H    0.000000  -0.000103  -0.000004   0.000000   0.000000   0.000000
    25  H   -0.000001  -0.000007  -0.000002   0.000000   0.000000   0.000000
    26  H   -0.000037  -0.000329  -0.000002   0.000000   0.000000   0.000000
    27  H    0.000000   0.000032   0.000000   0.000000   0.000000   0.000000
    28  H   -0.008304   0.004373  -0.000078  -0.000001   0.000000   0.000000
    29  H    0.004251  -0.006598   0.001419   0.000130   0.000041   0.000000
    30  H    0.008837   0.000373   0.000135   0.000007   0.000000   0.000000
    31  H    0.323232  -0.008051  -0.000476   0.010644   0.009119   0.000900
    32  H    0.341841  -0.000183   0.000076   0.000023   0.000043   0.000003
    33  H   -0.006009   0.367902  -0.036465  -0.009421   0.000184   0.000003
    34  H    0.005248   0.362546  -0.026030   0.003744  -0.000107   0.000002
    35  H   -0.000063  -0.034894   0.364998  -0.028632   0.000801  -0.000230
    36  H   -0.000035  -0.037112   0.360376  -0.038189  -0.004695   0.000259
    37  H   -0.000083   0.000163  -0.010822  -0.044668   0.356541  -0.043413
    38  H   -0.000004   0.000001  -0.000173   0.003745  -0.038479   0.359567
    39  H    0.000000   0.000000   0.000007   0.000689   0.004625  -0.042214
    40  H    0.000000   0.000002  -0.000177   0.003588   0.000805   0.004536
    41  H   -0.000034   0.000760  -0.008910  -0.047888   0.005830   0.000342
              19         20         21         22         23         24
     1  C    0.000000   0.000000   0.000000   0.380527   0.372490   0.377228
     2  N    0.000000   0.000000  -0.000001  -0.038314  -0.047373  -0.031758
     3  C    0.000000   0.000000  -0.000001  -0.002723  -0.002271   0.004561
     4  S    0.000000   0.000000  -0.000004   0.002102  -0.003401  -0.005223
     5  O    0.000000   0.000000   0.000000  -0.000107   0.002354  -0.000195
     6  O    0.000000   0.000000   0.000000   0.000220  -0.000457   0.012107
     7  N    0.000000   0.000000  -0.000021  -0.000081  -0.000079   0.000137
     8  C    0.000004  -0.000037  -0.001275   0.000005  -0.000013   0.000019
     9  C    0.000000   0.000001   0.000007   0.000000   0.000000   0.000000
    10  S   -0.000001  -0.000003   0.000068   0.000000   0.000000   0.000000
    11  O    0.000000   0.000000   0.000000   0.000000   0.000000   0.000000
    12  O    0.000000   0.000000   0.000000   0.000000   0.000000   0.000000
    13  C    0.000067   0.000246   0.000433   0.000000   0.000000   0.000000
    14  C    0.000000   0.000274  -0.003908   0.000008   0.000014  -0.000103
    15  C    0.000349   0.006035  -0.067626  -0.000002   0.000000  -0.000004
    16  C   -0.034933  -0.018805   0.538910   0.000000   0.000000   0.000000
    17  C   -0.037121  -0.045409  -0.045017   0.000000   0.000000   0.000000
    18  C    0.550089  -0.027332  -0.046110   0.000000   0.000000   0.000000
    19  C    4.866063   0.545359  -0.036802   0.000000   0.000000   0.000000
    20  C    0.545359   4.867651   0.527769   0.000000   0.000000   0.000000
    21  C   -0.036802   0.527769   4.986873   0.000000   0.000000   0.000000
    22  H    0.000000   0.000000   0.000000   0.533039  -0.039826  -0.020052
    23  H    0.000000   0.000000   0.000000  -0.039826   0.574691  -0.030633
    24  H    0.000000   0.000000   0.000000  -0.020052  -0.030633   0.493052
    25  H    0.000000   0.000000   0.000000   0.005008  -0.001428   0.000004
    26  H    0.000000   0.000000   0.000000   0.000045  -0.000205  -0.000194
    27  H    0.000000   0.000000   0.000000  -0.001702   0.008492  -0.000181
    28  H    0.000000   0.000000   0.000001   0.000001   0.000007  -0.000004
    29  H    0.000000   0.000000   0.000006   0.000000   0.000000   0.000000
    30  H    0.000000   0.000000   0.000000   0.000000   0.000000   0.000000
    31  H   -0.000128  -0.000536  -0.000260   0.000000   0.000000   0.000000
    32  H   -0.000005  -0.000010   0.000035   0.000000   0.000000   0.000000
    33  H   -0.000002  -0.000017   0.004039  -0.000024   0.000001  -0.000008
    34  H    0.000000   0.000000   0.000230  -0.000065   0.000009   0.000521
    35  H    0.000038  -0.000065  -0.004627   0.000000   0.000000  -0.000001
    36  H   -0.000005  -0.000151   0.004959   0.000000   0.000000   0.000000
    37  H    0.004705   0.000312   0.006263   0.000000   0.000000   0.000000
    38  H   -0.042048   0.004512   0.000761   0.000000   0.000000   0.000000
    39  H    0.361854  -0.042076   0.004673   0.000000   0.000000   0.000000
    40  H   -0.041975   0.359866  -0.039496   0.000000   0.000000   0.000000
    41  H    0.004690  -0.041814   0.356798   0.000000   0.000000   0.000000
              25         26         27         28         29         30
     1  C   -0.003573   0.004639  -0.002135  -0.000036   0.000000   0.000008
     2  N   -0.034770  -0.033510  -0.045727   0.002104   0.000000   0.000020
     3  C    0.376187   0.374876   0.374954  -0.000214   0.000000  -0.000003
     4  S    0.003318  -0.002745  -0.008114  -0.014229   0.000182   0.001196
     5  O    0.000042  -0.001773   0.005383   0.006735  -0.000002  -0.000362
     6  O   -0.000050   0.000033  -0.000040  -0.000064  -0.000132   0.012379
     7  N   -0.000019   0.013829  -0.000175   0.287848   0.004322  -0.005407
     8  C    0.000024   0.000239  -0.000054  -0.025951  -0.025013  -0.020097
     9  C    0.000000   0.000035   0.000000  -0.002122   0.323198   0.342325
    10  S    0.000000  -0.000006   0.000000   0.011638  -0.005395  -0.009343
    11  O    0.000000   0.000000   0.000000   0.018201   0.001372  -0.000735
    12  O    0.000000   0.000000   0.000000   0.000056   0.001063   0.000445
    13  C   -0.000001  -0.000037   0.000000  -0.008304   0.004251   0.008837
    14  C   -0.000007  -0.000329   0.000032   0.004373  -0.006598   0.000373
    15  C   -0.000002  -0.000002   0.000000  -0.000078   0.001419   0.000135
    16  C    0.000000   0.000000   0.000000  -0.000001   0.000130   0.000007
    17  C    0.000000   0.000000   0.000000   0.000000   0.000041   0.000000
    18  C    0.000000   0.000000   0.000000   0.000000   0.000000   0.000000
    19  C    0.000000   0.000000   0.000000   0.000000   0.000000   0.000000
    20  C    0.000000   0.000000   0.000000   0.000000   0.000000   0.000000
    21  C    0.000000   0.000000   0.000000   0.000001   0.000006   0.000000
    22  H    0.005008   0.000045  -0.001702   0.000001   0.000000   0.000000
    23  H   -0.001428  -0.000205   0.008492   0.000007   0.000000   0.000000
    24  H    0.000004  -0.000194  -0.000181  -0.000004   0.000000   0.000000
    25  H    0.533787  -0.022183  -0.035738  -0.000001   0.000000   0.000000
    26  H   -0.022183   0.505112  -0.030709  -0.000457   0.000000   0.000000
    27  H   -0.035738  -0.030709   0.563990   0.000074   0.000000   0.000000
    28  H   -0.000001  -0.000457   0.000074   0.340042  -0.000047  -0.000695
    29  H    0.000000   0.000000   0.000000  -0.000047   0.496141  -0.014669
    30  H    0.000000   0.000000   0.000000  -0.000695  -0.014669   0.441867
    31  H    0.000000   0.000000   0.000000   0.000209   0.000112  -0.000183
    32  H    0.000000   0.000106   0.000000  -0.000028  -0.000281  -0.000258
    33  H    0.000056   0.000649   0.000005   0.000023   0.000059  -0.000061
    34  H   -0.000055  -0.000039   0.000001  -0.000006   0.000259   0.000390
    35  H    0.000000   0.000000   0.000000   0.000002  -0.000155  -0.000005
    36  H    0.000000   0.000000   0.000000   0.000000   0.007652  -0.000015
    37  H    0.000000   0.000000   0.000000   0.000000   0.000192   0.000001
    38  H    0.000000   0.000000   0.000000   0.000000   0.000000   0.000000
    39  H    0.000000   0.000000   0.000000   0.000000   0.000000   0.000000
    40  H    0.000000   0.000000   0.000000   0.000000   0.000000   0.000000
    41  H    0.000002   0.000000   0.000000   0.000000   0.000000   0.000000
              31         32         33         34         35         36
     1  C    0.000000   0.000000   0.000070  -0.000124   0.000000   0.000000
     2  N    0.000002  -0.000013   0.000544  -0.003113   0.000015  -0.000003
     3  C   -0.000001  -0.000020   0.000187   0.000079   0.000000   0.000000
     4  S    0.000005   0.000117  -0.000852   0.011733  -0.000023  -0.000012
     5  O    0.000000  -0.000006   0.000004   0.000023   0.000000   0.000000
     6  O    0.000001   0.000006   0.000175   0.008122  -0.000002   0.000015
     7  N    0.003151  -0.000769   0.000093  -0.005403  -0.000087   0.000030
     8  C   -0.023952  -0.023333  -0.035218  -0.035434   0.004476  -0.008491
     9  C    0.004496   0.010431   0.005624  -0.006480   0.000142   0.001673
    10  S   -0.004387  -0.011655  -0.000223  -0.000134   0.000014  -0.000404
    11  O    0.001347  -0.000765   0.000001   0.000001   0.000000   0.000001
    12  O    0.000592   0.000555   0.000001   0.000001   0.000000  -0.000026
    13  C    0.323232   0.341841  -0.006009   0.005248  -0.000063  -0.000035
    14  C   -0.008051  -0.000183   0.367902   0.362546  -0.034894  -0.037112
    15  C   -0.000476   0.000076  -0.036465  -0.026030   0.364998   0.360376
    16  C    0.010644   0.000023  -0.009421   0.003744  -0.028632  -0.038189
    17  C    0.009119   0.000043   0.000184  -0.000107   0.000801  -0.004695
    18  C    0.000900   0.000003   0.000003   0.000002  -0.000230   0.000259
    19  C   -0.000128  -0.000005  -0.000002   0.000000   0.000038  -0.000005
    20  C   -0.000536  -0.000010  -0.000017   0.000000  -0.000065  -0.000151
    21  C   -0.000260   0.000035   0.004039   0.000230  -0.004627   0.004959
    22  H    0.000000   0.000000  -0.000024  -0.000065   0.000000   0.000000
    23  H    0.000000   0.000000   0.000001   0.000009   0.000000   0.000000
    24  H    0.000000   0.000000  -0.000008   0.000521  -0.000001   0.000000
    25  H    0.000000   0.000000   0.000056  -0.000055   0.000000   0.000000
    26  H    0.000000   0.000106   0.000649  -0.000039   0.000000   0.000000
    27  H    0.000000   0.000000   0.000005   0.000001   0.000000   0.000000
    28  H    0.000209  -0.000028   0.000023  -0.000006   0.000002   0.000000
    29  H    0.000112  -0.000281   0.000059   0.000259  -0.000155   0.007652
    30  H   -0.000183  -0.000258  -0.000061   0.000390  -0.000005  -0.000015
    31  H    0.463416  -0.013671   0.000292   0.000115   0.000125  -0.000048
    32  H   -0.013671   0.470192   0.000716  -0.000085   0.000000  -0.000004
    33  H    0.000292   0.000716   0.559325  -0.031487  -0.001038   0.004811
    34  H    0.000115  -0.000085  -0.031487   0.532364  -0.005163  -0.000866
    35  H    0.000125   0.000000  -0.001038  -0.005163   0.556139  -0.031007
    36  H   -0.000048  -0.000004   0.004811  -0.000866  -0.031007   0.578524
    37  H    0.000054   0.000000   0.000006  -0.000006   0.000172   0.007221
    38  H    0.000016   0.000000   0.000000   0.000000   0.000003  -0.000009
    39  H   -0.000001   0.000000   0.000000   0.000000   0.000000   0.000000
    40  H    0.000000   0.000000   0.000008   0.000000   0.000000   0.000003
    41  H    0.000047  -0.000004   0.005200  -0.000136   0.001416   0.000027
              37         38         39         40         41
     1  C    0.000000   0.000000   0.000000   0.000000   0.000000
     2  N    0.000000   0.000000   0.000000   0.000000  -0.000005
     3  C    0.000000   0.000000   0.000000   0.000000   0.000001
     4  S    0.000000   0.000000   0.000000   0.000000  -0.000001
     5  O    0.000000   0.000000   0.000000   0.000000   0.000000
     6  O    0.000000   0.000000   0.000000   0.000000   0.000000
     7  N    0.000000   0.000000   0.000000   0.000000  -0.000009
     8  C   -0.000011   0.000000   0.000000   0.000000   0.000200
     9  C   -0.000092   0.000000   0.000000   0.000000   0.000000
    10  S    0.000295   0.000000   0.000000   0.000000   0.000002
    11  O    0.000000   0.000000   0.000000   0.000000   0.000000
    12  O    0.000084   0.000000   0.000000   0.000000   0.000000
    13  C   -0.000083  -0.000004   0.000000   0.000000  -0.000034
    14  C    0.000163   0.000001   0.000000   0.000002   0.000760
    15  C   -0.010822  -0.000173   0.000007  -0.000177  -0.008910
    16  C   -0.044668   0.003745   0.000689   0.003588  -0.047888
    17  C    0.356541  -0.038479   0.004625   0.000805   0.005830
    18  C   -0.043413   0.359567  -0.042214   0.004536   0.000342
    19  C    0.004705  -0.042048   0.361854  -0.041975   0.004690
    20  C    0.000312   0.004512  -0.042076   0.359866  -0.041814
    21  C    0.006263   0.000761   0.004673  -0.039496   0.356798
    22  H    0.000000   0.000000   0.000000   0.000000   0.000000
    23  H    0.000000   0.000000   0.000000   0.000000   0.000000
    24  H    0.000000   0.000000   0.000000   0.000000   0.000000
    25  H    0.000000   0.000000   0.000000   0.000000   0.000002
    26  H    0.000000   0.000000   0.000000   0.000000   0.000000
    27  H    0.000000   0.000000   0.000000   0.000000   0.000000
    28  H    0.000000   0.000000   0.000000   0.000000   0.000000
    29  H    0.000192   0.000000   0.000000   0.000000   0.000000
    30  H    0.000001   0.000000   0.000000   0.000000   0.000000
    31  H    0.000054   0.000016  -0.000001   0.000000   0.000047
    32  H    0.000000   0.000000   0.000000   0.000000  -0.000004
    33  H    0.000006   0.000000   0.000000   0.000008   0.005200
    34  H   -0.000006   0.000000   0.000000   0.000000  -0.000136
    35  H    0.000172   0.000003   0.000000   0.000000   0.001416
    36  H    0.007221  -0.000009   0.000000   0.000003   0.000027
    37  H    0.588640  -0.005317  -0.000170   0.000017  -0.000172
    38  H   -0.005317   0.576976  -0.005298  -0.000178   0.000017
    39  H   -0.000170  -0.005298   0.579425  -0.005290  -0.000174
    40  H    0.000017  -0.000178  -0.005290   0.579393  -0.005369
    41  H   -0.000172   0.000017  -0.000174  -0.005369   0.590283
 Mulliken charges:
               1
     1  C   -0.331206
     2  N   -0.523048
     3  C   -0.326959
     4  S    1.356531
     5  O   -0.542861
     6  O   -0.578544
     7  N   -0.733073
     8  C    0.154717
     9  C   -0.483471
    10  S    1.097876
    11  O   -0.561131
    12  O   -0.519267
    13  C   -0.503299
    14  C   -0.285010
    15  C   -0.374527
    16  C    0.152621
    17  C   -0.203254
    18  C   -0.131319
    19  C   -0.140198
    20  C   -0.135769
    21  C   -0.186676
    22  H    0.181941
    23  H    0.167629
    24  H    0.200725
    25  H    0.179398
    26  H    0.192623
    27  H    0.171645
    28  H    0.380922
    29  H    0.211893
    30  H    0.243847
    31  H    0.233817
    32  H    0.226948
    33  H    0.170848
    34  H    0.189346
    35  H    0.177649
    36  H    0.155519
    37  H    0.140089
    38  H    0.145907
    39  H    0.143950
    40  H    0.144268
    41  H    0.138902
 Sum of Mulliken charges =   0.00000
 Mulliken charges with hydrogens summed into heavy atoms:
               1
     1  C    0.219089
     2  N   -0.523048
     3  C    0.216706
     4  S    1.356531
     5  O   -0.542861
     6  O   -0.578544
     7  N   -0.352151
     8  C    0.154717
     9  C   -0.027730
    10  S    1.097876
    11  O   -0.561131
    12  O   -0.519267
    13  C   -0.042534
    14  C    0.075184
    15  C   -0.041359
    16  C    0.152621
    17  C   -0.063165
    18  C    0.014588
    19  C    0.003752
    20  C    0.008499
    21  C   -0.047774
 Electronic spatial extent (au):  <R**2>=           7822.0005
 Charge=              0.0000 electrons
 Dipole moment (field-independent basis, Debye):
    X=              2.3827    Y=             -8.7529    Z=             -0.1185  Tot=              9.0722
 Quadrupole moment (field-independent basis, Debye-Ang):
   XX=           -143.3412   YY=           -151.4804   ZZ=           -133.7525
   XY=             10.4467   XZ=             -1.7820   YZ=              7.3152
 Traceless Quadrupole moment (field-independent basis, Debye-Ang):
   XX=             -0.4832   YY=             -8.6224   ZZ=              9.1055
   XY=             10.4467   XZ=             -1.7820   YZ=              7.3152
 Octapole moment (field-independent basis, Debye-Ang**2):
  XXX=             45.2196  YYY=           -101.7131  ZZZ=             -7.0294  XYY=            -60.0180
  XXY=            -57.0709  XXZ=            -15.3930  XZZ=             -0.8886  YZZ=              0.9898
  YYZ=              5.8258  XYZ=              5.0690
 Hexadecapole moment (field-independent basis, Debye-Ang**3):
 XXXX=          -6410.4428 YYYY=          -3093.7051 ZZZZ=           -789.6071 XXXY=            249.5393
 XXXZ=           -129.6221 YYYX=             36.5645 YYYZ=             71.3111 ZZZX=             14.8145
 ZZZY=              4.2128 XXYY=          -1546.6643 XXZZ=          -1228.2376 YYZZ=           -578.1813
 XXYZ=             71.4717 YYXZ=            -58.9546 ZZXY=             25.1669
 N-N= 2.197290225408D+03 E-N=-8.420405341941D+03  KE= 1.702557632117D+03
 No NMR shielding tensors so no spin-rotation constants.
 Leave Link  601 at Fri Oct  2 06:24:10 2020, MaxMem=  2147483648 cpu:         0.8
 (Enter /prod/apps/gaussian/g09d1/l9999.exe)
 1\1\GINC-PIRINEUS42\SP\RB3LYP\6-31G(d)\C13H20N2O4S2\UBAFAR01\02-Oct-20
 20\0\\#p b3lyp/6-31G(d) scrf=(iefpcm,read,solvent=n-Octanol) geom=allc
 heck guess=read\\SM40.n.30.pdb.xyz\\0,1\C,0,3.399,0.752,-1.102\N,0,3.2
 83,-0.407,-0.204\C,0,2.551,-0.131,1.039\S,0,2.818,-1.825,-0.973\O,0,1.
 36,-1.983,-1.035\O,0,3.606,-1.895,-2.21\N,0,3.318,-2.972,0.155\C,0,4.6
 73,-3.574,0.079\C,0,4.837,-4.486,-1.186\S,0,4.242,-5.91,-0.208\O,0,2.7
 71,-6.015,-0.304\O,0,5.064,-7.126,-0.287\C,0,4.687,-4.734,1.127\C,0,5.
 733,-2.474,0.25\C,0,7.213,-2.899,0.26\C,0,7.727,-3.515,1.548\C,0,8.425
 ,-4.729,1.53\C,0,8.928,-5.288,2.707\C,0,8.74,-4.635,3.926\C,0,8.048,-3
 .422,3.957\C,0,7.548,-2.868,2.78\H,0,3.944,1.529,-0.561\H,0,2.422,1.15
 1,-1.402\H,0,3.965,0.467,-1.986\H,0,3.086,0.662,1.566\H,0,2.55,-1.028,
 1.658\H,0,1.52,0.191,0.854\H,0,2.579,-3.676,0.2\H,0,5.877,-4.658,-1.46
 7\H,0,4.238,-4.218,-2.053\H,0,5.687,-4.959,1.498\H,0,3.966,-4.666,1.94
 2\H,0,5.501,-1.932,1.171\H,0,5.579,-1.766,-0.566\H,0,7.795,-1.992,0.05
 3\H,0,7.429,-3.576,-0.573\H,0,8.576,-5.238,0.582\H,0,9.464,-6.231,2.66
 9\H,0,9.127,-5.066,4.843\H,0,7.9,-2.906,4.9\H,0,7.014,-1.923,2.817\\Ve
 rsion=AM64L-G09RevD.01\State=1-A\HF=-1714.0674301\RMSD=4.686e-09\Dipol
 e=1.8377017,2.5349993,1.7136152\Quadrupole=-5.8665481,0.7524603,5.1140
 878,-7.7452564,-6.5549184,-1.2891855\PG=C01 [X(C13H20N2O4S2)]\\@


 ASKING FOR EFFICIENCY AND ADAPTABILITY IN THE SAME PROGRAM IS LIKE
 ASKING FOR A BEAUTIFUL AND MODEST WIFE ...
 WE'LL PROBABLY HAVE TO SETTLE FOR ONE OR THE OTHER.

             -- THE PSYCHOLOGY OF COMPUTER PROGRAMMING
                GERALD M. WEINBERG
 Job cpu time:       0 days  0 hours  4 minutes 55.8 seconds.
 File lengths (MBytes):  RWF=    227 Int=      0 D2E=      0 Chk=      7 Scr=      1
 Normal termination of Gaussian 09 at Fri Oct  2 06:24:10 2020.
