 Entering Gaussian System, Link 0=g09
 Initial command:
 /prod/apps/gaussian/g09d1/l1.exe "/tmp/ubafar01/1462857/Gau-185215.inp" -scrdir="/tmp/ubafar01/1462857/"
 Entering Link 1 = /prod/apps/gaussian/g09d1/l1.exe PID=    185216.
  
 Copyright (c) 1988,1990,1992,1993,1995,1998,2003,2009,2013,
            Gaussian, Inc.  All Rights Reserved.
  
 This is part of the Gaussian(R) 09 program.  It is based on
 the Gaussian(R) 03 system (copyright 2003, Gaussian, Inc.),
 the Gaussian(R) 98 system (copyright 1998, Gaussian, Inc.),
 the Gaussian(R) 94 system (copyright 1995, Gaussian, Inc.),
 the Gaussian 92(TM) system (copyright 1992, Gaussian, Inc.),
 the Gaussian 90(TM) system (copyright 1990, Gaussian, Inc.),
 the Gaussian 88(TM) system (copyright 1988, Gaussian, Inc.),
 the Gaussian 86(TM) system (copyright 1986, Carnegie Mellon
 University), and the Gaussian 82(TM) system (copyright 1983,
 Carnegie Mellon University). Gaussian is a federally registered
 trademark of Gaussian, Inc.
  
 This software contains proprietary and confidential information,
 including trade secrets, belonging to Gaussian, Inc.
  
 This software is provided under written license and may be
 used, copied, transmitted, or stored only in accord with that
 written license.
  
 The following legend is applicable only to US Government
 contracts under FAR:
  
                    RESTRICTED RIGHTS LEGEND
  
 Use, reproduction and disclosure by the US Government is
 subject to restrictions as set forth in subparagraphs (a)
 and (c) of the Commercial Computer Software - Restricted
 Rights clause in FAR 52.227-19.
  
 Gaussian, Inc.
 340 Quinnipiac St., Bldg. 40, Wallingford CT 06492
  
  
 ---------------------------------------------------------------
 Warning -- This program may not be used in any manner that
 competes with the business of Gaussian, Inc. or will provide
 assistance to any competitor of Gaussian, Inc.  The licensee
 of this program is prohibited from giving any competitor of
 Gaussian, Inc. access to this program.  By using this program,
 the user acknowledges that Gaussian, Inc. is engaged in the
 business of creating and licensing software in the field of
 computational chemistry and represents and warrants to the
 licensee that it is not a competitor of Gaussian, Inc. and that
 it will not use this program in any manner prohibited above.
 ---------------------------------------------------------------
  

 Cite this work as:
 Gaussian 09, Revision D.01,
 M. J. Frisch, G. W. Trucks, H. B. Schlegel, G. E. Scuseria, 
 M. A. Robb, J. R. Cheeseman, G. Scalmani, V. Barone, B. Mennucci, 
 G. A. Petersson, H. Nakatsuji, M. Caricato, X. Li, H. P. Hratchian, 
 A. F. Izmaylov, J. Bloino, G. Zheng, J. L. Sonnenberg, M. Hada, 
 M. Ehara, K. Toyota, R. Fukuda, J. Hasegawa, M. Ishida, T. Nakajima, 
 Y. Honda, O. Kitao, H. Nakai, T. Vreven, J. A. Montgomery, Jr., 
 J. E. Peralta, F. Ogliaro, M. Bearpark, J. J. Heyd, E. Brothers, 
 K. N. Kudin, V. N. Staroverov, T. Keith, R. Kobayashi, J. Normand, 
 K. Raghavachari, A. Rendell, J. C. Burant, S. S. Iyengar, J. Tomasi, 
 M. Cossi, N. Rega, J. M. Millam, M. Klene, J. E. Knox, J. B. Cross, 
 V. Bakken, C. Adamo, J. Jaramillo, R. Gomperts, R. E. Stratmann, 
 O. Yazyev, A. J. Austin, R. Cammi, C. Pomelli, J. W. Ochterski, 
 R. L. Martin, K. Morokuma, V. G. Zakrzewski, G. A. Voth, 
 P. Salvador, J. J. Dannenberg, S. Dapprich, A. D. Daniels, 
 O. Farkas, J. B. Foresman, J. V. Ortiz, J. Cioslowski, 
 and D. J. Fox, Gaussian, Inc., Wallingford CT, 2013.
 
 ******************************************
 Gaussian 09:  AM64L-G09RevD.01 24-Apr-2013
                 1-Oct-2020 
 ******************************************
 %nproc=1
 Will use up to    1 processors via shared memory.
 %Chk=SM40.n.14.pdb.xyz.mst.n.w.chk
 %mem=16GB
 -----------------
 #p b3lyp/6-31G(d)
 -----------------
 1/38=1/1;
 2/12=2,17=6,18=5,40=1/2;
 3/5=1,6=6,7=1,11=2,16=1,25=1,30=1,74=-5/1,2,3;
 4//1;
 5/5=2,38=5/2;
 6/7=2,8=2,9=2,10=2,28=1/1;
 99/5=1,9=1/99;
 Leave Link    1 at Thu Oct  1 21:38:59 2020, MaxMem=  2147483648 cpu:         0.0
 (Enter /prod/apps/gaussian/g09d1/l101.exe)
 -----------------
 SM40.n.14.pdb.xyz
 -----------------
 Symbolic Z-matrix:
 Charge =  0 Multiplicity = 1
 C                     2.614     0.897     1.091 
 N                     2.214    -0.308     0.35 
 C                     2.089    -0.137    -1.104 
 S                     2.769    -1.772     0.88 
 O                     2.756    -1.736     2.35 
 O                     2.007    -2.828     0.205 
 N                     4.348    -1.852     0.266 
 C                     5.197    -3.053     0.403 
 C                     4.61     -4.309    -0.328 
 S                     4.971    -5.336     1.133 
 O                     3.797    -6.033     1.694 
 O                     6.225    -6.104     0.968 
 C                     5.278    -3.687     1.845 
 C                     6.613    -2.671    -0.077 
 C                     6.73     -1.979    -1.448 
 C                     6.386    -2.822    -2.658 
 C                     5.236    -2.558    -3.414 
 C                     4.916    -3.332    -4.531 
 C                     5.745    -4.388    -4.913 
 C                     6.899    -4.659    -4.172 
 C                     7.217    -3.881    -3.058 
 H                     1.847     1.655     0.922 
 H                     3.58      1.289     0.752 
 H                     2.659     0.669     2.154 
 H                     1.341     0.639    -1.282 
 H                     1.741    -1.067    -1.549 
 H                     3.037     0.164    -1.563 
 H                     4.848    -1.025     0.604 
 H                     5.129    -4.639    -1.224 
 H                     3.534    -4.248    -0.484 
 H                     6.237    -3.603     2.357 
 H                     4.458    -3.393     2.5 
 H                     7.222    -3.58     -0.061 
 H                     7.045    -2.002     0.675 
 H                     7.77     -1.64     -1.533 
 H                     6.111    -1.078    -1.45 
 H                     4.587    -1.737    -3.121 
 H                     4.02     -3.11     -5.102 
 H                     5.499    -4.992    -5.78 
 H                     7.556    -5.472    -4.465 
 H                     8.121    -4.095    -2.495 
 
 NAtoms=     41 NQM=       41 NQMF=       0 NMMI=      0 NMMIF=      0
                NMic=       0 NMicF=      0.
                    Isotopes and Nuclear Properties:
 (Nuclear quadrupole moments (NQMom) in fm**2, nuclear magnetic moments (NMagM)
  in nuclear magnetons)

  Atom         1           2           3           4           5           6           7           8           9          10
 IAtWgt=          12          14          12          32          16          16          14          12          12          32
 AtmWgt=  12.0000000  14.0030740  12.0000000  31.9720718  15.9949146  15.9949146  14.0030740  12.0000000  12.0000000  31.9720718
 NucSpn=           0           2           0           0           0           0           2           0           0           0
 AtZEff=   0.0000000   0.0000000   0.0000000   0.0000000   0.0000000   0.0000000   0.0000000   0.0000000   0.0000000   0.0000000
 NQMom=    0.0000000   2.0440000   0.0000000   0.0000000   0.0000000   0.0000000   2.0440000   0.0000000   0.0000000   0.0000000
 NMagM=    0.0000000   0.4037610   0.0000000   0.0000000   0.0000000   0.0000000   0.4037610   0.0000000   0.0000000   0.0000000
 AtZNuc=   6.0000000   7.0000000   6.0000000  16.0000000   8.0000000   8.0000000   7.0000000   6.0000000   6.0000000  16.0000000

  Atom        11          12          13          14          15          16          17          18          19          20
 IAtWgt=          16          16          12          12          12          12          12          12          12          12
 AtmWgt=  15.9949146  15.9949146  12.0000000  12.0000000  12.0000000  12.0000000  12.0000000  12.0000000  12.0000000  12.0000000
 NucSpn=           0           0           0           0           0           0           0           0           0           0
 AtZEff=   0.0000000   0.0000000   0.0000000   0.0000000   0.0000000   0.0000000   0.0000000   0.0000000   0.0000000   0.0000000
 NQMom=    0.0000000   0.0000000   0.0000000   0.0000000   0.0000000   0.0000000   0.0000000   0.0000000   0.0000000   0.0000000
 NMagM=    0.0000000   0.0000000   0.0000000   0.0000000   0.0000000   0.0000000   0.0000000   0.0000000   0.0000000   0.0000000
 AtZNuc=   8.0000000   8.0000000   6.0000000   6.0000000   6.0000000   6.0000000   6.0000000   6.0000000   6.0000000   6.0000000

  Atom        21          22          23          24          25          26          27          28          29          30
 IAtWgt=          12           1           1           1           1           1           1           1           1           1
 AtmWgt=  12.0000000   1.0078250   1.0078250   1.0078250   1.0078250   1.0078250   1.0078250   1.0078250   1.0078250   1.0078250
 NucSpn=           0           1           1           1           1           1           1           1           1           1
 AtZEff=   0.0000000   0.0000000   0.0000000   0.0000000   0.0000000   0.0000000   0.0000000   0.0000000   0.0000000   0.0000000
 NQMom=    0.0000000   0.0000000   0.0000000   0.0000000   0.0000000   0.0000000   0.0000000   0.0000000   0.0000000   0.0000000
 NMagM=    0.0000000   2.7928460   2.7928460   2.7928460   2.7928460   2.7928460   2.7928460   2.7928460   2.7928460   2.7928460
 AtZNuc=   6.0000000   1.0000000   1.0000000   1.0000000   1.0000000   1.0000000   1.0000000   1.0000000   1.0000000   1.0000000

  Atom        31          32          33          34          35          36          37          38          39          40
 IAtWgt=           1           1           1           1           1           1           1           1           1           1
 AtmWgt=   1.0078250   1.0078250   1.0078250   1.0078250   1.0078250   1.0078250   1.0078250   1.0078250   1.0078250   1.0078250
 NucSpn=           1           1           1           1           1           1           1           1           1           1
 AtZEff=   0.0000000   0.0000000   0.0000000   0.0000000   0.0000000   0.0000000   0.0000000   0.0000000   0.0000000   0.0000000
 NQMom=    0.0000000   0.0000000   0.0000000   0.0000000   0.0000000   0.0000000   0.0000000   0.0000000   0.0000000   0.0000000
 NMagM=    2.7928460   2.7928460   2.7928460   2.7928460   2.7928460   2.7928460   2.7928460   2.7928460   2.7928460   2.7928460
 AtZNuc=   1.0000000   1.0000000   1.0000000   1.0000000   1.0000000   1.0000000   1.0000000   1.0000000   1.0000000   1.0000000

  Atom        41
 IAtWgt=           1
 AtmWgt=   1.0078250
 NucSpn=           1
 AtZEff=   0.0000000
 NQMom=    0.0000000
 NMagM=    2.7928460
 AtZNuc=   1.0000000
 Leave Link  101 at Thu Oct  1 21:38:59 2020, MaxMem=  2147483648 cpu:         0.2
 (Enter /prod/apps/gaussian/g09d1/l202.exe)
                          Input orientation:                          
 ---------------------------------------------------------------------
 Center     Atomic      Atomic             Coordinates (Angstroms)
 Number     Number       Type             X           Y           Z
 ---------------------------------------------------------------------
      1          6           0        2.614000    0.897000    1.091000
      2          7           0        2.214000   -0.308000    0.350000
      3          6           0        2.089000   -0.137000   -1.104000
      4         16           0        2.769000   -1.772000    0.880000
      5          8           0        2.756000   -1.736000    2.350000
      6          8           0        2.007000   -2.828000    0.205000
      7          7           0        4.348000   -1.852000    0.266000
      8          6           0        5.197000   -3.053000    0.403000
      9          6           0        4.610000   -4.309000   -0.328000
     10         16           0        4.971000   -5.336000    1.133000
     11          8           0        3.797000   -6.033000    1.694000
     12          8           0        6.225000   -6.104000    0.968000
     13          6           0        5.278000   -3.687000    1.845000
     14          6           0        6.613000   -2.671000   -0.077000
     15          6           0        6.730000   -1.979000   -1.448000
     16          6           0        6.386000   -2.822000   -2.658000
     17          6           0        5.236000   -2.558000   -3.414000
     18          6           0        4.916000   -3.332000   -4.531000
     19          6           0        5.745000   -4.388000   -4.913000
     20          6           0        6.899000   -4.659000   -4.172000
     21          6           0        7.217000   -3.881000   -3.058000
     22          1           0        1.847000    1.655000    0.922000
     23          1           0        3.580000    1.289000    0.752000
     24          1           0        2.659000    0.669000    2.154000
     25          1           0        1.341000    0.639000   -1.282000
     26          1           0        1.741000   -1.067000   -1.549000
     27          1           0        3.037000    0.164000   -1.563000
     28          1           0        4.848000   -1.025000    0.604000
     29          1           0        5.129000   -4.639000   -1.224000
     30          1           0        3.534000   -4.248000   -0.484000
     31          1           0        6.237000   -3.603000    2.357000
     32          1           0        4.458000   -3.393000    2.500000
     33          1           0        7.222000   -3.580000   -0.061000
     34          1           0        7.045000   -2.002000    0.675000
     35          1           0        7.770000   -1.640000   -1.533000
     36          1           0        6.111000   -1.078000   -1.450000
     37          1           0        4.587000   -1.737000   -3.121000
     38          1           0        4.020000   -3.110000   -5.102000
     39          1           0        5.499000   -4.992000   -5.780000
     40          1           0        7.556000   -5.472000   -4.465000
     41          1           0        8.121000   -4.095000   -2.495000
 ---------------------------------------------------------------------
                    Distance matrix (angstroms):
                    1          2          3          4          5
     1  C    0.000000
     2  N    1.470070   0.000000
     3  C    2.482500   1.469347   0.000000
     4  S    2.681810   1.652943   2.659301   0.000000
     5  O    2.921974   2.516535   3.864170   1.470498   0.000000
     6  O    3.876734   2.532642   2.993608   1.466767   2.520811
     7  N    3.353264   2.635327   3.149795   1.696065   2.625067
     8  C    4.769458   4.054149   4.520373   2.786337   3.388772
     9  C    5.753261   4.712590   4.935909   3.359303   4.150823
    10  S    6.663895   5.787480   6.351354   4.197012   4.398558
    11  O    7.056061   6.089979   6.746027   4.458195   4.469701
    12  O    7.878353   7.075568   7.550150   5.542373   5.746591
    13  C    5.355228   4.800079   5.609708   3.300535   3.228298
    14  C    5.485148   5.011716   5.286063   4.062067   4.651989
    15  C    5.626664   5.139971   5.005016   4.599125   5.502411
    16  C    6.489526   5.724844   5.299844   5.167459   6.279838
    17  C    6.253554   5.325662   4.593577   5.014212   6.328490
    18  C    7.402062   6.345829   5.472137   6.026784   7.386540
    19  C    8.589668   7.537475   6.778334   7.018467   8.289656
    20  C    8.770948   7.831278   7.279918   7.135431   8.261045
    21  C    7.825030   7.029282   6.643195   6.304001   7.331303
    22  H    1.091519   2.077316   2.715604   3.549109   3.790032
    23  H    1.096239   2.139619   2.775120   3.169200   3.518978
    24  H    1.088108   2.099278   3.404277   2.755659   2.414922
    25  H    2.705221   2.079029   1.092412   3.539258   4.564458
    26  H    3.404266   2.099050   1.088131   2.730174   4.084114
    27  H    2.785666   2.135341   1.095439   3.128605   4.358960
    28  H    2.986973   2.741635   3.364207   2.226303   2.816115
    29  H    6.506285   5.452730   5.433600   4.268033   5.179963
    30  H    5.458759   4.238108   4.401448   2.928532   3.866133
    31  H    5.914295   5.574011   6.418534   4.190598   3.950076
    32  H    4.877470   4.378957   5.403935   2.846886   2.380116
    33  H    6.527197   5.996246   6.268157   4.897301   5.399853
    34  H    5.311405   5.129700   5.586144   4.287085   4.612147
    35  H    6.317126   6.015733   5.892097   5.554277   6.342484
    36  H    4.752506   4.361136   4.145079   4.132735   5.111652
    37  H    5.345244   4.440834   3.587240   4.394809   5.769264
    38  H    7.509070   6.390395   5.343360   6.256162   7.682309
    39  H    9.498115   8.384985   7.554078   7.885233   9.177281
    40  H    9.790642   8.853705   8.345456   8.073066   9.134655
    41  H    8.252667   7.571528   7.347494   6.740242   7.604086
                    6          7          8          9         10
     6  O    0.000000
     7  N    2.537041   0.000000
     8  C    3.204049   1.477150   0.000000
     9  C    3.041884   2.541324   1.567312   0.000000
    10  S    3.992060   3.643909   2.407502   1.821969   0.000000
    11  O    3.961470   4.452364   3.536535   2.778782   1.476078
    12  O    5.394986   4.700578   3.268732   2.740413   1.479718
    13  C    3.758580   2.593331   1.577302   2.356913   1.822195
    14  C    4.617295   2.432824   1.543172   2.599626   3.355963
    15  C    5.075425   2.937320   2.632445   3.343307   4.585313
    16  C    5.231868   3.693795   3.291930   3.285460   4.763833
    17  C    4.857623   3.850893   3.849160   3.602953   5.335046
    18  C    5.580860   5.052151   4.949864   4.325896   6.008322
    19  C    6.526880   5.933376   5.508392   4.724055   6.168622
    20  C    6.814863   5.838039   5.138742   4.487578   5.684940
    21  C    6.236993   4.837042   4.092005   3.799017   4.972527
    22  H    4.542794   4.357108   5.801476   6.690737   7.660155
    23  H    4.441084   3.269847   4.646445   5.793523   6.780167
    24  H    4.056195   3.573892   4.833294   5.894676   6.515198
    25  H    3.830772   4.200409   5.598109   6.006595   7.396604
    26  H    2.499679   3.272140   4.438292   4.498062   5.987519
    27  H    3.624747   3.021294   4.345094   4.899723   6.423299
    28  H    3.388405   1.023803   2.067604   3.421977   4.345077
    29  H    3.881835   3.255369   2.273136   1.086774   2.462970
    30  H    2.196099   2.639301   2.231673   1.088960   2.421446
    31  H    4.808807   3.317620   2.280837   3.217886   2.470672
    32  H    3.404945   2.716162   2.249251   2.976532   2.430454
    33  H    5.275650   3.369390   2.143280   2.724936   3.094539
    34  H    5.126853   2.731957   2.143289   3.501069   3.953074
    35  H    6.135483   3.871877   3.516389   4.308269   5.348119
    36  H    4.758607   2.579128   2.858256   3.735137   5.109017
    37  H    4.348443   3.397369   3.810844   3.796915   5.585407
    38  H    5.682952   5.523185   5.629707   4.957497   6.688401
    39  H    7.259283   6.909307   6.486942   5.566068   6.941663
    40  H    7.719523   6.765946   5.925695   5.210207   6.167522
    41  H    6.802667   5.185528   4.246639   4.131441   4.962355
                   11         12         13         14         15
    11  O    0.000000
    12  O    2.535212   0.000000
    13  C    2.778467   2.740041   0.000000
    14  C    4.729624   3.609440   2.551189   0.000000
    15  C    5.908432   4.807048   3.983644   1.540193   0.000000
    16  C    5.996111   4.893396   4.717298   2.595360   1.514294
    17  C    6.343344   5.723125   5.378986   3.611712   2.536224
    18  C    6.877368   6.295750   6.396127   4.811948   3.824408
    19  C    7.081891   6.145016   6.810290   5.204653   4.333559
    20  C    6.776447   5.381626   6.306878   4.561027   3.825067
    21  C    6.237709   4.704728   5.276056   3.273420   2.539069
    22  H    7.968929   8.909045   6.415657   6.513604   6.531963
    23  H    7.385536   7.854879   5.370142   5.056474   5.044038
    24  H    6.813475   7.745740   5.092090   5.636229   6.046433
    25  H    7.707405   8.624616   6.632675   6.340513   5.993563
    26  H    6.277367   7.198119   5.558238   5.336289   5.072678
    27  H    7.041907   7.473763   5.609523   4.799291   4.271291
    28  H    5.231899   5.274928   2.968371   2.507649   2.943254
    29  H    3.497454   2.855224   3.216717   2.718619   3.112712
    30  H    2.828264   3.576943   2.963191   3.483220   4.036344
    31  H    3.506860   2.860851   1.090358   2.633317   4.166347
    32  H    2.838337   3.580340   1.089890   3.436021   4.769495
    33  H    4.563755   2.902314   2.724596   1.094266   2.174634
    34  H    5.276062   4.193406   2.707474   1.095303   2.146365
    35  H    6.745125   5.345028   4.670242   2.126393   1.097154
    36  H    6.308039   5.578566   4.284600   2.162124   1.093145
    37  H    6.501072   6.202713   5.379697   3.773986   2.729458
    38  H    7.401302   7.118354   7.083523   5.671595   4.687748
    39  H    7.735707   6.877436   7.739024   6.257176   5.418464
    40  H    7.237270   5.629252   6.942018   5.290500   4.688882
    41  H    6.324598   4.429816   5.204298   3.185681   2.740173
                   16         17         18         19         20
    16  C    0.000000
    17  C    1.401332   0.000000
    18  C    2.434980   1.396125   0.000000
    19  C    2.819266   2.419707   1.395816   0.000000
    20  C    2.435146   2.784660   2.412903   1.397941   0.000000
    21  C    1.404294   2.408615   2.786706   2.421747   1.395494
    22  H    7.311802   6.930771   8.001509   9.260641   9.557099
    23  H    6.033412   5.907394   7.144832   8.307092   8.404775
    24  H    7.016620   6.932322   8.111182   9.221667   9.294270
    25  H    6.270879   5.471495   6.253436   7.605926   8.204405
    26  H    5.087822   4.232769   4.909498   6.194962   6.810841
    27  H    4.618552   3.958672   4.955974   6.267094   6.706956
    28  H    4.029305   4.317981   5.629840   6.523164   6.342139
    29  H    2.633988   3.022931   3.562284   3.748490   3.438605
    30  H    3.859230   3.786529   4.373464   4.952188   5.009340
    31  H    5.077636   5.949661   7.018762   7.328792   6.646896
    32  H    5.536081   6.023114   7.046165   7.589398   7.216427
    33  H    2.831584   4.028807   5.035875   5.135786   4.262498
    34  H    3.495078   4.505723   5.779617   6.213593   5.529410
    35  H    2.139674   3.286646   4.471709   4.803804   4.103331
    36  H    2.139258   2.610234   4.000138   4.804417   4.566595
    37  H    2.151278   1.086780   2.154151   3.402944   3.871438
    38  H    3.413801   2.152372   1.085422   2.155140   3.398962
    39  H    3.904171   3.404626   2.157658   1.084906   2.157905
    40  H    3.414184   3.870193   3.399052   2.157656   1.085572
    41  H    2.158083   3.395608   3.872918   3.402639   2.150281
                   21         22         23         24         25
    21  C    0.000000
    22  H    8.678974   0.000000
    23  H    7.380567   1.779366   0.000000
    24  H    8.285096   1.774645   1.788364   0.000000
    25  H    7.623120   2.479094   3.093990   3.680234   0.000000
    26  H    6.338947   3.677820   3.771904   4.191495   1.772491
    27  H    6.005785   3.132795   2.630532   3.770146   1.783536
    28  H    5.213362   4.036028   2.642787   3.172358   4.315662
    29  H    2.880601   7.415610   6.437792   6.759190   6.496891
    30  H    4.508287   6.298271   5.673463   5.648146   5.415609
    31  H    5.509983   6.998420   5.793733   5.576135   7.430188
    32  H    6.224274   5.898280   5.074201   4.456003   6.346356
    33  H    3.012082   7.567175   6.134517   6.616736   7.340093
    34  H    4.182764   6.360335   4.779418   5.344032   6.583339
    35  H    2.766499   7.208743   5.599676   6.711764   6.825605
    36  H    3.415510   5.592617   4.105783   5.287450   5.072397
    37  H    3.393760   5.946353   5.017056   6.109963   4.423100
    38  H    3.872104   7.982213   7.335811   8.293534   5.985352
    39  H    3.405162  10.121093   9.262858  10.151890   8.320404
    40  H    2.150779  10.602197   9.420020  10.271497   9.279118
    41  H    1.086269   9.170685   7.755717   8.610595   8.357663
                   26         27         28         29         30
    26  H    0.000000
    27  H    1.787505   0.000000
    28  H    3.780294   3.064202   0.000000
    29  H    4.933898   5.249780   4.059746   0.000000
    30  H    3.803661   4.569135   3.646652   1.801251   0.000000
    31  H    6.473187   6.308462   3.412977   3.889026   3.974106
    32  H    5.402478   5.583857   3.058487   3.983834   3.238681
    33  H    6.210529   5.812724   3.550511   2.618148   3.771803
    34  H    5.826905   5.075851   2.405489   3.772403   4.326074
    35  H    6.056189   5.065235   3.671931   4.008037   5.083873
    36  H    4.371135   3.317350   2.411824   3.700827   4.197974
    37  H    3.319608   2.905799   3.801406   3.509128   3.790475
    38  H    4.689509   4.920354   6.131170   4.313538   4.780917
    39  H    6.886911   7.101329   7.544292   4.584610   5.697576
    40  H    7.856291   7.785079   7.266625   4.133800   5.789907
    41  H    7.125174   6.697370   5.453552   3.295973   5.010798
                   31         32         33         34         35
    31  H    0.000000
    32  H    1.797050   0.000000
    33  H    2.611030   3.772716   0.000000
    34  H    2.458697   3.458045   1.750174   0.000000
    35  H    4.619043   5.505220   2.496135   2.352006   0.000000
    36  H    4.569984   4.867662   3.069796   2.498351   1.753572
    37  H    6.017719   5.861281   4.438860   4.530078   3.558461
    38  H    7.797103   7.619865   5.990441   6.614531   5.381557
    39  H    8.287625   8.496993   6.137543   7.279920   5.867738
    40  H    7.195318   7.901333   4.804835   6.222670   4.829766
    41  H    5.228138   6.233811   2.645332   3.948079   2.660013
                   36         37         38         39         40
    36  H    0.000000
    37  H    2.355652   0.000000
    38  H    4.673158   2.476081   0.000000
    39  H    5.868802   4.300820   2.487780   0.000000
    40  H    5.521366   4.956967   4.299780   2.488147   0.000000
    41  H    3.772852   4.294321   4.958314   4.297757   2.469059
                   41
    41  H    0.000000
 Stoichiometry    C13H20N2O4S2
 Framework group  C1[X(C13H20N2O4S2)]
 Deg. of freedom   117
 Full point group                 C1      NOp   1
 Largest Abelian subgroup         C1      NOp   1
 Largest concise Abelian subgroup C1      NOp   1
                         Standard orientation:                         
 ---------------------------------------------------------------------
 Center     Atomic      Atomic             Coordinates (Angstroms)
 Number     Number       Type             X           Y           Z
 ---------------------------------------------------------------------
      1          6           0        3.994154   -2.057261    0.935096
      2          7           0        3.160222   -1.773291   -0.241775
      3          6           0        2.363892   -2.905930   -0.733680
      4         16           0        2.477395   -0.273685   -0.372729
      5          8           0        3.464429    0.698393    0.120419
      6          8           0        1.969235   -0.114062   -1.739367
      7          7           0        1.118111   -0.358868    0.638076
      8          6           0        0.133960    0.737472    0.745101
      9          6           0       -0.609234    1.031919   -0.603020
     10         16           0       -0.358886    2.819888   -0.357945
     11          8           0        0.354943    3.492839   -1.460846
     12          8           0       -1.567326    3.473213    0.191968
     13          6           0        0.724525    2.183879    0.961944
     14          6           0       -0.819743    0.386101    1.906294
     15          6           0       -1.451055   -1.018747    1.899740
     16          6           0       -2.449768   -1.301752    0.797214
     17          6           0       -2.147932   -2.204646   -0.231091
     18          6           0       -3.066434   -2.469321   -1.248669
     19          6           0       -4.308625   -1.832748   -1.254848
     20          6           0       -4.625986   -0.934377   -0.231887
     21          6           0       -3.706352   -0.674940    0.785153
     22          1           0        4.695787   -2.845689    0.656694
     23          1           0        3.399414   -2.398362    1.790476
     24          1           0        4.553616   -1.163984    1.205349
     25          1           0        3.057268   -3.709978   -0.990779
     26          1           0        1.826186   -2.607303   -1.631301
     27          1           0        1.657157   -3.267019    0.021387
     28          1           0        1.447616   -0.630432    1.568588
     29          1           0       -1.656962    0.747905   -0.654770
     30          1           0       -0.055766    0.694607   -1.478079
     31          1           0        0.542134    2.639719    1.935507
     32          1           0        1.772294    2.277054    0.676709
     33          1           0       -1.602468    1.150375    1.931684
     34          1           0       -0.255988    0.496777    2.838828
     35          1           0       -1.948203   -1.136419    2.870689
     36          1           0       -0.657210   -1.769547    1.866946
     37          1           0       -1.182178   -2.703054   -0.231165
     38          1           0       -2.811595   -3.172143   -2.035586
     39          1           0       -5.024498   -2.035469   -2.044437
     40          1           0       -5.592533   -0.440268   -0.221377
     41          1           0       -3.967220    0.018142    1.579865
 ---------------------------------------------------------------------
 Rotational constants (GHZ):      0.3224882      0.2160290      0.1557266
 Leave Link  202 at Thu Oct  1 21:38:59 2020, MaxMem=  2147483648 cpu:         0.0
 (Enter /prod/apps/gaussian/g09d1/l301.exe)
 Standard basis: 6-31G(d) (6D, 7F)
 Ernie: Thresh=  0.10000D-02 Tol=  0.10000D-05 Strict=F.
 There are   363 symmetry adapted cartesian basis functions of A   symmetry.
 There are   363 symmetry adapted basis functions of A   symmetry.
   363 basis functions,   716 primitive gaussians,   363 cartesian basis functions
    88 alpha electrons       88 beta electrons
       nuclear repulsion energy      2216.9831750315 Hartrees.
 IExCor=  402 DFT=T Ex+Corr=B3LYP ExCW=0 ScaHFX=  0.200000
 ScaDFX=  0.800000  0.720000  1.000000  0.810000 ScalE2=  1.000000  1.000000
 IRadAn=      0 IRanWt=     -1 IRanGd=            0 ICorTp=0 IEmpDi=  4
 NAtoms=   41 NActive=   41 NUniq=   41 SFac= 1.00D+00 NAtFMM=   60 NAOKFM=F Big=F
 Integral buffers will be    131072 words long.
 Raffenetti 2 integral format.
 Two-electron integral symmetry is turned on.
 Leave Link  301 at Thu Oct  1 21:38:59 2020, MaxMem=  2147483648 cpu:         0.0
 (Enter /prod/apps/gaussian/g09d1/l302.exe)
 NPDir=0 NMtPBC=     1 NCelOv=     1 NCel=       1 NClECP=     1 NCelD=      1
         NCelK=      1 NCelE2=     1 NClLst=     1 CellRange=     0.0.
 One-electron integrals computed using PRISM.
 NBasis=   363 RedAO= T EigKep=  4.64D-04  NBF=   363
 NBsUse=   363 1.00D-06 EigRej= -1.00D+00 NBFU=   363
 Precomputing XC quadrature grid using
 IXCGrd= 4 IRadAn=           0 IRanWt=          -1 IRanGd=           0 AccXCQ= 0.00D+00.
 Generated NRdTot=       0 NPtTot=           0 NUsed=           0 NTot=          32
 NSgBfM=   360   360   360   360   360 MxSgAt=    41 MxSgA2=    41.
 Leave Link  302 at Thu Oct  1 21:39:01 2020, MaxMem=  2147483648 cpu:         1.3
 (Enter /prod/apps/gaussian/g09d1/l303.exe)
 DipDrv:  MaxL=1.
 Leave Link  303 at Thu Oct  1 21:39:01 2020, MaxMem=  2147483648 cpu:         0.0
 (Enter /prod/apps/gaussian/g09d1/l401.exe)
 ExpMin= 1.17D-01 ExpMax= 2.19D+04 ExpMxC= 3.30D+03 IAcc=1 IRadAn=         1 AccDes= 0.00D+00
 Harris functional with IExCor=  402 and IRadAn=       1 diagonalized for initial guess.
 HarFok:  IExCor=  402 AccDes= 0.00D+00 IRadAn=         1 IDoV= 1 UseB2=F ITyADJ=14
 ICtDFT=  3500011 ScaDFX=  1.000000  1.000000  1.000000  1.000000
 FoFCou: FMM=F IPFlag=           0 FMFlag=      100000 FMFlg1=           0
         NFxFlg=           0 DoJE=T BraDBF=F KetDBF=T FulRan=T
         wScrn=  0.000000 ICntrl=     500 IOpCl=  0 I1Cent=   200000004 NGrid=           0
         NMat0=    1 NMatS0=      1 NMatT0=    0 NMatD0=    1 NMtDS0=    0 NMtDT0=    0
 Petite list used in FoFCou.
 Harris En= -1714.14752181279    
 JPrj=0 DoOrth=F DoCkMO=F.
 Leave Link  401 at Thu Oct  1 21:39:06 2020, MaxMem=  2147483648 cpu:         5.0
 (Enter /prod/apps/gaussian/g09d1/l502.exe)
 Closed shell SCF:
 Using DIIS extrapolation, IDIIS=  1040.
 Integral symmetry usage will be decided dynamically.
 IVT=      418784 IEndB=      418784 NGot=  2147483648 MDV=  2147213637
 LenX=  2147213637 LenY=  2147081427
 Requested convergence on RMS density matrix=1.00D-08 within 128 cycles.
 Requested convergence on MAX density matrix=1.00D-06.
 Requested convergence on             energy=1.00D-06.
 No special actions if energy rises.
 Fock matrices will be formed incrementally for  20 cycles.
 Integral accuracy reduced to 1.0D-05 until final iterations.

 Cycle   1  Pass 0  IDiag  1:
 FoFJK:  IHMeth= 1 ICntrl=       0 DoSepK=F KAlg= 0 I1Cent=   0 FoldK=F
 IRaf= 780000000 NMat=   1 IRICut=       1 DoRegI=T DoRafI=F ISym2E= 0.
 FoFCou: FMM=F IPFlag=           0 FMFlag=      100000 FMFlg1=           0
         NFxFlg=           0 DoJE=F BraDBF=F KetDBF=F FulRan=T
         wScrn=  0.000000 ICntrl=       0 IOpCl=  0 I1Cent=           0 NGrid=           0
         NMat0=    1 NMatS0=      1 NMatT0=    0 NMatD0=    1 NMtDS0=    0 NMtDT0=    0
 Symmetry not used in FoFCou.
 E= -1713.18581953960    
 DIIS: error= 3.87D-02 at cycle   1 NSaved=   1.
 NSaved= 1 IEnMin= 1 EnMin= -1713.18581953960     IErMin= 1 ErrMin= 3.87D-02
 ErrMax= 3.87D-02  0.00D+00 EMaxC= 1.00D-01 BMatC= 9.98D-01 BMatP= 9.98D-01
 IDIUse=3 WtCom= 6.13D-01 WtEn= 3.87D-01
 Coeff-Com:  0.100D+01
 Coeff-En:   0.100D+01
 Coeff:      0.100D+01
 Gap=     0.383 Goal=   None    Shift=    0.000
 GapD=    0.383 DampG=1.000 DampE=0.500 DampFc=0.5000 IDamp=-1.
 Damping current iteration by 5.00D-01
 RMSDP=7.11D-03 MaxDP=6.11D-01              OVMax= 2.58D-01

 Cycle   2  Pass 0  IDiag  1:
 RMSU=  3.56D-03    CP:  9.99D-01
 E= -1713.35540519270     Delta-E=       -0.169585653102 Rises=F Damp=T
 DIIS: error= 1.70D-02 at cycle   2 NSaved=   2.
 NSaved= 2 IEnMin= 2 EnMin= -1713.35540519270     IErMin= 2 ErrMin= 1.70D-02
 ErrMax= 1.70D-02  0.00D+00 EMaxC= 1.00D-01 BMatC= 1.77D-01 BMatP= 9.98D-01
 IDIUse=3 WtCom= 8.30D-01 WtEn= 1.70D-01
 Coeff-Com:  0.254D+00 0.746D+00
 Coeff-En:   0.402D+00 0.598D+00
 Coeff:      0.279D+00 0.721D+00
 Gap=     0.290 Goal=   None    Shift=    0.000
 RMSDP=2.07D-03 MaxDP=1.38D-01 DE=-1.70D-01 OVMax= 1.99D-01

 Cycle   3  Pass 0  IDiag  1:
 RMSU=  1.61D-03    CP:  9.90D-01  6.42D-01
 E= -1713.94548490908     Delta-E=       -0.590079716374 Rises=F Damp=F
 DIIS: error= 9.30D-03 at cycle   3 NSaved=   3.
 NSaved= 3 IEnMin= 3 EnMin= -1713.94548490908     IErMin= 3 ErrMin= 9.30D-03
 ErrMax= 9.30D-03  0.00D+00 EMaxC= 1.00D-01 BMatC= 9.54D-02 BMatP= 1.77D-01
 IDIUse=3 WtCom= 9.07D-01 WtEn= 9.30D-02
 Coeff-Com:  0.105D+00 0.432D+00 0.463D+00
 Coeff-En:   0.000D+00 0.000D+00 0.100D+01
 Coeff:      0.955D-01 0.391D+00 0.513D+00
 Gap=     0.239 Goal=   None    Shift=    0.000
 RMSDP=1.23D-03 MaxDP=3.73D-02 DE=-5.90D-01 OVMax= 7.45D-02

 Cycle   4  Pass 0  IDiag  1:
 RMSU=  7.51D-04    CP:  9.95D-01  7.12D-01  4.19D-01
 E= -1714.02354930758     Delta-E=       -0.078064398500 Rises=F Damp=F
 DIIS: error= 3.26D-03 at cycle   4 NSaved=   4.
 NSaved= 4 IEnMin= 4 EnMin= -1714.02354930758     IErMin= 4 ErrMin= 3.26D-03
 ErrMax= 3.26D-03  0.00D+00 EMaxC= 1.00D-01 BMatC= 1.24D-02 BMatP= 9.54D-02
 IDIUse=3 WtCom= 9.67D-01 WtEn= 3.26D-02
 Coeff-Com:  0.112D-01 0.805D-01 0.278D+00 0.630D+00
 Coeff-En:   0.000D+00 0.000D+00 0.108D+00 0.892D+00
 Coeff:      0.109D-01 0.778D-01 0.272D+00 0.639D+00
 Gap=     0.237 Goal=   None    Shift=    0.000
 RMSDP=4.03D-04 MaxDP=1.52D-02 DE=-7.81D-02 OVMax= 2.50D-02

 Cycle   5  Pass 0  IDiag  1:
 RMSU=  1.89D-04    CP:  9.95D-01  7.02D-01  5.58D-01  6.33D-01
 E= -1714.03371164351     Delta-E=       -0.010162335931 Rises=F Damp=F
 DIIS: error= 1.02D-03 at cycle   5 NSaved=   5.
 NSaved= 5 IEnMin= 5 EnMin= -1714.03371164351     IErMin= 5 ErrMin= 1.02D-03
 ErrMax= 1.02D-03  0.00D+00 EMaxC= 1.00D-01 BMatC= 1.19D-03 BMatP= 1.24D-02
 IDIUse=3 WtCom= 9.90D-01 WtEn= 1.02D-02
 Coeff-Com: -0.797D-03 0.185D-01 0.120D+00 0.359D+00 0.503D+00
 Coeff-En:   0.000D+00 0.000D+00 0.000D+00 0.922D-02 0.991D+00
 Coeff:     -0.788D-03 0.183D-01 0.119D+00 0.356D+00 0.508D+00
 Gap=     0.237 Goal=   None    Shift=    0.000
 RMSDP=1.28D-04 MaxDP=6.02D-03 DE=-1.02D-02 OVMax= 9.30D-03

 Cycle   6  Pass 0  IDiag  1:
 RMSU=  6.21D-05    CP:  9.95D-01  7.04D-01  5.51D-01  7.07D-01  4.93D-01
 E= -1714.03468494367     Delta-E=       -0.000973300166 Rises=F Damp=F
 DIIS: error= 5.48D-04 at cycle   6 NSaved=   6.
 NSaved= 6 IEnMin= 6 EnMin= -1714.03468494367     IErMin= 6 ErrMin= 5.48D-04
 ErrMax= 5.48D-04  0.00D+00 EMaxC= 1.00D-01 BMatC= 1.57D-04 BMatP= 1.19D-03
 IDIUse=3 WtCom= 9.95D-01 WtEn= 5.48D-03
 Coeff-Com: -0.147D-02 0.413D-02 0.461D-01 0.154D+00 0.316D+00 0.481D+00
 Coeff-En:   0.000D+00 0.000D+00 0.000D+00 0.000D+00 0.767D-01 0.923D+00
 Coeff:     -0.146D-02 0.410D-02 0.458D-01 0.154D+00 0.315D+00 0.483D+00
 Gap=     0.237 Goal=   None    Shift=    0.000
 RMSDP=4.09D-05 MaxDP=1.90D-03 DE=-9.73D-04 OVMax= 3.28D-03

 Cycle   7  Pass 0  IDiag  1:
 RMSU=  2.46D-05    CP:  9.95D-01  7.04D-01  5.52D-01  7.04D-01  5.69D-01
                    CP:  5.28D-01
 E= -1714.03480878792     Delta-E=       -0.000123844246 Rises=F Damp=F
 DIIS: error= 2.01D-04 at cycle   7 NSaved=   7.
 NSaved= 7 IEnMin= 7 EnMin= -1714.03480878792     IErMin= 7 ErrMin= 2.01D-04
 ErrMax= 2.01D-04  0.00D+00 EMaxC= 1.00D-01 BMatC= 1.79D-05 BMatP= 1.57D-04
 IDIUse=3 WtCom= 9.98D-01 WtEn= 2.01D-03
 Coeff-Com: -0.844D-03 0.184D-03 0.133D-01 0.500D-01 0.135D+00 0.306D+00
 Coeff-Com:  0.496D+00
 Coeff-En:   0.000D+00 0.000D+00 0.000D+00 0.000D+00 0.000D+00 0.616D-01
 Coeff-En:   0.938D+00
 Coeff:     -0.843D-03 0.183D-03 0.133D-01 0.499D-01 0.135D+00 0.305D+00
 Coeff:      0.497D+00
 Gap=     0.237 Goal=   None    Shift=    0.000
 RMSDP=1.27D-05 MaxDP=6.42D-04 DE=-1.24D-04 OVMax= 9.65D-04

 Cycle   8  Pass 0  IDiag  1:
 RMSU=  6.48D-06    CP:  9.95D-01  7.04D-01  5.53D-01  7.03D-01  5.71D-01
                    CP:  5.87D-01  5.87D-01
 E= -1714.03482319391     Delta-E=       -0.000014405993 Rises=F Damp=F
 DIIS: error= 4.42D-05 at cycle   8 NSaved=   8.
 NSaved= 8 IEnMin= 8 EnMin= -1714.03482319391     IErMin= 8 ErrMin= 4.42D-05
 ErrMax= 4.42D-05  0.00D+00 EMaxC= 1.00D-01 BMatC= 1.06D-06 BMatP= 1.79D-05
 IDIUse=1 WtCom= 1.00D+00 WtEn= 0.00D+00
 Coeff-Com: -0.341D-03-0.259D-03 0.302D-02 0.131D-01 0.463D-01 0.125D+00
 Coeff-Com:  0.270D+00 0.544D+00
 Coeff:     -0.341D-03-0.259D-03 0.302D-02 0.131D-01 0.463D-01 0.125D+00
 Coeff:      0.270D+00 0.544D+00
 Gap=     0.237 Goal=   None    Shift=    0.000
 RMSDP=4.02D-06 MaxDP=1.49D-04 DE=-1.44D-05 OVMax= 3.22D-04

 Initial convergence to 1.0D-05 achieved.  Increase integral accuracy.
 Cycle   9  Pass 1  IDiag  1:
 E= -1714.03471943299     Delta-E=        0.000103760925 Rises=F Damp=F
 DIIS: error= 6.50D-05 at cycle   1 NSaved=   1.
 NSaved= 1 IEnMin= 1 EnMin= -1714.03471943299     IErMin= 1 ErrMin= 6.50D-05
 ErrMax= 6.50D-05  0.00D+00 EMaxC= 1.00D-01 BMatC= 1.13D-06 BMatP= 1.13D-06
 IDIUse=1 WtCom= 1.00D+00 WtEn= 0.00D+00
 Coeff-Com:  0.100D+01
 Coeff:      0.100D+01
 Gap=     0.237 Goal=   None    Shift=    0.000
 RMSDP=4.02D-06 MaxDP=1.49D-04 DE= 1.04D-04 OVMax= 3.93D-04

 Cycle  10  Pass 1  IDiag  1:
 RMSU=  3.27D-05    CP:  1.00D+00
 E= -1714.03471984554     Delta-E=       -0.000000412556 Rises=F Damp=F
 DIIS: error= 4.19D-05 at cycle   2 NSaved=   2.
 NSaved= 2 IEnMin= 2 EnMin= -1714.03471984554     IErMin= 2 ErrMin= 4.19D-05
 ErrMax= 4.19D-05  0.00D+00 EMaxC= 1.00D-01 BMatC= 9.12D-07 BMatP= 1.13D-06
 IDIUse=1 WtCom= 1.00D+00 WtEn= 0.00D+00
 Coeff-Com:  0.462D+00 0.538D+00
 Coeff:      0.462D+00 0.538D+00
 Gap=     0.237 Goal=   None    Shift=    0.000
 RMSDP=4.44D-06 MaxDP=1.75D-04 DE=-4.13D-07 OVMax= 4.38D-04

 Cycle  11  Pass 1  IDiag  1:
 RMSU=  4.43D-06    CP:  1.00D+00  9.92D-01
 E= -1714.03472028942     Delta-E=       -0.000000443882 Rises=F Damp=F
 DIIS: error= 3.10D-05 at cycle   3 NSaved=   3.
 NSaved= 3 IEnMin= 3 EnMin= -1714.03472028942     IErMin= 3 ErrMin= 3.10D-05
 ErrMax= 3.10D-05  0.00D+00 EMaxC= 1.00D-01 BMatC= 4.51D-07 BMatP= 9.12D-07
 IDIUse=1 WtCom= 1.00D+00 WtEn= 0.00D+00
 Coeff-Com:  0.424D-02 0.411D+00 0.585D+00
 Coeff:      0.424D-02 0.411D+00 0.585D+00
 Gap=     0.237 Goal=   None    Shift=    0.000
 RMSDP=1.93D-06 MaxDP=8.91D-05 DE=-4.44D-07 OVMax= 1.53D-04

 Cycle  12  Pass 1  IDiag  1:
 RMSU=  6.62D-07    CP:  1.00D+00  1.01D+00  6.01D-01
 E= -1714.03472068051     Delta-E=       -0.000000391080 Rises=F Damp=F
 DIIS: error= 6.20D-06 at cycle   4 NSaved=   4.
 NSaved= 4 IEnMin= 4 EnMin= -1714.03472068051     IErMin= 4 ErrMin= 6.20D-06
 ErrMax= 6.20D-06  0.00D+00 EMaxC= 1.00D-01 BMatC= 1.97D-08 BMatP= 4.51D-07
 IDIUse=1 WtCom= 1.00D+00 WtEn= 0.00D+00
 Coeff-Com: -0.881D-02 0.249D+00 0.374D+00 0.385D+00
 Coeff:     -0.881D-02 0.249D+00 0.374D+00 0.385D+00
 Gap=     0.237 Goal=   None    Shift=    0.000
 RMSDP=4.15D-07 MaxDP=1.92D-05 DE=-3.91D-07 OVMax= 2.88D-05

 Cycle  13  Pass 1  IDiag  1:
 RMSU=  2.17D-07    CP:  1.00D+00  1.01D+00  5.96D-01  4.66D-01
 E= -1714.03472069654     Delta-E=       -0.000000016040 Rises=F Damp=F
 DIIS: error= 1.27D-06 at cycle   5 NSaved=   5.
 NSaved= 5 IEnMin= 5 EnMin= -1714.03472069654     IErMin= 5 ErrMin= 1.27D-06
 ErrMax= 1.27D-06  0.00D+00 EMaxC= 1.00D-01 BMatC= 6.78D-10 BMatP= 1.97D-08
 IDIUse=1 WtCom= 1.00D+00 WtEn= 0.00D+00
 Coeff-Com: -0.492D-02 0.108D+00 0.166D+00 0.217D+00 0.514D+00
 Coeff:     -0.492D-02 0.108D+00 0.166D+00 0.217D+00 0.514D+00
 Gap=     0.237 Goal=   None    Shift=    0.000
 RMSDP=9.24D-08 MaxDP=4.46D-06 DE=-1.60D-08 OVMax= 9.61D-06

 Cycle  14  Pass 1  IDiag  1:
 RMSU=  7.21D-08    CP:  1.00D+00  1.01D+00  6.01D-01  5.05D-01  7.79D-01
 E= -1714.03472069712     Delta-E=       -0.000000000576 Rises=F Damp=F
 DIIS: error= 3.63D-07 at cycle   6 NSaved=   6.
 NSaved= 6 IEnMin= 6 EnMin= -1714.03472069712     IErMin= 6 ErrMin= 3.63D-07
 ErrMax= 3.63D-07  0.00D+00 EMaxC= 1.00D-01 BMatC= 5.24D-11 BMatP= 6.78D-10
 IDIUse=1 WtCom= 1.00D+00 WtEn= 0.00D+00
 Coeff-Com: -0.130D-02 0.211D-01 0.337D-01 0.594D-01 0.257D+00 0.630D+00
 Coeff:     -0.130D-02 0.211D-01 0.337D-01 0.594D-01 0.257D+00 0.630D+00
 Gap=     0.237 Goal=   None    Shift=    0.000
 RMSDP=2.85D-08 MaxDP=1.41D-06 DE=-5.76D-10 OVMax= 2.64D-06

 Cycle  15  Pass 1  IDiag  1:
 RMSU=  2.15D-08    CP:  1.00D+00  1.01D+00  6.00D-01  5.08D-01  8.22D-01
                    CP:  7.78D-01
 E= -1714.03472069716     Delta-E=       -0.000000000040 Rises=F Damp=F
 DIIS: error= 1.55D-07 at cycle   7 NSaved=   7.
 NSaved= 7 IEnMin= 7 EnMin= -1714.03472069716     IErMin= 7 ErrMin= 1.55D-07
 ErrMax= 1.55D-07  0.00D+00 EMaxC= 1.00D-01 BMatC= 1.09D-11 BMatP= 5.24D-11
 IDIUse=1 WtCom= 1.00D+00 WtEn= 0.00D+00
 Coeff-Com: -0.257D-03 0.959D-03 0.231D-02 0.125D-01 0.982D-01 0.380D+00
 Coeff-Com:  0.506D+00
 Coeff:     -0.257D-03 0.959D-03 0.231D-02 0.125D-01 0.982D-01 0.380D+00
 Coeff:      0.506D+00
 Gap=     0.237 Goal=   None    Shift=    0.000
 RMSDP=1.19D-08 MaxDP=4.40D-07 DE=-4.05D-11 OVMax= 9.08D-07

 Cycle  16  Pass 1  IDiag  1:
 RMSU=  7.00D-09    CP:  1.00D+00  1.01D+00  6.01D-01  5.12D-01  8.26D-01
                    CP:  8.12D-01  5.95D-01
 E= -1714.03472069718     Delta-E=       -0.000000000019 Rises=F Damp=F
 DIIS: error= 3.80D-08 at cycle   8 NSaved=   8.
 NSaved= 8 IEnMin= 8 EnMin= -1714.03472069718     IErMin= 8 ErrMin= 3.80D-08
 ErrMax= 3.80D-08  0.00D+00 EMaxC= 1.00D-01 BMatC= 1.09D-12 BMatP= 1.09D-11
 IDIUse=1 WtCom= 1.00D+00 WtEn= 0.00D+00
 Coeff-Com: -0.109D-04-0.161D-02-0.217D-02 0.105D-02 0.297D-01 0.153D+00
 Coeff-Com:  0.295D+00 0.525D+00
 Coeff:     -0.109D-04-0.161D-02-0.217D-02 0.105D-02 0.297D-01 0.153D+00
 Coeff:      0.295D+00 0.525D+00
 Gap=     0.237 Goal=   None    Shift=    0.000
 RMSDP=3.49D-09 MaxDP=2.07D-07 DE=-1.91D-11 OVMax= 1.95D-07

 SCF Done:  E(RB3LYP) =  -1714.03472070     A.U. after   16 cycles
            NFock= 16  Conv=0.35D-08     -V/T= 2.0068
 KE= 1.702466614387D+03 PE=-8.459718139096D+03 EE= 2.826233628981D+03
 Leave Link  502 at Thu Oct  1 21:46:07 2020, MaxMem=  2147483648 cpu:       417.0
 (Enter /prod/apps/gaussian/g09d1/l601.exe)
 Copying SCF densities to generalized density rwf, IOpCl= 0 IROHF=0.

 **********************************************************************

            Population analysis using the SCF density.

 **********************************************************************

 Orbital symmetries:
       Occupied  (A) (A) (A) (A) (A) (A) (A) (A) (A) (A) (A) (A)
                 (A) (A) (A) (A) (A) (A) (A) (A) (A) (A) (A) (A)
                 (A) (A) (A) (A) (A) (A) (A) (A) (A) (A) (A) (A)
                 (A) (A) (A) (A) (A) (A) (A) (A) (A) (A) (A) (A)
                 (A) (A) (A) (A) (A) (A) (A) (A) (A) (A) (A) (A)
                 (A) (A) (A) (A) (A) (A) (A) (A) (A) (A) (A) (A)
                 (A) (A) (A) (A) (A) (A) (A) (A) (A) (A) (A) (A)
                 (A) (A) (A) (A)
       Virtual   (A) (A) (A) (A) (A) (A) (A) (A) (A) (A) (A) (A)
                 (A) (A) (A) (A) (A) (A) (A) (A) (A) (A) (A) (A)
                 (A) (A) (A) (A) (A) (A) (A) (A) (A) (A) (A) (A)
                 (A) (A) (A) (A) (A) (A) (A) (A) (A) (A) (A) (A)
                 (A) (A) (A) (A) (A) (A) (A) (A) (A) (A) (A) (A)
                 (A) (A) (A) (A) (A) (A) (A) (A) (A) (A) (A) (A)
                 (A) (A) (A) (A) (A) (A) (A) (A) (A) (A) (A) (A)
                 (A) (A) (A) (A) (A) (A) (A) (A) (A) (A) (A) (A)
                 (A) (A) (A) (A) (A) (A) (A) (A) (A) (A) (A) (A)
                 (A) (A) (A) (A) (A) (A) (A) (A) (A) (A) (A) (A)
                 (A) (A) (A) (A) (A) (A) (A) (A) (A) (A) (A) (A)
                 (A) (A) (A) (A) (A) (A) (A) (A) (A) (A) (A) (A)
                 (A) (A) (A) (A) (A) (A) (A) (A) (A) (A) (A) (A)
                 (A) (A) (A) (A) (A) (A) (A) (A) (A) (A) (A) (A)
                 (A) (A) (A) (A) (A) (A) (A) (A) (A) (A) (A) (A)
                 (A) (A) (A) (A) (A) (A) (A) (A) (A) (A) (A) (A)
                 (A) (A) (A) (A) (A) (A) (A) (A) (A) (A) (A) (A)
                 (A) (A) (A) (A) (A) (A) (A) (A) (A) (A) (A) (A)
                 (A) (A) (A) (A) (A) (A) (A) (A) (A) (A) (A) (A)
                 (A) (A) (A) (A) (A) (A) (A) (A) (A) (A) (A) (A)
                 (A) (A) (A) (A) (A) (A) (A) (A) (A) (A) (A) (A)
                 (A) (A) (A) (A) (A) (A) (A) (A) (A) (A) (A) (A)
                 (A) (A) (A) (A) (A) (A) (A) (A) (A) (A) (A)
 The electronic state is 1-A.
 Alpha  occ. eigenvalues --  -89.14487 -89.07913 -19.15722 -19.15531 -19.13080
 Alpha  occ. eigenvalues --  -19.13079 -14.39642 -14.39177 -10.28246 -10.24695
 Alpha  occ. eigenvalues --  -10.24247 -10.22341 -10.21858 -10.21738 -10.21001
 Alpha  occ. eigenvalues --  -10.20749 -10.19888 -10.19874 -10.19775 -10.19763
 Alpha  occ. eigenvalues --  -10.19718  -8.16702  -8.10959  -6.13192  -6.13136
 Alpha  occ. eigenvalues --   -6.13085  -6.07372  -6.07316  -6.07252  -1.13489
 Alpha  occ. eigenvalues --   -1.08269  -1.01332  -0.97811  -0.96605  -0.95302
 Alpha  occ. eigenvalues --   -0.86626  -0.85357  -0.80417  -0.75275  -0.75181
 Alpha  occ. eigenvalues --   -0.74987  -0.73070  -0.71777  -0.68148  -0.63501
 Alpha  occ. eigenvalues --   -0.61358  -0.61273  -0.58879  -0.57037  -0.56368
 Alpha  occ. eigenvalues --   -0.52689  -0.51682  -0.51389  -0.50408  -0.49724
 Alpha  occ. eigenvalues --   -0.49084  -0.48056  -0.47433  -0.46487  -0.45730
 Alpha  occ. eigenvalues --   -0.45426  -0.43850  -0.43716  -0.43502  -0.43264
 Alpha  occ. eigenvalues --   -0.43165  -0.42651  -0.41360  -0.41116  -0.41022
 Alpha  occ. eigenvalues --   -0.39159  -0.38124  -0.37883  -0.35840  -0.35641
 Alpha  occ. eigenvalues --   -0.34879  -0.34601  -0.34231  -0.32668  -0.31665
 Alpha  occ. eigenvalues --   -0.30890  -0.29870  -0.29122  -0.28228  -0.28189
 Alpha  occ. eigenvalues --   -0.26946  -0.25864  -0.25063
 Alpha virt. eigenvalues --   -0.01368  -0.00933   0.01818   0.04674   0.05322
 Alpha virt. eigenvalues --    0.05789   0.06053   0.06618   0.07342   0.08200
 Alpha virt. eigenvalues --    0.08558   0.08976   0.09416   0.10369   0.10830
 Alpha virt. eigenvalues --    0.12161   0.12468   0.13212   0.13689   0.14927
 Alpha virt. eigenvalues --    0.15004   0.15333   0.16056   0.16363   0.16629
 Alpha virt. eigenvalues --    0.17130   0.17514   0.18049   0.18393   0.19115
 Alpha virt. eigenvalues --    0.19518   0.20689   0.21333   0.22407   0.22826
 Alpha virt. eigenvalues --    0.23506   0.24001   0.26603   0.28980   0.29828
 Alpha virt. eigenvalues --    0.31460   0.32339   0.33858   0.34769   0.36778
 Alpha virt. eigenvalues --    0.37000   0.39000   0.40688   0.43478   0.44328
 Alpha virt. eigenvalues --    0.46457   0.47062   0.47275   0.48062   0.48728
 Alpha virt. eigenvalues --    0.50208   0.50748   0.52156   0.53060   0.53503
 Alpha virt. eigenvalues --    0.54546   0.54827   0.55662   0.56034   0.57501
 Alpha virt. eigenvalues --    0.58466   0.58715   0.59505   0.59892   0.60415
 Alpha virt. eigenvalues --    0.60898   0.61450   0.62123   0.62462   0.63757
 Alpha virt. eigenvalues --    0.64734   0.65959   0.67184   0.67777   0.70337
 Alpha virt. eigenvalues --    0.70457   0.71749   0.73671   0.74752   0.75222
 Alpha virt. eigenvalues --    0.75721   0.76573   0.78602   0.78953   0.80581
 Alpha virt. eigenvalues --    0.80956   0.81491   0.82428   0.83313   0.83346
 Alpha virt. eigenvalues --    0.83644   0.84008   0.84897   0.85046   0.86177
 Alpha virt. eigenvalues --    0.86946   0.87858   0.87989   0.89031   0.89957
 Alpha virt. eigenvalues --    0.90144   0.90526   0.91317   0.92142   0.92626
 Alpha virt. eigenvalues --    0.93761   0.94050   0.94613   0.95236   0.96729
 Alpha virt. eigenvalues --    0.96890   0.97973   0.98141   0.99615   1.00636
 Alpha virt. eigenvalues --    1.02261   1.02761   1.03332   1.04326   1.06358
 Alpha virt. eigenvalues --    1.06915   1.07516   1.08683   1.10338   1.10736
 Alpha virt. eigenvalues --    1.11588   1.13969   1.14289   1.15094   1.15864
 Alpha virt. eigenvalues --    1.17786   1.18267   1.19200   1.19952   1.21245
 Alpha virt. eigenvalues --    1.21664   1.25119   1.26061   1.26692   1.28535
 Alpha virt. eigenvalues --    1.30756   1.33783   1.35890   1.36897   1.39124
 Alpha virt. eigenvalues --    1.42093   1.42600   1.43245   1.44544   1.46555
 Alpha virt. eigenvalues --    1.47507   1.47961   1.49863   1.50590   1.50742
 Alpha virt. eigenvalues --    1.55614   1.57631   1.60158   1.62450   1.64575
 Alpha virt. eigenvalues --    1.67786   1.70219   1.71478   1.74121   1.76096
 Alpha virt. eigenvalues --    1.77306   1.78807   1.79060   1.80352   1.80779
 Alpha virt. eigenvalues --    1.81324   1.81604   1.82302   1.82825   1.83412
 Alpha virt. eigenvalues --    1.84461   1.85358   1.86419   1.87033   1.88780
 Alpha virt. eigenvalues --    1.89765   1.89892   1.91009   1.91669   1.92499
 Alpha virt. eigenvalues --    1.94112   1.94685   1.95289   1.96527   1.97309
 Alpha virt. eigenvalues --    1.98562   2.02649   2.03815   2.04383   2.05102
 Alpha virt. eigenvalues --    2.06037   2.06934   2.07920   2.08998   2.09814
 Alpha virt. eigenvalues --    2.10832   2.12469   2.13150   2.13817   2.15702
 Alpha virt. eigenvalues --    2.16699   2.17621   2.18662   2.19434   2.20649
 Alpha virt. eigenvalues --    2.22386   2.23117   2.24288   2.25753   2.27999
 Alpha virt. eigenvalues --    2.28360   2.30291   2.31816   2.32874   2.34002
 Alpha virt. eigenvalues --    2.35323   2.38393   2.39429   2.40065   2.40903
 Alpha virt. eigenvalues --    2.45843   2.46714   2.48132   2.55924   2.57212
 Alpha virt. eigenvalues --    2.57669   2.58205   2.64431   2.68472   2.69177
 Alpha virt. eigenvalues --    2.69667   2.71628   2.72902   2.73307   2.74015
 Alpha virt. eigenvalues --    2.75022   2.76587   2.77442   2.83810   2.84818
 Alpha virt. eigenvalues --    2.87374   2.88479   3.04501   3.39856   3.81076
 Alpha virt. eigenvalues --    3.82031   3.89329   3.95348   3.97200   4.02468
 Alpha virt. eigenvalues --    4.04177   4.09108   4.10655   4.12474   4.17165
 Alpha virt. eigenvalues --    4.20503   4.25115   4.25497   4.28470   4.33049
 Alpha virt. eigenvalues --    4.34961   4.41242   4.53181   4.69399   4.74091
          Condensed to atoms (all electrons):
               1          2          3          4          5          6
     1  C    5.000913   0.275915  -0.050567  -0.010675  -0.008153   0.001289
     2  N    0.275915   7.189688   0.275687   0.152576  -0.052958  -0.053003
     3  C   -0.050567   0.275687   4.994151  -0.016151   0.001541  -0.008335
     4  S   -0.010675   0.152576  -0.016151  13.615646   0.416564   0.438453
     5  O   -0.008153  -0.052958   0.001541   0.416564   8.256736  -0.047176
     6  O    0.001289  -0.053003  -0.008335   0.438453  -0.047176   8.240367
     7  N    0.000099  -0.052992   0.003626   0.114055  -0.055171  -0.053796
     8  C   -0.000049   0.003393  -0.000063  -0.008974  -0.002828  -0.001060
     9  C    0.000002  -0.000151  -0.000034  -0.005583  -0.000466  -0.010323
    10  S    0.000000   0.000012   0.000003   0.001946  -0.000311   0.001902
    11  O    0.000000   0.000000   0.000000   0.000370  -0.000002  -0.000105
    12  O    0.000000   0.000000   0.000000  -0.000003   0.000000   0.000000
    13  C    0.000002  -0.000200   0.000009  -0.006848  -0.004414  -0.001486
    14  C   -0.000006  -0.000128   0.000003   0.000108  -0.000112   0.000041
    15  C    0.000000   0.000009  -0.000043  -0.000124   0.000000  -0.000016
    16  C    0.000000  -0.000001   0.000012  -0.000010   0.000000   0.000005
    17  C    0.000000   0.000012  -0.000260   0.000121   0.000000  -0.000011
    18  C    0.000000   0.000000  -0.000001   0.000001   0.000000  -0.000001
    19  C    0.000000   0.000000   0.000000   0.000000   0.000000   0.000000
    20  C    0.000000   0.000000   0.000000   0.000000   0.000000   0.000000
    21  C    0.000000   0.000000   0.000000   0.000001   0.000000   0.000000
    22  H    0.379766  -0.037869  -0.002900   0.001911   0.000130  -0.000034
    23  H    0.367455  -0.049735  -0.001165  -0.007927   0.000112  -0.000063
    24  H    0.374482  -0.030263   0.004223   0.000024   0.012139   0.000055
    25  H   -0.003547  -0.036759   0.375632   0.001880  -0.000038   0.000019
    26  H    0.004293  -0.031054   0.375391   0.002707   0.000045   0.011370
    27  H   -0.001731  -0.047928   0.372246  -0.007203  -0.000029  -0.000132
    28  H    0.001339  -0.000724  -0.000183  -0.007723  -0.000478   0.001931
    29  H    0.000000   0.000002   0.000002   0.000138  -0.000001   0.000246
    30  H   -0.000002   0.000011  -0.000026   0.000125  -0.000029   0.018739
    31  H    0.000000   0.000001   0.000000   0.000072   0.000079  -0.000001
    32  H    0.000002   0.000052  -0.000004   0.002959   0.017215  -0.000583
    33  H    0.000000   0.000001   0.000000   0.000067   0.000001   0.000001
    34  H   -0.000001   0.000002   0.000000  -0.000211  -0.000003   0.000001
    35  H    0.000000   0.000000   0.000000   0.000005   0.000000   0.000000
    36  H   -0.000008  -0.000055   0.000011   0.000018   0.000003   0.000000
    37  H   -0.000001  -0.000076   0.000613   0.000111   0.000000  -0.000005
    38  H    0.000000   0.000000  -0.000001   0.000000   0.000000   0.000000
    39  H    0.000000   0.000000   0.000000   0.000000   0.000000   0.000000
    40  H    0.000000   0.000000   0.000000   0.000000   0.000000   0.000000
    41  H    0.000000   0.000000   0.000000   0.000000   0.000000   0.000000
               7          8          9         10         11         12
     1  C    0.000099  -0.000049   0.000002   0.000000   0.000000   0.000000
     2  N   -0.052992   0.003393  -0.000151   0.000012   0.000000   0.000000
     3  C    0.003626  -0.000063  -0.000034   0.000003   0.000000   0.000000
     4  S    0.114055  -0.008974  -0.005583   0.001946   0.000370  -0.000003
     5  O   -0.055171  -0.002828  -0.000466  -0.000311  -0.000002   0.000000
     6  O   -0.053796  -0.001060  -0.010323   0.001902  -0.000105   0.000000
     7  N    7.367747   0.262622  -0.044891   0.000221  -0.000110  -0.000036
     8  C    0.262622   4.845522   0.342221  -0.093967   0.001565   0.000366
     9  C   -0.044891   0.342221   5.743977   0.142989  -0.044999  -0.046558
    10  S    0.000221  -0.093967   0.142989  13.884794   0.436033   0.413008
    11  O   -0.000110   0.001565  -0.044999   0.436033   8.201781  -0.046973
    12  O   -0.000036   0.000366  -0.046558   0.413008  -0.046973   8.256203
    13  C   -0.051077   0.353458  -0.199835   0.121477  -0.044301  -0.045485
    14  C   -0.054571   0.360227  -0.041879   0.003773  -0.000053  -0.002008
    15  C   -0.006031  -0.038527  -0.005144   0.000039   0.000000   0.000048
    16  C   -0.001561  -0.002659   0.000953   0.000074   0.000000  -0.000019
    17  C    0.000618   0.001203   0.000320   0.000130   0.000000   0.000000
    18  C    0.000019  -0.000012   0.000318   0.000007   0.000000   0.000000
    19  C    0.000000   0.000006   0.000020  -0.000001   0.000000   0.000000
    20  C   -0.000001   0.000006  -0.000409  -0.000020   0.000000  -0.000001
    21  C    0.000005  -0.000837  -0.002558  -0.000057   0.000000   0.000012
    22  H   -0.000081   0.000004   0.000000   0.000000   0.000000   0.000000
    23  H    0.001480  -0.000133   0.000000   0.000000   0.000000   0.000000
    24  H   -0.000247   0.000001   0.000000   0.000000   0.000000   0.000000
    25  H    0.000089   0.000006  -0.000001   0.000000   0.000000   0.000000
    26  H   -0.001655  -0.000030   0.000046   0.000000   0.000000   0.000000
    27  H    0.004113  -0.000252  -0.000004   0.000000   0.000000   0.000000
    28  H    0.279903  -0.035307   0.005854  -0.000216   0.000002   0.000002
    29  H    0.001384  -0.026193   0.340830  -0.011947   0.000671   0.000301
    30  H   -0.004548  -0.020388   0.323156  -0.002576   0.000255   0.001023
    31  H    0.002192  -0.027891   0.009933  -0.010162   0.000745  -0.000218
    32  H   -0.007363  -0.021240   0.003130  -0.001478   0.000116   0.000982
    33  H    0.004175  -0.031157  -0.006238   0.007237   0.000017   0.005471
    34  H   -0.005297  -0.036530   0.005750  -0.000225   0.000001   0.000049
    35  H    0.000232   0.005281  -0.000067   0.000019   0.000000   0.000000
    36  H    0.009026  -0.011483  -0.000375  -0.000020   0.000000   0.000000
    37  H    0.001494  -0.000250  -0.000021   0.000003   0.000000   0.000000
    38  H    0.000000   0.000001  -0.000003   0.000000   0.000000   0.000000
    39  H    0.000000   0.000000   0.000000   0.000000   0.000000   0.000000
    40  H    0.000000   0.000000  -0.000003   0.000000   0.000000   0.000000
    41  H    0.000001   0.000114  -0.000029  -0.000002   0.000000  -0.000002
              13         14         15         16         17         18
     1  C    0.000002  -0.000006   0.000000   0.000000   0.000000   0.000000
     2  N   -0.000200  -0.000128   0.000009  -0.000001   0.000012   0.000000
     3  C    0.000009   0.000003  -0.000043   0.000012  -0.000260  -0.000001
     4  S   -0.006848   0.000108  -0.000124  -0.000010   0.000121   0.000001
     5  O   -0.004414  -0.000112   0.000000   0.000000   0.000000   0.000000
     6  O   -0.001486   0.000041  -0.000016   0.000005  -0.000011  -0.000001
     7  N   -0.051077  -0.054571  -0.006031  -0.001561   0.000618   0.000019
     8  C    0.353458   0.360227  -0.038527  -0.002659   0.001203  -0.000012
     9  C   -0.199835  -0.041879  -0.005144   0.000953   0.000320   0.000318
    10  S    0.121477   0.003773   0.000039   0.000074   0.000130   0.000007
    11  O   -0.044301  -0.000053   0.000000   0.000000   0.000000   0.000000
    12  O   -0.045485  -0.002008   0.000048  -0.000019   0.000000   0.000000
    13  C    5.786183  -0.054920   0.004411  -0.000053   0.000004   0.000000
    14  C   -0.054920   5.178880   0.333315  -0.036237  -0.001702  -0.000160
    15  C    0.004411   0.333315   5.171807   0.357330  -0.050259   0.007139
    16  C   -0.000053  -0.036237   0.357330   4.647842   0.552256  -0.021166
    17  C    0.000004  -0.001702  -0.050259   0.552256   4.967228   0.518277
    18  C    0.000000  -0.000160   0.007139  -0.021166   0.518277   4.872049
    19  C    0.000000   0.000011   0.000342  -0.034731  -0.035472   0.550854
    20  C    0.000000   0.000085   0.006289  -0.018490  -0.046000  -0.026260
    21  C   -0.000018  -0.003369  -0.066709   0.535419  -0.043026  -0.047170
    22  H    0.000000   0.000000   0.000000   0.000000   0.000000   0.000000
    23  H    0.000006   0.000016  -0.000007   0.000000  -0.000001   0.000000
    24  H    0.000004   0.000000   0.000000   0.000000   0.000000   0.000000
    25  H    0.000000   0.000000   0.000000   0.000000   0.000006   0.000000
    26  H    0.000000  -0.000001   0.000003   0.000003   0.000015   0.000001
    27  H    0.000004   0.000020  -0.000063   0.000003  -0.000309   0.000000
    28  H   -0.001431  -0.004960  -0.000679   0.000328  -0.000053   0.000000
    29  H    0.008778  -0.005877  -0.001418   0.004772  -0.000826  -0.000363
    30  H    0.003493   0.003238   0.000034  -0.000079   0.000096  -0.000027
    31  H    0.339268  -0.005392   0.000191   0.000008   0.000000   0.000000
    32  H    0.325152   0.002927  -0.000090   0.000001   0.000000   0.000000
    33  H   -0.003030   0.366569  -0.030688  -0.005603   0.000060   0.000005
    34  H   -0.008007   0.352195  -0.035116   0.004603  -0.000094   0.000002
    35  H   -0.000108  -0.037372   0.359577  -0.030168   0.002696  -0.000218
    36  H    0.000196  -0.036873   0.357936  -0.030510  -0.005735   0.000183
    37  H    0.000005   0.000212  -0.012195  -0.042193   0.351451  -0.046738
    38  H    0.000000   0.000001  -0.000179   0.003756  -0.039548   0.357295
    39  H    0.000000   0.000000   0.000007   0.000710   0.004601  -0.042715
    40  H    0.000000   0.000001  -0.000183   0.003582   0.000828   0.004564
    41  H    0.000000   0.000627  -0.008677  -0.048773   0.005959   0.000357
              19         20         21         22         23         24
     1  C    0.000000   0.000000   0.000000   0.379766   0.367455   0.374482
     2  N    0.000000   0.000000   0.000000  -0.037869  -0.049735  -0.030263
     3  C    0.000000   0.000000   0.000000  -0.002900  -0.001165   0.004223
     4  S    0.000000   0.000000   0.000001   0.001911  -0.007927   0.000024
     5  O    0.000000   0.000000   0.000000   0.000130   0.000112   0.012139
     6  O    0.000000   0.000000   0.000000  -0.000034  -0.000063   0.000055
     7  N    0.000000  -0.000001   0.000005  -0.000081   0.001480  -0.000247
     8  C    0.000006   0.000006  -0.000837   0.000004  -0.000133   0.000001
     9  C    0.000020  -0.000409  -0.002558   0.000000   0.000000   0.000000
    10  S   -0.000001  -0.000020  -0.000057   0.000000   0.000000   0.000000
    11  O    0.000000   0.000000   0.000000   0.000000   0.000000   0.000000
    12  O    0.000000  -0.000001   0.000012   0.000000   0.000000   0.000000
    13  C    0.000000   0.000000  -0.000018   0.000000   0.000006   0.000004
    14  C    0.000011   0.000085  -0.003369   0.000000   0.000016   0.000000
    15  C    0.000342   0.006289  -0.066709   0.000000  -0.000007   0.000000
    16  C   -0.034731  -0.018490   0.535419   0.000000   0.000000   0.000000
    17  C   -0.035472  -0.046000  -0.043026   0.000000  -0.000001   0.000000
    18  C    0.550854  -0.026260  -0.047170   0.000000   0.000000   0.000000
    19  C    4.852856   0.546835  -0.035620   0.000000   0.000000   0.000000
    20  C    0.546835   4.858440   0.526097   0.000000   0.000000   0.000000
    21  C   -0.035620   0.526097   4.983946   0.000000   0.000000   0.000000
    22  H    0.000000   0.000000   0.000000   0.533396  -0.040836  -0.019145
    23  H    0.000000   0.000000   0.000000  -0.040836   0.606915  -0.029800
    24  H    0.000000   0.000000   0.000000  -0.019145  -0.029800   0.473270
    25  H    0.000000   0.000000   0.000000   0.005518  -0.001593  -0.000008
    26  H    0.000000   0.000000   0.000000  -0.000018  -0.000160  -0.000183
    27  H    0.000000   0.000000   0.000000  -0.001611   0.008163  -0.000128
    28  H    0.000000   0.000000   0.000003  -0.000058   0.002698  -0.000095
    29  H    0.000224   0.001311   0.005549   0.000000   0.000000   0.000000
    30  H   -0.000007   0.000001   0.000037   0.000000   0.000001   0.000000
    31  H    0.000000   0.000000   0.000000   0.000000   0.000000   0.000000
    32  H    0.000000   0.000000   0.000000   0.000000   0.000004  -0.000010
    33  H   -0.000001  -0.000107   0.003598   0.000000   0.000000   0.000000
    34  H    0.000000   0.000002   0.000070   0.000000  -0.000002   0.000000
    35  H    0.000025   0.000030  -0.005429   0.000000   0.000000   0.000000
    36  H    0.000001  -0.000185   0.004863   0.000000   0.000056   0.000000
    37  H    0.004778   0.000319   0.006383   0.000000   0.000003   0.000000
    38  H   -0.042424   0.004563   0.000817   0.000000   0.000000   0.000000
    39  H    0.360215  -0.042173   0.004681   0.000000   0.000000   0.000000
    40  H   -0.042250   0.358389  -0.039261   0.000000   0.000000   0.000000
    41  H    0.004770  -0.042692   0.357165   0.000000   0.000000   0.000000
              25         26         27         28         29         30
     1  C   -0.003547   0.004293  -0.001731   0.001339   0.000000  -0.000002
     2  N   -0.036759  -0.031054  -0.047928  -0.000724   0.000002   0.000011
     3  C    0.375632   0.375391   0.372246  -0.000183   0.000002  -0.000026
     4  S    0.001880   0.002707  -0.007203  -0.007723   0.000138   0.000125
     5  O   -0.000038   0.000045  -0.000029  -0.000478  -0.000001  -0.000029
     6  O    0.000019   0.011370  -0.000132   0.001931   0.000246   0.018739
     7  N    0.000089  -0.001655   0.004113   0.279903   0.001384  -0.004548
     8  C    0.000006  -0.000030  -0.000252  -0.035307  -0.026193  -0.020388
     9  C   -0.000001   0.000046  -0.000004   0.005854   0.340830   0.323156
    10  S    0.000000   0.000000   0.000000  -0.000216  -0.011947  -0.002576
    11  O    0.000000   0.000000   0.000000   0.000002   0.000671   0.000255
    12  O    0.000000   0.000000   0.000000   0.000002   0.000301   0.001023
    13  C    0.000000   0.000000   0.000004  -0.001431   0.008778   0.003493
    14  C    0.000000  -0.000001   0.000020  -0.004960  -0.005877   0.003238
    15  C    0.000000   0.000003  -0.000063  -0.000679  -0.001418   0.000034
    16  C    0.000000   0.000003   0.000003   0.000328   0.004772  -0.000079
    17  C    0.000006   0.000015  -0.000309  -0.000053  -0.000826   0.000096
    18  C    0.000000   0.000001   0.000000   0.000000  -0.000363  -0.000027
    19  C    0.000000   0.000000   0.000000   0.000000   0.000224  -0.000007
    20  C    0.000000   0.000000   0.000000   0.000000   0.001311   0.000001
    21  C    0.000000   0.000000   0.000000   0.000003   0.005549   0.000037
    22  H    0.005518  -0.000018  -0.001611  -0.000058   0.000000   0.000000
    23  H   -0.001593  -0.000160   0.008163   0.002698   0.000000   0.000001
    24  H   -0.000008  -0.000183  -0.000128  -0.000095   0.000000   0.000000
    25  H    0.544622  -0.021401  -0.039262  -0.000037   0.000000   0.000000
    26  H   -0.021401   0.478239  -0.029167  -0.000007  -0.000002   0.000004
    27  H   -0.039262  -0.029167   0.584156   0.000310   0.000000   0.000017
    28  H   -0.000037  -0.000007   0.000310   0.415805  -0.000046   0.000036
    29  H    0.000000  -0.000002   0.000000  -0.000046   0.469317  -0.013847
    30  H    0.000000   0.000004   0.000017   0.000036  -0.013847   0.434550
    31  H    0.000000   0.000000   0.000000   0.000342  -0.000279  -0.000236
    32  H    0.000000   0.000000   0.000001   0.000138  -0.000220  -0.000048
    33  H    0.000000   0.000000   0.000000   0.000021   0.000195   0.000126
    34  H    0.000000   0.000000  -0.000001   0.006556   0.000210  -0.000116
    35  H    0.000000   0.000000   0.000000  -0.000211  -0.000017   0.000003
    36  H    0.000000  -0.000014   0.000721   0.001132   0.000099   0.000004
    37  H   -0.000018   0.000231   0.001913  -0.000020   0.000042   0.000041
    38  H    0.000000   0.000001  -0.000002   0.000000   0.000003   0.000001
    39  H    0.000000   0.000000   0.000000   0.000000   0.000000   0.000000
    40  H    0.000000   0.000000   0.000000   0.000000   0.000009   0.000000
    41  H    0.000000   0.000000   0.000000   0.000000   0.000081   0.000000
              31         32         33         34         35         36
     1  C    0.000000   0.000002   0.000000  -0.000001   0.000000  -0.000008
     2  N    0.000001   0.000052   0.000001   0.000002   0.000000  -0.000055
     3  C    0.000000  -0.000004   0.000000   0.000000   0.000000   0.000011
     4  S    0.000072   0.002959   0.000067  -0.000211   0.000005   0.000018
     5  O    0.000079   0.017215   0.000001  -0.000003   0.000000   0.000003
     6  O   -0.000001  -0.000583   0.000001   0.000001   0.000000   0.000000
     7  N    0.002192  -0.007363   0.004175  -0.005297   0.000232   0.009026
     8  C   -0.027891  -0.021240  -0.031157  -0.036530   0.005281  -0.011483
     9  C    0.009933   0.003130  -0.006238   0.005750  -0.000067  -0.000375
    10  S   -0.010162  -0.001478   0.007237  -0.000225   0.000019  -0.000020
    11  O    0.000745   0.000116   0.000017   0.000001   0.000000   0.000000
    12  O   -0.000218   0.000982   0.005471   0.000049   0.000000   0.000000
    13  C    0.339268   0.325152  -0.003030  -0.008007  -0.000108   0.000196
    14  C   -0.005392   0.002927   0.366569   0.352195  -0.037372  -0.036873
    15  C    0.000191  -0.000090  -0.030688  -0.035116   0.359577   0.357936
    16  C    0.000008   0.000001  -0.005603   0.004603  -0.030168  -0.030510
    17  C    0.000000   0.000000   0.000060  -0.000094   0.002696  -0.005735
    18  C    0.000000   0.000000   0.000005   0.000002  -0.000218   0.000183
    19  C    0.000000   0.000000  -0.000001   0.000000   0.000025   0.000001
    20  C    0.000000   0.000000  -0.000107   0.000002   0.000030  -0.000185
    21  C    0.000000   0.000000   0.003598   0.000070  -0.005429   0.004863
    22  H    0.000000   0.000000   0.000000   0.000000   0.000000   0.000000
    23  H    0.000000   0.000004   0.000000  -0.000002   0.000000   0.000056
    24  H    0.000000  -0.000010   0.000000   0.000000   0.000000   0.000000
    25  H    0.000000   0.000000   0.000000   0.000000   0.000000   0.000000
    26  H    0.000000   0.000000   0.000000   0.000000   0.000000  -0.000014
    27  H    0.000000   0.000001   0.000000  -0.000001   0.000000   0.000721
    28  H    0.000342   0.000138   0.000021   0.006556  -0.000211   0.001132
    29  H   -0.000279  -0.000220   0.000195   0.000210  -0.000017   0.000099
    30  H   -0.000236  -0.000048   0.000126  -0.000116   0.000003   0.000004
    31  H    0.502541  -0.017758  -0.000038   0.004385  -0.000019  -0.000001
    32  H   -0.017758   0.446234   0.000109   0.000102   0.000002   0.000003
    33  H   -0.000038   0.000109   0.525457  -0.029472  -0.002756   0.004803
    34  H    0.004385   0.000102  -0.029472   0.607730  -0.004566  -0.002776
    35  H   -0.000019   0.000002  -0.002756  -0.004566   0.587322  -0.034356
    36  H   -0.000001   0.000003   0.004803  -0.002776  -0.034356   0.595337
    37  H    0.000000   0.000000   0.000004  -0.000019   0.000122   0.006864
    38  H    0.000000   0.000000   0.000000   0.000000   0.000003  -0.000009
    39  H    0.000000   0.000000   0.000000   0.000000   0.000000   0.000000
    40  H    0.000000   0.000000   0.000004   0.000000  -0.000003   0.000003
    41  H    0.000000   0.000000   0.001999  -0.000113   0.003058   0.000051
              37         38         39         40         41
     1  C   -0.000001   0.000000   0.000000   0.000000   0.000000
     2  N   -0.000076   0.000000   0.000000   0.000000   0.000000
     3  C    0.000613  -0.000001   0.000000   0.000000   0.000000
     4  S    0.000111   0.000000   0.000000   0.000000   0.000000
     5  O    0.000000   0.000000   0.000000   0.000000   0.000000
     6  O   -0.000005   0.000000   0.000000   0.000000   0.000000
     7  N    0.001494   0.000000   0.000000   0.000000   0.000001
     8  C   -0.000250   0.000001   0.000000   0.000000   0.000114
     9  C   -0.000021  -0.000003   0.000000  -0.000003  -0.000029
    10  S    0.000003   0.000000   0.000000   0.000000  -0.000002
    11  O    0.000000   0.000000   0.000000   0.000000   0.000000
    12  O    0.000000   0.000000   0.000000   0.000000  -0.000002
    13  C    0.000005   0.000000   0.000000   0.000000   0.000000
    14  C    0.000212   0.000001   0.000000   0.000001   0.000627
    15  C   -0.012195  -0.000179   0.000007  -0.000183  -0.008677
    16  C   -0.042193   0.003756   0.000710   0.003582  -0.048773
    17  C    0.351451  -0.039548   0.004601   0.000828   0.005959
    18  C   -0.046738   0.357295  -0.042715   0.004564   0.000357
    19  C    0.004778  -0.042424   0.360215  -0.042250   0.004770
    20  C    0.000319   0.004563  -0.042173   0.358389  -0.042692
    21  C    0.006383   0.000817   0.004681  -0.039261   0.357165
    22  H    0.000000   0.000000   0.000000   0.000000   0.000000
    23  H    0.000003   0.000000   0.000000   0.000000   0.000000
    24  H    0.000000   0.000000   0.000000   0.000000   0.000000
    25  H   -0.000018   0.000000   0.000000   0.000000   0.000000
    26  H    0.000231   0.000001   0.000000   0.000000   0.000000
    27  H    0.001913  -0.000002   0.000000   0.000000   0.000000
    28  H   -0.000020   0.000000   0.000000   0.000000   0.000000
    29  H    0.000042   0.000003   0.000000   0.000009   0.000081
    30  H    0.000041   0.000001   0.000000   0.000000   0.000000
    31  H    0.000000   0.000000   0.000000   0.000000   0.000000
    32  H    0.000000   0.000000   0.000000   0.000000   0.000000
    33  H    0.000004   0.000000   0.000000   0.000004   0.001999
    34  H   -0.000019   0.000000   0.000000   0.000000  -0.000113
    35  H    0.000122   0.000003   0.000000  -0.000003   0.003058
    36  H    0.006864  -0.000009   0.000000   0.000003   0.000051
    37  H    0.606834  -0.005489  -0.000175   0.000017  -0.000177
    38  H   -0.005489   0.593517  -0.005510  -0.000185   0.000018
    39  H   -0.000175  -0.005510   0.590009  -0.005352  -0.000178
    40  H    0.000017  -0.000185  -0.005352   0.586939  -0.005517
    41  H   -0.000177   0.000018  -0.000178  -0.005517   0.599678
 Mulliken charges:
               1
     1  C   -0.330819
     2  N   -0.503467
     3  C   -0.323416
     4  S    1.321577
     5  O   -0.532396
     6  O   -0.538291
     7  N   -0.713674
     8  C    0.183836
     9  C   -0.509929
    10  S    1.107316
    11  O   -0.505013
    12  O   -0.536159
    13  C   -0.521234
    14  C   -0.316628
    15  C   -0.342329
    16  C    0.160595
    17  C   -0.182584
    18  C   -0.126240
    19  C   -0.130433
    20  C   -0.126028
    21  C   -0.184594
    22  H    0.181826
    23  H    0.144511
    24  H    0.215682
    25  H    0.174891
    26  H    0.211344
    27  H    0.156156
    28  H    0.335829
    29  H    0.226874
    30  H    0.256938
    31  H    0.202238
    32  H    0.249664
    33  H    0.189170
    34  H    0.140888
    35  H    0.156917
    36  H    0.141090
    37  H    0.125937
    38  H    0.133374
    39  H    0.135882
    40  H    0.138418
    41  H    0.132283
 Sum of Mulliken charges =   0.00000
 Mulliken charges with hydrogens summed into heavy atoms:
               1
     1  C    0.211200
     2  N   -0.503467
     3  C    0.218976
     4  S    1.321577
     5  O   -0.532396
     6  O   -0.538291
     7  N   -0.377845
     8  C    0.183836
     9  C   -0.026117
    10  S    1.107316
    11  O   -0.505013
    12  O   -0.536159
    13  C   -0.069332
    14  C    0.013430
    15  C   -0.044323
    16  C    0.160595
    17  C   -0.056647
    18  C    0.007134
    19  C    0.005449
    20  C    0.012390
    21  C   -0.052311
 Electronic spatial extent (au):  <R**2>=           7246.0733
 Charge=              0.0000 electrons
 Dipole moment (field-independent basis, Debye):
    X=              0.2927    Y=             -8.2888    Z=              5.2009  Tot=              9.7897
 Quadrupole moment (field-independent basis, Debye-Ang):
   XX=           -135.3621   YY=           -151.9249   ZZ=           -135.4001
   XY=             -7.9836   XZ=             11.1563   YZ=              9.8479
 Traceless Quadrupole moment (field-independent basis, Debye-Ang):
   XX=              5.5336   YY=            -11.0292   ZZ=              5.4956
   XY=             -7.9836   XZ=             11.1563   YZ=              9.8479
 Octapole moment (field-independent basis, Debye-Ang**2):
  XXX=              1.0708  YYY=            -87.2615  ZZZ=             11.1920  XYY=             68.5752
  XXY=            -43.2263  XXZ=              5.4730  XZZ=             -1.6380  YZZ=             -6.7622
  YYZ=             11.7616  XYZ=             -7.1352
 Hexadecapole moment (field-independent basis, Debye-Ang**3):
 XXXX=          -5007.5388 YYYY=          -3452.5930 ZZZZ=          -1006.5000 XXXY=           -212.1437
 XXXZ=            127.7883 YYYX=            -46.4706 YYYZ=            125.0214 ZZZX=             18.4754
 ZZZY=             20.6532 XXYY=          -1406.8825 XXZZ=          -1014.6532 YYZZ=           -704.4168
 XXYZ=             23.6599 YYXZ=             48.9162 ZZXY=             -8.5062
 N-N= 2.216983175031D+03 E-N=-8.459718127050D+03  KE= 1.702466614387D+03
 No NMR shielding tensors so no spin-rotation constants.
 Leave Link  601 at Thu Oct  1 21:46:08 2020, MaxMem=  2147483648 cpu:         0.4
 (Enter /prod/apps/gaussian/g09d1/l9999.exe)
 1\1\GINC-PIRINEUS16\SP\RB3LYP\6-31G(d)\C13H20N2O4S2\UBAFAR01\01-Oct-20
 20\0\\#p b3lyp/6-31G(d)\\SM40.n.14.pdb.xyz\\0,1\C,0,2.614,0.897,1.091\
 N,0,2.214,-0.308,0.35\C,0,2.089,-0.137,-1.104\S,0,2.769,-1.772,0.88\O,
 0,2.756,-1.736,2.35\O,0,2.007,-2.828,0.205\N,0,4.348,-1.852,0.266\C,0,
 5.197,-3.053,0.403\C,0,4.61,-4.309,-0.328\S,0,4.971,-5.336,1.133\O,0,3
 .797,-6.033,1.694\O,0,6.225,-6.104,0.968\C,0,5.278,-3.687,1.845\C,0,6.
 613,-2.671,-0.077\C,0,6.73,-1.979,-1.448\C,0,6.386,-2.822,-2.658\C,0,5
 .236,-2.558,-3.414\C,0,4.916,-3.332,-4.531\C,0,5.745,-4.388,-4.913\C,0
 ,6.899,-4.659,-4.172\C,0,7.217,-3.881,-3.058\H,0,1.847,1.655,0.922\H,0
 ,3.58,1.289,0.752\H,0,2.659,0.669,2.154\H,0,1.341,0.639,-1.282\H,0,1.7
 41,-1.067,-1.549\H,0,3.037,0.164,-1.563\H,0,4.848,-1.025,0.604\H,0,5.1
 29,-4.639,-1.224\H,0,3.534,-4.248,-0.484\H,0,6.237,-3.603,2.357\H,0,4.
 458,-3.393,2.5\H,0,7.222,-3.58,-0.061\H,0,7.045,-2.002,0.675\H,0,7.77,
 -1.64,-1.533\H,0,6.111,-1.078,-1.45\H,0,4.587,-1.737,-3.121\H,0,4.02,-
 3.11,-5.102\H,0,5.499,-4.992,-5.78\H,0,7.556,-5.472,-4.465\H,0,8.121,-
 4.095,-2.495\\Version=AM64L-G09RevD.01\State=1-A\HF=-1714.0347207\RMSD
 =3.486e-09\Dipole=0.9892544,3.4207873,-1.4677221\Quadrupole=-0.711103,
 0.7133995,-0.0022965,-4.2102337,7.2995251,11.6854099\PG=C01 [X(C13H20N
 2O4S2)]\\@


 BUT 'GLORY' DOESN'T MEAN 'A NICE KNOCK DOWN ARGUMENT', ALICE OBJECTED.
 WHEN I USE A WORD, HUMPTY DUMPTY SAID, IN A RATHER SCORNFUL TONE,
 IT MEANS JUST WHAT I CHOOSE IT TO MEAN....
[...]
    11  O   -0.044813  -0.000057   0.000000   0.000000   0.000000   0.000000
    12  O   -0.045536  -0.001798   0.000045  -0.000018   0.000000   0.000000
    13  C    5.745456  -0.055469   0.004354  -0.000060   0.000005   0.000000
    14  C   -0.055469   5.153064   0.339677  -0.036065  -0.001687  -0.000172
    15  C    0.004354   0.339677   5.152501   0.357297  -0.049814   0.006923
    16  C   -0.000060  -0.036065   0.357297   4.669927   0.549114  -0.023562
    17  C    0.000005  -0.001687  -0.049814   0.549114   4.988386   0.513930
    18  C    0.000000  -0.000172   0.006923  -0.023562   0.513930   4.900405
    19  C    0.000000   0.000013   0.000324  -0.034608  -0.037801   0.546418
    20  C    0.000000   0.000064   0.006039  -0.020791  -0.045658  -0.029050
    21  C   -0.000019  -0.003251  -0.065233   0.532502  -0.045464  -0.046483
    22  H    0.000000   0.000000   0.000000   0.000000   0.000000   0.000000
    23  H    0.000005   0.000015  -0.000005   0.000000  -0.000001   0.000000
    24  H    0.000004   0.000000   0.000000   0.000000   0.000000   0.000000
    25  H    0.000000   0.000000   0.000000   0.000000   0.000006   0.000000
    26  H   -0.000001  -0.000001   0.000002   0.000003   0.000022   0.000000
    27  H    0.000003   0.000021  -0.000042   0.000002  -0.000298   0.000000
    28  H   -0.001128  -0.003529  -0.000627   0.000241  -0.000039   0.000000
    29  H    0.008506  -0.006064  -0.001194   0.005156  -0.000671  -0.000378
    30  H    0.003475   0.003303  -0.000010  -0.000063   0.000087  -0.000028
    31  H    0.345055  -0.004452   0.000163   0.000010   0.000000   0.000000
    32  H    0.325202   0.002947  -0.000087   0.000001   0.000000   0.000000
    33  H   -0.003381   0.365559  -0.031562  -0.006035   0.000066   0.000007
    34  H   -0.007570   0.362664  -0.031678   0.004275  -0.000087   0.000002
    35  H   -0.000101  -0.034887   0.362823  -0.030699   0.002711  -0.000219
    36  H    0.000159  -0.034690   0.364645  -0.033129  -0.005168   0.000249
    37  H    0.000005   0.000211  -0.010927  -0.041258   0.355720  -0.045168
    38  H    0.000000   0.000001  -0.000168   0.003696  -0.038385   0.360685
    39  H    0.000000   0.000000   0.000007   0.000619   0.004566  -0.042117
    40  H    0.000000   0.000001  -0.000172   0.003581   0.000724   0.004550
    41  H    0.000000   0.000635  -0.008093  -0.046581   0.005887   0.000281
              19         20         21         22         23         24
     1  C    0.000000   0.000000   0.000000   0.380317   0.376624   0.374442
     2  N    0.000000   0.000000   0.000000  -0.036674  -0.046491  -0.031567
     3  C    0.000000   0.000000   0.000000  -0.003039  -0.000813   0.004156
     4  S    0.000000   0.000000   0.000001   0.001778  -0.006822  -0.000766
     5  O    0.000000   0.000000   0.000000   0.000108   0.000059   0.011167
     6  O    0.000000   0.000000   0.000000  -0.000033  -0.000061   0.000056
     7  N    0.000000  -0.000001   0.000006  -0.000078   0.001530  -0.000275
     8  C    0.000006   0.000007  -0.000850   0.000004  -0.000121   0.000000
     9  C    0.000019  -0.000438  -0.002701   0.000000   0.000000   0.000000
    10  S   -0.000002  -0.000021  -0.000050   0.000000   0.000000   0.000000
    11  O    0.000000   0.000000   0.000000   0.000000   0.000000   0.000000
    12  O    0.000000  -0.000001   0.000012   0.000000   0.000000   0.000000
    13  C    0.000000   0.000000  -0.000019   0.000000   0.000005   0.000004
    14  C    0.000013   0.000064  -0.003251   0.000000   0.000015   0.000000
    15  C    0.000324   0.006039  -0.065233   0.000000  -0.000005   0.000000
    16  C   -0.034608  -0.020791   0.532502   0.000000   0.000000   0.000000
    17  C   -0.037801  -0.045658  -0.045464   0.000000  -0.000001   0.000000
    18  C    0.546418  -0.029050  -0.046483   0.000000   0.000000   0.000000
    19  C    4.883211   0.542700  -0.037858   0.000000   0.000000   0.000000
    20  C    0.542700   4.888887   0.522058   0.000000   0.000000   0.000000
    21  C   -0.037858   0.522058   5.004288   0.000000   0.000000   0.000000
    22  H    0.000000   0.000000   0.000000   0.516355  -0.036299  -0.020427
    23  H    0.000000   0.000000   0.000000  -0.036299   0.556169  -0.027782
    24  H    0.000000   0.000000   0.000000  -0.020427  -0.027782   0.488108
    25  H    0.000000   0.000000   0.000000   0.005082  -0.001384  -0.000002
    26  H    0.000000   0.000000   0.000000  -0.000008  -0.000136  -0.000193
    27  H    0.000000   0.000000   0.000000  -0.001451   0.007008  -0.000110
    28  H    0.000000   0.000000   0.000002  -0.000058   0.002273  -0.000112
    29  H    0.000205   0.001425   0.006171   0.000000   0.000000   0.000000
    30  H   -0.000007   0.000001   0.000038   0.000000   0.000001   0.000000
    31  H    0.000000   0.000000   0.000000   0.000000   0.000000   0.000000
    32  H    0.000000   0.000000   0.000000   0.000000   0.000004  -0.000010
    33  H   -0.000001  -0.000111   0.003885   0.000000   0.000000   0.000000
    34  H    0.000000   0.000003   0.000059   0.000000  -0.000002   0.000000
    35  H    0.000024   0.000038  -0.005512   0.000000   0.000000   0.000000
    36  H   -0.000002  -0.000177   0.004751   0.000000   0.000046   0.000000
    37  H    0.004647   0.000274   0.006166   0.000000   0.000002   0.000000
    38  H   -0.042122   0.004510   0.000730   0.000000   0.000000   0.000000
    39  H    0.363314  -0.041919   0.004625   0.000000   0.000000   0.000000
    40  H   -0.041954   0.361272  -0.039210   0.000000   0.000000   0.000000
    41  H    0.004698  -0.043089   0.360256   0.000000   0.000000   0.000000
              25         26         27         28         29         30
     1  C   -0.003500   0.004184  -0.001040   0.001416   0.000000  -0.000002
     2  N   -0.035456  -0.032738  -0.046038  -0.001084   0.000002   0.000011
     3  C    0.378279   0.374299   0.377855  -0.000122   0.000002  -0.000028
     4  S    0.001743   0.002473  -0.006709  -0.007634   0.000124   0.000621
     5  O   -0.000036   0.000044  -0.000033  -0.000502  -0.000001  -0.000030
     6  O    0.000015   0.010478  -0.000139   0.001495   0.000237   0.019369
     7  N    0.000084  -0.001772   0.003804   0.289748   0.001433  -0.004766
     8  C    0.000006  -0.000030  -0.000238  -0.030280  -0.025979  -0.021303
     9  C   -0.000001   0.000043  -0.000003   0.004834   0.341127   0.322313
    10  S    0.000000   0.000000   0.000000  -0.000216  -0.011756  -0.002281
    11  O    0.000000   0.000000   0.000000   0.000002   0.000679   0.000228
    12  O    0.000000   0.000000   0.000000   0.000001   0.000148   0.001045
    13  C    0.000000  -0.000001   0.000003  -0.001128   0.008506   0.003475
    14  C    0.000000  -0.000001   0.000021  -0.003529  -0.006064   0.003303
    15  C    0.000000   0.000002  -0.000042  -0.000627  -0.001194  -0.000010
    16  C    0.000000   0.000003   0.000002   0.000241   0.005156  -0.000063
    17  C    0.000006   0.000022  -0.000298  -0.000039  -0.000671   0.000087
    18  C    0.000000   0.000000   0.000000   0.000000  -0.000378  -0.000028
    19  C    0.000000   0.000000   0.000000   0.000000   0.000205  -0.000007
    20  C    0.000000   0.000000   0.000000   0.000000   0.001425   0.000001
    21  C    0.000000   0.000000   0.000000   0.000002   0.006171   0.000038
    22  H    0.005082  -0.000008  -0.001451  -0.000058   0.000000   0.000000
    23  H   -0.001384  -0.000136   0.007008   0.002273   0.000000   0.000001
    24  H   -0.000002  -0.000193  -0.000110  -0.000112   0.000000   0.000000
    25  H    0.520091  -0.021892  -0.034679  -0.000031   0.000000   0.000000
    26  H   -0.021892   0.494051  -0.028622  -0.000005  -0.000002  -0.000003
    27  H   -0.034679  -0.028622   0.549416   0.000345   0.000000   0.000018
    28  H   -0.000031  -0.000005   0.000345   0.340990  -0.000035   0.000041
    29  H    0.000000  -0.000002   0.000000  -0.000035   0.458539  -0.012496
    30  H    0.000000  -0.000003   0.000018   0.000041  -0.012496   0.441147
    31  H    0.000000   0.000000   0.000000   0.000253  -0.000263  -0.000221
    32  H    0.000000   0.000000   0.000001   0.000138  -0.000218  -0.000075
    33  H    0.000000   0.000000   0.000000   0.000041   0.000353   0.000124
    34  H    0.000000   0.000000  -0.000001   0.004818   0.000201  -0.000110
    35  H    0.000000   0.000000   0.000000  -0.000155  -0.000018   0.000003
    36  H    0.000000  -0.000012   0.000624   0.001054   0.000101   0.000007
    37  H   -0.000018   0.000216   0.001798  -0.000014   0.000037   0.000044
    38  H    0.000000   0.000001  -0.000002   0.000000   0.000003   0.000001
    39  H    0.000000   0.000000   0.000000   0.000000   0.000000   0.000000
    40  H    0.000000   0.000000   0.000000   0.000000   0.000009   0.000000
    41  H    0.000000   0.000000   0.000000   0.000000   0.000078   0.000000
              31         32         33         34         35         36
     1  C    0.000000   0.000004   0.000000   0.000000   0.000000  -0.000004
     2  N    0.000001   0.000051   0.000001   0.000001   0.000000  -0.000051
     3  C    0.000000  -0.000003   0.000000   0.000000   0.000000   0.000026
     4  S    0.000100   0.003552   0.000058  -0.000158   0.000002   0.000035
     5  O    0.000069   0.017621   0.000001  -0.000002   0.000000   0.000002
     6  O   -0.000001  -0.000576   0.000001   0.000001   0.000000   0.000000
     7  N    0.001914  -0.007753   0.004255  -0.004573   0.000201   0.008349
     8  C   -0.026048  -0.022793  -0.033890  -0.033987   0.005170  -0.011509
     9  C    0.009233   0.003576  -0.006674   0.005457  -0.000068  -0.000330
    10  S   -0.011034  -0.002983   0.007171  -0.000344   0.000019  -0.000010
    11  O    0.000723   0.000178   0.000013   0.000001   0.000000   0.000000
    12  O   -0.000392   0.001031   0.004616   0.000040   0.000000   0.000000
    13  C    0.345055   0.325202  -0.003381  -0.007570  -0.000101   0.000159
    14  C   -0.004452   0.002947   0.365559   0.362664  -0.034887  -0.034690
    15  C    0.000163  -0.000087  -0.031562  -0.031678   0.362823   0.364645
    16  C    0.000010   0.000001  -0.006035   0.004275  -0.030699  -0.033129
    17  C    0.000000   0.000000   0.000066  -0.000087   0.002711  -0.005168
    18  C    0.000000   0.000000   0.000007   0.000002  -0.000219   0.000249
    19  C    0.000000   0.000000  -0.000001   0.000000   0.000024  -0.000002
    20  C    0.000000   0.000000  -0.000111   0.000003   0.000038  -0.000177
    21  C    0.000000   0.000000   0.003885   0.000059  -0.005512   0.004751
    22  H    0.000000   0.000000   0.000000   0.000000   0.000000   0.000000
    23  H    0.000000   0.000004   0.000000  -0.000002   0.000000   0.000046
    24  H    0.000000  -0.000010   0.000000   0.000000   0.000000   0.000000
    25  H    0.000000   0.000000   0.000000   0.000000   0.000000   0.000000
    26  H    0.000000   0.000000   0.000000   0.000000   0.000000  -0.000012
    27  H    0.000000   0.000001   0.000000  -0.000001   0.000000   0.000624
    28  H    0.000253   0.000138   0.000041   0.004818  -0.000155   0.001054
    29  H   -0.000263  -0.000218   0.000353   0.000201  -0.000018   0.000101
    30  H   -0.000221  -0.000075   0.000124  -0.000110   0.000003   0.000007
    31  H    0.462347  -0.014552   0.000031   0.003862  -0.000018   0.000000
    32  H   -0.014552   0.454100   0.000097   0.000092   0.000002   0.000003
    33  H    0.000031   0.000097   0.541900  -0.028267  -0.002735   0.004745
    34  H    0.003862   0.000092  -0.028267   0.555589  -0.004540  -0.002605
    35  H   -0.000018   0.000002  -0.002735  -0.004540   0.567456  -0.031750
    36  H    0.000000   0.000003   0.004745  -0.002605  -0.031750   0.565268
    37  H    0.000000   0.000000   0.000005  -0.000018   0.000117   0.006214
    38  H    0.000000   0.000000   0.000000   0.000000   0.000003  -0.000008
    39  H    0.000000   0.000000   0.000000   0.000000   0.000000   0.000000
    40  H    0.000000   0.000000   0.000004   0.000000  -0.000003   0.000003
    41  H    0.000000   0.000000   0.001965  -0.000104   0.002836   0.000042
              37         38         39         40         41
     1  C    0.000000   0.000000   0.000000   0.000000   0.000000
     2  N   -0.000077   0.000000   0.000000   0.000000   0.000000
     3  C    0.000714  -0.000001   0.000000   0.000000   0.000000
     4  S    0.000117   0.000000   0.000000   0.000000   0.000000
     5  O    0.000000   0.000000   0.000000   0.000000   0.000000
     6  O   -0.000006   0.000000   0.000000   0.000000   0.000000
     7  N    0.001461   0.000000   0.000000   0.000000   0.000001
     8  C   -0.000244   0.000001   0.000000   0.000000   0.000106
     9  C   -0.000024  -0.000003   0.000000  -0.000003  -0.000029
    10  S    0.000003   0.000000   0.000000   0.000000   0.000001
    11  O    0.000000   0.000000   0.000000   0.000000   0.000000
    12  O    0.000000   0.000000   0.000000   0.000000  -0.000002
    13  C    0.000005   0.000000   0.000000   0.000000   0.000000
    14  C    0.000211   0.000001   0.000000   0.000001   0.000635
    15  C   -0.010927  -0.000168   0.000007  -0.000172  -0.008093
    16  C   -0.041258   0.003696   0.000619   0.003581  -0.046581
    17  C    0.355720  -0.038385   0.004566   0.000724   0.005887
    18  C   -0.045168   0.360685  -0.042117   0.004550   0.000281
    19  C    0.004647  -0.042122   0.363314  -0.041954   0.004698
    20  C    0.000274   0.004510  -0.041919   0.361272  -0.043089
    21  C    0.006166   0.000730   0.004625  -0.039210   0.360256
    22  H    0.000000   0.000000   0.000000   0.000000   0.000000
    23  H    0.000002   0.000000   0.000000   0.000000   0.000000
    24  H    0.000000   0.000000   0.000000   0.000000   0.000000
    25  H   -0.000018   0.000000   0.000000   0.000000   0.000000
    26  H    0.000216   0.000001   0.000000   0.000000   0.000000
    27  H    0.001798  -0.000002   0.000000   0.000000   0.000000
    28  H   -0.000014   0.000000   0.000000   0.000000   0.000000
    29  H    0.000037   0.000003   0.000000   0.000009   0.000078
    30  H    0.000044   0.000001   0.000000   0.000000   0.000000
    31  H    0.000000   0.000000   0.000000   0.000000   0.000000
    32  H    0.000000   0.000000   0.000000   0.000000   0.000000
    33  H    0.000005   0.000000   0.000000   0.000004   0.001965
    34  H   -0.000018   0.000000   0.000000   0.000000  -0.000104
    35  H    0.000117   0.000003   0.000000  -0.000003   0.002836
    36  H    0.006214  -0.000008   0.000000   0.000003   0.000042
    37  H    0.579231  -0.005145  -0.000163   0.000016  -0.000164
    38  H   -0.005145   0.571781  -0.005252  -0.000174   0.000016
    39  H   -0.000163  -0.005252   0.572104  -0.005161  -0.000167
    40  H    0.000016  -0.000174  -0.005161   0.571263  -0.005259
    41  H   -0.000164   0.000016  -0.000167  -0.005259   0.579434
 Mulliken charges:
               1
     1  C   -0.329637
     2  N   -0.518464
     3  C   -0.326017
     4  S    1.313889
     5  O   -0.564064
     6  O   -0.574122
     7  N   -0.723412
     8  C    0.181298
     9  C   -0.499916
    10  S    1.100298
    11  O   -0.560052
    12  O   -0.574879
    13  C   -0.502680
    14  C   -0.314973
    15  C   -0.346037
    16  C    0.150133
    17  C   -0.198428
    18  C   -0.146634
    19  C   -0.151227
    20  C   -0.146023
    21  C   -0.198921
    22  H    0.194423
    23  H    0.176178
    24  H    0.203309
    25  H    0.191696
    26  H    0.199599
    27  H    0.178509
    28  H    0.397882
    29  H    0.234538
    30  H    0.249546
    31  H    0.233222
    32  H    0.240451
    33  H    0.177757
    34  H    0.176978
    35  H    0.169298
    36  H    0.163118
    37  H    0.146227
    38  H    0.149831
    39  H    0.149545
    40  H    0.150513
    41  H    0.147250
 Sum of Mulliken charges =   0.00000
 Mulliken charges with hydrogens summed into heavy atoms:
               1
     1  C    0.244273
     2  N   -0.518464
     3  C    0.243786
     4  S    1.313889
     5  O   -0.564064
     6  O   -0.574122
     7  N   -0.325530
     8  C    0.181298
     9  C   -0.015831
    10  S    1.100298
    11  O   -0.560052
    12  O   -0.574879
    13  C   -0.029007
    14  C    0.039762
    15  C   -0.013620
    16  C    0.150133
    17  C   -0.052201
    18  C    0.003197
    19  C   -0.001682
    20  C    0.004490
    21  C   -0.051672
 Electronic spatial extent (au):  <R**2>=           7247.6976
 Charge=              0.0000 electrons
 Dipole moment (field-independent basis, Debye):
    X=              0.6796    Y=            -10.4866    Z=              7.5700  Tot=             12.9513
 Quadrupole moment (field-independent basis, Debye-Ang):
   XX=           -137.6335   YY=           -153.8203   ZZ=           -133.4180
   XY=            -10.3563   XZ=             13.7400   YZ=             11.1093
 Traceless Quadrupole moment (field-independent basis, Debye-Ang):
   XX=              3.9904   YY=            -12.1964   ZZ=              8.2060
   XY=            -10.3563   XZ=             13.7400   YZ=             11.1093
 Octapole moment (field-independent basis, Debye-Ang**2):
  XXX=              1.3995  YYY=           -118.9323  ZZZ=             24.4575  XYY=             79.6180
  XXY=            -53.1348  XXZ=             13.4284  XZZ=             -2.4866  YZZ=            -11.1447
  YYZ=             21.0345  XYZ=             -8.3105
 Hexadecapole moment (field-independent basis, Debye-Ang**3):
 XXXX=          -5029.6816 YYYY=          -3495.6739 ZZZZ=           -985.6396 XXXY=           -253.1899
 XXXZ=            148.9169 YYYX=            -62.3440 YYYZ=            149.6257 ZZZX=             28.1750
 ZZZY=             26.4136 XXYY=          -1397.0923 XXZZ=          -1006.6673 YYZZ=           -703.5730
 XXYZ=             18.6616 YYXZ=             59.7891 ZZXY=            -10.7859
 N-N= 2.216986744949D+03 E-N=-8.460002330053D+03  KE= 1.702489132058D+03
 No NMR shielding tensors so no spin-rotation constants.
 Leave Link  601 at Thu Oct  1 21:51:31 2020, MaxMem=  2147483648 cpu:         0.3
 (Enter /prod/apps/gaussian/g09d1/l9999.exe)
 1\1\GINC-PIRINEUS16\SP\RB3LYP\6-31G(d)\C13H20N2O4S2\UBAFAR01\01-Oct-20
 20\0\\#p b3lyp/6-31G(d) scrf=(iefpcm,read,solvent=Water) geom=allcheck
  guess=read\\SM40.n.14.pdb.xyz\\0,1\C,0,2.614,0.897,1.091\N,0,2.214,-0
 .308,0.35\C,0,2.089,-0.137,-1.104\S,0,2.769,-1.772,0.88\O,0,2.756,-1.7
 36,2.35\O,0,2.007,-2.828,0.205\N,0,4.348,-1.852,0.266\C,0,5.197,-3.053
 ,0.403\C,0,4.61,-4.309,-0.328\S,0,4.971,-5.336,1.133\O,0,3.797,-6.033,
 1.694\O,0,6.225,-6.104,0.968\C,0,5.278,-3.687,1.845\C,0,6.613,-2.671,-
 0.077\C,0,6.73,-1.979,-1.448\C,0,6.386,-2.822,-2.658\C,0,5.236,-2.558,
 -3.414\C,0,4.916,-3.332,-4.531\C,0,5.745,-4.388,-4.913\C,0,6.899,-4.65
 9,-4.172\C,0,7.217,-3.881,-3.058\H,0,1.847,1.655,0.922\H,0,3.58,1.289,
 0.752\H,0,2.659,0.669,2.154\H,0,1.341,0.639,-1.282\H,0,1.741,-1.067,-1
 .549\H,0,3.037,0.164,-1.563\H,0,4.848,-1.025,0.604\H,0,5.129,-4.639,-1
 .224\H,0,3.534,-4.248,-0.484\H,0,6.237,-3.603,2.357\H,0,4.458,-3.393,2
 .5\H,0,7.222,-3.58,-0.061\H,0,7.045,-2.002,0.675\H,0,7.77,-1.64,-1.533
 \H,0,6.111,-1.078,-1.45\H,0,4.587,-1.737,-3.121\H,0,4.02,-3.11,-5.102\
 H,0,5.499,-4.992,-5.78\H,0,7.556,-5.472,-4.465\H,0,8.121,-4.095,-2.495
 \\Version=AM64L-G09RevD.01\State=1-A\HF=-1714.0634675\RMSD=6.994e-09\D
 ipole=1.4901698,4.5852642,-1.6487006\Quadrupole=-1.0121004,2.0078536,-
 0.9957532,-4.1234909,9.8490029,13.3772571\PG=C01 [X(C13H20N2O4S2)]\\@


 CHARLIE BROWN -- WHICH DO YOU THINK LASTS LONGER IN LIFE, THE GOOD THINGS 
                  OR THE BAD THINGS?
 LINUS --         GOOD THINGS LAST EIGHT SECONDS ..
                  BAD THINGS LAST THREE WEEKS
 CHARLIE BROWN -- WHAT ABOUT IN BETWEEN?
 SNOOPY --        IN BETWEEN YOU SHOULD TAKE A NAP ...
 Job cpu time:       0 days  0 hours  5 minutes 15.1 seconds.
 File lengths (MBytes):  RWF=    226 Int=      0 D2E=      0 Chk=      7 Scr=      1
 Normal termination of Gaussian 09 at Thu Oct  1 21:51:31 2020.
