 Entering Gaussian System, Link 0=g09
 Initial command:
 /prod/apps/gaussian/g09d1/l1.exe "/tmp/ubafar01/1462855/Gau-53244.inp" -scrdir="/tmp/ubafar01/1462855/"
 Entering Link 1 = /prod/apps/gaussian/g09d1/l1.exe PID=     53248.
  
 Copyright (c) 1988,1990,1992,1993,1995,1998,2003,2009,2013,
            Gaussian, Inc.  All Rights Reserved.
  
 This is part of the Gaussian(R) 09 program.  It is based on
 the Gaussian(R) 03 system (copyright 2003, Gaussian, Inc.),
 the Gaussian(R) 98 system (copyright 1998, Gaussian, Inc.),
 the Gaussian(R) 94 system (copyright 1995, Gaussian, Inc.),
 the Gaussian 92(TM) system (copyright 1992, Gaussian, Inc.),
 the Gaussian 90(TM) system (copyright 1990, Gaussian, Inc.),
 the Gaussian 88(TM) system (copyright 1988, Gaussian, Inc.),
 the Gaussian 86(TM) system (copyright 1986, Carnegie Mellon
 University), and the Gaussian 82(TM) system (copyright 1983,
 Carnegie Mellon University). Gaussian is a federally registered
 trademark of Gaussian, Inc.
  
 This software contains proprietary and confidential information,
 including trade secrets, belonging to Gaussian, Inc.
  
 This software is provided under written license and may be
 used, copied, transmitted, or stored only in accord with that
 written license.
  
 The following legend is applicable only to US Government
 contracts under FAR:
  
                    RESTRICTED RIGHTS LEGEND
  
 Use, reproduction and disclosure by the US Government is
 subject to restrictions as set forth in subparagraphs (a)
 and (c) of the Commercial Computer Software - Restricted
 Rights clause in FAR 52.227-19.
  
 Gaussian, Inc.
 340 Quinnipiac St., Bldg. 40, Wallingford CT 06492
  
  
 ---------------------------------------------------------------
 Warning -- This program may not be used in any manner that
 competes with the business of Gaussian, Inc. or will provide
 assistance to any competitor of Gaussian, Inc.  The licensee
 of this program is prohibited from giving any competitor of
 Gaussian, Inc. access to this program.  By using this program,
 the user acknowledges that Gaussian, Inc. is engaged in the
 business of creating and licensing software in the field of
 computational chemistry and represents and warrants to the
 licensee that it is not a competitor of Gaussian, Inc. and that
 it will not use this program in any manner prohibited above.
 ---------------------------------------------------------------
  

 Cite this work as:
 Gaussian 09, Revision D.01,
 M. J. Frisch, G. W. Trucks, H. B. Schlegel, G. E. Scuseria, 
 M. A. Robb, J. R. Cheeseman, G. Scalmani, V. Barone, B. Mennucci, 
 G. A. Petersson, H. Nakatsuji, M. Caricato, X. Li, H. P. Hratchian, 
 A. F. Izmaylov, J. Bloino, G. Zheng, J. L. Sonnenberg, M. Hada, 
 M. Ehara, K. Toyota, R. Fukuda, J. Hasegawa, M. Ishida, T. Nakajima, 
 Y. Honda, O. Kitao, H. Nakai, T. Vreven, J. A. Montgomery, Jr., 
 J. E. Peralta, F. Ogliaro, M. Bearpark, J. J. Heyd, E. Brothers, 
 K. N. Kudin, V. N. Staroverov, T. Keith, R. Kobayashi, J. Normand, 
 K. Raghavachari, A. Rendell, J. C. Burant, S. S. Iyengar, J. Tomasi, 
 M. Cossi, N. Rega, J. M. Millam, M. Klene, J. E. Knox, J. B. Cross, 
 V. Bakken, C. Adamo, J. Jaramillo, R. Gomperts, R. E. Stratmann, 
 O. Yazyev, A. J. Austin, R. Cammi, C. Pomelli, J. W. Ochterski, 
 R. L. Martin, K. Morokuma, V. G. Zakrzewski, G. A. Voth, 
 P. Salvador, J. J. Dannenberg, S. Dapprich, A. D. Daniels, 
 O. Farkas, J. B. Foresman, J. V. Ortiz, J. Cioslowski, 
 and D. J. Fox, Gaussian, Inc., Wallingford CT, 2013.
 
 ******************************************
 Gaussian 09:  AM64L-G09RevD.01 24-Apr-2013
                 1-Oct-2020 
 ******************************************
 %nproc=1
 Will use up to    1 processors via shared memory.
 %Chk=SM40.n.11.pdb.xyz.mst.n.w.chk
 %mem=16GB
 -----------------
 #p b3lyp/6-31G(d)
 -----------------
 1/38=1/1;
 2/12=2,17=6,18=5,40=1/2;
 3/5=1,6=6,7=1,11=2,16=1,25=1,30=1,74=-5/1,2,3;
 4//1;
 5/5=2,38=5/2;
 6/7=2,8=2,9=2,10=2,28=1/1;
 99/5=1,9=1/99;
 Leave Link    1 at Thu Oct  1 22:02:52 2020, MaxMem=  2147483648 cpu:         0.0
 (Enter /prod/apps/gaussian/g09d1/l101.exe)
 -----------------
 SM40.n.11.pdb.xyz
 -----------------
 Symbolic Z-matrix:
 Charge =  0 Multiplicity = 1
 C                     2.236     0.566    -0.497 
 N                     2.84      0.108     0.764 
 C                     1.949    -0.704     1.606 
 S                     4.414    -0.424     0.678 
 O                     5.141     0.54     -0.158 
 O                     4.874    -0.68      2.046 
 N                     4.317    -1.933    -0.086 
 C                     5.349    -2.971     0.162 
 C                     4.881    -4.223    -0.649 
 S                     4.161    -4.94      0.868 
 O                     2.706    -4.703     0.963 
 O                     4.667    -6.288     1.194 
 C                     5.136    -3.579     1.585 
 C                     6.767    -2.469    -0.159 
 C                     7.909    -3.471     0.022 
 C                     9.28     -2.926    -0.34 
 C                     9.486    -1.604    -0.746 
 C                     10.765   -1.143    -1.069 
 C                     11.863   -1.999    -0.99 
 C                     11.67    -3.324    -0.585 
 C                     10.392   -3.778    -0.265 
 H                     1.373     1.184    -0.241 
 H                     1.899    -0.27     -1.123 
 H                     2.956     1.172    -1.043 
 H                     1.051    -0.113     1.793 
 H                     2.44     -0.91      2.555 
 H                     1.669    -1.646     1.122 
 H                     4.189    -1.772    -1.089 
 H                     5.701    -4.85     -0.997 
 H                     4.162    -4.049    -1.448 
 H                     6.046    -3.981     2.032 
 H                     4.6      -2.954     2.293 
 H                     6.952    -1.596     0.474 
 H                     6.755    -2.109    -1.192 
 H                     7.726    -4.368    -0.583 
 H                     7.94     -3.815     1.062 
 H                     8.645    -0.924    -0.814 
 H                     10.899   -0.112    -1.382 
 H                     12.856   -1.642    -1.241 
 H                     12.515   -4.002    -0.519 
 H                     10.251   -4.809     0.048 
 
 NAtoms=     41 NQM=       41 NQMF=       0 NMMI=      0 NMMIF=      0
                NMic=       0 NMicF=      0.
                    Isotopes and Nuclear Properties:
 (Nuclear quadrupole moments (NQMom) in fm**2, nuclear magnetic moments (NMagM)
  in nuclear magnetons)

  Atom         1           2           3           4           5           6           7           8           9          10
 IAtWgt=          12          14          12          32          16          16          14          12          12          32
 AtmWgt=  12.0000000  14.0030740  12.0000000  31.9720718  15.9949146  15.9949146  14.0030740  12.0000000  12.0000000  31.9720718
 NucSpn=           0           2           0           0           0           0           2           0           0           0
 AtZEff=   0.0000000   0.0000000   0.0000000   0.0000000   0.0000000   0.0000000   0.0000000   0.0000000   0.0000000   0.0000000
 NQMom=    0.0000000   2.0440000   0.0000000   0.0000000   0.0000000   0.0000000   2.0440000   0.0000000   0.0000000   0.0000000
 NMagM=    0.0000000   0.4037610   0.0000000   0.0000000   0.0000000   0.0000000   0.4037610   0.0000000   0.0000000   0.0000000
 AtZNuc=   6.0000000   7.0000000   6.0000000  16.0000000   8.0000000   8.0000000   7.0000000   6.0000000   6.0000000  16.0000000

  Atom        11          12          13          14          15          16          17          18          19          20
 IAtWgt=          16          16          12          12          12          12          12          12          12          12
 AtmWgt=  15.9949146  15.9949146  12.0000000  12.0000000  12.0000000  12.0000000  12.0000000  12.0000000  12.0000000  12.0000000
 NucSpn=           0           0           0           0           0           0           0           0           0           0
 AtZEff=   0.0000000   0.0000000   0.0000000   0.0000000   0.0000000   0.0000000   0.0000000   0.0000000   0.0000000   0.0000000
 NQMom=    0.0000000   0.0000000   0.0000000   0.0000000   0.0000000   0.0000000   0.0000000   0.0000000   0.0000000   0.0000000
 NMagM=    0.0000000   0.0000000   0.0000000   0.0000000   0.0000000   0.0000000   0.0000000   0.0000000   0.0000000   0.0000000
 AtZNuc=   8.0000000   8.0000000   6.0000000   6.0000000   6.0000000   6.0000000   6.0000000   6.0000000   6.0000000   6.0000000

  Atom        21          22          23          24          25          26          27          28          29          30
 IAtWgt=          12           1           1           1           1           1           1           1           1           1
 AtmWgt=  12.0000000   1.0078250   1.0078250   1.0078250   1.0078250   1.0078250   1.0078250   1.0078250   1.0078250   1.0078250
 NucSpn=           0           1           1           1           1           1           1           1           1           1
 AtZEff=   0.0000000   0.0000000   0.0000000   0.0000000   0.0000000   0.0000000   0.0000000   0.0000000   0.0000000   0.0000000
 NQMom=    0.0000000   0.0000000   0.0000000   0.0000000   0.0000000   0.0000000   0.0000000   0.0000000   0.0000000   0.0000000
 NMagM=    0.0000000   2.7928460   2.7928460   2.7928460   2.7928460   2.7928460   2.7928460   2.7928460   2.7928460   2.7928460
 AtZNuc=   6.0000000   1.0000000   1.0000000   1.0000000   1.0000000   1.0000000   1.0000000   1.0000000   1.0000000   1.0000000

  Atom        31          32          33          34          35          36          37          38          39          40
 IAtWgt=           1           1           1           1           1           1           1           1           1           1
 AtmWgt=   1.0078250   1.0078250   1.0078250   1.0078250   1.0078250   1.0078250   1.0078250   1.0078250   1.0078250   1.0078250
 NucSpn=           1           1           1           1           1           1           1           1           1           1
 AtZEff=   0.0000000   0.0000000   0.0000000   0.0000000   0.0000000   0.0000000   0.0000000   0.0000000   0.0000000   0.0000000
 NQMom=    0.0000000   0.0000000   0.0000000   0.0000000   0.0000000   0.0000000   0.0000000   0.0000000   0.0000000   0.0000000
 NMagM=    2.7928460   2.7928460   2.7928460   2.7928460   2.7928460   2.7928460   2.7928460   2.7928460   2.7928460   2.7928460
 AtZNuc=   1.0000000   1.0000000   1.0000000   1.0000000   1.0000000   1.0000000   1.0000000   1.0000000   1.0000000   1.0000000

  Atom        41
 IAtWgt=           1
 AtmWgt=   1.0078250
 NucSpn=           1
 AtZEff=   0.0000000
 NQMom=    0.0000000
 NMagM=    2.7928460
 AtZNuc=   1.0000000
 Leave Link  101 at Thu Oct  1 22:02:52 2020, MaxMem=  2147483648 cpu:         0.1
 (Enter /prod/apps/gaussian/g09d1/l202.exe)
                          Input orientation:                          
 ---------------------------------------------------------------------
 Center     Atomic      Atomic             Coordinates (Angstroms)
 Number     Number       Type             X           Y           Z
 ---------------------------------------------------------------------
      1          6           0        2.236000    0.566000   -0.497000
      2          7           0        2.840000    0.108000    0.764000
      3          6           0        1.949000   -0.704000    1.606000
      4         16           0        4.414000   -0.424000    0.678000
      5          8           0        5.141000    0.540000   -0.158000
      6          8           0        4.874000   -0.680000    2.046000
      7          7           0        4.317000   -1.933000   -0.086000
      8          6           0        5.349000   -2.971000    0.162000
      9          6           0        4.881000   -4.223000   -0.649000
     10         16           0        4.161000   -4.940000    0.868000
     11          8           0        2.706000   -4.703000    0.963000
     12          8           0        4.667000   -6.288000    1.194000
     13          6           0        5.136000   -3.579000    1.585000
     14          6           0        6.767000   -2.469000   -0.159000
     15          6           0        7.909000   -3.471000    0.022000
     16          6           0        9.280000   -2.926000   -0.340000
     17          6           0        9.486000   -1.604000   -0.746000
     18          6           0       10.765000   -1.143000   -1.069000
     19          6           0       11.863000   -1.999000   -0.990000
     20          6           0       11.670000   -3.324000   -0.585000
     21          6           0       10.392000   -3.778000   -0.265000
     22          1           0        1.373000    1.184000   -0.241000
     23          1           0        1.899000   -0.270000   -1.123000
     24          1           0        2.956000    1.172000   -1.043000
     25          1           0        1.051000   -0.113000    1.793000
     26          1           0        2.440000   -0.910000    2.555000
     27          1           0        1.669000   -1.646000    1.122000
     28          1           0        4.189000   -1.772000   -1.089000
     29          1           0        5.701000   -4.850000   -0.997000
     30          1           0        4.162000   -4.049000   -1.448000
     31          1           0        6.046000   -3.981000    2.032000
     32          1           0        4.600000   -2.954000    2.293000
     33          1           0        6.952000   -1.596000    0.474000
     34          1           0        6.755000   -2.109000   -1.192000
     35          1           0        7.726000   -4.368000   -0.583000
     36          1           0        7.940000   -3.815000    1.062000
     37          1           0        8.645000   -0.924000   -0.814000
     38          1           0       10.899000   -0.112000   -1.382000
     39          1           0       12.856000   -1.642000   -1.241000
     40          1           0       12.515000   -4.002000   -0.519000
     41          1           0       10.251000   -4.809000    0.048000
 ---------------------------------------------------------------------
                    Distance matrix (angstroms):
                    1          2          3          4          5
     1  C    0.000000
     2  N    1.471292   0.000000
     3  C    2.473434   1.470438   0.000000
     4  S    2.665410   1.663699   2.648737   0.000000
     5  O    2.924829   2.516209   3.853323   1.468578   0.000000
     6  O    3.870195   2.530143   2.958006   1.465797   2.533240
     7  N    3.277878   2.658893   3.159229   1.694162   2.607660
     8  C    4.757669   4.017179   4.334100   2.761827   3.531683
     9  C    5.472993   4.991975   5.105390   4.051101   4.795295
    10  S    5.990399   5.219019   4.835420   4.527070   5.660696
    11  O    5.487701   4.816978   4.120497   4.616095   5.888541
    12  O    7.466362   6.665707   6.224012   5.892093   6.976687
    13  C    5.470443   4.420365   4.292206   3.361244   4.472609
    14  C    5.464012   4.786877   5.426193   3.227879   3.420228
    15  C    6.982096   6.249365   6.759212   4.682902   4.876715
    16  C    7.863628   7.203997   7.903655   5.565455   5.401629
    17  C    7.571882   7.027116   7.946589   5.398644   4.880728
    18  C    8.717322   8.229855   9.223351   6.626022   5.940689
    19  C    9.975039   9.430297  10.329745   7.794258   7.233535
    20  C   10.204911   9.569082  10.303530   7.915473   7.598728
    21  C    9.243619   8.555264   9.177928   6.919180   6.799233
    22  H    1.091892   2.078435   2.703281   3.560605   3.823539
    23  H    1.097425   2.142226   2.763747   3.097183   3.478202
    24  H    1.088004   2.100191   3.398621   2.763118   2.440671
    25  H    2.666339   2.075621   1.091171   3.556644   4.578309
    26  H    3.396306   2.098572   1.088172   2.766948   4.093687
    27  H    2.799213   2.139140   1.095454   3.037342   4.297881
    28  H    3.103372   2.964424   3.663502   2.233835   2.668035
    29  H    6.448975   5.989007   6.167854   4.904230   5.483577
    30  H    5.090393   4.890938   5.041162   4.209989   4.866360
    31  H    6.448810   5.348475   5.263612   4.141134   5.104367
    32  H    5.075726   3.848543   3.544329   3.007278   4.302106
    33  H    5.278043   4.460522   5.206448   2.802971   2.870826
    34  H    5.297170   4.905940   5.735893   3.437500   3.269763
    35  H    7.381860   6.761803   7.182642   5.302320   5.563391
    36  H    7.359297   6.441175   6.772469   4.907037   5.318724
    37  H    6.587554   6.103534   7.123287   4.514136   3.853784
    38  H    8.734442   8.342733   9.454158   6.811473   5.922655
    39  H   10.872589  10.363531  11.311406   8.742623   8.090441
    40  H   11.248331  10.589798  11.270882   8.936503   8.668100
    41  H    9.665810   8.922582   9.391570   7.327735   7.400428
                    6          7          8          9         10
     6  O    0.000000
     7  N    2.534893   0.000000
     8  C    3.003958   1.484578   0.000000
     9  C    4.451508   2.424699   1.563409   0.000000
    10  S    4.477014   3.158560   2.405565   1.825864   0.000000
    11  O    4.696556   3.371739   3.259889   2.749467   1.477234
    12  O    5.676127   4.552683   3.540146   2.776089   1.476285
    13  C    2.947095   2.484415   1.562038   2.338914   1.821273
    14  C    3.412623   2.509009   1.538106   2.621757   3.735212
    15  C    4.593200   3.908909   2.612126   3.191321   4.113536
    16  C    5.490933   5.067735   3.963179   4.596617   5.632017
    17  C    5.469880   5.221341   4.450609   5.298546   6.487643
    18  C    6.679931   6.570167   5.847222   6.654642   7.860152
    19  C    7.733251   7.600243   6.686111   7.335583   8.451180
    20  C    7.752323   7.500033   6.374767   6.848563   7.817144
    21  C    6.736961   6.351511   5.124981   5.542256   6.438889
    22  H    4.578413   4.290321   5.764981   6.458187   6.819546
    23  H    4.365923   3.112501   4.566084   4.974255   5.557844
    24  H    4.080508   3.522669   4.933855   5.741680   6.516171
    25  H    3.873090   4.184471   5.413052   6.125713   5.816155
    26  H    2.497266   3.397726   4.293769   5.215368   4.695605
    27  H    3.472601   2.924643   4.027360   4.482668   4.138238
    28  H    3.389678   1.023872   2.085234   2.584543   3.723823
    29  H    5.228066   3.354738   2.235582   1.089327   2.420315
    30  H    4.905623   2.521215   2.272257   1.088870   2.481479
    31  H    3.502910   3.416090   2.236696   2.933181   2.414084
    32  H    2.303728   2.604260   2.258861   3.216316   2.483454
    33  H    2.761942   2.714847   2.134848   3.528640   4.373472
    34  H    4.008098   2.682919   2.133822   2.876755   4.357407
    35  H    5.352279   4.218710   2.856005   2.849457   3.891248
    36  H    4.494089   4.240985   2.869776   3.528663   3.947670
    37  H    4.739154   4.503293   4.000800   5.007826   6.250091
    38  H    6.955173   6.951142   6.431199   7.324885   8.589105
    39  H    8.685743   8.621672   7.751755   8.403133   9.535602
    40  H    8.717786   8.466136   7.271745   7.638305   8.520148
    41  H    7.067728   6.595581   5.236492   5.446660   6.146353
                   11         12         13         14         15
    11  O    0.000000
    12  O    2.532016   0.000000
    13  C    2.748665   2.776963   0.000000
    14  C    4.768790   4.563482   2.633210   0.000000
    15  C    5.429044   4.451925   3.184990   1.530009   0.000000
    16  C    6.933471   5.910666   4.615709   2.560621   1.519115
    17  C    7.648064   6.994728   5.315702   2.913032   2.561726
    18  C    9.041576   8.293238   6.683072   4.309336   3.842734
    19  C    9.745587   8.657239   7.374249   5.184658   4.338784
    20  C    9.200611   7.809747   6.889636   4.995189   3.812503
    21  C    7.838253   6.419066   5.575629   3.855560   2.518314
    22  H    6.154939   8.290986   6.338818   6.515088   8.028542
    23  H    4.965293   7.017595   5.362920   5.427921   6.904891
    24  H    6.213064   7.973913   5.850708   5.344348   6.871964
    25  H    4.949346   7.180869   5.361310   6.483340   7.838671
    26  H    4.122144   5.977854   3.915722   5.340338   6.548647
    27  H    3.232012   5.526423   3.996367   5.320516   6.593802
    28  H    3.873081   5.082797   3.363381   2.827860   4.237844
    29  H    3.582350   2.817354   2.932813   2.740029   2.795580
    30  H    2.891466   3.499759   3.220041   3.308164   4.066324
    31  H    3.580453   2.815339   1.090648   2.757982   2.787646
    32  H    2.900886   3.511103   1.085903   3.308084   4.046506
    33  H    5.284041   5.268253   2.909376   1.094095   2.153086
    34  H    5.269465   5.245644   3.534656   1.093999   2.158832
    35  H    5.263339   4.025122   3.468551   2.169253   1.097325
    36  H    5.309718   4.104349   2.862104   2.162981   1.095854
    37  H    7.260185   6.973453   5.011717   2.518518   2.779892
    38  H    9.679956   9.144210   7.350874   4.911680   4.711072
    39  H   10.828196   9.724930   8.446102   6.239437   5.423396
    40  H    9.945059   8.351723   7.684750   5.959798   4.667963
    41  H    7.601019   5.889127   5.480738   4.201988   2.697385
                   16         17         18         19         20
    16  C    0.000000
    17  C    1.398197   0.000000
    18  C    2.432233   1.397387   0.000000
    19  C    2.820234   2.421919   1.394482   0.000000
    20  C    2.435268   2.784632   2.410403   1.398892   0.000000
    21  C    1.402880   2.403845   2.780067   2.419568   1.393485
    22  H    8.911933   8.593529   9.711343  10.987838  11.245826
    23  H    7.883311   7.712604   8.909040  10.113774  10.251283
    24  H    7.568407   7.101780   8.144961   9.454771   9.816189
    25  H    8.954278   8.934138  10.179083  11.322607  11.345861
    26  H    7.696160   7.811809   9.082582  10.126494  10.043898
    27  H    7.855136   8.037206   9.369669  10.416467  10.283459
    28  H    5.273613   5.310752   6.606044   7.677995   7.656898
    29  H    4.116147   4.992569   6.276235   6.789587   6.174737
    30  H    5.355625   5.900492   7.224132   7.982335   7.592131
    31  H    4.147067   5.020061   6.319763   6.848233   6.237765
    32  H    5.369904   5.910247   7.251896   8.027533   7.642296
    33  H    2.801978   2.812405   4.138240   5.140392   5.134880
    34  H    2.787296   2.812881   4.126546   5.113176   5.099206
    35  H    2.133853   3.280833   4.457841   4.784619   4.079838
    36  H    2.133430   3.247692   4.434114   4.785237   4.106895
    37  H    2.153115   1.083654   2.146482   3.397370   3.868212
    38  H    3.409622   2.151076   1.085765   2.154931   3.398028
    39  H    3.904899   3.406372   2.156587   1.084665   2.160106
    40  H    3.413948   3.869984   3.396893   2.158461   1.085387
    41  H    2.153851   3.389349   3.866709   3.401777   2.149296
                   21         22         23         24         25
    21  C    0.000000
    22  H   10.293900   0.000000
    23  H    9.228937   1.780089   0.000000
    24  H    8.966710   1.774609   1.789696   0.000000
    25  H   10.243138   2.433731   3.040857   3.650088   0.000000
    26  H    8.911348   3.652525   3.772263   4.188864   1.773464
    27  H    9.086249   3.155041   2.643161   3.779513   1.783887
    28  H    6.571166   4.169760   2.738843   3.192106   4.572226
    29  H    4.867288   7.464066   5.953779   6.618280   7.200401
    30  H    6.347112   6.051418   4.416745   5.373761   5.972813
    31  H    4.919871   7.326710   6.397121   6.749603   6.322070
    32  H    6.385108   5.827326   5.115497   5.554773   4.573476
    33  H    4.140150   6.274143   5.462737   5.092262   6.225821
    34  H    4.107634   6.380766   5.193016   5.021908   6.740167
    35  H    2.748960   8.444068   7.144168   7.325032   8.264746
    36  H    2.788297   8.355435   7.337229   7.358087   7.854775
    37  H    3.390977   7.593022   6.784667   6.067156   8.069883
    38  H    3.865785   9.681228   9.005112   8.053249  10.347160
    39  H    3.403875  11.867837  11.043195  10.294066  12.284178
    40  H    2.149842  12.292927  11.269077  10.882065  12.324486
    41  H    1.086651  10.715337   9.577561   9.496298  10.475564
                   26         27         28         29         30
    26  H    0.000000
    27  H    1.785952   0.000000
    28  H    4.132890   3.354817   0.000000
    29  H    6.226911   5.568914   3.430553   0.000000
    30  H    5.370532   4.312118   2.305285   1.792630   0.000000
    31  H    4.765271   5.043655   4.250738   3.170020   3.957838
    32  H    2.985327   3.416558   3.606102   3.953621   3.922493
    33  H    5.015905   5.322828   3.179326   3.783828   4.182749
    34  H    5.839250   5.606814   2.590084   2.943131   3.248505
    35  H    7.053127   6.855914   4.416517   2.122344   3.681315
    36  H    6.396724   6.635782   4.782327   3.213071   4.541821
    37  H    7.060622   7.275573   4.544300   4.910611   5.501352
    38  H    9.364372   9.685870   6.918493   7.043868   7.803300
    39  H   11.110288  11.433842   8.669308   7.845051   9.023421
    40  H   10.977958  11.219596   8.638291   6.883181   8.404633
    41  H    9.082894   9.209168   6.874881   4.668641   6.315975
                   31         32         33         34         35
    31  H    0.000000
    32  H    1.792698   0.000000
    33  H    2.989385   3.268766   0.000000
    34  H    3.794897   4.183692   1.754290   0.000000
    35  H    3.132155   4.476902   3.065992   2.533141   0.000000
    36  H    2.134407   3.662278   2.499170   3.065155   1.748608
    37  H    4.919326   5.489661   2.230869   2.262567   3.571982
    38  H    7.083514   7.826876   4.607147   4.604003   5.368414
    39  H    7.909460   9.075904   6.148216   6.119043   5.846447
    40  H    6.953848   8.464802   6.141812   6.100326   4.803392
    41  H    4.722697   6.357268   4.624743   4.587986   2.639748
                   36         37         38         39         40
    36  H    0.000000
    37  H    3.517710   0.000000
    38  H    5.333013   2.462211   0.000000
    39  H    5.847460   4.293061   2.488098   0.000000
    40  H    4.844085   4.953585   4.299805   2.491418   0.000000
    41  H    2.712370   4.291329   4.952435   4.298539   2.469501
                   41
    41  H    0.000000
 Stoichiometry    C13H20N2O4S2
 Framework group  C1[X(C13H20N2O4S2)]
 Deg. of freedom   117
 Full point group                 C1      NOp   1
 Largest Abelian subgroup         C1      NOp   1
 Largest concise Abelian subgroup C1      NOp   1
                         Standard orientation:                         
 ---------------------------------------------------------------------
 Center     Atomic      Atomic             Coordinates (Angstroms)
 Number     Number       Type             X           Y           Z
 ---------------------------------------------------------------------
      1          6           0        3.788458   -2.611637   -1.151058
      2          7           0        3.370933   -2.054195    0.144949
      3          6           0        4.285133   -1.042478    0.695271
      4         16           0        1.751301   -1.713752    0.314618
      5          8           0        1.018189   -2.856428   -0.245346
      6          8           0        1.520618   -1.324875    1.708935
      7          7           0        1.504113   -0.321839   -0.619010
      8          6           0        0.406234    0.621554   -0.289396
      9          6           0        0.545987    1.794451   -1.313618
     10         16           0        1.430388    2.786244   -0.061437
     11          8           0        2.896443    2.724513   -0.231995
     12          8           0        0.817765    4.102871    0.204277
     13          6           0        0.794138    1.437902    0.984601
     14          6           0       -0.966778   -0.071188   -0.262644
     15          6           0       -2.179297    0.815609    0.027734
     16          6           0       -3.508339    0.080050    0.010075
     17          6           0       -3.607286   -1.299538   -0.194623
     18          6           0       -4.850765   -1.937030   -0.202142
     19          6           0       -6.019711   -1.203128   -0.003310
     20          6           0       -5.934008    0.177860    0.202666
     21          6           0       -4.691121    0.807940    0.208255
     22          1           0        4.758378   -3.091039   -1.003894
     23          1           0        3.890111   -1.837330   -1.922068
     24          1           0        3.067725   -3.361428   -1.470604
     25          1           0        5.272856   -1.500910    0.765244
     26          1           0        3.953915   -0.763477    1.693556
     27          1           0        4.343239   -0.150610    0.061855
     28          1           0        1.465887   -0.603489   -1.602639
     29          1           0       -0.400167    2.274828   -1.559919
     30          1           0        1.122551    1.592317   -2.214925
     31          1           0       -0.063538    1.795589    1.555533
     32          1           0        1.529612    0.977733    1.637676
     33          1           0       -0.914182   -0.864396    0.489086
     34          1           0       -1.096950   -0.565521   -1.229868
     35          1           0       -2.231895    1.636056   -0.699056
     36          1           0       -2.064209    1.293073    1.007366
     37          1           0       -2.710075   -1.886667   -0.351454
     38          1           0       -4.901306   -3.009539   -0.363557
     39          1           0       -6.985297   -1.697199   -0.009471
     40          1           0       -6.835216    0.762310    0.358573
     41          1           0       -4.633763    1.881213    0.368276
 ---------------------------------------------------------------------
 Rotational constants (GHZ):      0.3557350      0.1600757      0.1178725
 Leave Link  202 at Thu Oct  1 22:02:52 2020, MaxMem=  2147483648 cpu:         0.0
 (Enter /prod/apps/gaussian/g09d1/l301.exe)
 Standard basis: 6-31G(d) (6D, 7F)
 Ernie: Thresh=  0.10000D-02 Tol=  0.10000D-05 Strict=F.
 There are   363 symmetry adapted cartesian basis functions of A   symmetry.
 There are   363 symmetry adapted basis functions of A   symmetry.
   363 basis functions,   716 primitive gaussians,   363 cartesian basis functions
    88 alpha electrons       88 beta electrons
       nuclear repulsion energy      2146.7475734063 Hartrees.
 IExCor=  402 DFT=T Ex+Corr=B3LYP ExCW=0 ScaHFX=  0.200000
 ScaDFX=  0.800000  0.720000  1.000000  0.810000 ScalE2=  1.000000  1.000000
 IRadAn=      0 IRanWt=     -1 IRanGd=            0 ICorTp=0 IEmpDi=  4
 NAtoms=   41 NActive=   41 NUniq=   41 SFac= 1.00D+00 NAtFMM=   60 NAOKFM=F Big=F
 Integral buffers will be    131072 words long.
 Raffenetti 2 integral format.
 Two-electron integral symmetry is turned on.
 Leave Link  301 at Thu Oct  1 22:02:52 2020, MaxMem=  2147483648 cpu:         0.0
 (Enter /prod/apps/gaussian/g09d1/l302.exe)
 NPDir=0 NMtPBC=     1 NCelOv=     1 NCel=       1 NClECP=     1 NCelD=      1
         NCelK=      1 NCelE2=     1 NClLst=     1 CellRange=     0.0.
 One-electron integrals computed using PRISM.
 NBasis=   363 RedAO= T EigKep=  4.56D-04  NBF=   363
 NBsUse=   363 1.00D-06 EigRej= -1.00D+00 NBFU=   363
 Precomputing XC quadrature grid using
 IXCGrd= 4 IRadAn=           0 IRanWt=          -1 IRanGd=           0 AccXCQ= 0.00D+00.
 Generated NRdTot=       0 NPtTot=           0 NUsed=           0 NTot=          32
 NSgBfM=   358   358   358   358   358 MxSgAt=    41 MxSgA2=    41.
 Leave Link  302 at Thu Oct  1 22:02:53 2020, MaxMem=  2147483648 cpu:         1.3
 (Enter /prod/apps/gaussian/g09d1/l303.exe)
 DipDrv:  MaxL=1.
 Leave Link  303 at Thu Oct  1 22:02:53 2020, MaxMem=  2147483648 cpu:         0.0
 (Enter /prod/apps/gaussian/g09d1/l401.exe)
 ExpMin= 1.17D-01 ExpMax= 2.19D+04 ExpMxC= 3.30D+03 IAcc=1 IRadAn=         1 AccDes= 0.00D+00
 Harris functional with IExCor=  402 and IRadAn=       1 diagonalized for initial guess.
 HarFok:  IExCor=  402 AccDes= 0.00D+00 IRadAn=         1 IDoV= 1 UseB2=F ITyADJ=14
 ICtDFT=  3500011 ScaDFX=  1.000000  1.000000  1.000000  1.000000
 FoFCou: FMM=F IPFlag=           0 FMFlag=      100000 FMFlg1=           0
         NFxFlg=           0 DoJE=T BraDBF=F KetDBF=T FulRan=T
         wScrn=  0.000000 ICntrl=     500 IOpCl=  0 I1Cent=   200000004 NGrid=           0
         NMat0=    1 NMatS0=      1 NMatT0=    0 NMatD0=    1 NMtDS0=    0 NMtDT0=    0
 Petite list used in FoFCou.
 Harris En= -1714.14637850424    
 JPrj=0 DoOrth=F DoCkMO=F.
 Leave Link  401 at Thu Oct  1 22:02:58 2020, MaxMem=  2147483648 cpu:         4.6
 (Enter /prod/apps/gaussian/g09d1/l502.exe)
 Closed shell SCF:
 Using DIIS extrapolation, IDIIS=  1040.
 Integral symmetry usage will be decided dynamically.
 IVT=      418784 IEndB=      418784 NGot=  2147483648 MDV=  2147213637
 LenX=  2147213637 LenY=  2147081427
 Requested convergence on RMS density matrix=1.00D-08 within 128 cycles.
 Requested convergence on MAX density matrix=1.00D-06.
 Requested convergence on             energy=1.00D-06.
 No special actions if energy rises.
 Fock matrices will be formed incrementally for  20 cycles.
 Integral accuracy reduced to 1.0D-05 until final iterations.

 Cycle   1  Pass 0  IDiag  1:
 FoFJK:  IHMeth= 1 ICntrl=       0 DoSepK=F KAlg= 0 I1Cent=   0 FoldK=F
 IRaf= 730000000 NMat=   1 IRICut=       1 DoRegI=T DoRafI=F ISym2E= 0.
 FoFCou: FMM=F IPFlag=           0 FMFlag=      100000 FMFlg1=           0
         NFxFlg=           0 DoJE=F BraDBF=F KetDBF=F FulRan=T
         wScrn=  0.000000 ICntrl=       0 IOpCl=  0 I1Cent=           0 NGrid=           0
         NMat0=    1 NMatS0=      1 NMatT0=    0 NMatD0=    1 NMtDS0=    0 NMtDT0=    0
 Symmetry not used in FoFCou.
 E= -1713.18925493987    
 DIIS: error= 4.53D-02 at cycle   1 NSaved=   1.
 NSaved= 1 IEnMin= 1 EnMin= -1713.18925493987     IErMin= 1 ErrMin= 4.53D-02
 ErrMax= 4.53D-02  0.00D+00 EMaxC= 1.00D-01 BMatC= 9.96D-01 BMatP= 9.96D-01
 IDIUse=3 WtCom= 5.47D-01 WtEn= 4.53D-01
 Coeff-Com:  0.100D+01
 Coeff-En:   0.100D+01
 Coeff:      0.100D+01
 Gap=     0.374 Goal=   None    Shift=    0.000
 GapD=    0.374 DampG=1.000 DampE=0.500 DampFc=0.5000 IDamp=-1.
 Damping current iteration by 5.00D-01
 RMSDP=7.10D-03 MaxDP=6.05D-01              OVMax= 2.36D-01

 Cycle   2  Pass 0  IDiag  1:
 RMSU=  3.55D-03    CP:  9.99D-01
 E= -1713.36261600163     Delta-E=       -0.173361061762 Rises=F Damp=T
 DIIS: error= 2.06D-02 at cycle   2 NSaved=   2.
 NSaved= 2 IEnMin= 2 EnMin= -1713.36261600163     IErMin= 2 ErrMin= 2.06D-02
 ErrMax= 2.06D-02  0.00D+00 EMaxC= 1.00D-01 BMatC= 1.73D-01 BMatP= 9.96D-01
 IDIUse=3 WtCom= 7.94D-01 WtEn= 2.06D-01
 Coeff-Com:  0.252D+00 0.748D+00
 Coeff-En:   0.398D+00 0.602D+00
 Coeff:      0.282D+00 0.718D+00
 Gap=     0.280 Goal=   None    Shift=    0.000
 RMSDP=2.04D-03 MaxDP=1.32D-01 DE=-1.73D-01 OVMax= 2.09D-01

 Cycle   3  Pass 0  IDiag  1:
 RMSU=  1.62D-03    CP:  9.89D-01  6.52D-01
 E= -1713.95042380124     Delta-E=       -0.587807799608 Rises=F Damp=F
 DIIS: error= 1.02D-02 at cycle   3 NSaved=   3.
 NSaved= 3 IEnMin= 3 EnMin= -1713.95042380124     IErMin= 3 ErrMin= 1.02D-02
 ErrMax= 1.02D-02  0.00D+00 EMaxC= 1.00D-01 BMatC= 9.14D-02 BMatP= 1.73D-01
 IDIUse=3 WtCom= 8.98D-01 WtEn= 1.02D-01
 Coeff-Com:  0.108D+00 0.427D+00 0.465D+00
 Coeff-En:   0.000D+00 0.000D+00 0.100D+01
 Coeff:      0.968D-01 0.384D+00 0.520D+00
 Gap=     0.240 Goal=   None    Shift=    0.000
 RMSDP=1.21D-03 MaxDP=3.95D-02 DE=-5.88D-01 OVMax= 7.65D-02

 Cycle   4  Pass 0  IDiag  1:
 RMSU=  7.17D-04    CP:  9.95D-01  7.16D-01  4.20D-01
 E= -1714.02522257815     Delta-E=       -0.074798776909 Rises=F Damp=F
 DIIS: error= 3.62D-03 at cycle   4 NSaved=   4.
 NSaved= 4 IEnMin= 4 EnMin= -1714.02522257815     IErMin= 4 ErrMin= 3.62D-03
 ErrMax= 3.62D-03  0.00D+00 EMaxC= 1.00D-01 BMatC= 1.24D-02 BMatP= 9.14D-02
 IDIUse=3 WtCom= 9.64D-01 WtEn= 3.62D-02
 Coeff-Com:  0.119D-01 0.720D-01 0.280D+00 0.636D+00
 Coeff-En:   0.000D+00 0.000D+00 0.112D+00 0.888D+00
 Coeff:      0.115D-01 0.694D-01 0.274D+00 0.645D+00
 Gap=     0.239 Goal=   None    Shift=    0.000
 RMSDP=3.76D-04 MaxDP=1.66D-02 DE=-7.48D-02 OVMax= 2.29D-02

 Cycle   5  Pass 0  IDiag  1:
 RMSU=  1.71D-04    CP:  9.94D-01  7.04D-01  5.61D-01  6.63D-01
 E= -1714.03549084021     Delta-E=       -0.010268262058 Rises=F Damp=F
 DIIS: error= 1.02D-03 at cycle   5 NSaved=   5.
 NSaved= 5 IEnMin= 5 EnMin= -1714.03549084021     IErMin= 5 ErrMin= 1.02D-03
 ErrMax= 1.02D-03  0.00D+00 EMaxC= 1.00D-01 BMatC= 9.70D-04 BMatP= 1.24D-02
 IDIUse=3 WtCom= 9.90D-01 WtEn= 1.02D-02
 Coeff-Com: -0.122D-04 0.156D-01 0.119D+00 0.350D+00 0.516D+00
 Coeff-En:   0.000D+00 0.000D+00 0.000D+00 0.000D+00 0.100D+01
 Coeff:     -0.120D-04 0.155D-01 0.117D+00 0.346D+00 0.521D+00
 Gap=     0.239 Goal=   None    Shift=    0.000
 RMSDP=1.11D-04 MaxDP=7.19D-03 DE=-1.03D-02 OVMax= 5.41D-03

 Cycle   6  Pass 0  IDiag  1:
 RMSU=  5.99D-05    CP:  9.94D-01  7.07D-01  5.55D-01  7.16D-01  5.12D-01
 E= -1714.03623050856     Delta-E=       -0.000739668359 Rises=F Damp=F
 DIIS: error= 5.75D-04 at cycle   6 NSaved=   6.
 NSaved= 6 IEnMin= 6 EnMin= -1714.03623050856     IErMin= 6 ErrMin= 5.75D-04
 ErrMax= 5.75D-04  0.00D+00 EMaxC= 1.00D-01 BMatC= 1.47D-04 BMatP= 9.70D-04
 IDIUse=3 WtCom= 9.94D-01 WtEn= 5.75D-03
 Coeff-Com: -0.990D-03 0.345D-02 0.475D-01 0.154D+00 0.329D+00 0.467D+00
 Coeff-En:   0.000D+00 0.000D+00 0.000D+00 0.000D+00 0.770D-01 0.923D+00
 Coeff:     -0.984D-03 0.343D-02 0.472D-01 0.154D+00 0.328D+00 0.469D+00
 Gap=     0.239 Goal=   None    Shift=    0.000
 RMSDP=3.82D-05 MaxDP=1.76D-03 DE=-7.40D-04 OVMax= 2.80D-03

 Cycle   7  Pass 0  IDiag  1:
 RMSU=  2.40D-05    CP:  9.94D-01  7.07D-01  5.56D-01  7.16D-01  5.78D-01
                    CP:  5.43D-01
 E= -1714.03633224867     Delta-E=       -0.000101740106 Rises=F Damp=F
 DIIS: error= 2.00D-04 at cycle   7 NSaved=   7.
 NSaved= 7 IEnMin= 7 EnMin= -1714.03633224867     IErMin= 7 ErrMin= 2.00D-04
 ErrMax= 2.00D-04  0.00D+00 EMaxC= 1.00D-01 BMatC= 1.74D-05 BMatP= 1.47D-04
 IDIUse=3 WtCom= 9.98D-01 WtEn= 2.00D-03
 Coeff-Com: -0.653D-03-0.114D-03 0.131D-01 0.473D-01 0.138D+00 0.302D+00
 Coeff-Com:  0.500D+00
 Coeff-En:   0.000D+00 0.000D+00 0.000D+00 0.000D+00 0.000D+00 0.880D-01
 Coeff-En:   0.912D+00
 Coeff:     -0.652D-03-0.113D-03 0.131D-01 0.473D-01 0.138D+00 0.302D+00
 Coeff:      0.501D+00
 Gap=     0.239 Goal=   None    Shift=    0.000
 RMSDP=1.22D-05 MaxDP=5.89D-04 DE=-1.02D-04 OVMax= 8.38D-04

 Cycle   8  Pass 0  IDiag  1:
 RMSU=  5.70D-06    CP:  9.94D-01  7.06D-01  5.56D-01  7.16D-01  5.84D-01
                    CP:  5.99D-01  5.81D-01
 E= -1714.03634630494     Delta-E=       -0.000014056265 Rises=F Damp=F
 DIIS: error= 4.58D-05 at cycle   8 NSaved=   8.
 NSaved= 8 IEnMin= 8 EnMin= -1714.03634630494     IErMin= 8 ErrMin= 4.58D-05
 ErrMax= 4.58D-05  0.00D+00 EMaxC= 1.00D-01 BMatC= 6.62D-07 BMatP= 1.74D-05
 IDIUse=1 WtCom= 1.00D+00 WtEn= 0.00D+00
 Coeff-Com: -0.250D-03-0.308D-03 0.259D-02 0.108D-01 0.428D-01 0.113D+00
 Coeff-Com:  0.243D+00 0.588D+00
 Coeff:     -0.250D-03-0.308D-03 0.259D-02 0.108D-01 0.428D-01 0.113D+00
 Coeff:      0.243D+00 0.588D+00
 Gap=     0.239 Goal=   None    Shift=    0.000
 RMSDP=3.15D-06 MaxDP=1.94D-04 DE=-1.41D-05 OVMax= 1.86D-04

 Initial convergence to 1.0D-05 achieved.  Increase integral accuracy.
 Cycle   9  Pass 1  IDiag  1:
 E= -1714.03630775864     Delta-E=        0.000038546293 Rises=F Damp=F
 DIIS: error= 1.21D-04 at cycle   1 NSaved=   1.
 NSaved= 1 IEnMin= 1 EnMin= -1714.03630775864     IErMin= 1 ErrMin= 1.21D-04
 ErrMax= 1.21D-04  0.00D+00 EMaxC= 1.00D-01 BMatC= 1.02D-06 BMatP= 1.02D-06
 IDIUse=3 WtCom= 9.99D-01 WtEn= 1.21D-03
 Coeff-Com:  0.100D+01
 Coeff-En:   0.100D+01
 Coeff:      0.100D+01
 Gap=     0.239 Goal=   None    Shift=    0.000
 RMSDP=3.15D-06 MaxDP=1.94D-04 DE= 3.85D-05 OVMax= 2.19D-04

 Cycle  10  Pass 1  IDiag  1:
 RMSU=  3.55D-05    CP:  1.00D+00
 E= -1714.03630823906     Delta-E=       -0.000000480421 Rises=F Damp=F
 DIIS: error= 4.74D-05 at cycle   2 NSaved=   2.
 NSaved= 2 IEnMin= 2 EnMin= -1714.03630823906     IErMin= 2 ErrMin= 4.74D-05
 ErrMax= 4.74D-05  0.00D+00 EMaxC= 1.00D-01 BMatC= 7.41D-07 BMatP= 1.02D-06
 IDIUse=1 WtCom= 1.00D+00 WtEn= 0.00D+00
 Coeff-Com:  0.443D+00 0.557D+00
 Coeff:      0.443D+00 0.557D+00
 Gap=     0.239 Goal=   None    Shift=    0.000
 RMSDP=3.83D-06 MaxDP=2.02D-04 DE=-4.80D-07 OVMax= 2.55D-04

 Cycle  11  Pass 1  IDiag  1:
 RMSU=  3.83D-06    CP:  1.00D+00  9.98D-01
 E= -1714.03630846686     Delta-E=       -0.000000227799 Rises=F Damp=F
 DIIS: error= 3.96D-05 at cycle   3 NSaved=   3.
 NSaved= 3 IEnMin= 3 EnMin= -1714.03630846686     IErMin= 3 ErrMin= 3.96D-05
 ErrMax= 3.96D-05  0.00D+00 EMaxC= 1.00D-01 BMatC= 4.51D-07 BMatP= 7.41D-07
 IDIUse=1 WtCom= 1.00D+00 WtEn= 0.00D+00
 Coeff-Com:  0.446D-03 0.437D+00 0.562D+00
 Coeff:      0.446D-03 0.437D+00 0.562D+00
 Gap=     0.239 Goal=   None    Shift=    0.000
 RMSDP=1.80D-06 MaxDP=1.02D-04 DE=-2.28D-07 OVMax= 1.33D-04

 Cycle  12  Pass 1  IDiag  1:
 RMSU=  5.77D-07    CP:  1.00D+00  1.01D+00  5.66D-01
 E= -1714.03630880511     Delta-E=       -0.000000338245 Rises=F Damp=F
 DIIS: error= 4.85D-06 at cycle   4 NSaved=   4.
 NSaved= 4 IEnMin= 4 EnMin= -1714.03630880511     IErMin= 4 ErrMin= 4.85D-06
 ErrMax= 4.85D-06  0.00D+00 EMaxC= 1.00D-01 BMatC= 1.31D-08 BMatP= 4.51D-07
 IDIUse=1 WtCom= 1.00D+00 WtEn= 0.00D+00
 Coeff-Com: -0.829D-02 0.260D+00 0.349D+00 0.399D+00
 Coeff:     -0.829D-02 0.260D+00 0.349D+00 0.399D+00
 Gap=     0.239 Goal=   None    Shift=    0.000
 RMSDP=3.43D-07 MaxDP=1.49D-05 DE=-3.38D-07 OVMax= 2.09D-05

 Cycle  13  Pass 1  IDiag  1:
 RMSU=  1.93D-07    CP:  1.00D+00  1.01D+00  5.73D-01  5.12D-01
 E= -1714.03630881558     Delta-E=       -0.000000010468 Rises=F Damp=F
 DIIS: error= 8.00D-07 at cycle   5 NSaved=   5.
 NSaved= 5 IEnMin= 5 EnMin= -1714.03630881558     IErMin= 5 ErrMin= 8.00D-07
 ErrMax= 8.00D-07  0.00D+00 EMaxC= 1.00D-01 BMatC= 5.17D-10 BMatP= 1.31D-08
 IDIUse=1 WtCom= 1.00D+00 WtEn= 0.00D+00
 Coeff-Com: -0.470D-02 0.120D+00 0.163D+00 0.230D+00 0.492D+00
 Coeff:     -0.470D-02 0.120D+00 0.163D+00 0.230D+00 0.492D+00
 Gap=     0.239 Goal=   None    Shift=    0.000
 RMSDP=7.90D-08 MaxDP=3.29D-06 DE=-1.05D-08 OVMax= 4.09D-06

 Cycle  14  Pass 1  IDiag  1:
 RMSU=  6.63D-08    CP:  1.00D+00  1.01D+00  5.74D-01  5.33D-01  7.88D-01
 E= -1714.03630881605     Delta-E=       -0.000000000477 Rises=F Damp=F
 DIIS: error= 2.31D-07 at cycle   6 NSaved=   6.
 NSaved= 6 IEnMin= 6 EnMin= -1714.03630881605     IErMin= 6 ErrMin= 2.31D-07
 ErrMax= 2.31D-07  0.00D+00 EMaxC= 1.00D-01 BMatC= 4.78D-11 BMatP= 5.17D-10
 IDIUse=1 WtCom= 1.00D+00 WtEn= 0.00D+00
 Coeff-Com: -0.120D-02 0.232D-01 0.323D-01 0.610D-01 0.262D+00 0.622D+00
 Coeff:     -0.120D-02 0.232D-01 0.323D-01 0.610D-01 0.262D+00 0.622D+00
 Gap=     0.239 Goal=   None    Shift=    0.000
 RMSDP=2.62D-08 MaxDP=1.03D-06 DE=-4.77D-10 OVMax= 1.44D-06

 Cycle  15  Pass 1  IDiag  1:
 RMSU=  2.09D-08    CP:  1.00D+00  1.01D+00  5.73D-01  5.40D-01  8.28D-01
                    CP:  8.01D-01
 E= -1714.03630881613     Delta-E=       -0.000000000074 Rises=F Damp=F
 DIIS: error= 1.33D-07 at cycle   7 NSaved=   7.
 NSaved= 7 IEnMin= 7 EnMin= -1714.03630881613     IErMin= 7 ErrMin= 1.33D-07
 ErrMax= 1.33D-07  0.00D+00 EMaxC= 1.00D-01 BMatC= 1.21D-11 BMatP= 4.78D-11
 IDIUse=1 WtCom= 1.00D+00 WtEn= 0.00D+00
 Coeff-Com: -0.182D-03-0.339D-03 0.684D-04 0.980D-02 0.104D+00 0.398D+00
 Coeff-Com:  0.489D+00
 Coeff:     -0.182D-03-0.339D-03 0.684D-04 0.980D-02 0.104D+00 0.398D+00
 Coeff:      0.489D+00
 Gap=     0.239 Goal=   None    Shift=    0.000
 RMSDP=1.12D-08 MaxDP=4.12D-07 DE=-7.37D-11 OVMax= 5.78D-07

 Cycle  16  Pass 1  IDiag  1:
 RMSU=  5.72D-09    CP:  1.00D+00  1.01D+00  5.74D-01  5.42D-01  8.39D-01
                    CP:  8.29D-01  5.69D-01
 E= -1714.03630881612     Delta-E=        0.000000000004 Rises=F Damp=F
 DIIS: error= 2.86D-08 at cycle   8 NSaved=   8.
 NSaved= 8 IEnMin= 7 EnMin= -1714.03630881613     IErMin= 8 ErrMin= 2.86D-08
 ErrMax= 2.86D-08  0.00D+00 EMaxC= 1.00D-01 BMatC= 6.97D-13 BMatP= 1.21D-11
 IDIUse=1 WtCom= 1.00D+00 WtEn= 0.00D+00
 Coeff-Com:  0.245D-04-0.255D-02-0.326D-02-0.817D-03 0.292D-01 0.152D+00
 Coeff-Com:  0.260D+00 0.566D+00
 Coeff:      0.245D-04-0.255D-02-0.326D-02-0.817D-03 0.292D-01 0.152D+00
 Coeff:      0.260D+00 0.566D+00
 Gap=     0.239 Goal=   None    Shift=    0.000
 RMSDP=2.87D-09 MaxDP=1.30D-07 DE= 4.09D-12 OVMax= 1.63D-07

 SCF Done:  E(RB3LYP) =  -1714.03630882     A.U. after   16 cycles
            NFock= 16  Conv=0.29D-08     -V/T= 2.0068
 KE= 1.702515610922D+03 PE=-8.319165416349D+03 EE= 2.755865923204D+03
 Leave Link  502 at Thu Oct  1 22:09:13 2020, MaxMem=  2147483648 cpu:       374.9
 (Enter /prod/apps/gaussian/g09d1/l601.exe)
 Copying SCF densities to generalized density rwf, IOpCl= 0 IROHF=0.

 **********************************************************************

            Population analysis using the SCF density.

 **********************************************************************

 Orbital symmetries:
       Occupied  (A) (A) (A) (A) (A) (A) (A) (A) (A) (A) (A) (A)
                 (A) (A) (A) (A) (A) (A) (A) (A) (A) (A) (A) (A)
                 (A) (A) (A) (A) (A) (A) (A) (A) (A) (A) (A) (A)
                 (A) (A) (A) (A) (A) (A) (A) (A) (A) (A) (A) (A)
                 (A) (A) (A) (A) (A) (A) (A) (A) (A) (A) (A) (A)
                 (A) (A) (A) (A) (A) (A) (A) (A) (A) (A) (A) (A)
                 (A) (A) (A) (A) (A) (A) (A) (A) (A) (A) (A) (A)
                 (A) (A) (A) (A)
       Virtual   (A) (A) (A) (A) (A) (A) (A) (A) (A) (A) (A) (A)
                 (A) (A) (A) (A) (A) (A) (A) (A) (A) (A) (A) (A)
                 (A) (A) (A) (A) (A) (A) (A) (A) (A) (A) (A) (A)
                 (A) (A) (A) (A) (A) (A) (A) (A) (A) (A) (A) (A)
                 (A) (A) (A) (A) (A) (A) (A) (A) (A) (A) (A) (A)
                 (A) (A) (A) (A) (A) (A) (A) (A) (A) (A) (A) (A)
                 (A) (A) (A) (A) (A) (A) (A) (A) (A) (A) (A) (A)
                 (A) (A) (A) (A) (A) (A) (A) (A) (A) (A) (A) (A)
                 (A) (A) (A) (A) (A) (A) (A) (A) (A) (A) (A) (A)
                 (A) (A) (A) (A) (A) (A) (A) (A) (A) (A) (A) (A)
                 (A) (A) (A) (A) (A) (A) (A) (A) (A) (A) (A) (A)
                 (A) (A) (A) (A) (A) (A) (A) (A) (A) (A) (A) (A)
                 (A) (A) (A) (A) (A) (A) (A) (A) (A) (A) (A) (A)
                 (A) (A) (A) (A) (A) (A) (A) (A) (A) (A) (A) (A)
                 (A) (A) (A) (A) (A) (A) (A) (A) (A) (A) (A) (A)
                 (A) (A) (A) (A) (A) (A) (A) (A) (A) (A) (A) (A)
                 (A) (A) (A) (A) (A) (A) (A) (A) (A) (A) (A) (A)
                 (A) (A) (A) (A) (A) (A) (A) (A) (A) (A) (A) (A)
                 (A) (A) (A) (A) (A) (A) (A) (A) (A) (A) (A) (A)
                 (A) (A) (A) (A) (A) (A) (A) (A) (A) (A) (A) (A)
                 (A) (A) (A) (A) (A) (A) (A) (A) (A) (A) (A) (A)
                 (A) (A) (A) (A) (A) (A) (A) (A) (A) (A) (A) (A)
                 (A) (A) (A) (A) (A) (A) (A) (A) (A) (A) (A)
 The electronic state is 1-A.
 Alpha  occ. eigenvalues --  -89.14096 -89.09243 -19.15696 -19.15540 -19.14466
 Alpha  occ. eigenvalues --  -19.14292 -14.38956 -14.38708 -10.28852 -10.24257
 Alpha  occ. eigenvalues --  -10.23812 -10.23180 -10.22817 -10.21177 -10.20994
 Alpha  occ. eigenvalues --  -10.20430 -10.19328 -10.19241 -10.19163 -10.19117
 Alpha  occ. eigenvalues --  -10.19074  -8.16345  -8.12274  -6.12824  -6.12763
 Alpha  occ. eigenvalues --   -6.12745  -6.08686  -6.08635  -6.08567  -1.13372
 Alpha  occ. eigenvalues --   -1.09607  -1.01452  -0.99129  -0.96155  -0.95077
 Alpha  occ. eigenvalues --   -0.86460  -0.85714  -0.80410  -0.74957  -0.74459
 Alpha  occ. eigenvalues --   -0.73956  -0.73445  -0.72182  -0.67997  -0.63852
 Alpha  occ. eigenvalues --   -0.61233  -0.60202  -0.59110  -0.57771  -0.55775
 Alpha  occ. eigenvalues --   -0.53535  -0.51829  -0.51466  -0.50114  -0.49929
 Alpha  occ. eigenvalues --   -0.49290  -0.48031  -0.46814  -0.46221  -0.45947
 Alpha  occ. eigenvalues --   -0.45652  -0.45022  -0.44210  -0.43164  -0.42532
 Alpha  occ. eigenvalues --   -0.42128  -0.42063  -0.41725  -0.41267  -0.40394
 Alpha  occ. eigenvalues --   -0.40024  -0.38039  -0.37064  -0.35770  -0.35458
 Alpha  occ. eigenvalues --   -0.34994  -0.34297  -0.33624  -0.33175  -0.32416
 Alpha  occ. eigenvalues --   -0.31298  -0.31130  -0.29603  -0.29188  -0.28884
 Alpha  occ. eigenvalues --   -0.26817  -0.25254  -0.24578
 Alpha virt. eigenvalues --   -0.00682  -0.00130   0.02479   0.02612   0.04845
 Alpha virt. eigenvalues --    0.05287   0.06230   0.07026   0.07154   0.08323
 Alpha virt. eigenvalues --    0.09057   0.09336   0.09402   0.10007   0.10222
 Alpha virt. eigenvalues --    0.12282   0.12883   0.13433   0.13734   0.14792
 Alpha virt. eigenvalues --    0.15447   0.15727   0.15914   0.16252   0.16493
 Alpha virt. eigenvalues --    0.16883   0.18345   0.18707   0.18877   0.19175
 Alpha virt. eigenvalues --    0.19808   0.19906   0.21128   0.21651   0.22657
 Alpha virt. eigenvalues --    0.23601   0.26105   0.27250   0.28268   0.30151
 Alpha virt. eigenvalues --    0.32222   0.33899   0.34567   0.35223   0.35498
 Alpha virt. eigenvalues --    0.36134   0.39122   0.41351   0.43846   0.45397
 Alpha virt. eigenvalues --    0.46608   0.47570   0.48250   0.48617   0.49570
 Alpha virt. eigenvalues --    0.50566   0.51502   0.53192   0.53749   0.53922
 Alpha virt. eigenvalues --    0.54509   0.55825   0.56099   0.56340   0.57624
 Alpha virt. eigenvalues --    0.58402   0.59175   0.59419   0.60266   0.60737
 Alpha virt. eigenvalues --    0.61316   0.61435   0.62725   0.63891   0.64756
 Alpha virt. eigenvalues --    0.65161   0.66818   0.67676   0.68405   0.68648
 Alpha virt. eigenvalues --    0.70416   0.71372   0.73614   0.73673   0.74172
 Alpha virt. eigenvalues --    0.75739   0.77689   0.78395   0.79159   0.79973
 Alpha virt. eigenvalues --    0.80480   0.81807   0.82090   0.82501   0.83453
 Alpha virt. eigenvalues --    0.83598   0.83897   0.84552   0.85544   0.85969
 Alpha virt. eigenvalues --    0.86050   0.86598   0.87819   0.87841   0.89051
 Alpha virt. eigenvalues --    0.90403   0.90637   0.91260   0.92208   0.93781
 Alpha virt. eigenvalues --    0.94247   0.94398   0.95595   0.96314   0.96923
 Alpha virt. eigenvalues --    0.97176   0.98429   0.98680   0.99327   1.02008
 Alpha virt. eigenvalues --    1.02322   1.02958   1.04447   1.05216   1.05470
 Alpha virt. eigenvalues --    1.06372   1.07230   1.08458   1.09336   1.11486
 Alpha virt. eigenvalues --    1.12304   1.13605   1.13783   1.15030   1.15869
 Alpha virt. eigenvalues --    1.17224   1.17354   1.18214   1.19508   1.22145
 Alpha virt. eigenvalues --    1.22535   1.23102   1.24086   1.25593   1.27629
 Alpha virt. eigenvalues --    1.29020   1.32156   1.32493   1.36282   1.39949
 Alpha virt. eigenvalues --    1.40450   1.43005   1.44361   1.45068   1.45529
 Alpha virt. eigenvalues --    1.47776   1.48122   1.49123   1.51215   1.53066
 Alpha virt. eigenvalues --    1.57450   1.59273   1.62805   1.63992   1.68506
 Alpha virt. eigenvalues --    1.70317   1.71828   1.72580   1.74097   1.76012
 Alpha virt. eigenvalues --    1.76923   1.78537   1.79563   1.79976   1.80452
 Alpha virt. eigenvalues --    1.80968   1.81027   1.81176   1.81521   1.82898
 Alpha virt. eigenvalues --    1.84104   1.85155   1.86771   1.88007   1.89411
 Alpha virt. eigenvalues --    1.89882   1.91021   1.91621   1.92367   1.93238
 Alpha virt. eigenvalues --    1.94402   1.95732   1.96890   1.98409   1.98791
 Alpha virt. eigenvalues --    1.99194   2.01957   2.02459   2.03388   2.04377
 Alpha virt. eigenvalues --    2.05524   2.06982   2.07652   2.08319   2.09193
 Alpha virt. eigenvalues --    2.09927   2.11978   2.13443   2.13741   2.14550
 Alpha virt. eigenvalues --    2.14749   2.15726   2.18504   2.18895   2.20216
 Alpha virt. eigenvalues --    2.22789   2.23842   2.24542   2.25615   2.28172
 Alpha virt. eigenvalues --    2.29731   2.30208   2.30782   2.32069   2.34927
 Alpha virt. eigenvalues --    2.36053   2.38087   2.40267   2.41256   2.41660
 Alpha virt. eigenvalues --    2.45758   2.47151   2.51907   2.54976   2.57808
 Alpha virt. eigenvalues --    2.58321   2.59786   2.65553   2.67870   2.69640
 Alpha virt. eigenvalues --    2.70883   2.71495   2.73199   2.73986   2.74861
 Alpha virt. eigenvalues --    2.76120   2.78185   2.80525   2.82708   2.85039
 Alpha virt. eigenvalues --    2.89691   2.91262   3.08005   3.40920   3.79251
 Alpha virt. eigenvalues --    3.80218   3.93027   3.95302   4.00463   4.01312
 Alpha virt. eigenvalues --    4.07540   4.08670   4.10553   4.11269   4.12604
 Alpha virt. eigenvalues --    4.19646   4.23289   4.27534   4.29777   4.30087
 Alpha virt. eigenvalues --    4.32983   4.38004   4.49240   4.68551   4.73821
          Condensed to atoms (all electrons):
               1          2          3          4          5          6
     1  C    5.005988   0.278793  -0.051756  -0.008898  -0.007787   0.001428
     2  N    0.278793   7.170863   0.269726   0.170347  -0.056095  -0.052435
     3  C   -0.051756   0.269726   5.016981  -0.012473   0.001579  -0.005962
     4  S   -0.008898   0.170347  -0.012473  13.553646   0.442577   0.412482
     5  O   -0.007787  -0.056095   0.001579   0.442577   8.245532  -0.042519
     6  O    0.001428  -0.052435  -0.005962   0.412482  -0.042519   8.284052
     7  N   -0.000314  -0.057100  -0.000039   0.104725  -0.053652  -0.051132
     8  C   -0.000014   0.002966  -0.000192  -0.011149  -0.004749   0.007027
     9  C   -0.000003  -0.000148   0.000012  -0.000180  -0.000102   0.000188
    10  S   -0.000003  -0.000028  -0.000173   0.000177   0.000004  -0.000193
    11  O    0.000000   0.000003  -0.000500   0.000058   0.000000   0.000001
    12  O    0.000000   0.000000   0.000000  -0.000003   0.000000   0.000000
    13  C   -0.000001   0.000001  -0.000050  -0.005217  -0.000127  -0.005318
    14  C    0.000010  -0.000185  -0.000002   0.001251   0.004240  -0.007208
    15  C    0.000000   0.000000   0.000000   0.000113   0.000075  -0.000089
    16  C    0.000000   0.000000   0.000000   0.000007   0.000002   0.000002
    17  C    0.000000   0.000000   0.000000  -0.000083  -0.000080   0.000000
    18  C    0.000000   0.000000   0.000000  -0.000001   0.000000   0.000000
    19  C    0.000000   0.000000   0.000000   0.000000   0.000000   0.000000
    20  C    0.000000   0.000000   0.000000   0.000000   0.000000   0.000000
    21  C    0.000000   0.000000   0.000000   0.000000   0.000000   0.000000
    22  H    0.378346  -0.036086  -0.003352   0.002083   0.000147  -0.000043
    23  H    0.366857  -0.049175  -0.000878  -0.009380   0.000083  -0.000063
    24  H    0.374590  -0.032007   0.004371   0.000378   0.010965   0.000049
    25  H   -0.003975  -0.034528   0.371919   0.002318  -0.000048   0.000117
    26  H    0.004536  -0.032631   0.376991  -0.000122   0.000014   0.009911
    27  H   -0.001861  -0.045056   0.370838  -0.008666  -0.000029  -0.000305
    28  H    0.000564  -0.000423   0.000210  -0.007207   0.001427   0.001846
    29  H    0.000000   0.000000   0.000000   0.000048   0.000001   0.000001
    30  H   -0.000004  -0.000009   0.000001  -0.000039  -0.000005   0.000004
    31  H    0.000000  -0.000002   0.000001   0.000058   0.000002  -0.000048
    32  H    0.000003  -0.000351   0.000310   0.001020   0.000026   0.011714
    33  H   -0.000002   0.000026   0.000001   0.010296  -0.001265   0.005467
    34  H   -0.000003   0.000011   0.000000   0.000210   0.000138   0.000108
    35  H    0.000000   0.000000   0.000000   0.000013   0.000000  -0.000001
    36  H    0.000000   0.000000   0.000000   0.000014   0.000000   0.000007
    37  H    0.000000   0.000000   0.000000   0.000210   0.000473  -0.000013
    38  H    0.000000   0.000000   0.000000   0.000000   0.000000   0.000000
    39  H    0.000000   0.000000   0.000000   0.000000   0.000000   0.000000
    40  H    0.000000   0.000000   0.000000   0.000000   0.000000   0.000000
    41  H    0.000000   0.000000   0.000000   0.000000   0.000000   0.000000
               7          8          9         10         11         12
     1  C   -0.000314  -0.000014  -0.000003  -0.000003   0.000000   0.000000
     2  N   -0.057100   0.002966  -0.000148  -0.000028   0.000003   0.000000
     3  C   -0.000039  -0.000192   0.000012  -0.000173  -0.000500   0.000000
     4  S    0.104725  -0.011149  -0.000180   0.000177   0.000058  -0.000003
     5  O   -0.053652  -0.004749  -0.000102   0.000004   0.000000   0.000000
     6  O   -0.051132   0.007027   0.000188  -0.000193   0.000001   0.000000
     7  N    7.421824   0.225695  -0.051362   0.007664   0.000263  -0.000043
     8  C    0.225695   4.911324   0.338651  -0.105501  -0.001433   0.002017
     9  C   -0.051362   0.338651   5.764028   0.113712  -0.043778  -0.045362
    10  S    0.007664  -0.105501   0.113712  13.902004   0.417519   0.432993
    11  O    0.000263  -0.001433  -0.043778   0.417519   8.234229  -0.047718
    12  O   -0.000043   0.002017  -0.045362   0.432993  -0.047718   8.213210
    13  C   -0.059855   0.353570  -0.195502   0.144019  -0.043153  -0.046013
    14  C   -0.060445   0.362005  -0.046868   0.001866  -0.000075  -0.000186
    15  C    0.004143  -0.027697  -0.006080  -0.000219  -0.000002   0.000020
    16  C   -0.000097   0.002806   0.000056   0.000015   0.000000   0.000000
    17  C    0.000007   0.000740  -0.000001  -0.000001   0.000000   0.000000
    18  C    0.000000  -0.000010   0.000000   0.000000   0.000000   0.000000
    19  C    0.000000   0.000000   0.000000   0.000000   0.000000   0.000000
    20  C    0.000000   0.000001   0.000000   0.000000   0.000000   0.000000
    21  C    0.000001  -0.000094   0.000000  -0.000001   0.000000   0.000000
    22  H   -0.000094   0.000004   0.000000   0.000000   0.000000   0.000000
    23  H    0.003817  -0.000151   0.000021   0.000010  -0.000002   0.000000
    24  H   -0.000347   0.000008   0.000001   0.000000   0.000000   0.000000
    25  H    0.000006   0.000006  -0.000001   0.000001   0.000006   0.000000
    26  H   -0.001090  -0.000017  -0.000003   0.000005   0.000008   0.000000
    27  H    0.007716  -0.000578   0.000044   0.001051   0.002726   0.000001
    28  H    0.284903  -0.028320  -0.006598  -0.000382   0.000027   0.000002
    29  H    0.003552  -0.028113   0.328930  -0.003118   0.001150   0.000917
    30  H   -0.006143  -0.022283   0.339663  -0.008361  -0.000087   0.000680
    31  H    0.003432  -0.029617   0.005850  -0.006477   0.001222   0.001124
    32  H   -0.004633  -0.019220   0.008542  -0.009902  -0.000215   0.000569
    33  H   -0.006364  -0.030483   0.005111  -0.000150   0.000001   0.000001
    34  H   -0.001961  -0.036289  -0.006188  -0.000075   0.000001   0.000002
    35  H   -0.000013  -0.004805   0.001343  -0.000105   0.000001  -0.000002
    36  H   -0.000029  -0.005179  -0.000132  -0.000044   0.000001  -0.000022
    37  H   -0.000007   0.000032  -0.000007   0.000000   0.000000   0.000000
    38  H    0.000000   0.000000   0.000000   0.000000   0.000000   0.000000
    39  H    0.000000   0.000000   0.000000   0.000000   0.000000   0.000000
    40  H    0.000000   0.000000   0.000000   0.000000   0.000000   0.000000
    41  H    0.000000  -0.000004  -0.000001   0.000000   0.000000   0.000000
              13         14         15         16         17         18
     1  C   -0.000001   0.000010   0.000000   0.000000   0.000000   0.000000
     2  N    0.000001  -0.000185   0.000000   0.000000   0.000000   0.000000
     3  C   -0.000050  -0.000002   0.000000   0.000000   0.000000   0.000000
     4  S   -0.005217   0.001251   0.000113   0.000007  -0.000083  -0.000001
     5  O   -0.000127   0.004240   0.000075   0.000002  -0.000080   0.000000
     6  O   -0.005318  -0.007208  -0.000089   0.000002   0.000000   0.000000
     7  N   -0.059855  -0.060445   0.004143  -0.000097   0.000007   0.000000
     8  C    0.353570   0.362005  -0.027697   0.002806   0.000740  -0.000010
     9  C   -0.195502  -0.046868  -0.006080   0.000056  -0.000001   0.000000
    10  S    0.144019   0.001866  -0.000219   0.000015  -0.000001   0.000000
    11  O   -0.043153  -0.000075  -0.000002   0.000000   0.000000   0.000000
    12  O   -0.046013  -0.000186   0.000020   0.000000   0.000000   0.000000
    13  C    5.696350  -0.045575  -0.006020   0.000147  -0.000010   0.000000
    14  C   -0.045575   5.122123   0.334219  -0.031368  -0.000989  -0.000005
    15  C   -0.006020   0.334219   5.221489   0.337673  -0.070247   0.008312
    16  C    0.000147  -0.031368   0.337673   4.651969   0.562832  -0.018793
    17  C   -0.000010  -0.000989  -0.070247   0.562832   4.964761   0.508742
    18  C    0.000000  -0.000005   0.008312  -0.018793   0.508742   4.885510
    19  C    0.000000   0.000000   0.000315  -0.035765  -0.033042   0.551651
    20  C    0.000000  -0.000125   0.006036  -0.014371  -0.047873  -0.024833
    21  C    0.000001   0.002698  -0.060997   0.534112  -0.035356  -0.047003
    22  H    0.000000   0.000000   0.000000   0.000000   0.000000   0.000000
    23  H   -0.000005   0.000008   0.000000   0.000000   0.000000   0.000000
    24  H    0.000000  -0.000004   0.000000   0.000000   0.000000   0.000000
    25  H    0.000001   0.000000   0.000000   0.000000   0.000000   0.000000
    26  H   -0.000045   0.000002   0.000000   0.000000   0.000000   0.000000
    27  H   -0.000165   0.000014   0.000000   0.000000   0.000000   0.000000
    28  H    0.005723  -0.001060  -0.000099   0.000001  -0.000002   0.000000
    29  H    0.004666  -0.004853   0.001066  -0.000042   0.000001   0.000000
    30  H    0.009291   0.000993   0.000086   0.000000   0.000000   0.000000
    31  H    0.331165  -0.005902   0.001238   0.000018   0.000000   0.000000
    32  H    0.342131   0.000600   0.000116  -0.000002   0.000000   0.000000
    33  H   -0.005593   0.368960  -0.032546  -0.002460   0.001306   0.000044
    34  H    0.005476   0.366332  -0.037366  -0.001710   0.000823  -0.000039
    35  H   -0.000189  -0.037259   0.356334  -0.028625   0.001736  -0.000151
    36  H    0.001637  -0.034406   0.356127  -0.026513   0.000740  -0.000168
    37  H    0.000000   0.006283  -0.014505  -0.045936   0.356807  -0.044747
    38  H    0.000000   0.000012  -0.000207   0.003688  -0.037826   0.356334
    39  H    0.000000   0.000000   0.000010   0.000763   0.004651  -0.042762
    40  H    0.000000   0.000002  -0.000185   0.003724   0.000815   0.004598
    41  H    0.000000   0.000162  -0.009307  -0.052107   0.006120   0.000276
              19         20         21         22         23         24
     1  C    0.000000   0.000000   0.000000   0.378346   0.366857   0.374590
     2  N    0.000000   0.000000   0.000000  -0.036086  -0.049175  -0.032007
     3  C    0.000000   0.000000   0.000000  -0.003352  -0.000878   0.004371
     4  S    0.000000   0.000000   0.000000   0.002083  -0.009380   0.000378
     5  O    0.000000   0.000000   0.000000   0.000147   0.000083   0.010965
     6  O    0.000000   0.000000   0.000000  -0.000043  -0.000063   0.000049
     7  N    0.000000   0.000000   0.000001  -0.000094   0.003817  -0.000347
     8  C    0.000000   0.000001  -0.000094   0.000004  -0.000151   0.000008
     9  C    0.000000   0.000000   0.000000   0.000000   0.000021   0.000001
    10  S    0.000000   0.000000  -0.000001   0.000000   0.000010   0.000000
    11  O    0.000000   0.000000   0.000000   0.000000  -0.000002   0.000000
    12  O    0.000000   0.000000   0.000000   0.000000   0.000000   0.000000
    13  C    0.000000   0.000000   0.000001   0.000000  -0.000005   0.000000
    14  C    0.000000  -0.000125   0.002698   0.000000   0.000008  -0.000004
    15  C    0.000315   0.006036  -0.060997   0.000000   0.000000   0.000000
    16  C   -0.035765  -0.014371   0.534112   0.000000   0.000000   0.000000
    17  C   -0.033042  -0.047873  -0.035356   0.000000   0.000000   0.000000
    18  C    0.551651  -0.024833  -0.047003   0.000000   0.000000   0.000000
    19  C    4.852294   0.544528  -0.035247   0.000000   0.000000   0.000000
    20  C    0.544528   4.862936   0.529926   0.000000   0.000000   0.000000
    21  C   -0.035247   0.529926   4.966107   0.000000   0.000000   0.000000
    22  H    0.000000   0.000000   0.000000   0.535131  -0.039645  -0.019565
    23  H    0.000000   0.000000   0.000000  -0.039645   0.602444  -0.031445
    24  H    0.000000   0.000000   0.000000  -0.019565  -0.031445   0.485574
    25  H    0.000000   0.000000   0.000000   0.005462  -0.001576   0.000010
    26  H    0.000000   0.000000   0.000000   0.000001  -0.000202  -0.000192
    27  H    0.000000   0.000000   0.000000  -0.001397   0.007930  -0.000154
    28  H    0.000000   0.000000   0.000000  -0.000033   0.001345   0.000048
    29  H    0.000000   0.000000  -0.000011   0.000000   0.000000   0.000000
    30  H    0.000000   0.000000   0.000000   0.000000   0.000019   0.000000
    31  H    0.000000   0.000000  -0.000007   0.000000   0.000000   0.000000
    32  H    0.000000   0.000000   0.000000   0.000000   0.000002   0.000000
    33  H   -0.000007  -0.000003   0.000072   0.000000   0.000001   0.000001
    34  H   -0.000007  -0.000008   0.000200   0.000000  -0.000001   0.000000
    35  H    0.000028  -0.000010  -0.004252   0.000000   0.000000   0.000000
    36  H    0.000035  -0.000068  -0.003559   0.000000   0.000000   0.000000
    37  H    0.004713   0.000387   0.005819   0.000000   0.000000   0.000000
    38  H   -0.043306   0.004460   0.000951   0.000000   0.000000   0.000000
    39  H    0.359606  -0.043055   0.004600   0.000000   0.000000   0.000000
    40  H   -0.043160   0.357258  -0.039735   0.000000   0.000000   0.000000
    41  H    0.005055  -0.044976   0.358681   0.000000   0.000000   0.000000
              25         26         27         28         29         30
     1  C   -0.003975   0.004536  -0.001861   0.000564   0.000000  -0.000004
     2  N   -0.034528  -0.032631  -0.045056  -0.000423   0.000000  -0.000009
     3  C    0.371919   0.376991   0.370838   0.000210   0.000000   0.000001
     4  S    0.002318  -0.000122  -0.008666  -0.007207   0.000048  -0.000039
     5  O   -0.000048   0.000014  -0.000029   0.001427   0.000001  -0.000005
     6  O    0.000117   0.009911  -0.000305   0.001846   0.000001   0.000004
     7  N    0.000006  -0.001090   0.007716   0.284903   0.003552  -0.006143
     8  C    0.000006  -0.000017  -0.000578  -0.028320  -0.028113  -0.022283
     9  C   -0.000001  -0.000003   0.000044  -0.006598   0.328930   0.339663
    10  S    0.000001   0.000005   0.001051  -0.000382  -0.003118  -0.008361
    11  O    0.000006   0.000008   0.002726   0.000027   0.001150  -0.000087
    12  O    0.000000   0.000000   0.000001   0.000002   0.000917   0.000680
    13  C    0.000001  -0.000045  -0.000165   0.005723   0.004666   0.009291
    14  C    0.000000   0.000002   0.000014  -0.001060  -0.004853   0.000993
    15  C    0.000000   0.000000   0.000000  -0.000099   0.001066   0.000086
    16  C    0.000000   0.000000   0.000000   0.000001  -0.000042   0.000000
    17  C    0.000000   0.000000   0.000000  -0.000002   0.000001   0.000000
    18  C    0.000000   0.000000   0.000000   0.000000   0.000000   0.000000
    19  C    0.000000   0.000000   0.000000   0.000000   0.000000   0.000000
    20  C    0.000000   0.000000   0.000000   0.000000   0.000000   0.000000
    21  C    0.000000   0.000000   0.000000   0.000000  -0.000011   0.000000
    22  H    0.005462   0.000001  -0.001397  -0.000033   0.000000   0.000000
    23  H   -0.001576  -0.000202   0.007930   0.001345   0.000000   0.000019
    24  H    0.000010  -0.000192  -0.000154   0.000048   0.000000   0.000000
    25  H    0.547482  -0.021645  -0.035145  -0.000011   0.000000   0.000000
    26  H   -0.021645   0.492203  -0.029029  -0.000017   0.000000  -0.000001
    27  H   -0.035145  -0.029029   0.546791   0.000046   0.000000   0.000014
    28  H   -0.000011  -0.000017   0.000046   0.397189   0.000019   0.005015
    29  H    0.000000   0.000000   0.000000   0.000019   0.494383  -0.019142
    30  H    0.000000  -0.000001   0.000014   0.005015  -0.019142   0.496823
    31  H    0.000000   0.000000   0.000004  -0.000114  -0.000020  -0.000245
    32  H   -0.000007   0.000680   0.000151   0.000082  -0.000228  -0.000287
    33  H    0.000000  -0.000002   0.000001  -0.000318   0.000189  -0.000069
    34  H    0.000000   0.000000   0.000000   0.003793   0.000338   0.000376
    35  H    0.000000   0.000000   0.000000  -0.000007   0.007707   0.000006
    36  H    0.000000   0.000000   0.000000   0.000006  -0.000153  -0.000005
    37  H    0.000000   0.000000   0.000000  -0.000001   0.000003   0.000000
    38  H    0.000000   0.000000   0.000000   0.000000   0.000000   0.000000
    39  H    0.000000   0.000000   0.000000   0.000000   0.000000   0.000000
    40  H    0.000000   0.000000   0.000000   0.000000   0.000000   0.000000
    41  H    0.000000   0.000000   0.000000   0.000000   0.000002   0.000000
              31         32         33         34         35         36
     1  C    0.000000   0.000003  -0.000002  -0.000003   0.000000   0.000000
     2  N   -0.000002  -0.000351   0.000026   0.000011   0.000000   0.000000
     3  C    0.000001   0.000310   0.000001   0.000000   0.000000   0.000000
     4  S    0.000058   0.001020   0.010296   0.000210   0.000013   0.000014
     5  O    0.000002   0.000026  -0.001265   0.000138   0.000000   0.000000
     6  O   -0.000048   0.011714   0.005467   0.000108  -0.000001   0.000007
     7  N    0.003432  -0.004633  -0.006364  -0.001961  -0.000013  -0.000029
     8  C   -0.029617  -0.019220  -0.030483  -0.036289  -0.004805  -0.005179
     9  C    0.005850   0.008542   0.005111  -0.006188   0.001343  -0.000132
    10  S   -0.006477  -0.009902  -0.000150  -0.000075  -0.000105  -0.000044
    11  O    0.001222  -0.000215   0.000001   0.000001   0.000001   0.000001
    12  O    0.001124   0.000569   0.000001   0.000002  -0.000002  -0.000022
    13  C    0.331165   0.342131  -0.005593   0.005476  -0.000189   0.001637
    14  C   -0.005902   0.000600   0.368960   0.366332  -0.037259  -0.034406
    15  C    0.001238   0.000116  -0.032546  -0.037366   0.356334   0.356127
    16  C    0.000018  -0.000002  -0.002460  -0.001710  -0.028625  -0.026513
    17  C    0.000000   0.000000   0.001306   0.000823   0.001736   0.000740
    18  C    0.000000   0.000000   0.000044  -0.000039  -0.000151  -0.000168
    19  C    0.000000   0.000000  -0.000007  -0.000007   0.000028   0.000035
    20  C    0.000000   0.000000  -0.000003  -0.000008  -0.000010  -0.000068
    21  C   -0.000007   0.000000   0.000072   0.000200  -0.004252  -0.003559
    22  H    0.000000   0.000000   0.000000   0.000000   0.000000   0.000000
    23  H    0.000000   0.000002   0.000001  -0.000001   0.000000   0.000000
    24  H    0.000000   0.000000   0.000001   0.000000   0.000000   0.000000
    25  H    0.000000  -0.000007   0.000000   0.000000   0.000000   0.000000
    26  H    0.000000   0.000680  -0.000002   0.000000   0.000000   0.000000
    27  H    0.000004   0.000151   0.000001   0.000000   0.000000   0.000000
    28  H   -0.000114   0.000082  -0.000318   0.003793  -0.000007   0.000006
    29  H   -0.000020  -0.000228   0.000189   0.000338   0.007707  -0.000153
    30  H   -0.000245  -0.000287  -0.000069   0.000376   0.000006  -0.000005
    31  H    0.499867  -0.015463   0.000336   0.000142  -0.000083   0.006937
    32  H   -0.015463   0.437654   0.000273  -0.000069  -0.000001   0.000008
    33  H    0.000336   0.000273   0.521040  -0.037437   0.005158  -0.006014
    34  H    0.000142  -0.000069  -0.037437   0.588785  -0.005870   0.005770
    35  H   -0.000083  -0.000001   0.005158  -0.005870   0.590835  -0.039163
    36  H    0.006937   0.000008  -0.006014   0.005770  -0.039163   0.576909
    37  H    0.000002   0.000000   0.001545   0.001688   0.000139   0.000162
    38  H    0.000000   0.000000   0.000003   0.000004   0.000003   0.000003
    39  H    0.000000   0.000000   0.000000   0.000000   0.000000   0.000000
    40  H    0.000000   0.000000   0.000000   0.000000  -0.000003  -0.000002
    41  H    0.000003   0.000000   0.000004   0.000007   0.003020   0.002395
              37         38         39         40         41
     1  C    0.000000   0.000000   0.000000   0.000000   0.000000
     2  N    0.000000   0.000000   0.000000   0.000000   0.000000
     3  C    0.000000   0.000000   0.000000   0.000000   0.000000
     4  S    0.000210   0.000000   0.000000   0.000000   0.000000
     5  O    0.000473   0.000000   0.000000   0.000000   0.000000
     6  O   -0.000013   0.000000   0.000000   0.000000   0.000000
     7  N   -0.000007   0.000000   0.000000   0.000000   0.000000
     8  C    0.000032   0.000000   0.000000   0.000000  -0.000004
     9  C   -0.000007   0.000000   0.000000   0.000000  -0.000001
    10  S    0.000000   0.000000   0.000000   0.000000   0.000000
    11  O    0.000000   0.000000   0.000000   0.000000   0.000000
    12  O    0.000000   0.000000   0.000000   0.000000   0.000000
    13  C    0.000000   0.000000   0.000000   0.000000   0.000000
    14  C    0.006283   0.000012   0.000000   0.000002   0.000162
    15  C   -0.014505  -0.000207   0.000010  -0.000185  -0.009307
    16  C   -0.045936   0.003688   0.000763   0.003724  -0.052107
    17  C    0.356807  -0.037826   0.004651   0.000815   0.006120
    18  C   -0.044747   0.356334  -0.042762   0.004598   0.000276
    19  C    0.004713  -0.043306   0.359606  -0.043160   0.005055
    20  C    0.000387   0.004460  -0.043055   0.357258  -0.044976
    21  C    0.005819   0.000951   0.004600  -0.039735   0.358681
    22  H    0.000000   0.000000   0.000000   0.000000   0.000000
    23  H    0.000000   0.000000   0.000000   0.000000   0.000000
    24  H    0.000000   0.000000   0.000000   0.000000   0.000000
    25  H    0.000000   0.000000   0.000000   0.000000   0.000000
    26  H    0.000000   0.000000   0.000000   0.000000   0.000000
    27  H    0.000000   0.000000   0.000000   0.000000   0.000000
    28  H   -0.000001   0.000000   0.000000   0.000000   0.000000
    29  H    0.000003   0.000000   0.000000   0.000000   0.000002
    30  H    0.000000   0.000000   0.000000   0.000000   0.000000
    31  H    0.000002   0.000000   0.000000   0.000000   0.000003
    32  H    0.000000   0.000000   0.000000   0.000000   0.000000
    33  H    0.001545   0.000003   0.000000   0.000000   0.000004
    34  H    0.001688   0.000004   0.000000   0.000000   0.000007
    35  H    0.000139   0.000003   0.000000  -0.000003   0.003020
    36  H    0.000162   0.000003   0.000000  -0.000002   0.002395
    37  H    0.590996  -0.005518  -0.000176   0.000017  -0.000175
    38  H   -0.005518   0.593390  -0.005470  -0.000190   0.000018
    39  H   -0.000176  -0.005470   0.596534  -0.005407  -0.000180
    40  H    0.000017  -0.000190  -0.005407   0.596383  -0.005826
    41  H   -0.000175   0.000018  -0.000180  -0.005826   0.613017
 Mulliken charges:
               1
     1  C   -0.336495
     2  N   -0.496477
     3  C   -0.337563
     4  S    1.361385
     5  O   -0.540824
     6  O   -0.569077
     7  N   -0.713029
     8  C    0.149044
     9  C   -0.503835
    10  S    1.113696
    11  O   -0.520253
    12  O   -0.512188
    13  C   -0.481339
    14  C   -0.295265
    15  C   -0.361806
    16  C    0.159972
    17  C   -0.184571
    18  C   -0.136955
    19  C   -0.127691
    20  C   -0.130208
    21  C   -0.176908
    22  H    0.179041
    23  H    0.149985
    24  H    0.207721
    25  H    0.169608
    26  H    0.200644
    27  H    0.185057
    28  H    0.342348
    29  H    0.212708
    30  H    0.203706
    31  H    0.206576
    32  H    0.246500
    33  H    0.202877
    34  H    0.152820
    35  H    0.154218
    36  H    0.164706
    37  H    0.141809
    38  H    0.133652
    39  H    0.130886
    40  H    0.131712
    41  H    0.123815
 Sum of Mulliken charges =   0.00000
 Mulliken charges with hydrogens summed into heavy atoms:
               1
     1  C    0.200252
     2  N   -0.496477
     3  C    0.217746
     4  S    1.361385
     5  O   -0.540824
     6  O   -0.569077
     7  N   -0.370681
     8  C    0.149044
     9  C   -0.087422
    10  S    1.113696
    11  O   -0.520253
    12  O   -0.512188
    13  C   -0.028264
    14  C    0.060432
    15  C   -0.042882
    16  C    0.159972
    17  C   -0.042762
    18  C   -0.003304
    19  C    0.003195
    20  C    0.001504
    21  C   -0.053094
 Electronic spatial extent (au):  <R**2>=           8883.8632
 Charge=              0.0000 electrons
 Dipole moment (field-independent basis, Debye):
    X=             -0.4991    Y=             -2.3224    Z=             -3.2652  Tot=              4.0378
 Quadrupole moment (field-independent basis, Debye-Ang):
   XX=           -124.4623   YY=           -163.7323   ZZ=           -135.2341
   XY=            -15.5938   XZ=             -4.8019   YZ=              4.6864
 Traceless Quadrupole moment (field-independent basis, Debye-Ang):
   XX=             16.6806   YY=            -22.5894   ZZ=              5.9088
   XY=            -15.5938   XZ=             -4.8019   YZ=              4.6864
 Octapole moment (field-independent basis, Debye-Ang**2):
  XXX=             40.3425  YYY=            -82.2842  ZZZ=            -11.2176  XYY=            -32.9993
  XXY=            -66.1722  XXZ=              3.0754  XZZ=             38.5880  YZZ=             15.7062
  YYZ=            -16.4896  XYZ=             10.8793
 Hexadecapole moment (field-independent basis, Debye-Ang**3):
 XXXX=          -7237.0980 YYYY=          -3619.9503 ZZZZ=           -513.1770 XXXY=           -222.6429
 XXXZ=            -29.7104 YYYX=           -118.8892 YYYZ=             -3.2511 ZZZX=            -14.8610
 ZZZY=              8.1315 XXYY=          -1800.8404 XXZZ=          -1488.6554 YYZZ=           -591.7709
 XXYZ=             68.8494 YYXZ=            -25.7555 ZZXY=             -6.5534
 N-N= 2.146747573406D+03 E-N=-8.319165409921D+03  KE= 1.702515610922D+03
 No NMR shielding tensors so no spin-rotation constants.
 Leave Link  601 at Thu Oct  1 22:09:13 2020, MaxMem=  2147483648 cpu:         0.3
 (Enter /prod/apps/gaussian/g09d1/l9999.exe)
 1\1\GINC-PIRINEUS15\SP\RB3LYP\6-31G(d)\C13H20N2O4S2\UBAFAR01\01-Oct-20
 20\0\\#p b3lyp/6-31G(d)\\SM40.n.11.pdb.xyz\\0,1\C,0,2.236,0.566,-0.497
 \N,0,2.84,0.108,0.764\C,0,1.949,-0.704,1.606\S,0,4.414,-0.424,0.678\O,
 0,5.141,0.54,-0.158\O,0,4.874,-0.68,2.046\N,0,4.317,-1.933,-0.086\C,0,
 5.349,-2.971,0.162\C,0,4.881,-4.223,-0.649\S,0,4.161,-4.94,0.868\O,0,2
 .706,-4.703,0.963\O,0,4.667,-6.288,1.194\C,0,5.136,-3.579,1.585\C,0,6.
 767,-2.469,-0.159\C,0,7.909,-3.471,0.022\C,0,9.28,-2.926,-0.34\C,0,9.4
 86,-1.604,-0.746\C,0,10.765,-1.143,-1.069\C,0,11.863,-1.999,-0.99\C,0,
 11.67,-3.324,-0.585\C,0,10.392,-3.778,-0.265\H,0,1.373,1.184,-0.241\H,
 0,1.899,-0.27,-1.123\H,0,2.956,1.172,-1.043\H,0,1.051,-0.113,1.793\H,0
 ,2.44,-0.91,2.555\H,0,1.669,-1.646,1.122\H,0,4.189,-1.772,-1.089\H,0,5
 .701,-4.85,-0.997\H,0,4.162,-4.049,-1.448\H,0,6.046,-3.981,2.032\H,0,4
 .6,-2.954,2.293\H,0,6.952,-1.596,0.474\H,0,6.755,-2.109,-1.192\H,0,7.7
 26,-4.368,-0.583\H,0,7.94,-3.815,1.062\H,0,8.645,-0.924,-0.814\H,0,10.
 899,-0.112,-1.382\H,0,12.856,-1.642,-1.241\H,0,12.515,-4.002,-0.519\H,
 0,10.251,-4.809,0.048\\Version=AM64L-G09RevD.01\State=1-A\HF=-1714.036
 3088\RMSD=2.866e-09\Dipole=0.0349495,0.7281788,-1.4114447\Quadrupole=1
 0.5086209,-13.8435306,3.3349098,-14.6908077,3.6364727,1.1111809\PG=C01
  [X(C13H20N2O4S2)]\\@


 THE UNDERLYING PHYSICAL LAWS NECESSARY FOR THE 
 MATHEMATICAL THEORY OF A LARGE PART OF PHYSICS AND THE
 WHOLE OF CHEMISTRY ARE THUS COMPLETELY KNOWN, AND THE
[...]
     8  C    0.345326   0.365166  -0.027810   0.002759   0.000713  -0.000010
     9  C   -0.185147  -0.043978  -0.005809   0.000067  -0.000001   0.000000
    10  S    0.150103   0.002128  -0.000122   0.000012  -0.000001   0.000000
    11  O   -0.043455  -0.000084  -0.000002   0.000000   0.000000   0.000000
    12  O   -0.045873  -0.000197   0.000020   0.000000   0.000000   0.000000
    13  C    5.689694  -0.046170  -0.005666   0.000158  -0.000009   0.000000
    14  C   -0.046170   5.115198   0.334958  -0.031074  -0.001280   0.000021
    15  C   -0.005666   0.334958   5.208611   0.343171  -0.070575   0.008294
    16  C    0.000158  -0.031074   0.343171   4.659906   0.558273  -0.019824
    17  C   -0.000009  -0.001280  -0.070575   0.558273   4.988124   0.503452
    18  C    0.000000   0.000021   0.008294  -0.019824   0.503452   4.918469
    19  C    0.000000   0.000002   0.000238  -0.036021  -0.035388   0.546284
    20  C    0.000000  -0.000132   0.006056  -0.016612  -0.047764  -0.027768
    21  C    0.000001   0.002779  -0.060924   0.531224  -0.037163  -0.047302
    22  H    0.000000   0.000000   0.000000   0.000000   0.000000   0.000000
    23  H   -0.000005   0.000008   0.000000   0.000000   0.000000   0.000000
    24  H    0.000000  -0.000003   0.000000   0.000000   0.000000   0.000000
    25  H    0.000001   0.000000   0.000000   0.000000   0.000000   0.000000
    26  H   -0.000046   0.000002   0.000000   0.000000   0.000000   0.000000
    27  H   -0.000182   0.000014   0.000000   0.000000   0.000000   0.000000
    28  H    0.004732  -0.000670  -0.000072   0.000001  -0.000002   0.000000
    29  H    0.004726  -0.005171   0.001434  -0.000015   0.000000   0.000000
    30  H    0.008575   0.000780   0.000075   0.000000   0.000000   0.000000
    31  H    0.334227  -0.005711   0.001636   0.000010   0.000001   0.000000
    32  H    0.342042   0.000709   0.000115  -0.000002   0.000000   0.000000
    33  H   -0.005797   0.366920  -0.033636  -0.002607   0.001319   0.000039
    34  H    0.005213   0.370682  -0.035108  -0.002187   0.000850  -0.000030
    35  H   -0.000227  -0.036707   0.359650  -0.026711   0.001757  -0.000154
    36  H    0.001677  -0.034985   0.357896  -0.025428   0.000979  -0.000167
    37  H    0.000002   0.006564  -0.014483  -0.045877   0.359029  -0.045566
    38  H    0.000000   0.000011  -0.000193   0.003665  -0.037575   0.359961
    39  H    0.000000   0.000000   0.000009   0.000675   0.004558  -0.041933
    40  H    0.000000   0.000002  -0.000174   0.003632   0.000731   0.004537
    41  H    0.000000   0.000149  -0.008830  -0.049142   0.006063   0.000199
              19         20         21         22         23         24
     1  C    0.000000   0.000000   0.000000   0.379244   0.374202   0.374569
     2  N    0.000000   0.000000   0.000000  -0.034959  -0.046901  -0.033077
     3  C    0.000000   0.000000   0.000000  -0.003365  -0.001189   0.004366
     4  S    0.000000   0.000000   0.000000   0.001913  -0.008183  -0.000038
     5  O    0.000000   0.000000   0.000000   0.000129   0.000037   0.010468
     6  O    0.000000   0.000000   0.000000  -0.000042  -0.000063   0.000051
     7  N    0.000000   0.000000   0.000001  -0.000094   0.003687  -0.000370
     8  C    0.000000   0.000001  -0.000092   0.000004  -0.000134   0.000006
     9  C    0.000000   0.000000   0.000000   0.000000   0.000020   0.000001
    10  S    0.000000   0.000000  -0.000001   0.000000   0.000010   0.000000
    11  O    0.000000   0.000000   0.000000   0.000000  -0.000002   0.000000
    12  O    0.000000   0.000000   0.000000   0.000000   0.000000   0.000000
    13  C    0.000000   0.000000   0.000001   0.000000  -0.000005   0.000000
    14  C    0.000002  -0.000132   0.002779   0.000000   0.000008  -0.000003
    15  C    0.000238   0.006056  -0.060924   0.000000   0.000000   0.000000
    16  C   -0.036021  -0.016612   0.531224   0.000000   0.000000   0.000000
    17  C   -0.035388  -0.047764  -0.037163   0.000000   0.000000   0.000000
    18  C    0.546284  -0.027768  -0.047302   0.000000   0.000000   0.000000
    19  C    4.884695   0.539309  -0.037452   0.000000   0.000000   0.000000
    20  C    0.539309   4.896078   0.523782   0.000000   0.000000   0.000000
    21  C   -0.037452   0.523782   4.990609   0.000000   0.000000   0.000000
    22  H    0.000000   0.000000   0.000000   0.517417  -0.035937  -0.020490
    23  H    0.000000   0.000000   0.000000  -0.035937   0.563795  -0.029326
    24  H    0.000000   0.000000   0.000000  -0.020490  -0.029326   0.494727
    25  H    0.000000   0.000000   0.000000   0.005001  -0.001392   0.000010
    26  H    0.000000   0.000000   0.000000   0.000009  -0.000177  -0.000198
    27  H    0.000000   0.000000   0.000000  -0.001351   0.007441  -0.000146
    28  H    0.000000   0.000000   0.000000  -0.000031   0.001210   0.000006
    29  H    0.000000   0.000000  -0.000010   0.000000   0.000000   0.000000
    30  H    0.000000   0.000000   0.000000   0.000000   0.000017   0.000000
    31  H    0.000000   0.000000  -0.000007   0.000000   0.000000   0.000000
    32  H    0.000000   0.000000   0.000000   0.000000   0.000002   0.000000
    33  H   -0.000007  -0.000003   0.000077   0.000000   0.000001   0.000001
    34  H   -0.000006  -0.000007   0.000162   0.000000  -0.000001   0.000000
    35  H    0.000028  -0.000010  -0.004119   0.000000   0.000000   0.000000
    36  H    0.000034  -0.000068  -0.003756   0.000000   0.000000   0.000000
    37  H    0.004817   0.000279   0.005955   0.000000   0.000000   0.000000
    38  H   -0.042535   0.004434   0.000835   0.000000   0.000000   0.000000
    39  H    0.363307  -0.042077   0.004502   0.000000   0.000000   0.000000
    40  H   -0.042339   0.361054  -0.038834   0.000000   0.000000   0.000000
    41  H    0.004951  -0.044751   0.362689   0.000000   0.000000   0.000000
              25         26         27         28         29         30
     1  C   -0.003814   0.004438  -0.001352   0.000581   0.000000  -0.000003
     2  N   -0.033386  -0.033648  -0.045386  -0.000703   0.000000  -0.000010
     3  C    0.376341   0.376225   0.370229   0.000171   0.000000   0.000001
     4  S    0.002247  -0.000422  -0.008109  -0.006400   0.000036   0.000023
     5  O   -0.000046   0.000018  -0.000032   0.001031   0.000001  -0.000005
     6  O    0.000103   0.009615  -0.000328   0.001452   0.000001   0.000004
     7  N    0.000022  -0.001186   0.007997   0.290384   0.003350  -0.004824
     8  C    0.000006  -0.000011  -0.000584  -0.023875  -0.027646  -0.021835
     9  C    0.000000  -0.000003   0.000042  -0.005699   0.333376   0.345622
    10  S    0.000000  -0.000002   0.001059  -0.000372  -0.004777  -0.009753
    11  O    0.000005   0.000007   0.002634   0.000008   0.001121  -0.000226
    12  O    0.000000   0.000000   0.000001   0.000002   0.000803   0.000649
    13  C    0.000001  -0.000046  -0.000182   0.004732   0.004726   0.008575
    14  C    0.000000   0.000002   0.000014  -0.000670  -0.005171   0.000780
    15  C    0.000000   0.000000   0.000000  -0.000072   0.001434   0.000075
    16  C    0.000000   0.000000   0.000000   0.000001  -0.000015   0.000000
    17  C    0.000000   0.000000   0.000000  -0.000002   0.000000   0.000000
    18  C    0.000000   0.000000   0.000000   0.000000   0.000000   0.000000
    19  C    0.000000   0.000000   0.000000   0.000000   0.000000   0.000000
    20  C    0.000000   0.000000   0.000000   0.000000   0.000000   0.000000
    21  C    0.000000   0.000000   0.000000   0.000000  -0.000010   0.000000
    22  H    0.005001   0.000009  -0.001351  -0.000031   0.000000   0.000000
    23  H   -0.001392  -0.000177   0.007441   0.001210   0.000000   0.000017
    24  H    0.000010  -0.000198  -0.000146   0.000006   0.000000   0.000000
    25  H    0.520305  -0.021645  -0.032869  -0.000010   0.000000   0.000000
    26  H   -0.021645   0.502163  -0.030165  -0.000012   0.000000  -0.000001
    27  H   -0.032869  -0.030165   0.552161   0.000092   0.000000   0.000013
    28  H   -0.000010  -0.000012   0.000092   0.326727   0.000037   0.003864
    29  H    0.000000   0.000000   0.000000   0.000037   0.467798  -0.014218
    30  H    0.000000  -0.000001   0.000013   0.003864  -0.014218   0.453052
    31  H    0.000000   0.000000   0.000004  -0.000087  -0.000034  -0.000209
    32  H   -0.000007   0.000662   0.000179   0.000076  -0.000217  -0.000278
    33  H    0.000000  -0.000001   0.000001  -0.000286   0.000172  -0.000061
    34  H    0.000000   0.000000   0.000000   0.002965   0.000361   0.000332
    35  H    0.000000   0.000000   0.000000  -0.000006   0.006962   0.000013
    36  H    0.000000   0.000000   0.000000   0.000004  -0.000125  -0.000004
    37  H    0.000000   0.000000   0.000000  -0.000001   0.000003   0.000000
    38  H    0.000000   0.000000   0.000000   0.000000   0.000000   0.000000
    39  H    0.000000   0.000000   0.000000   0.000000   0.000000   0.000000
    40  H    0.000000   0.000000   0.000000   0.000000   0.000000   0.000000
    41  H    0.000000   0.000000   0.000000   0.000000   0.000002   0.000000
              31         32         33         34         35         36
     1  C    0.000000   0.000003  -0.000002  -0.000003   0.000000   0.000000
     2  N   -0.000002  -0.000359   0.000025   0.000010   0.000000   0.000000
     3  C    0.000002   0.000332   0.000001   0.000000   0.000000   0.000000
     4  S    0.000026   0.001088   0.011392   0.000231   0.000018   0.000009
     5  O    0.000002   0.000021  -0.001274   0.000131   0.000000   0.000000
     6  O   -0.000061   0.011087   0.005049   0.000110  -0.000001   0.000007
     7  N    0.003364  -0.004711  -0.006758  -0.001617  -0.000014  -0.000026
     8  C   -0.028783  -0.020259  -0.032321  -0.034023  -0.004674  -0.004922
     9  C    0.005183   0.008420   0.005078  -0.006197   0.001619  -0.000167
    10  S   -0.005930  -0.009720  -0.000175  -0.000101  -0.000107  -0.000053
    11  O    0.001163  -0.000293   0.000001   0.000001   0.000001   0.000001
    12  O    0.000912   0.000575   0.000002   0.000002  -0.000002  -0.000020
    13  C    0.334227   0.342042  -0.005797   0.005213  -0.000227   0.001677
    14  C   -0.005711   0.000709   0.366920   0.370682  -0.036707  -0.034985
    15  C    0.001636   0.000115  -0.033636  -0.035108   0.359650   0.357896
    16  C    0.000010  -0.000002  -0.002607  -0.002187  -0.026711  -0.025428
    17  C    0.000001   0.000000   0.001319   0.000850   0.001757   0.000979
    18  C    0.000000   0.000000   0.000039  -0.000030  -0.000154  -0.000167
    19  C    0.000000   0.000000  -0.000007  -0.000006   0.000028   0.000034
    20  C    0.000000   0.000000  -0.000003  -0.000007  -0.000010  -0.000068
    21  C   -0.000007   0.000000   0.000077   0.000162  -0.004119  -0.003756
    22  H    0.000000   0.000000   0.000000   0.000000   0.000000   0.000000
    23  H    0.000000   0.000002   0.000001  -0.000001   0.000000   0.000000
    24  H    0.000000   0.000000   0.000001   0.000000   0.000000   0.000000
    25  H    0.000000  -0.000007   0.000000   0.000000   0.000000   0.000000
    26  H    0.000000   0.000662  -0.000001   0.000000   0.000000   0.000000
    27  H    0.000004   0.000179   0.000001   0.000000   0.000000   0.000000
    28  H   -0.000087   0.000076  -0.000286   0.002965  -0.000006   0.000004
    29  H   -0.000034  -0.000217   0.000172   0.000361   0.006962  -0.000125
    30  H   -0.000209  -0.000278  -0.000061   0.000332   0.000013  -0.000004
    31  H    0.475201  -0.013526   0.000372   0.000128  -0.000064   0.006478
    32  H   -0.013526   0.436156   0.000289  -0.000068  -0.000001   0.000013
    33  H    0.000372   0.000289   0.540609  -0.037996   0.005075  -0.005952
    34  H    0.000128  -0.000068  -0.037996   0.557898  -0.005460   0.005374
    35  H   -0.000064  -0.000001   0.005075  -0.005460   0.565587  -0.036726
    36  H    0.006478   0.000013  -0.005952   0.005374  -0.036726   0.562785
    37  H    0.000002   0.000000   0.001770   0.002052   0.000153   0.000190
    38  H    0.000000   0.000000   0.000003   0.000003   0.000003   0.000003
    39  H    0.000000   0.000000   0.000000   0.000000   0.000000   0.000000
    40  H    0.000000   0.000000   0.000000   0.000000  -0.000003  -0.000001
    41  H    0.000003   0.000000   0.000004   0.000007   0.002823   0.002264
              37         38         39         40         41
     1  C    0.000000   0.000000   0.000000   0.000000   0.000000
     2  N    0.000000   0.000000   0.000000   0.000000   0.000000
     3  C    0.000000   0.000000   0.000000   0.000000   0.000000
     4  S    0.000215   0.000000   0.000000   0.000000   0.000000
     5  O    0.000477   0.000000   0.000000   0.000000   0.000000
     6  O   -0.000012   0.000000   0.000000   0.000000   0.000000
     7  N   -0.000007   0.000000   0.000000   0.000000   0.000000
     8  C   -0.000009   0.000000   0.000000   0.000000  -0.000004
     9  C   -0.000007   0.000000   0.000000   0.000000  -0.000001
    10  S    0.000000   0.000000   0.000000   0.000000   0.000000
    11  O    0.000000   0.000000   0.000000   0.000000   0.000000
    12  O    0.000000   0.000000   0.000000   0.000000   0.000000
    13  C    0.000002   0.000000   0.000000   0.000000   0.000000
    14  C    0.006564   0.000011   0.000000   0.000002   0.000149
    15  C   -0.014483  -0.000193   0.000009  -0.000174  -0.008830
    16  C   -0.045877   0.003665   0.000675   0.003632  -0.049142
    17  C    0.359029  -0.037575   0.004558   0.000731   0.006063
    18  C   -0.045566   0.359961  -0.041933   0.004537   0.000199
    19  C    0.004817  -0.042535   0.363307  -0.042339   0.004951
    20  C    0.000279   0.004434  -0.042077   0.361054  -0.044751
    21  C    0.005955   0.000835   0.004502  -0.038834   0.362689
    22  H    0.000000   0.000000   0.000000   0.000000   0.000000
    23  H    0.000000   0.000000   0.000000   0.000000   0.000000
    24  H    0.000000   0.000000   0.000000   0.000000   0.000000
    25  H    0.000000   0.000000   0.000000   0.000000   0.000000
    26  H    0.000000   0.000000   0.000000   0.000000   0.000000
    27  H    0.000000   0.000000   0.000000   0.000000   0.000000
    28  H   -0.000001   0.000000   0.000000   0.000000   0.000000
    29  H    0.000003   0.000000   0.000000   0.000000   0.000002
    30  H    0.000000   0.000000   0.000000   0.000000   0.000000
    31  H    0.000002   0.000000   0.000000   0.000000   0.000003
    32  H    0.000000   0.000000   0.000000   0.000000   0.000000
    33  H    0.001770   0.000003   0.000000   0.000000   0.000004
    34  H    0.002052   0.000003   0.000000   0.000000   0.000007
    35  H    0.000153   0.000003   0.000000  -0.000003   0.002823
    36  H    0.000190   0.000003   0.000000  -0.000001   0.002264
    37  H    0.583599  -0.005411  -0.000166   0.000016  -0.000162
    38  H   -0.005411   0.573055  -0.005199  -0.000177   0.000017
    39  H   -0.000166  -0.005199   0.573682  -0.005124  -0.000167
    40  H    0.000016  -0.000177  -0.005124   0.572867  -0.005467
    41  H   -0.000162   0.000017  -0.000167  -0.005467   0.586011
 Mulliken charges:
               1
     1  C   -0.334686
     2  N   -0.514350
     3  C   -0.333024
     4  S    1.356706
     5  O   -0.572210
     6  O   -0.596876
     7  N   -0.731374
     8  C    0.146770
     9  C   -0.494588
    10  S    1.110709
    11  O   -0.561068
    12  O   -0.559645
    13  C   -0.481423
    14  C   -0.297950
    15  C   -0.362826
    16  C    0.152032
    17  C   -0.195926
    18  C   -0.158498
    19  C   -0.149918
    20  C   -0.151800
    21  C   -0.192957
    22  H    0.192552
    23  H    0.172878
    24  H    0.199445
    25  H    0.189128
    26  H    0.194376
    27  H    0.178636
    28  H    0.404884
    29  H    0.232029
    30  H    0.238407
    31  H    0.225701
    32  H    0.247672
    33  H    0.188679
    34  H    0.176293
    35  H    0.171300
    36  H    0.174687
    37  H    0.146579
    38  H    0.149101
    39  H    0.147934
    40  H    0.149280
    41  H    0.143341
 Sum of Mulliken charges =   0.00000
 Mulliken charges with hydrogens summed into heavy atoms:
               1
     1  C    0.230189
     2  N   -0.514350
     3  C    0.229116
     4  S    1.356706
     5  O   -0.572210
     6  O   -0.596876
     7  N   -0.326490
     8  C    0.146770
     9  C   -0.024152
    10  S    1.110709
    11  O   -0.561068
    12  O   -0.559645
    13  C   -0.008050
    14  C    0.067022
    15  C   -0.016838
    16  C    0.152032
    17  C   -0.049347
    18  C   -0.009398
    19  C   -0.001984
    20  C   -0.002520
    21  C   -0.049616
 Electronic spatial extent (au):  <R**2>=           8886.0678
 Charge=              0.0000 electrons
 Dipole moment (field-independent basis, Debye):
    X=             -0.4492    Y=             -2.4666    Z=             -4.7307  Tot=              5.3540
 Quadrupole moment (field-independent basis, Debye-Ang):
   XX=           -123.6740   YY=           -169.2428   ZZ=           -133.4772
   XY=            -19.2914   XZ=             -6.7200   YZ=              5.3560
 Traceless Quadrupole moment (field-independent basis, Debye-Ang):
   XX=             18.4573   YY=            -27.1115   ZZ=              8.6542
   XY=            -19.2914   XZ=             -6.7200   YZ=              5.3560
 Octapole moment (field-independent basis, Debye-Ang**2):
  XXX=             51.5831  YYY=            -97.1138  ZZZ=            -18.0793  XYY=            -43.6686
  XXY=            -74.1922  XXZ=             -2.4155  XZZ=             41.0215  YZZ=             17.5649
  YYZ=            -21.2255  XYZ=             13.3048
 Hexadecapole moment (field-independent basis, Debye-Ang**3):
 XXXX=          -7127.6049 YYYY=          -3732.5993 ZZZZ=           -502.5398 XXXY=           -288.1113
 XXXZ=            -47.2410 YYYX=           -150.1945 YYYZ=             -3.8912 ZZZX=            -25.2874
 ZZZY=             10.3312 XXYY=          -1798.6403 XXZZ=          -1482.1631 YYZZ=           -589.3959
 XXYZ=             81.5912 YYXZ=            -32.5181 ZZXY=            -10.3615
 N-N= 2.146751153710D+03 E-N=-8.319339502205D+03  KE= 1.702532807991D+03
 No NMR shielding tensors so no spin-rotation constants.
 Leave Link  601 at Thu Oct  1 22:14:03 2020, MaxMem=  2147483648 cpu:         0.3
 (Enter /prod/apps/gaussian/g09d1/l9999.exe)
 1\1\GINC-PIRINEUS15\SP\RB3LYP\6-31G(d)\C13H20N2O4S2\UBAFAR01\01-Oct-20
 20\0\\#p b3lyp/6-31G(d) scrf=(iefpcm,read,solvent=Water) geom=allcheck
  guess=read\\SM40.n.11.pdb.xyz\\0,1\C,0,2.236,0.566,-0.497\N,0,2.84,0.
 108,0.764\C,0,1.949,-0.704,1.606\S,0,4.414,-0.424,0.678\O,0,5.141,0.54
 ,-0.158\O,0,4.874,-0.68,2.046\N,0,4.317,-1.933,-0.086\C,0,5.349,-2.971
 ,0.162\C,0,4.881,-4.223,-0.649\S,0,4.161,-4.94,0.868\O,0,2.706,-4.703,
 0.963\O,0,4.667,-6.288,1.194\C,0,5.136,-3.579,1.585\C,0,6.767,-2.469,-
 0.159\C,0,7.909,-3.471,0.022\C,0,9.28,-2.926,-0.34\C,0,9.486,-1.604,-0
 .746\C,0,10.765,-1.143,-1.069\C,0,11.863,-1.999,-0.99\C,0,11.67,-3.324
 ,-0.585\C,0,10.392,-3.778,-0.265\H,0,1.373,1.184,-0.241\H,0,1.899,-0.2
 7,-1.123\H,0,2.956,1.172,-1.043\H,0,1.051,-0.113,1.793\H,0,2.44,-0.91,
 2.555\H,0,1.669,-1.646,1.122\H,0,4.189,-1.772,-1.089\H,0,5.701,-4.85,-
 0.997\H,0,4.162,-4.049,-1.448\H,0,6.046,-3.981,2.032\H,0,4.6,-2.954,2.
 293\H,0,6.952,-1.596,0.474\H,0,6.755,-2.109,-1.192\H,0,7.726,-4.368,-0
 .583\H,0,7.94,-3.815,1.062\H,0,8.645,-0.924,-0.814\H,0,10.899,-0.112,-
 1.382\H,0,12.856,-1.642,-1.241\H,0,12.515,-4.002,-0.519\H,0,10.251,-4.
 809,0.048\\Version=AM64L-G09RevD.01\State=1-A\HF=-1714.0637039\RMSD=6.
 595e-09\Dipole=-0.0928471,0.7214736,-1.9768524\Quadrupole=11.7503199,-
 16.4851773,4.7348574,-17.7579741,5.527285,1.5838258\PG=C01 [X(C13H20N2
 O4S2)]\\@


 LIFE CAN ONLY BE UNDERSTOOD BACKWARD, BUT MUST
 BE LIVED FORWARD. -- KIRKEGAARD
 Job cpu time:       0 days  0 hours  4 minutes 49.0 seconds.
 File lengths (MBytes):  RWF=    230 Int=      0 D2E=      0 Chk=      7 Scr=      1
 Normal termination of Gaussian 09 at Thu Oct  1 22:14:03 2020.
