 Entering Gaussian System, Link 0=g09
 Initial command:
 /prod/apps/gaussian/g09d1/l1.exe "/tmp/ubafar01/1449186/Gau-220087.inp" -scrdir="/tmp/ubafar01/1449186/"
 Entering Link 1 = /prod/apps/gaussian/g09d1/l1.exe PID=    220088.
  
 Copyright (c) 1988,1990,1992,1993,1995,1998,2003,2009,2013,
            Gaussian, Inc.  All Rights Reserved.
  
 This is part of the Gaussian(R) 09 program.  It is based on
 the Gaussian(R) 03 system (copyright 2003, Gaussian, Inc.),
 the Gaussian(R) 98 system (copyright 1998, Gaussian, Inc.),
 the Gaussian(R) 94 system (copyright 1995, Gaussian, Inc.),
 the Gaussian 92(TM) system (copyright 1992, Gaussian, Inc.),
 the Gaussian 90(TM) system (copyright 1990, Gaussian, Inc.),
 the Gaussian 88(TM) system (copyright 1988, Gaussian, Inc.),
 the Gaussian 86(TM) system (copyright 1986, Carnegie Mellon
 University), and the Gaussian 82(TM) system (copyright 1983,
 Carnegie Mellon University). Gaussian is a federally registered
 trademark of Gaussian, Inc.
  
 This software contains proprietary and confidential information,
 including trade secrets, belonging to Gaussian, Inc.
  
 This software is provided under written license and may be
 used, copied, transmitted, or stored only in accord with that
 written license.
  
 The following legend is applicable only to US Government
 contracts under FAR:
  
                    RESTRICTED RIGHTS LEGEND
  
 Use, reproduction and disclosure by the US Government is
 subject to restrictions as set forth in subparagraphs (a)
 and (c) of the Commercial Computer Software - Restricted
 Rights clause in FAR 52.227-19.
  
 Gaussian, Inc.
 340 Quinnipiac St., Bldg. 40, Wallingford CT 06492
  
  
 ---------------------------------------------------------------
 Warning -- This program may not be used in any manner that
 competes with the business of Gaussian, Inc. or will provide
 assistance to any competitor of Gaussian, Inc.  The licensee
 of this program is prohibited from giving any competitor of
 Gaussian, Inc. access to this program.  By using this program,
 the user acknowledges that Gaussian, Inc. is engaged in the
 business of creating and licensing software in the field of
 computational chemistry and represents and warrants to the
 licensee that it is not a competitor of Gaussian, Inc. and that
 it will not use this program in any manner prohibited above.
 ---------------------------------------------------------------
  

 Cite this work as:
 Gaussian 09, Revision D.01,
 M. J. Frisch, G. W. Trucks, H. B. Schlegel, G. E. Scuseria, 
 M. A. Robb, J. R. Cheeseman, G. Scalmani, V. Barone, B. Mennucci, 
 G. A. Petersson, H. Nakatsuji, M. Caricato, X. Li, H. P. Hratchian, 
 A. F. Izmaylov, J. Bloino, G. Zheng, J. L. Sonnenberg, M. Hada, 
 M. Ehara, K. Toyota, R. Fukuda, J. Hasegawa, M. Ishida, T. Nakajima, 
 Y. Honda, O. Kitao, H. Nakai, T. Vreven, J. A. Montgomery, Jr., 
 J. E. Peralta, F. Ogliaro, M. Bearpark, J. J. Heyd, E. Brothers, 
 K. N. Kudin, V. N. Staroverov, T. Keith, R. Kobayashi, J. Normand, 
 K. Raghavachari, A. Rendell, J. C. Burant, S. S. Iyengar, J. Tomasi, 
 M. Cossi, N. Rega, J. M. Millam, M. Klene, J. E. Knox, J. B. Cross, 
 V. Bakken, C. Adamo, J. Jaramillo, R. Gomperts, R. E. Stratmann, 
 O. Yazyev, A. J. Austin, R. Cammi, C. Pomelli, J. W. Ochterski, 
 R. L. Martin, K. Morokuma, V. G. Zakrzewski, G. A. Voth, 
 P. Salvador, J. J. Dannenberg, S. Dapprich, A. D. Daniels, 
 O. Farkas, J. B. Foresman, J. V. Ortiz, J. Cioslowski, 
 and D. J. Fox, Gaussian, Inc., Wallingford CT, 2013.
 
 ******************************************
 Gaussian 09:  AM64L-G09RevD.01 24-Apr-2013
                 8-Aug-2020 
 ******************************************
 %nproc=1
 Will use up to    1 processors via shared memory.
 %Chk=SM36.n.13.pdb.xyz.mst.n.o.chk
 -----------------
 #p b3lyp/6-31G(d)
 -----------------
 1/38=1/1;
 2/12=2,17=6,18=5,40=1/2;
 3/5=1,6=6,7=1,11=2,16=1,25=1,30=1,74=-5/1,2,3;
 4//1;
 5/5=2,38=5/2;
 6/7=2,8=2,9=2,10=2,28=1/1;
 99/5=1,9=1/99;
 Leave Link    1 at Sat Aug  8 04:27:30 2020, MaxMem=           0 cpu:         0.0
 (Enter /prod/apps/gaussian/g09d1/l101.exe)
 -----------------
 SM36.n.13.pdb.xyz
 -----------------
 Symbolic Z-matrix:
 Charge =  0 Multiplicity = 1
 O                     5.171     0.741    -0.63 
 S                     4.772    -0.055    -1.799 
 N                     3.106    -0.252    -1.616 
 C                     2.414    -1.453    -2.123 
 C                     0.94     -1.4      -1.65 
 S                     1.001    -3.093    -0.856 
 O                     0.322    -4.11     -1.761 
 C                     2.765    -2.783    -1.397 
 C                     2.543    -1.5      -3.654 
 C                     1.893    -2.725    -4.34 
 C                     2.825    -3.902    -4.562 
 C                     2.533    -5.162    -4.024 
 C                     3.374    -6.252    -4.262 
 C                     4.521    -6.098    -5.04 
 C                     4.824    -4.845    -5.578 
 C                     3.982    -3.76     -5.341 
 C                     4.944     0.952    -3.266 
 C                     4.243     2.153    -3.368 
 C                     4.445     2.958    -4.486 
 C                     5.346     2.561    -5.48 
 C                     6.045     1.36     -5.359 
 C                     5.85      0.545    -4.245 
 O                     5.428    -1.342    -2.071 
 H                     2.894    -0.036    -0.642 
 H                     0.19     -1.371    -2.441 
 H                     0.721    -0.632    -0.906 
 H                     3.133    -3.592    -2.027 
 H                     3.406    -2.668    -0.523 
 H                     3.603    -1.468    -3.916 
 H                     2.091    -0.576    -4.03 
 H                     1.52     -2.393    -5.316 
 H                     1.02     -3.065    -3.773 
 H                     1.648    -5.272    -3.404 
 H                     3.132    -7.221    -3.836 
 H                     5.176    -6.944    -5.224 
 H                     5.715    -4.715    -6.186 
 H                     4.224    -2.79     -5.767 
 H                     3.544     2.444    -2.593 
 H                     3.901     3.891    -4.582 
 H                     5.5       3.19     -6.35 
 H                     6.743     1.056    -6.131 
 H                     6.375    -0.394    -4.127 
 
 NAtoms=     42 NQM=       42 NQMF=       0 NMMI=      0 NMMIF=      0
                NMic=       0 NMicF=      0.
                    Isotopes and Nuclear Properties:
 (Nuclear quadrupole moments (NQMom) in fm**2, nuclear magnetic moments (NMagM)
  in nuclear magnetons)

  Atom         1           2           3           4           5           6           7           8           9          10
 IAtWgt=          16          32          14          12          12          32          16          12          12          12
 AtmWgt=  15.9949146  31.9720718  14.0030740  12.0000000  12.0000000  31.9720718  15.9949146  12.0000000  12.0000000  12.0000000
 NucSpn=           0           0           2           0           0           0           0           0           0           0
 AtZEff=   0.0000000   0.0000000   0.0000000   0.0000000   0.0000000   0.0000000   0.0000000   0.0000000   0.0000000   0.0000000
 NQMom=    0.0000000   0.0000000   2.0440000   0.0000000   0.0000000   0.0000000   0.0000000   0.0000000   0.0000000   0.0000000
 NMagM=    0.0000000   0.0000000   0.4037610   0.0000000   0.0000000   0.0000000   0.0000000   0.0000000   0.0000000   0.0000000
 AtZNuc=   8.0000000  16.0000000   7.0000000   6.0000000   6.0000000  16.0000000   8.0000000   6.0000000   6.0000000   6.0000000

  Atom        11          12          13          14          15          16          17          18          19          20
 IAtWgt=          12          12          12          12          12          12          12          12          12          12
 AtmWgt=  12.0000000  12.0000000  12.0000000  12.0000000  12.0000000  12.0000000  12.0000000  12.0000000  12.0000000  12.0000000
 NucSpn=           0           0           0           0           0           0           0           0           0           0
 AtZEff=   0.0000000   0.0000000   0.0000000   0.0000000   0.0000000   0.0000000   0.0000000   0.0000000   0.0000000   0.0000000
 NQMom=    0.0000000   0.0000000   0.0000000   0.0000000   0.0000000   0.0000000   0.0000000   0.0000000   0.0000000   0.0000000
 NMagM=    0.0000000   0.0000000   0.0000000   0.0000000   0.0000000   0.0000000   0.0000000   0.0000000   0.0000000   0.0000000
 AtZNuc=   6.0000000   6.0000000   6.0000000   6.0000000   6.0000000   6.0000000   6.0000000   6.0000000   6.0000000   6.0000000

  Atom        21          22          23          24          25          26          27          28          29          30
 IAtWgt=          12          12          16           1           1           1           1           1           1           1
 AtmWgt=  12.0000000  12.0000000  15.9949146   1.0078250   1.0078250   1.0078250   1.0078250   1.0078250   1.0078250   1.0078250
 NucSpn=           0           0           0           1           1           1           1           1           1           1
 AtZEff=   0.0000000   0.0000000   0.0000000   0.0000000   0.0000000   0.0000000   0.0000000   0.0000000   0.0000000   0.0000000
 NQMom=    0.0000000   0.0000000   0.0000000   0.0000000   0.0000000   0.0000000   0.0000000   0.0000000   0.0000000   0.0000000
 NMagM=    0.0000000   0.0000000   0.0000000   2.7928460   2.7928460   2.7928460   2.7928460   2.7928460   2.7928460   2.7928460
 AtZNuc=   6.0000000   6.0000000   8.0000000   1.0000000   1.0000000   1.0000000   1.0000000   1.0000000   1.0000000   1.0000000

  Atom        31          32          33          34          35          36          37          38          39          40
 IAtWgt=           1           1           1           1           1           1           1           1           1           1
 AtmWgt=   1.0078250   1.0078250   1.0078250   1.0078250   1.0078250   1.0078250   1.0078250   1.0078250   1.0078250   1.0078250
 NucSpn=           1           1           1           1           1           1           1           1           1           1
 AtZEff=   0.0000000   0.0000000   0.0000000   0.0000000   0.0000000   0.0000000   0.0000000   0.0000000   0.0000000   0.0000000
 NQMom=    0.0000000   0.0000000   0.0000000   0.0000000   0.0000000   0.0000000   0.0000000   0.0000000   0.0000000   0.0000000
 NMagM=    2.7928460   2.7928460   2.7928460   2.7928460   2.7928460   2.7928460   2.7928460   2.7928460   2.7928460   2.7928460
 AtZNuc=   1.0000000   1.0000000   1.0000000   1.0000000   1.0000000   1.0000000   1.0000000   1.0000000   1.0000000   1.0000000

  Atom        41          42
 IAtWgt=           1           1
 AtmWgt=   1.0078250   1.0078250
 NucSpn=           1           1
 AtZEff=   0.0000000   0.0000000
 NQMom=    0.0000000   0.0000000
 NMagM=    2.7928460   2.7928460
 AtZNuc=   1.0000000   1.0000000
 Leave Link  101 at Sat Aug  8 04:27:30 2020, MaxMem=    33554432 cpu:         0.1
 (Enter /prod/apps/gaussian/g09d1/l202.exe)
                          Input orientation:                          
 ---------------------------------------------------------------------
 Center     Atomic      Atomic             Coordinates (Angstroms)
 Number     Number       Type             X           Y           Z
 ---------------------------------------------------------------------
      1          8           0        5.171000    0.741000   -0.630000
      2         16           0        4.772000   -0.055000   -1.799000
      3          7           0        3.106000   -0.252000   -1.616000
      4          6           0        2.414000   -1.453000   -2.123000
      5          6           0        0.940000   -1.400000   -1.650000
      6         16           0        1.001000   -3.093000   -0.856000
      7          8           0        0.322000   -4.110000   -1.761000
      8          6           0        2.765000   -2.783000   -1.397000
      9          6           0        2.543000   -1.500000   -3.654000
     10          6           0        1.893000   -2.725000   -4.340000
     11          6           0        2.825000   -3.902000   -4.562000
     12          6           0        2.533000   -5.162000   -4.024000
     13          6           0        3.374000   -6.252000   -4.262000
     14          6           0        4.521000   -6.098000   -5.040000
     15          6           0        4.824000   -4.845000   -5.578000
     16          6           0        3.982000   -3.760000   -5.341000
     17          6           0        4.944000    0.952000   -3.266000
     18          6           0        4.243000    2.153000   -3.368000
     19          6           0        4.445000    2.958000   -4.486000
     20          6           0        5.346000    2.561000   -5.480000
     21          6           0        6.045000    1.360000   -5.359000
     22          6           0        5.850000    0.545000   -4.245000
     23          8           0        5.428000   -1.342000   -2.071000
     24          1           0        2.894000   -0.036000   -0.642000
     25          1           0        0.190000   -1.371000   -2.441000
     26          1           0        0.721000   -0.632000   -0.906000
     27          1           0        3.133000   -3.592000   -2.027000
     28          1           0        3.406000   -2.668000   -0.523000
     29          1           0        3.603000   -1.468000   -3.916000
     30          1           0        2.091000   -0.576000   -4.030000
     31          1           0        1.520000   -2.393000   -5.316000
     32          1           0        1.020000   -3.065000   -3.773000
     33          1           0        1.648000   -5.272000   -3.404000
     34          1           0        3.132000   -7.221000   -3.836000
     35          1           0        5.176000   -6.944000   -5.224000
     36          1           0        5.715000   -4.715000   -6.186000
     37          1           0        4.224000   -2.790000   -5.767000
     38          1           0        3.544000    2.444000   -2.593000
     39          1           0        3.901000    3.891000   -4.582000
     40          1           0        5.500000    3.190000   -6.350000
     41          1           0        6.743000    1.056000   -6.131000
     42          1           0        6.375000   -0.394000   -4.127000
 ---------------------------------------------------------------------
                    Distance matrix (angstroms):
                    1          2          3          4          5
     1  O    0.000000
     2  S    1.469482   0.000000
     3  N    2.494488   1.687559   0.000000
     4  C    3.826713   2.760352   1.475911   0.000000
     5  C    4.850324   4.063921   2.451656   1.548940   0.000000
     6  S    5.669174   4.933471   3.616615   2.508278   1.870937
     7  O    6.951558   6.020546   4.759816   3.401052   2.781788
     8  C    4.335401   3.410519   2.563241   1.555370   2.303763
     9  C    4.590538   3.239983   2.455182   1.537144   2.568195
    10  C    6.043388   4.676989   3.873922   2.608546   3.146416
    11  C    6.520873   5.120975   4.698976   3.480696   4.277029
    12  C    7.302307   6.003765   5.498626   4.169490   4.725058
    13  C    8.082245   6.813485   6.563013   5.341097   6.024019
    14  C    8.163487   6.861846   6.921107   5.875744   6.810790
    15  C    7.470375   6.101446   6.304333   5.408400   6.510197
    16  C    6.623160   5.186221   5.191249   4.258685   5.333558
    17  C    2.654156   1.787658   2.747792   3.673061   4.916846
    18  C    3.217386   2.759867   3.185325   4.230662   5.146372
    19  C    4.506762   4.050317   4.509315   5.400523   6.270573
    20  C    5.183196   4.552218   5.278358   5.998189   7.054875
    21  C    4.848760   4.036874   5.024571   5.618614   6.887329
    22  C    3.683433   2.739526   3.882832   4.505661   5.884314
    23  O    2.545863   1.469928   2.605150   3.016492   4.508076
    24  H    2.405951   2.205877   1.019939   2.105148   2.587407
    25  H    5.705316   4.810275   3.230455   2.248116   1.090423
    26  H    4.665169   4.188195   2.517285   2.240843   1.091477
    27  H    4.987980   3.904955   3.365301   2.258650   3.123498
    28  H    3.840307   3.212772   2.668652   2.240600   2.993177
    29  H    4.258650   2.800860   2.648710   2.151463   3.497277
    30  H    4.772933   3.526551   2.638673   2.123701   2.769147
    31  H    6.716424   5.330200   4.559526   3.446460   3.842135
    32  H    6.449410   5.199450   4.113030   2.695233   2.699214
    33  H    7.500852   6.289077   5.524772   4.100302   4.309311
    34  H    8.822097   7.628271   7.314099   6.059680   6.592989
    35  H    8.953440   7.704035   7.879431   6.884470   7.839203
    36  H    7.805960   6.469205   6.900011   6.168080   7.373272
    37  H    6.305041   4.850315   4.992211   4.282803   5.446691
    38  H    3.066057   2.895414   2.900826   4.084655   4.737763
    39  H    5.210922   4.906592   5.156901   6.067634   6.734896
    40  H    6.230910   5.636631   6.323714   6.996311   7.996981
    41  H    5.729870   4.887268   5.943388   6.410880   7.732148
    42  H    3.868701   2.846773   4.124518   4.563663   6.056962
                    6          7          8          9         10
     6  S    0.000000
     7  O    1.521300   0.000000
     8  C    1.870956   2.803868   0.000000
     9  C    3.569904   3.915149   2.605652   0.000000
    10  C    3.615155   3.322274   3.070016   1.547165   0.000000
    11  C    4.209025   3.762163   3.357527   2.583330   1.517642
    12  C    4.082157   3.334126   3.551703   3.680658   2.539375
    13  C    5.216440   4.489752   4.540162   4.862276   3.826117
    14  C    6.239093   5.686439   5.229169   5.193754   4.332841
    15  C    6.323141   5.947917   5.096282   4.482607   3.823324
    16  C    5.426461   5.131715   4.241551   3.166116   2.537153
    17  C    6.141447   7.017959   4.710778   3.453643   4.897183
    18  C    6.658921   7.561869   5.516649   4.039332   5.501106
    19  C    7.851919   8.624464   6.732266   4.917682   6.231413
    20  C    8.498713   9.141870   7.203526   5.261445   6.415965
    21  C    8.096181   8.695932   6.604566   4.832249   5.913095
    22  C    6.945010   7.641863   5.357603   3.932881   5.134177
    23  O    4.913304   5.816284   3.101987   3.294553   4.422361
    24  H    3.602012   4.946193   2.851785   3.367290   4.680590
    25  H    2.476940   2.825234   3.116778   2.650400   2.887858
    26  H    2.477382   3.603708   3.007627   3.409489   4.188865
    27  H    2.483076   2.870680   1.089406   2.715086   2.763921
    28  H    2.464861   3.622577   1.089946   3.451399   4.106325
    29  H    4.332970   4.731717   2.962572   1.092368   2.164238
    30  H    4.194957   4.557069   3.501116   1.095197   2.180253
    31  H    4.544333   4.125690   4.130458   2.146211   1.096325
    32  H    2.917196   2.372208   2.961406   2.186988   1.095088
    33  H    3.414521   2.409973   3.386866   3.884779   2.724579
    34  H    5.519234   4.677611   5.077327   5.754119   4.690752
    35  H    7.165211   6.601912   6.145956   6.247778   5.418441
    36  H    7.298053   7.002221   5.947238   5.177725   4.687803
    37  H    5.881960   5.745959   4.607128   2.992429   2.733883
    38  H    6.335802   7.350403   5.418375   4.205099   5.700559
    39  H    8.430263   9.207784   7.481778   5.636331   6.918243
    40  H    9.481620  10.057863   8.227342   6.165092   7.213721
    41  H    8.832349   9.328113   7.278266   5.505331   6.405165
    42  H    6.845723   7.486349   5.117843   4.016365   5.056407
                   11         12         13         14         15
    11  C    0.000000
    12  C    1.400824   0.000000
    13  C    2.431851   1.397149   0.000000
    14  C    2.815549   2.420846   1.394492   0.000000
    15  C    2.432592   2.786411   2.411225   1.396876   0.000000
    16  C    1.402018   2.408255   2.782799   2.418133   1.393685
    17  C    5.452623   6.615775   7.440063   7.282067   6.242191
    18  C    6.332408   7.540800   8.496965   8.423293   7.361635
    19  C    7.049098   8.354854   9.274768   9.073248   7.888150
    20  C    6.997752   8.347313   9.112699   8.709334   7.425020
    21  C    6.220310   7.526809   8.141265   7.618799   6.327782
    22  C    5.387664   6.604633   7.233953   6.821123   5.646385
    23  O    4.419761   5.175677   5.755649   5.679537   4.993483
    24  H    5.506098   6.151758   7.209262   7.664031   7.156499
    25  H    4.224669   4.729399   6.105576   6.917868   6.586608
    26  H    5.337233   5.790179   7.062970   7.836269   7.510763
    27  H    2.572390   2.610155   3.482658   4.157493   4.127843
    28  H    4.263078   4.386247   5.179402   5.780261   5.683580
    29  H    2.635708   3.847363   4.801959   4.852113   3.956920
    30  H    3.447326   4.607255   5.823821   6.116983   5.299996
    31  H    2.132750   3.219129   4.409094   4.775898   4.122786
    32  H    2.140354   2.597995   3.992168   4.802226   4.571306
    33  H    2.145505   1.086151   2.162323   3.407771   3.872413
    34  H    3.411317   2.152586   1.085818   2.154081   3.397470
    35  H    3.901180   3.406020   2.156736   1.085632   2.157550
    36  H    3.413275   3.872877   3.397709   2.156766   1.086483
    37  H    2.155405   3.394689   3.869492   3.399941   2.149127
    38  H    6.683236   7.805198   8.856347   8.939133   7.979859
    39  H    7.866958   9.172764  10.161721  10.018697   8.840907
    40  H    7.787749   9.163475   9.901060   9.430879   8.100258
    41  H    6.511087   7.799171   8.261367   7.570157   6.229781
    42  H    5.009769   6.124165   6.583342   6.066836   4.931775
                   16         17         18         19         20
    16  C    0.000000
    17  C    5.237749   0.000000
    18  C    6.238944   1.394348   0.000000
    19  C    6.787998   2.400299   1.392391   0.000000
    20  C    6.467987   2.766276   2.417357   1.399088   0.000000
    21  C    5.520027   2.399857   2.800024   2.423991   1.394863
    22  C    4.819094   1.394606   2.436646   2.802619   2.417333
    23  O    4.316311   2.631486   3.911708   5.028769   5.182800
    24  H    6.093646   3.473330   3.747345   5.113313   6.013564
    25  H    5.338219   5.355135   5.450203   6.405255   7.161039
    26  H    6.331487   5.090421   5.120757   6.290682   7.246196
    27  H    3.425145   5.046066   6.002950   7.118323   7.394592
    28  H    4.973667   4.795195   5.660091   6.959653   7.461762
    29  H    2.725350   2.842038   3.717734   4.541293   4.660149
    30  H    3.928417   3.325371   3.537907   4.270645   4.747451
    31  H    2.816160   5.207235   5.645844   6.154488   6.261572
    32  H    3.422732   5.638361   6.146485   6.965309   7.299315
    33  H    3.389051   7.044206   7.865491   8.759385   8.907349
    34  H    3.868597   8.390839   9.451202  10.283896  10.163270
    35  H    3.402526   8.138452   9.331165   9.956335   9.509966
    36  H    2.151590   6.421505   7.568179   7.961019   7.319479
    37  H    1.086711   4.558066   5.494435   5.893158   5.474893
    38  H    6.799483   2.153832   1.083470   2.158575   3.405240
    39  H    7.688982   3.384882   2.147418   1.084270   2.159474
    40  H    7.185047   3.850823   3.398197   2.154378   1.084554
    41  H    5.607234   3.384589   3.884273   3.406528   2.154167
    42  H    4.304672   2.144947   3.407156   3.884544   3.409028
                   21         22         23         24         25
    21  C    0.000000
    22  C    1.394004   0.000000
    23  O    4.300283   2.909489   0.000000
    24  H    5.841892   4.696499   3.188861   0.000000
    25  H    7.089013   6.241880   5.251132   3.511444   0.000000
    26  H    7.220959   6.232246   4.900732   2.268665   1.784463
    27  H    6.641105   5.423687   3.214259   3.823674   3.710187
    28  H    6.824661   5.490882   2.871074   2.683976   3.962775
    29  H    4.005396   3.034702   2.598177   3.643128   3.719355
    30  H    4.598745   3.928479   3.944617   3.523486   2.602066
    31  H    5.878987   5.341141   5.187204   5.411987   3.328515
    32  H    6.880890   6.048453   5.029513   4.742349   2.309277
    33  H    8.193843   7.225066   5.613394   6.049534   4.274451
    34  H    9.189051   8.238056   6.553585   7.866543   6.695065
    35  H    8.350437   7.582733   6.433298   8.597832   7.978948
    36  H    6.139907   5.608325   5.328482   7.783766   7.465453
    37  H    4.550275   4.010310   4.148100   5.968169   5.417471
    38  H    3.883402   3.413640   4.260955   3.221692   5.081992
    39  H    3.406821   3.886886   6.001761   5.653227   6.785576
    40  H    2.151280   3.398463   6.233302   7.055464   8.017425
    41  H    1.084253   2.148387   4.895225   6.792377   7.902420
    42  H    2.168695   1.082252   2.454109   4.938699   6.484701
                   26         27         28         29         30
    26  H    0.000000
    27  H    3.979445   0.000000
    28  H    3.391343   1.786147   0.000000
    29  H    4.250285   2.881076   3.604339   0.000000
    30  H    3.411658   3.767496   4.290074   1.759206   0.000000
    31  H    4.815353   3.854464   5.158049   2.674792   2.298114
    32  H    3.772079   2.791239   4.051309   3.040189   2.721803
    33  H    5.350601   2.631303   4.262809   4.307503   4.758208
    34  H    7.603469   4.054889   5.637451   5.772803   6.728844
    35  H    8.850621   5.062664   6.596702   5.845662   7.175952
    36  H    8.336026   5.022463   6.449129   4.489594   5.908725
    37  H    6.368461   3.977573   5.308818   2.357865   3.531098
    38  H    4.503007   6.076395   5.516927   4.130079   3.646447
    39  H    6.639496   7.944378   7.729229   5.408442   4.851277
    40  H    8.190462   8.383707   8.523786   5.587480   5.584482
    41  H    8.149506   7.174874   7.513548   4.597434   5.358986
    42  H    6.511467   5.014755   5.193732   2.980265   4.288961
                   31         32         33         34         35
    31  H    0.000000
    32  H    1.755686   0.000000
    33  H    3.458434   2.324090   0.000000
    34  H    5.300804   4.662279   2.487465   0.000000
    35  H    5.838356   5.867229   4.307525   2.486204   0.000000
    36  H    4.873049   5.530650   4.958857   4.298189   2.486847
    37  H    2.769951   3.783818   4.287175   4.955299   4.296146
    38  H    5.908289   6.173496   7.986814   9.753308   9.885349
    39  H    6.759924   7.572356   9.509167  11.163531  10.928633
    40  H    6.933934   8.113960   9.753064  10.968890  10.201510
    41  H    6.311858   7.436097   8.569664   9.317461   8.202325
    42  H    5.383377   5.994629   6.830969   7.563707   6.748593
                   36         37         38         39         40
    36  H    0.000000
    37  H    2.470681   0.000000
    38  H    8.299046   6.158850   0.000000
    39  H    8.940170   6.792961   2.485433   0.000000
    40  H    7.909624   6.142350   4.300872   2.484759   0.000000
    41  H    5.862103   4.611895   4.967654   4.302742   2.479308
    42  H    4.831782   3.613477   4.292081   4.968795   4.307251
                   41         42
    41  H    0.000000
    42  H    2.500788   0.000000
 Stoichiometry    C17H19NO3S2
 Framework group  C1[X(C17H19NO3S2)]
 Deg. of freedom   120
 Full point group                 C1      NOp   1
 Largest Abelian subgroup         C1      NOp   1
 Largest concise Abelian subgroup C1      NOp   1
                         Standard orientation:                         
 ---------------------------------------------------------------------
 Center     Atomic      Atomic             Coordinates (Angstroms)
 Number     Number       Type             X           Y           Z
 ---------------------------------------------------------------------
      1          8           0       -2.721874   -1.732942    2.002664
      2         16           0       -1.882667   -0.794495    1.244754
      3          7           0       -1.027845   -1.777696    0.172163
      4          6           0        0.327237   -1.416536   -0.287869
      5          6           0        0.888554   -2.597058   -1.118834
      6         16           0        2.447401   -2.742805   -0.094549
      7          8           0        3.612093   -2.105640   -0.837427
      8          6           0        1.434849   -1.451045    0.803544
      9          6           0        0.254223   -0.108579   -1.092063
     10          6           0        1.606935    0.424884   -1.620558
     11          6           0        2.302067    1.418705   -0.708227
     12          6           0        3.595034    1.172413   -0.228765
     13          6           0        4.246269    2.106925    0.580312
     14          6           0        3.613497    3.301134    0.923928
     15          6           0        2.322535    3.555194    0.454744
     16          6           0        1.676236    2.622301   -0.354184
     17          6           0       -2.935083    0.200234    0.196586
     18          6           0       -3.758269   -0.417162   -0.744367
     19          6           0       -4.623088    0.368646   -1.501564
     20          6           0       -4.662079    1.753430   -1.305862
     21          6           0       -3.837293    2.354538   -0.355052
     22          6           0       -2.966289    1.578377    0.407950
     23          8           0       -0.978477    0.121691    1.954494
     24          1           0       -1.099756   -2.729509    0.531546
     25          1           0        1.128899   -2.371900   -2.158334
     26          1           0        0.304440   -3.517602   -1.066573
     27          1           0        2.001659   -0.531147    0.942537
     28          1           0        1.109797   -1.839836    1.768513
     29          1           0       -0.210336    0.658820   -0.468723
     30          1           0       -0.426569   -0.298616   -1.928642
     31          1           0        1.411229    0.917688   -2.580127
     32          1           0        2.291442   -0.403677   -1.830691
     33          1           0        4.076020    0.232812   -0.484750
     34          1           0        5.248117    1.898385    0.943372
     35          1           0        4.118077    4.027081    1.554005
     36          1           0        1.821344    4.482981    0.716401
     37          1           0        0.673472    2.830570   -0.717543
     38          1           0       -3.712300   -1.489974   -0.888829
     39          1           0       -5.263517   -0.097247   -2.242128
     40          1           0       -5.336134    2.362527   -1.898236
     41          1           0       -3.870834    3.427927   -0.205668
     42          1           0       -2.311838    2.018121    1.149292
 ---------------------------------------------------------------------
 Rotational constants (GHZ):      0.3092122      0.1661029      0.1289186
 Leave Link  202 at Sat Aug  8 04:27:30 2020, MaxMem=    33554432 cpu:         0.0
 (Enter /prod/apps/gaussian/g09d1/l301.exe)
 Standard basis: 6-31G(d) (6D, 7F)
 Ernie: Thresh=  0.10000D-02 Tol=  0.10000D-05 Strict=F.
 There are   391 symmetry adapted cartesian basis functions of A   symmetry.
 There are   391 symmetry adapted basis functions of A   symmetry.
   391 basis functions,   768 primitive gaussians,   391 cartesian basis functions
    92 alpha electrons       92 beta electrons
       nuclear repulsion energy      2324.2894591141 Hartrees.
 IExCor=  402 DFT=T Ex+Corr=B3LYP ExCW=0 ScaHFX=  0.200000
 ScaDFX=  0.800000  0.720000  1.000000  0.810000 ScalE2=  1.000000  1.000000
 IRadAn=      0 IRanWt=     -1 IRanGd=            0 ICorTp=0 IEmpDi=  4
 NAtoms=   42 NActive=   42 NUniq=   42 SFac= 1.00D+00 NAtFMM=   60 NAOKFM=F Big=F
 Integral buffers will be    131072 words long.
 Raffenetti 2 integral format.
 Two-electron integral symmetry is turned on.
 Leave Link  301 at Sat Aug  8 04:27:30 2020, MaxMem=    33554432 cpu:         0.0
 (Enter /prod/apps/gaussian/g09d1/l302.exe)
 NPDir=0 NMtPBC=     1 NCelOv=     1 NCel=       1 NClECP=     1 NCelD=      1
         NCelK=      1 NCelE2=     1 NClLst=     1 CellRange=     0.0.
 One-electron integrals computed using PRISM.
 NBasis=   391 RedAO= T EigKep=  4.58D-04  NBF=   391
 NBsUse=   391 1.00D-06 EigRej= -1.00D+00 NBFU=   391
 Precomputing XC quadrature grid using
 IXCGrd= 4 IRadAn=           0 IRanWt=          -1 IRanGd=           0 AccXCQ= 0.00D+00.
 Generated NRdTot=       0 NPtTot=           0 NUsed=           0 NTot=          32
 NSgBfM=   388   388   388   388   388 MxSgAt=    42 MxSgA2=    42.
 Leave Link  302 at Sat Aug  8 04:27:32 2020, MaxMem=    33554432 cpu:         1.4
 (Enter /prod/apps/gaussian/g09d1/l303.exe)
 DipDrv:  MaxL=1.
 Leave Link  303 at Sat Aug  8 04:27:32 2020, MaxMem=    33554432 cpu:         0.1
 (Enter /prod/apps/gaussian/g09d1/l401.exe)
 ExpMin= 1.17D-01 ExpMax= 2.19D+04 ExpMxC= 3.30D+03 IAcc=1 IRadAn=         1 AccDes= 0.00D+00
 Harris functional with IExCor=  402 and IRadAn=       1 diagonalized for initial guess.
 HarFok:  IExCor=  402 AccDes= 0.00D+00 IRadAn=         1 IDoV= 1 UseB2=F ITyADJ=14
 ICtDFT=  3500011 ScaDFX=  1.000000  1.000000  1.000000  1.000000
 FoFCou: FMM=F IPFlag=           0 FMFlag=      100000 FMFlg1=           0
         NFxFlg=           0 DoJE=T BraDBF=F KetDBF=T FulRan=T
         wScrn=  0.000000 ICntrl=     500 IOpCl=  0 I1Cent=   200000004 NGrid=           0
         NMat0=    1 NMatS0=      1 NMatT0=    0 NMatD0=    1 NMtDS0=    0 NMtDT0=    0
 Petite list used in FoFCou.
 Harris En= -1735.99144496871    
 JPrj=0 DoOrth=F DoCkMO=F.
 Leave Link  401 at Sat Aug  8 04:27:37 2020, MaxMem=    33554432 cpu:         5.5
 (Enter /prod/apps/gaussian/g09d1/l502.exe)
 Closed shell SCF:
 Using DIIS extrapolation, IDIIS=  1040.
 Integral symmetry usage will be decided dynamically.
 IVT=      482492 IEndB=      482492 NGot=    33554432 MDV=    33241853
 LenX=    33241853 LenY=    33088531
 Requested convergence on RMS density matrix=1.00D-08 within 128 cycles.
 Requested convergence on MAX density matrix=1.00D-06.
 Requested convergence on             energy=1.00D-06.
 No special actions if energy rises.
 Fock matrices will be formed incrementally for  20 cycles.
 Integral accuracy reduced to 1.0D-05 until final iterations.

 Cycle   1  Pass 0  IDiag  1:
 FoFJK:  IHMeth= 1 ICntrl=       0 DoSepK=F KAlg= 0 I1Cent=   0 FoldK=F
 IRaf= 760000000 NMat=   1 IRICut=       1 DoRegI=T DoRafI=F ISym2E= 0.
 FoFCou: FMM=F IPFlag=           0 FMFlag=      100000 FMFlg1=           0
         NFxFlg=           0 DoJE=F BraDBF=F KetDBF=F FulRan=T
         wScrn=  0.000000 ICntrl=       0 IOpCl=  0 I1Cent=           0 NGrid=           0
         NMat0=    1 NMatS0=      1 NMatT0=    0 NMatD0=    1 NMtDS0=    0 NMtDT0=    0
 Symmetry not used in FoFCou.
 E= -1735.08543987873    
 DIIS: error= 2.89D-02 at cycle   1 NSaved=   1.
 NSaved= 1 IEnMin= 1 EnMin= -1735.08543987873     IErMin= 1 ErrMin= 2.89D-02
 ErrMax= 2.89D-02  0.00D+00 EMaxC= 1.00D-01 BMatC= 9.16D-01 BMatP= 9.16D-01
 IDIUse=3 WtCom= 7.11D-01 WtEn= 2.89D-01
 Coeff-Com:  0.100D+01
 Coeff-En:   0.100D+01
 Coeff:      0.100D+01
 Gap=     0.263 Goal=   None    Shift=    0.000
 GapD=    0.263 DampG=1.000 DampE=0.500 DampFc=0.5000 IDamp=-1.
 Damping current iteration by 5.00D-01
 RMSDP=7.19D-03 MaxDP=5.79D-01              OVMax= 3.35D-01

 Cycle   2  Pass 0  IDiag  1:
 RMSU=  3.60D-03    CP:  9.96D-01
 E= -1735.22403422890     Delta-E=       -0.138594350163 Rises=F Damp=T
 DIIS: error= 1.37D-02 at cycle   2 NSaved=   2.
 NSaved= 2 IEnMin= 2 EnMin= -1735.22403422890     IErMin= 2 ErrMin= 1.37D-02
 ErrMax= 1.37D-02  0.00D+00 EMaxC= 1.00D-01 BMatC= 1.91D-01 BMatP= 9.16D-01
 IDIUse=3 WtCom= 8.63D-01 WtEn= 1.37D-01
 Coeff-Com:  0.266D+00 0.734D+00
 Coeff-En:   0.419D+00 0.581D+00
 Coeff:      0.287D+00 0.713D+00
 Gap=     0.243 Goal=   None    Shift=    0.000
 RMSDP=2.63D-03 MaxDP=1.39D-01 DE=-1.39D-01 OVMax= 2.06D-01

 Cycle   3  Pass 0  IDiag  1:
 RMSU=  1.95D-03    CP:  9.83D-01  5.16D-01
 E= -1735.75962934203     Delta-E=       -0.535595113131 Rises=F Damp=F
 DIIS: error= 1.27D-02 at cycle   3 NSaved=   3.
 NSaved= 3 IEnMin= 3 EnMin= -1735.75962934203     IErMin= 3 ErrMin= 1.27D-02
 ErrMax= 1.27D-02  0.00D+00 EMaxC= 1.00D-01 BMatC= 1.60D-01 BMatP= 1.91D-01
 IDIUse=3 WtCom= 8.73D-01 WtEn= 1.27D-01
 Coeff-Com:  0.112D+00 0.470D+00 0.418D+00
 Coeff-En:   0.000D+00 0.000D+00 0.100D+01
 Coeff:      0.976D-01 0.411D+00 0.492D+00
 Gap=     0.191 Goal=   None    Shift=    0.000
 RMSDP=1.72D-03 MaxDP=7.94D-02 DE=-5.36D-01 OVMax= 1.30D-01

 Cycle   4  Pass 0  IDiag  1:
 RMSU=  9.34D-04    CP:  9.90D-01  6.81D-01  3.30D-01
 E= -1735.88049904633     Delta-E=       -0.120869704302 Rises=F Damp=F
 DIIS: error= 6.28D-03 at cycle   4 NSaved=   4.
 NSaved= 4 IEnMin= 4 EnMin= -1735.88049904633     IErMin= 4 ErrMin= 6.28D-03
 ErrMax= 6.28D-03  0.00D+00 EMaxC= 1.00D-01 BMatC= 3.29D-02 BMatP= 1.60D-01
 IDIUse=3 WtCom= 9.37D-01 WtEn= 6.28D-02
 Coeff-Com:  0.192D-01 0.114D+00 0.316D+00 0.552D+00
 Coeff-En:   0.000D+00 0.000D+00 0.204D+00 0.796D+00
 Coeff:      0.180D-01 0.106D+00 0.309D+00 0.567D+00
 Gap=     0.192 Goal=   None    Shift=    0.000
 RMSDP=6.88D-04 MaxDP=3.59D-02 DE=-1.21D-01 OVMax= 6.06D-02

 Cycle   5  Pass 0  IDiag  1:
 RMSU=  3.09D-04    CP:  9.89D-01  6.27D-01  5.51D-01  5.80D-01
 E= -1735.90763049119     Delta-E=       -0.027131444858 Rises=F Damp=F
 DIIS: error= 1.90D-03 at cycle   5 NSaved=   5.
 NSaved= 5 IEnMin= 5 EnMin= -1735.90763049119     IErMin= 5 ErrMin= 1.90D-03
 ErrMax= 1.90D-03  0.00D+00 EMaxC= 1.00D-01 BMatC= 3.32D-03 BMatP= 3.29D-02
 IDIUse=3 WtCom= 9.81D-01 WtEn= 1.90D-02
 Coeff-Com: -0.392D-03 0.189D-01 0.136D+00 0.352D+00 0.493D+00
 Coeff-En:   0.000D+00 0.000D+00 0.000D+00 0.615D-01 0.938D+00
 Coeff:     -0.385D-03 0.186D-01 0.133D+00 0.347D+00 0.502D+00
 Gap=     0.187 Goal=   None    Shift=    0.000
 RMSDP=2.10D-04 MaxDP=1.01D-02 DE=-2.71D-02 OVMax= 1.62D-02

 Cycle   6  Pass 0  IDiag  1:
 RMSU=  1.08D-04    CP:  9.89D-01  6.39D-01  5.27D-01  6.57D-01  5.09D-01
 E= -1735.91022040591     Delta-E=       -0.002589914723 Rises=F Damp=F
 DIIS: error= 7.63D-04 at cycle   6 NSaved=   6.
 NSaved= 6 IEnMin= 6 EnMin= -1735.91022040591     IErMin= 6 ErrMin= 7.63D-04
 ErrMax= 7.63D-04  0.00D+00 EMaxC= 1.00D-01 BMatC= 4.32D-04 BMatP= 3.32D-03
 IDIUse=3 WtCom= 9.92D-01 WtEn= 7.63D-03
 Coeff-Com: -0.200D-02 0.834D-04 0.423D-01 0.138D+00 0.315D+00 0.506D+00
 Coeff-En:   0.000D+00 0.000D+00 0.000D+00 0.000D+00 0.846D-01 0.915D+00
 Coeff:     -0.199D-02 0.827D-04 0.419D-01 0.137D+00 0.313D+00 0.509D+00
 Gap=     0.187 Goal=   None    Shift=    0.000
 RMSDP=6.72D-05 MaxDP=3.49D-03 DE=-2.59D-03 OVMax= 3.84D-03

 Cycle   7  Pass 0  IDiag  1:
 RMSU=  3.67D-05    CP:  9.89D-01  6.38D-01  5.30D-01  6.64D-01  5.91D-01
                    CP:  5.46D-01
 E= -1735.91054291865     Delta-E=       -0.000322512740 Rises=F Damp=F
 DIIS: error= 3.11D-04 at cycle   7 NSaved=   7.
 NSaved= 7 IEnMin= 7 EnMin= -1735.91054291865     IErMin= 7 ErrMin= 3.11D-04
 ErrMax= 3.11D-04  0.00D+00 EMaxC= 1.00D-01 BMatC= 3.79D-05 BMatP= 4.32D-04
 IDIUse=3 WtCom= 9.97D-01 WtEn= 3.11D-03
 Coeff-Com: -0.936D-03-0.193D-02 0.901D-02 0.384D-01 0.126D+00 0.295D+00
 Coeff-Com:  0.534D+00
 Coeff-En:   0.000D+00 0.000D+00 0.000D+00 0.000D+00 0.000D+00 0.408D-01
 Coeff-En:   0.959D+00
 Coeff:     -0.933D-03-0.192D-02 0.899D-02 0.383D-01 0.126D+00 0.294D+00
 Coeff:      0.535D+00
 Gap=     0.187 Goal=   None    Shift=    0.000
 RMSDP=2.05D-05 MaxDP=7.14D-04 DE=-3.23D-04 OVMax= 1.92D-03

 Cycle   8  Pass 0  IDiag  1:
 RMSU=  1.12D-05    CP:  9.89D-01  6.37D-01  5.30D-01  6.61D-01  5.93D-01
                    CP:  6.10D-01  5.79D-01
 E= -1735.91057790478     Delta-E=       -0.000034986128 Rises=F Damp=F
 DIIS: error= 1.04D-04 at cycle   8 NSaved=   8.
 NSaved= 8 IEnMin= 8 EnMin= -1735.91057790478     IErMin= 8 ErrMin= 1.04D-04
 ErrMax= 1.04D-04  0.00D+00 EMaxC= 1.00D-01 BMatC= 2.20D-06 BMatP= 3.79D-05
 IDIUse=3 WtCom= 9.99D-01 WtEn= 1.04D-03
 Coeff-Com: -0.212D-03-0.865D-03 0.336D-03 0.545D-02 0.323D-01 0.951D-01
 Coeff-Com:  0.262D+00 0.606D+00
 Coeff-En:   0.000D+00 0.000D+00 0.000D+00 0.000D+00 0.000D+00 0.000D+00
 Coeff-En:   0.000D+00 0.100D+01
 Coeff:     -0.212D-03-0.864D-03 0.336D-03 0.544D-02 0.323D-01 0.950D-01
 Coeff:      0.262D+00 0.606D+00
 Gap=     0.187 Goal=   None    Shift=    0.000
 RMSDP=6.10D-06 MaxDP=2.04D-04 DE=-3.50D-05 OVMax= 7.10D-04

 Initial convergence to 1.0D-05 achieved.  Increase integral accuracy.
 Cycle   9  Pass 1  IDiag  1:
 E= -1735.91054391484     Delta-E=        0.000033989933 Rises=F Damp=F
 DIIS: error= 6.03D-05 at cycle   1 NSaved=   1.
 NSaved= 1 IEnMin= 1 EnMin= -1735.91054391484     IErMin= 1 ErrMin= 6.03D-05
 ErrMax= 6.03D-05  0.00D+00 EMaxC= 1.00D-01 BMatC= 1.45D-06 BMatP= 1.45D-06
 IDIUse=1 WtCom= 1.00D+00 WtEn= 0.00D+00
 Coeff-Com:  0.100D+01
 Coeff:      0.100D+01
 Gap=     0.187 Goal=   None    Shift=    0.000
 RMSDP=6.10D-06 MaxDP=2.04D-04 DE= 3.40D-05 OVMax= 6.91D-04

 Cycle  10  Pass 1  IDiag  1:
 RMSU=  3.26D-05    CP:  1.00D+00
 E= -1735.91054363340     Delta-E=        0.000000281445 Rises=F Damp=F
 DIIS: error= 9.57D-05 at cycle   2 NSaved=   2.
 NSaved= 2 IEnMin= 1 EnMin= -1735.91054391484     IErMin= 1 ErrMin= 6.03D-05
 ErrMax= 9.57D-05  0.00D+00 EMaxC= 1.00D-01 BMatC= 1.84D-06 BMatP= 1.45D-06
 IDIUse=1 WtCom= 1.00D+00 WtEn= 0.00D+00
 Coeff-Com:  0.539D+00 0.461D+00
 Coeff:      0.539D+00 0.461D+00
 Gap=     0.187 Goal=   None    Shift=    0.000
 RMSDP=5.27D-06 MaxDP=2.17D-04 DE= 2.81D-07 OVMax= 6.17D-04

 Cycle  11  Pass 1  IDiag  1:
 RMSU=  5.23D-06    CP:  1.00D+00  9.81D-01
 E= -1735.91054512377     Delta-E=       -0.000001490367 Rises=F Damp=F
 DIIS: error= 3.82D-05 at cycle   3 NSaved=   3.
 NSaved= 3 IEnMin= 3 EnMin= -1735.91054512377     IErMin= 3 ErrMin= 3.82D-05
 ErrMax= 3.82D-05  0.00D+00 EMaxC= 1.00D-01 BMatC= 3.81D-07 BMatP= 1.45D-06
 IDIUse=1 WtCom= 1.00D+00 WtEn= 0.00D+00
 Coeff-Com:  0.254D-01 0.309D+00 0.665D+00
 Coeff:      0.254D-01 0.309D+00 0.665D+00
 Gap=     0.187 Goal=   None    Shift=    0.000
 RMSDP=1.84D-06 MaxDP=9.23D-05 DE=-1.49D-06 OVMax= 1.48D-04

 Cycle  12  Pass 1  IDiag  1:
 RMSU=  9.25D-07    CP:  1.00D+00  9.95D-01  7.09D-01
 E= -1735.91054544472     Delta-E=       -0.000000320958 Rises=F Damp=F
 DIIS: error= 7.40D-06 at cycle   4 NSaved=   4.
 NSaved= 4 IEnMin= 4 EnMin= -1735.91054544472     IErMin= 4 ErrMin= 7.40D-06
 ErrMax= 7.40D-06  0.00D+00 EMaxC= 1.00D-01 BMatC= 4.22D-08 BMatP= 3.81D-07
 IDIUse=1 WtCom= 1.00D+00 WtEn= 0.00D+00
 Coeff-Com: -0.550D-02 0.184D+00 0.434D+00 0.387D+00
 Coeff:     -0.550D-02 0.184D+00 0.434D+00 0.387D+00
 Gap=     0.187 Goal=   None    Shift=    0.000
 RMSDP=5.82D-07 MaxDP=3.49D-05 DE=-3.21D-07 OVMax= 3.74D-05

 Cycle  13  Pass 1  IDiag  1:
 RMSU=  2.19D-07    CP:  1.00D+00  9.95D-01  7.12D-01  4.18D-01
 E= -1735.91054547993     Delta-E=       -0.000000035204 Rises=F Damp=F
 DIIS: error= 1.27D-06 at cycle   5 NSaved=   5.
 NSaved= 5 IEnMin= 5 EnMin= -1735.91054547993     IErMin= 5 ErrMin= 1.27D-06
 ErrMax= 1.27D-06  0.00D+00 EMaxC= 1.00D-01 BMatC= 1.05D-09 BMatP= 4.22D-08
 IDIUse=1 WtCom= 1.00D+00 WtEn= 0.00D+00
 Coeff-Com: -0.443D-02 0.871D-01 0.209D+00 0.216D+00 0.492D+00
 Coeff:     -0.443D-02 0.871D-01 0.209D+00 0.216D+00 0.492D+00
 Gap=     0.187 Goal=   None    Shift=    0.000
 RMSDP=1.00D-07 MaxDP=6.59D-06 DE=-3.52D-08 OVMax= 6.54D-06

 Cycle  14  Pass 1  IDiag  1:
 RMSU=  7.61D-08    CP:  1.00D+00  9.95D-01  7.12D-01  4.38D-01  7.16D-01
 E= -1735.91054548096     Delta-E=       -0.000000001029 Rises=F Damp=F
 DIIS: error= 2.22D-07 at cycle   6 NSaved=   6.
 NSaved= 6 IEnMin= 6 EnMin= -1735.91054548096     IErMin= 6 ErrMin= 2.22D-07
 ErrMax= 2.22D-07  0.00D+00 EMaxC= 1.00D-01 BMatC= 5.77D-11 BMatP= 1.05D-09
 IDIUse=1 WtCom= 1.00D+00 WtEn= 0.00D+00
 Coeff-Com: -0.153D-02 0.243D-01 0.592D-01 0.669D-01 0.239D+00 0.612D+00
 Coeff:     -0.153D-02 0.243D-01 0.592D-01 0.669D-01 0.239D+00 0.612D+00
 Gap=     0.187 Goal=   None    Shift=    0.000
 RMSDP=3.50D-08 MaxDP=1.48D-06 DE=-1.03D-09 OVMax= 2.43D-06

 Cycle  15  Pass 1  IDiag  1:
 RMSU=  2.98D-08    CP:  1.00D+00  9.95D-01  7.12D-01  4.36D-01  7.63D-01
                    CP:  8.04D-01
 E= -1735.91054548099     Delta-E=       -0.000000000029 Rises=F Damp=F
 DIIS: error= 1.37D-07 at cycle   7 NSaved=   7.
 NSaved= 7 IEnMin= 7 EnMin= -1735.91054548099     IErMin= 7 ErrMin= 1.37D-07
 ErrMax= 1.37D-07  0.00D+00 EMaxC= 1.00D-01 BMatC= 1.82D-11 BMatP= 5.77D-11
 IDIUse=1 WtCom= 1.00D+00 WtEn= 0.00D+00
 Coeff-Com: -0.404D-03 0.404D-02 0.102D-01 0.144D-01 0.887D-01 0.403D+00
 Coeff-Com:  0.480D+00
 Coeff:     -0.404D-03 0.404D-02 0.102D-01 0.144D-01 0.887D-01 0.403D+00
 Coeff:      0.480D+00
 Gap=     0.187 Goal=   None    Shift=    0.000
 RMSDP=1.63D-08 MaxDP=7.17D-07 DE=-2.86D-11 OVMax= 1.27D-06

 Cycle  16  Pass 1  IDiag  1:
 RMSU=  8.57D-09    CP:  1.00D+00  9.95D-01  7.12D-01  4.39D-01  7.70D-01
                    CP:  8.47D-01  5.62D-01
 E= -1735.91054548100     Delta-E=       -0.000000000010 Rises=F Damp=F
 DIIS: error= 5.48D-08 at cycle   8 NSaved=   8.
 NSaved= 8 IEnMin= 8 EnMin= -1735.91054548100     IErMin= 8 ErrMin= 5.48D-08
 ErrMax= 5.48D-08  0.00D+00 EMaxC= 1.00D-01 BMatC= 2.58D-12 BMatP= 1.82D-11
 IDIUse=1 WtCom= 1.00D+00 WtEn= 0.00D+00
 Coeff-Com: -0.238D-04-0.122D-02-0.269D-02-0.101D-02 0.213D-01 0.177D+00
 Coeff-Com:  0.311D+00 0.496D+00
 Coeff:     -0.238D-04-0.122D-02-0.269D-02-0.101D-02 0.213D-01 0.177D+00
 Coeff:      0.311D+00 0.496D+00
 Gap=     0.187 Goal=   None    Shift=    0.000
 RMSDP=5.35D-09 MaxDP=3.37D-07 DE=-9.55D-12 OVMax= 4.03D-07

 SCF Done:  E(RB3LYP) =  -1735.91054548     A.U. after   16 cycles
            NFock= 16  Conv=0.53D-08     -V/T= 2.0067
 KE= 1.724304631043D+03 PE=-8.723273504461D+03 EE= 2.938768868823D+03
 Leave Link  502 at Sat Aug  8 04:35:47 2020, MaxMem=    33554432 cpu:       489.6
 (Enter /prod/apps/gaussian/g09d1/l601.exe)
 Copying SCF densities to generalized density rwf, IOpCl= 0 IROHF=0.

 **********************************************************************

            Population analysis using the SCF density.

 **********************************************************************

 Orbital symmetries:
       Occupied  (A) (A) (A) (A) (A) (A) (A) (A) (A) (A) (A) (A)
                 (A) (A) (A) (A) (A) (A) (A) (A) (A) (A) (A) (A)
                 (A) (A) (A) (A) (A) (A) (A) (A) (A) (A) (A) (A)
                 (A) (A) (A) (A) (A) (A) (A) (A) (A) (A) (A) (A)
                 (A) (A) (A) (A) (A) (A) (A) (A) (A) (A) (A) (A)
                 (A) (A) (A) (A) (A) (A) (A) (A) (A) (A) (A) (A)
                 (A) (A) (A) (A) (A) (A) (A) (A) (A) (A) (A) (A)
                 (A) (A) (A) (A) (A) (A) (A) (A)
       Virtual   (A) (A) (A) (A) (A) (A) (A) (A) (A) (A) (A) (A)
                 (A) (A) (A) (A) (A) (A) (A) (A) (A) (A) (A) (A)
                 (A) (A) (A) (A) (A) (A) (A) (A) (A) (A) (A) (A)
                 (A) (A) (A) (A) (A) (A) (A) (A) (A) (A) (A) (A)
                 (A) (A) (A) (A) (A) (A) (A) (A) (A) (A) (A) (A)
                 (A) (A) (A) (A) (A) (A) (A) (A) (A) (A) (A) (A)
                 (A) (A) (A) (A) (A) (A) (A) (A) (A) (A) (A) (A)
                 (A) (A) (A) (A) (A) (A) (A) (A) (A) (A) (A) (A)
                 (A) (A) (A) (A) (A) (A) (A) (A) (A) (A) (A) (A)
                 (A) (A) (A) (A) (A) (A) (A) (A) (A) (A) (A) (A)
                 (A) (A) (A) (A) (A) (A) (A) (A) (A) (A) (A) (A)
                 (A) (A) (A) (A) (A) (A) (A) (A) (A) (A) (A) (A)
                 (A) (A) (A) (A) (A) (A) (A) (A) (A) (A) (A) (A)
                 (A) (A) (A) (A) (A) (A) (A) (A) (A) (A) (A) (A)
                 (A) (A) (A) (A) (A) (A) (A) (A) (A) (A) (A) (A)
                 (A) (A) (A) (A) (A) (A) (A) (A) (A) (A) (A) (A)
                 (A) (A) (A) (A) (A) (A) (A) (A) (A) (A) (A) (A)
                 (A) (A) (A) (A) (A) (A) (A) (A) (A) (A) (A) (A)
                 (A) (A) (A) (A) (A) (A) (A) (A) (A) (A) (A) (A)
                 (A) (A) (A) (A) (A) (A) (A) (A) (A) (A) (A) (A)
                 (A) (A) (A) (A) (A) (A) (A) (A) (A) (A) (A) (A)
                 (A) (A) (A) (A) (A) (A) (A) (A) (A) (A) (A) (A)
                 (A) (A) (A) (A) (A) (A) (A) (A) (A) (A) (A) (A)
                 (A) (A) (A) (A) (A) (A) (A) (A) (A) (A) (A) (A)
                 (A) (A) (A) (A) (A) (A) (A) (A) (A) (A) (A)
 The electronic state is 1-A.
 Alpha  occ. eigenvalues --  -89.11988 -88.98841 -19.14981 -19.14696 -19.11913
 Alpha  occ. eigenvalues --  -14.37931 -10.26826 -10.23692 -10.22858 -10.22199
 Alpha  occ. eigenvalues --  -10.21952 -10.21783 -10.21661 -10.21550 -10.21542
 Alpha  occ. eigenvalues --  -10.19837 -10.18924 -10.18815 -10.18387 -10.18183
 Alpha  occ. eigenvalues --  -10.18174 -10.18110 -10.17470  -8.14519  -8.03675
 Alpha  occ. eigenvalues --   -6.11029  -6.10930  -6.10813  -6.00085  -5.99909
 Alpha  occ. eigenvalues --   -5.99445  -1.11667  -1.00839  -1.00522  -0.94675
 Alpha  occ. eigenvalues --   -0.88420  -0.85169  -0.84277  -0.78814  -0.78581
 Alpha  occ. eigenvalues --   -0.77332  -0.73641  -0.73466  -0.71063  -0.69376
 Alpha  occ. eigenvalues --   -0.66763  -0.63366  -0.62678  -0.60433  -0.59480
 Alpha  occ. eigenvalues --   -0.58055  -0.56437  -0.55236  -0.52677  -0.52085
 Alpha  occ. eigenvalues --   -0.50464  -0.49475  -0.48459  -0.47943  -0.46840
 Alpha  occ. eigenvalues --   -0.46627  -0.44955  -0.44848  -0.44708  -0.44429
 Alpha  occ. eigenvalues --   -0.43986  -0.42371  -0.41444  -0.41285  -0.40242
 Alpha  occ. eigenvalues --   -0.39646  -0.39106  -0.38944  -0.38485  -0.37234
 Alpha  occ. eigenvalues --   -0.37209  -0.36034  -0.35560  -0.34398  -0.33983
 Alpha  occ. eigenvalues --   -0.32655  -0.32577  -0.32404  -0.31604  -0.30633
 Alpha  occ. eigenvalues --   -0.29296  -0.27707  -0.27122  -0.26428  -0.24180
 Alpha  occ. eigenvalues --   -0.23644  -0.23164
 Alpha virt. eigenvalues --   -0.04483  -0.02658   0.00225   0.00292   0.00688
 Alpha virt. eigenvalues --    0.01981   0.04483   0.05298   0.06076   0.07944
 Alpha virt. eigenvalues --    0.09354   0.09980   0.10182   0.10590   0.11045
 Alpha virt. eigenvalues --    0.12223   0.12584   0.13124   0.13772   0.14627
 Alpha virt. eigenvalues --    0.15119   0.15673   0.16056   0.16501   0.17018
 Alpha virt. eigenvalues --    0.17250   0.17777   0.17929   0.18673   0.19527
 Alpha virt. eigenvalues --    0.21334   0.21539   0.21912   0.22747   0.23776
 Alpha virt. eigenvalues --    0.26330   0.26479   0.27477   0.28203   0.28965
 Alpha virt. eigenvalues --    0.30373   0.30685   0.31415   0.33253   0.33679
 Alpha virt. eigenvalues --    0.34538   0.35196   0.35888   0.36466   0.37818
 Alpha virt. eigenvalues --    0.40714   0.42733   0.43164   0.44865   0.46842
 Alpha virt. eigenvalues --    0.49959   0.50079   0.51180   0.51557   0.51976
 Alpha virt. eigenvalues --    0.52855   0.53734   0.54160   0.54489   0.54793
 Alpha virt. eigenvalues --    0.55483   0.56452   0.56907   0.57181   0.57435
 Alpha virt. eigenvalues --    0.58194   0.58653   0.58878   0.59379   0.59888
 Alpha virt. eigenvalues --    0.60216   0.60701   0.61226   0.61284   0.62009
 Alpha virt. eigenvalues --    0.62139   0.62474   0.62999   0.64301   0.65286
 Alpha virt. eigenvalues --    0.65755   0.67537   0.68196   0.69276   0.70503
 Alpha virt. eigenvalues --    0.71187   0.72452   0.74170   0.75791   0.76399
 Alpha virt. eigenvalues --    0.77001   0.78415   0.79132   0.79707   0.80770
 Alpha virt. eigenvalues --    0.81574   0.81929   0.82299   0.83059   0.83295
 Alpha virt. eigenvalues --    0.84523   0.84704   0.85229   0.85678   0.86067
 Alpha virt. eigenvalues --    0.86815   0.87473   0.87763   0.88540   0.89373
 Alpha virt. eigenvalues --    0.89621   0.90352   0.91113   0.91470   0.92364
 Alpha virt. eigenvalues --    0.92522   0.93573   0.94498   0.94623   0.94995
 Alpha virt. eigenvalues --    0.96052   0.96781   0.97992   0.99189   0.99941
 Alpha virt. eigenvalues --    1.00808   1.01857   1.03673   1.04288   1.06212
 Alpha virt. eigenvalues --    1.07166   1.08631   1.09797   1.09976   1.11709
 Alpha virt. eigenvalues --    1.12335   1.12852   1.13650   1.15464   1.15559
 Alpha virt. eigenvalues --    1.16844   1.17741   1.19607   1.20656   1.21741
 Alpha virt. eigenvalues --    1.22362   1.22714   1.24423   1.25920   1.26770
 Alpha virt. eigenvalues --    1.27450   1.29636   1.31113   1.32509   1.34432
 Alpha virt. eigenvalues --    1.38125   1.40121   1.41271   1.42295   1.43617
 Alpha virt. eigenvalues --    1.44453   1.44853   1.45170   1.45911   1.46785
 Alpha virt. eigenvalues --    1.47265   1.48204   1.49347   1.50227   1.52326
 Alpha virt. eigenvalues --    1.52538   1.53882   1.58929   1.59540   1.65758
 Alpha virt. eigenvalues --    1.67923   1.70367   1.73014   1.74654   1.76610
 Alpha virt. eigenvalues --    1.77157   1.77843   1.80405   1.80775   1.81065
 Alpha virt. eigenvalues --    1.81702   1.82752   1.83346   1.84038   1.85685
 Alpha virt. eigenvalues --    1.86224   1.86549   1.87361   1.88151   1.89361
 Alpha virt. eigenvalues --    1.90574   1.91289   1.92032   1.92628   1.92962
 Alpha virt. eigenvalues --    1.94369   1.95378   1.97402   1.97790   1.98806
 Alpha virt. eigenvalues --    1.99404   2.01910   2.03123   2.03863   2.04644
 Alpha virt. eigenvalues --    2.07311   2.07827   2.08866   2.09201   2.11249
 Alpha virt. eigenvalues --    2.12151   2.12650   2.13091   2.13564   2.14234
 Alpha virt. eigenvalues --    2.15124   2.15623   2.15921   2.16880   2.19650
 Alpha virt. eigenvalues --    2.20222   2.20665   2.22953   2.24786   2.27306
 Alpha virt. eigenvalues --    2.27717   2.28138   2.30130   2.31424   2.32065
 Alpha virt. eigenvalues --    2.32336   2.32951   2.34890   2.39737   2.42014
 Alpha virt. eigenvalues --    2.44172   2.48066   2.51142   2.53471   2.54774
 Alpha virt. eigenvalues --    2.57080   2.59537   2.59998   2.62590   2.64701
 Alpha virt. eigenvalues --    2.65417   2.67479   2.69611   2.71639   2.72301
 Alpha virt. eigenvalues --    2.73165   2.73556   2.74229   2.74962   2.75335
 Alpha virt. eigenvalues --    2.76116   2.77477   2.78181   2.80620   2.84233
 Alpha virt. eigenvalues --    2.88049   2.91032   3.01612   3.06997   3.36397
 Alpha virt. eigenvalues --    3.41825   3.75724   3.86320   3.92813   4.00429
 Alpha virt. eigenvalues --    4.01206   4.06745   4.09613   4.10024   4.10535
 Alpha virt. eigenvalues --    4.13641   4.15235   4.18793   4.21223   4.24050
 Alpha virt. eigenvalues --    4.31376   4.34526   4.34832   4.36564   4.45821
 Alpha virt. eigenvalues --    4.54150   4.64484   4.70259   4.77202
          Condensed to atoms (all electrons):
               1          2          3          4          5          6
     1  O    8.220185   0.465861  -0.057533   0.001867  -0.000094  -0.000005
     2  S    0.465861  13.734934   0.086653   0.002977   0.001239   0.000417
     3  N   -0.057533   0.086653   7.455195   0.213325  -0.038847   0.002408
     4  C    0.001867   0.002977   0.213325   4.804994   0.312069  -0.069304
     5  C   -0.000094   0.001239  -0.038847   0.312069   5.715155   0.061216
     6  S   -0.000005   0.000417   0.002408  -0.069304   0.061216  14.942197
     7  O    0.000000   0.000000  -0.000036   0.000439  -0.037831   0.284337
     8  C   -0.000018  -0.005511  -0.064309   0.344727  -0.140327   0.076930
     9  C   -0.000111  -0.003425  -0.047340   0.377839  -0.041632   0.006493
    10  C    0.000000  -0.000332   0.003395  -0.030265  -0.003843   0.001140
    11  C    0.000000  -0.000119  -0.000016  -0.002531  -0.000126  -0.000805
    12  C    0.000000  -0.000002  -0.000007   0.000483  -0.000088   0.001952
    13  C    0.000000   0.000000   0.000000  -0.000003  -0.000001   0.000027
    14  C    0.000000   0.000000   0.000000   0.000002   0.000000  -0.000004
    15  C    0.000000  -0.000002   0.000000  -0.000017   0.000000   0.000002
    16  C    0.000000  -0.000092   0.000000  -0.000227  -0.000008  -0.000035
    17  C   -0.062484   0.169837  -0.048454  -0.006386  -0.000214   0.000010
    18  C    0.000310  -0.021031   0.000217   0.000073  -0.000040   0.000000
    19  C    0.000099   0.002171   0.000098  -0.000003  -0.000001   0.000000
    20  C   -0.000005  -0.000446   0.000011   0.000001   0.000000   0.000000
    21  C   -0.000055   0.003445  -0.000105   0.000008   0.000000   0.000000
    22  C   -0.001434  -0.035399   0.001334   0.000067  -0.000001   0.000000
    23  O   -0.042099   0.385696  -0.052128   0.007461   0.000125   0.000192
    24  H    0.006856  -0.013290   0.292033  -0.026774  -0.006145   0.000332
    25  H    0.000000   0.000035   0.002221  -0.022995   0.349098  -0.017894
    26  H   -0.000017   0.000014  -0.005024  -0.029997   0.326415  -0.009970
    27  H   -0.000001   0.000347   0.002398  -0.021554   0.007990  -0.020127
    28  H   -0.000230   0.001072  -0.004692  -0.026344   0.007478  -0.010716
    29  H    0.000026   0.014615  -0.005403  -0.030725   0.005593  -0.000561
    30  H    0.000004  -0.001507   0.000546  -0.038242  -0.008395  -0.000175
    31  H    0.000000   0.000010  -0.000127   0.004191   0.000101   0.000033
    32  H    0.000000   0.000021  -0.000006  -0.006259  -0.002556  -0.001668
    33  H    0.000000   0.000000  -0.000001   0.000007   0.000109  -0.001578
    34  H    0.000000   0.000000   0.000000   0.000000   0.000000   0.000003
    35  H    0.000000   0.000000   0.000000   0.000000   0.000000   0.000000
    36  H    0.000000   0.000000   0.000000   0.000000   0.000000   0.000000
    37  H    0.000000  -0.000044   0.000002   0.000146   0.000000  -0.000003
    38  H    0.000702  -0.002565   0.006549   0.000125  -0.000006   0.000000
    39  H    0.000001  -0.000059   0.000000   0.000000   0.000000   0.000000
    40  H    0.000000   0.000008   0.000000   0.000000   0.000000   0.000000
    41  H    0.000000  -0.000076   0.000000   0.000000   0.000000   0.000000
    42  H   -0.000012  -0.008112   0.000264  -0.000011   0.000000   0.000000
               7          8          9         10         11         12
     1  O    0.000000  -0.000018  -0.000111   0.000000   0.000000   0.000000
     2  S    0.000000  -0.005511  -0.003425  -0.000332  -0.000119  -0.000002
     3  N   -0.000036  -0.064309  -0.047340   0.003395  -0.000016  -0.000007
     4  C    0.000439   0.344727   0.377839  -0.030265  -0.002531   0.000483
     5  C   -0.037831  -0.140327  -0.041632  -0.003843  -0.000126  -0.000088
     6  S    0.284337   0.076930   0.006493   0.001140  -0.000805   0.001952
     7  O    8.371133  -0.033788   0.000102  -0.009876  -0.001537  -0.006465
     8  C   -0.033788   5.693224  -0.052903  -0.002265  -0.003571  -0.006293
     9  C    0.000102  -0.052903   5.143535   0.319768  -0.032758   0.001036
    10  C   -0.009876  -0.002265   0.319768   5.265240   0.348622  -0.050106
    11  C   -0.001537  -0.003571  -0.032758   0.348622   4.651320   0.548823
    12  C   -0.006465  -0.006293   0.001036  -0.050106   0.548823   5.018595
    13  C    0.000179  -0.000299  -0.000178   0.007411  -0.023171   0.503995
    14  C    0.000000   0.000031   0.000005   0.000366  -0.034721  -0.034100
    15  C    0.000000   0.000060   0.000215   0.006201  -0.015720  -0.047644
    16  C   -0.000011  -0.000027  -0.006987  -0.068016   0.542154  -0.041113
    17  C    0.000000  -0.000240   0.003242   0.000161   0.000002   0.000000
    18  C    0.000000   0.000004  -0.000169   0.000013   0.000000   0.000000
    19  C    0.000000   0.000000  -0.000004   0.000000   0.000000   0.000000
    20  C    0.000000   0.000000   0.000003   0.000000   0.000000   0.000000
    21  C    0.000000   0.000000  -0.000068  -0.000001   0.000000   0.000000
    22  C    0.000000   0.000004  -0.000935   0.000027   0.000007   0.000000
    23  O    0.000000   0.004113  -0.008034   0.000034   0.000018  -0.000007
    24  H   -0.000001   0.000258   0.005340  -0.000103   0.000002   0.000000
    25  H   -0.000244   0.008303  -0.008171   0.000347   0.000258  -0.000021
    26  H    0.001320   0.007793   0.002950   0.000118  -0.000010   0.000001
    27  H   -0.001209   0.340584  -0.006830  -0.003416   0.009578   0.011643
    28  H    0.001272   0.329027   0.002979   0.000159  -0.000007   0.000118
    29  H    0.000005  -0.004372   0.359858  -0.038512  -0.004774   0.000348
    30  H    0.000010   0.006523   0.354120  -0.027444   0.003225  -0.000111
    31  H    0.000192  -0.000061  -0.033552   0.353828  -0.029430   0.001794
    32  H    0.027230  -0.001971  -0.039379   0.343603  -0.031853  -0.004043
    33  H    0.020437  -0.001193   0.000319  -0.012214  -0.037358   0.344649
    34  H   -0.000002  -0.000008   0.000001  -0.000186   0.003668  -0.039065
    35  H    0.000000   0.000000   0.000000   0.000007   0.000658   0.004694
    36  H    0.000000   0.000000   0.000001  -0.000192   0.003802   0.000768
    37  H    0.000000  -0.000014   0.000827  -0.009490  -0.048148   0.006464
    38  H    0.000000   0.000007  -0.000093   0.000001   0.000000   0.000000
    39  H    0.000000   0.000000  -0.000001   0.000000   0.000000   0.000000
    40  H    0.000000   0.000000   0.000000   0.000000   0.000000   0.000000
    41  H    0.000000   0.000000  -0.000001   0.000000   0.000000   0.000000
    42  H    0.000000   0.000001  -0.000183   0.000000   0.000004   0.000000
              13         14         15         16         17         18
     1  O    0.000000   0.000000   0.000000   0.000000  -0.062484   0.000310
     2  S    0.000000   0.000000  -0.000002  -0.000092   0.169837  -0.021031
     3  N    0.000000   0.000000   0.000000   0.000000  -0.048454   0.000217
     4  C   -0.000003   0.000002  -0.000017  -0.000227  -0.006386   0.000073
     5  C   -0.000001   0.000000   0.000000  -0.000008  -0.000214  -0.000040
     6  S    0.000027  -0.000004   0.000002  -0.000035   0.000010   0.000000
     7  O    0.000179   0.000000   0.000000  -0.000011   0.000000   0.000000
     8  C   -0.000299   0.000031   0.000060  -0.000027  -0.000240   0.000004
     9  C   -0.000178   0.000005   0.000215  -0.006987   0.003242  -0.000169
    10  C    0.007411   0.000366   0.006201  -0.068016   0.000161   0.000013
    11  C   -0.023171  -0.034721  -0.015720   0.542154   0.000002   0.000000
    12  C    0.503995  -0.034100  -0.047644  -0.041113   0.000000   0.000000
    13  C    4.890322   0.549189  -0.025105  -0.048766   0.000000   0.000000
    14  C    0.549189   4.856119   0.547449  -0.034748   0.000000   0.000000
    15  C   -0.025105   0.547449   4.862666   0.528511   0.000000   0.000000
    16  C   -0.048766  -0.034748   0.528511   4.975841  -0.000015   0.000001
    17  C    0.000000   0.000000   0.000000  -0.000015   5.324796   0.470716
    18  C    0.000000   0.000000   0.000000   0.000001   0.470716   4.917646
    19  C    0.000000   0.000000   0.000000   0.000000  -0.023402   0.520648
    20  C    0.000000   0.000000   0.000000   0.000000  -0.039619  -0.030060
    21  C    0.000000   0.000000   0.000000  -0.000017  -0.030609  -0.038545
    22  C    0.000000   0.000000  -0.000005  -0.000173   0.520456  -0.031817
    23  O    0.000000   0.000000  -0.000009   0.000073  -0.058204   0.001736
    24  H    0.000000   0.000000   0.000000   0.000000   0.003039  -0.000095
    25  H    0.000000   0.000000   0.000000   0.000003   0.000002   0.000000
    26  H    0.000000   0.000000   0.000000   0.000000  -0.000008  -0.000002
    27  H    0.000352  -0.000077  -0.000304   0.000404   0.000006   0.000000
    28  H    0.000005  -0.000001   0.000000  -0.000006   0.000023   0.000000
    29  H   -0.000022  -0.000004  -0.000218   0.005080  -0.003349  -0.000481
    30  H    0.000003   0.000000   0.000004   0.000357   0.000429   0.001073
    31  H   -0.000229   0.000034  -0.000064  -0.005322  -0.000001   0.000000
    32  H    0.000319  -0.000012  -0.000150   0.004172  -0.000002   0.000000
    33  H   -0.042407   0.004235   0.000287   0.006009   0.000000   0.000000
    34  H    0.356986  -0.044204   0.004615   0.000884   0.000000   0.000000
    35  H   -0.043638   0.358930  -0.043653   0.004879   0.000000   0.000000
    36  H    0.004715  -0.043400   0.356167  -0.041217   0.000000   0.000000
    37  H    0.000314   0.004942  -0.045646   0.351068   0.000010  -0.000001
    38  H    0.000000   0.000000   0.000000   0.000000  -0.048789   0.362389
    39  H    0.000000   0.000000   0.000000   0.000000   0.004796  -0.041622
    40  H    0.000000   0.000000   0.000000   0.000000   0.000485   0.004885
    41  H    0.000000   0.000000   0.000000   0.000000   0.004990   0.000739
    42  H    0.000000   0.000000   0.000006   0.000095  -0.040759   0.005229
              19         20         21         22         23         24
     1  O    0.000099  -0.000005  -0.000055  -0.001434  -0.042099   0.006856
     2  S    0.002171  -0.000446   0.003445  -0.035399   0.385696  -0.013290
     3  N    0.000098   0.000011  -0.000105   0.001334  -0.052128   0.292033
     4  C   -0.000003   0.000001   0.000008   0.000067   0.007461  -0.026774
     5  C   -0.000001   0.000000   0.000000  -0.000001   0.000125  -0.006145
     6  S    0.000000   0.000000   0.000000   0.000000   0.000192   0.000332
     7  O    0.000000   0.000000   0.000000   0.000000   0.000000  -0.000001
     8  C    0.000000   0.000000   0.000000   0.000004   0.004113   0.000258
     9  C   -0.000004   0.000003  -0.000068  -0.000935  -0.008034   0.005340
    10  C    0.000000   0.000000  -0.000001   0.000027   0.000034  -0.000103
    11  C    0.000000   0.000000   0.000000   0.000007   0.000018   0.000002
    12  C    0.000000   0.000000   0.000000   0.000000  -0.000007   0.000000
    13  C    0.000000   0.000000   0.000000   0.000000   0.000000   0.000000
    14  C    0.000000   0.000000   0.000000   0.000000   0.000000   0.000000
    15  C    0.000000   0.000000   0.000000  -0.000005  -0.000009   0.000000
    16  C    0.000000   0.000000  -0.000017  -0.000173   0.000073   0.000000
    17  C   -0.023402  -0.039619  -0.030609   0.520456  -0.058204   0.003039
    18  C    0.520648  -0.030060  -0.038545  -0.031817   0.001736  -0.000095
    19  C    4.872970   0.540955  -0.028469  -0.040554  -0.000048   0.000003
    20  C    0.540955   4.843868   0.545185  -0.028429  -0.000005   0.000000
    21  C   -0.028469   0.545185   4.886064   0.500298   0.000645   0.000002
    22  C   -0.040554  -0.028429   0.500298   4.930920   0.001755  -0.000047
    23  O   -0.000048  -0.000005   0.000645   0.001755   8.286657  -0.000040
    24  H    0.000003   0.000000   0.000002  -0.000047  -0.000040   0.382664
    25  H    0.000000   0.000000   0.000000   0.000000   0.000001  -0.000096
    26  H    0.000000   0.000000   0.000000   0.000000   0.000005   0.004937
    27  H    0.000000   0.000000   0.000000   0.000000  -0.000088  -0.000105
    28  H    0.000000   0.000000   0.000000   0.000000   0.001042   0.001475
    29  H   -0.000089   0.000003   0.000003   0.001732   0.006802  -0.000008
    30  H    0.000085   0.000013  -0.000046  -0.000083   0.000193  -0.000075
    31  H    0.000000   0.000000   0.000000   0.000002  -0.000001   0.000003
    32  H    0.000000   0.000000   0.000000   0.000000  -0.000003  -0.000006
    33  H    0.000000   0.000000   0.000000   0.000000   0.000000   0.000000
    34  H    0.000000   0.000000   0.000000   0.000000   0.000000   0.000000
    35  H    0.000000   0.000000   0.000000   0.000000   0.000000   0.000000
    36  H    0.000000   0.000000   0.000000  -0.000001   0.000000   0.000000
    37  H   -0.000001   0.000001   0.000063   0.000408  -0.000052   0.000000
    38  H   -0.038689   0.004388   0.000333   0.004883   0.000057  -0.000337
    39  H    0.362762  -0.041517   0.004437   0.000643   0.000000   0.000000
    40  H   -0.042256   0.361987  -0.042246   0.004870   0.000000   0.000000
    41  H    0.004384  -0.042133   0.363918  -0.042799   0.000003   0.000000
    42  H    0.000256   0.004127  -0.036769   0.358359   0.013174  -0.000004
              25         26         27         28         29         30
     1  O    0.000000  -0.000017  -0.000001  -0.000230   0.000026   0.000004
     2  S    0.000035   0.000014   0.000347   0.001072   0.014615  -0.001507
     3  N    0.002221  -0.005024   0.002398  -0.004692  -0.005403   0.000546
     4  C   -0.022995  -0.029997  -0.021554  -0.026344  -0.030725  -0.038242
     5  C    0.349098   0.326415   0.007990   0.007478   0.005593  -0.008395
     6  S   -0.017894  -0.009970  -0.020127  -0.010716  -0.000561  -0.000175
     7  O   -0.000244   0.001320  -0.001209   0.001272   0.000005   0.000010
     8  C    0.008303   0.007793   0.340584   0.329027  -0.004372   0.006523
     9  C   -0.008171   0.002950  -0.006830   0.002979   0.359858   0.354120
    10  C    0.000347   0.000118  -0.003416   0.000159  -0.038512  -0.027444
    11  C    0.000258  -0.000010   0.009578  -0.000007  -0.004774   0.003225
    12  C   -0.000021   0.000001   0.011643   0.000118   0.000348  -0.000111
    13  C    0.000000   0.000000   0.000352   0.000005  -0.000022   0.000003
    14  C    0.000000   0.000000  -0.000077  -0.000001  -0.000004   0.000000
    15  C    0.000000   0.000000  -0.000304   0.000000  -0.000218   0.000004
    16  C    0.000003   0.000000   0.000404  -0.000006   0.005080   0.000357
    17  C    0.000002  -0.000008   0.000006   0.000023  -0.003349   0.000429
    18  C    0.000000  -0.000002   0.000000   0.000000  -0.000481   0.001073
    19  C    0.000000   0.000000   0.000000   0.000000  -0.000089   0.000085
    20  C    0.000000   0.000000   0.000000   0.000000   0.000003   0.000013
    21  C    0.000000   0.000000   0.000000   0.000000   0.000003  -0.000046
    22  C    0.000000   0.000000   0.000000   0.000000   0.001732  -0.000083
    23  O    0.000001   0.000005  -0.000088   0.001042   0.006802   0.000193
    24  H   -0.000096   0.004937  -0.000105   0.001475  -0.000008  -0.000075
    25  H    0.489039  -0.018954  -0.000348  -0.000302   0.000178   0.003256
    26  H   -0.018954   0.540285  -0.000290  -0.000448  -0.000135   0.000224
    27  H   -0.000348  -0.000290   0.457619  -0.014151   0.001548   0.000103
    28  H   -0.000302  -0.000448  -0.014151   0.515556   0.000044  -0.000128
    29  H    0.000178  -0.000135   0.001548   0.000044   0.533366  -0.031850
    30  H    0.003256   0.000224   0.000103  -0.000128  -0.031850   0.596493
    31  H   -0.000218   0.000002   0.000192   0.000001   0.001170  -0.007977
    32  H    0.004010   0.000156  -0.000098  -0.000001   0.004099   0.001126
    33  H    0.000013  -0.000003   0.000927   0.000017   0.000020  -0.000007
    34  H    0.000000   0.000000   0.000019   0.000000   0.000000   0.000000
    35  H    0.000000   0.000000   0.000000   0.000000   0.000000   0.000000
    36  H    0.000000   0.000000  -0.000001   0.000000   0.000012   0.000000
    37  H    0.000001   0.000000   0.000051   0.000000   0.004190  -0.000263
    38  H    0.000000   0.000007   0.000000   0.000000  -0.000014   0.000146
    39  H    0.000000   0.000000   0.000000   0.000000   0.000001   0.000000
    40  H    0.000000   0.000000   0.000000   0.000000   0.000000   0.000000
    41  H    0.000000   0.000000   0.000000   0.000000   0.000002   0.000000
    42  H    0.000000   0.000000   0.000001   0.000001   0.000443   0.000009
              31         32         33         34         35         36
     1  O    0.000000   0.000000   0.000000   0.000000   0.000000   0.000000
     2  S    0.000010   0.000021   0.000000   0.000000   0.000000   0.000000
     3  N   -0.000127  -0.000006  -0.000001   0.000000   0.000000   0.000000
     4  C    0.004191  -0.006259   0.000007   0.000000   0.000000   0.000000
     5  C    0.000101  -0.002556   0.000109   0.000000   0.000000   0.000000
     6  S    0.000033  -0.001668  -0.001578   0.000003   0.000000   0.000000
     7  O    0.000192   0.027230   0.020437  -0.000002   0.000000   0.000000
     8  C   -0.000061  -0.001971  -0.001193  -0.000008   0.000000   0.000000
     9  C   -0.033552  -0.039379   0.000319   0.000001   0.000000   0.000001
    10  C    0.353828   0.343603  -0.012214  -0.000186   0.000007  -0.000192
    11  C   -0.029430  -0.031853  -0.037358   0.003668   0.000658   0.003802
    12  C    0.001794  -0.004043   0.344649  -0.039065   0.004694   0.000768
    13  C   -0.000229   0.000319  -0.042407   0.356986  -0.043638   0.004715
    14  C    0.000034  -0.000012   0.004235  -0.044204   0.358930  -0.043400
    15  C   -0.000064  -0.000150   0.000287   0.004615  -0.043653   0.356167
    16  C   -0.005322   0.004172   0.006009   0.000884   0.004879  -0.041217
    17  C   -0.000001  -0.000002   0.000000   0.000000   0.000000   0.000000
    18  C    0.000000   0.000000   0.000000   0.000000   0.000000   0.000000
    19  C    0.000000   0.000000   0.000000   0.000000   0.000000   0.000000
    20  C    0.000000   0.000000   0.000000   0.000000   0.000000   0.000000
    21  C    0.000000   0.000000   0.000000   0.000000   0.000000   0.000000
    22  C    0.000002   0.000000   0.000000   0.000000   0.000000  -0.000001
    23  O   -0.000001  -0.000003   0.000000   0.000000   0.000000   0.000000
    24  H    0.000003  -0.000006   0.000000   0.000000   0.000000   0.000000
    25  H   -0.000218   0.004010   0.000013   0.000000   0.000000   0.000000
    26  H    0.000002   0.000156  -0.000003   0.000000   0.000000   0.000000
    27  H    0.000192  -0.000098   0.000927   0.000019   0.000000  -0.000001
    28  H    0.000001  -0.000001   0.000017   0.000000   0.000000   0.000000
    29  H    0.001170   0.004099   0.000020   0.000000   0.000000   0.000012
    30  H   -0.007977   0.001126  -0.000007   0.000000   0.000000   0.000000
    31  H    0.586383  -0.027288   0.000198   0.000004   0.000000  -0.000002
    32  H   -0.027288   0.539531   0.005821  -0.000006   0.000000   0.000003
    33  H    0.000198   0.005821   0.537317  -0.004658  -0.000151   0.000014
    34  H    0.000004  -0.000006  -0.004658   0.597405  -0.005672  -0.000192
    35  H    0.000000   0.000000  -0.000151  -0.005672   0.603418  -0.005639
    36  H   -0.000002   0.000003   0.000014  -0.000192  -0.005639   0.606460
    37  H    0.002327   0.000050  -0.000163   0.000018  -0.000185  -0.005873
    38  H    0.000000   0.000000   0.000000   0.000000   0.000000   0.000000
    39  H    0.000000   0.000000   0.000000   0.000000   0.000000   0.000000
    40  H    0.000000   0.000000   0.000000   0.000000   0.000000   0.000000
    41  H    0.000000   0.000000   0.000000   0.000000   0.000000   0.000000
    42  H    0.000000   0.000000   0.000000   0.000000   0.000000   0.000000
              37         38         39         40         41         42
     1  O    0.000000   0.000702   0.000001   0.000000   0.000000  -0.000012
     2  S   -0.000044  -0.002565  -0.000059   0.000008  -0.000076  -0.008112
     3  N    0.000002   0.006549   0.000000   0.000000   0.000000   0.000264
     4  C    0.000146   0.000125   0.000000   0.000000   0.000000  -0.000011
     5  C    0.000000  -0.000006   0.000000   0.000000   0.000000   0.000000
     6  S   -0.000003   0.000000   0.000000   0.000000   0.000000   0.000000
     7  O    0.000000   0.000000   0.000000   0.000000   0.000000   0.000000
     8  C   -0.000014   0.000007   0.000000   0.000000   0.000000   0.000001
     9  C    0.000827  -0.000093  -0.000001   0.000000  -0.000001  -0.000183
    10  C   -0.009490   0.000001   0.000000   0.000000   0.000000   0.000000
    11  C   -0.048148   0.000000   0.000000   0.000000   0.000000   0.000004
    12  C    0.006464   0.000000   0.000000   0.000000   0.000000   0.000000
    13  C    0.000314   0.000000   0.000000   0.000000   0.000000   0.000000
    14  C    0.004942   0.000000   0.000000   0.000000   0.000000   0.000000
    15  C   -0.045646   0.000000   0.000000   0.000000   0.000000   0.000006
    16  C    0.351068   0.000000   0.000000   0.000000   0.000000   0.000095
    17  C    0.000010  -0.048789   0.004796   0.000485   0.004990  -0.040759
    18  C   -0.000001   0.362389  -0.041622   0.004885   0.000739   0.005229
    19  C   -0.000001  -0.038689   0.362762  -0.042256   0.004384   0.000256
    20  C    0.000001   0.004388  -0.041517   0.361987  -0.042133   0.004127
    21  C    0.000063   0.000333   0.004437  -0.042246   0.363918  -0.036769
    22  C    0.000408   0.004883   0.000643   0.004870  -0.042799   0.358359
    23  O   -0.000052   0.000057   0.000000   0.000000   0.000003   0.013174
    24  H    0.000000  -0.000337   0.000000   0.000000   0.000000  -0.000004
    25  H    0.000001   0.000000   0.000000   0.000000   0.000000   0.000000
    26  H    0.000000   0.000007   0.000000   0.000000   0.000000   0.000000
    27  H    0.000051   0.000000   0.000000   0.000000   0.000000   0.000001
    28  H    0.000000   0.000000   0.000000   0.000000   0.000000   0.000001
    29  H    0.004190  -0.000014   0.000001   0.000000   0.000002   0.000443
    30  H   -0.000263   0.000146   0.000000   0.000000   0.000000   0.000009
    31  H    0.002327   0.000000   0.000000   0.000000   0.000000   0.000000
    32  H    0.000050   0.000000   0.000000   0.000000   0.000000   0.000000
    33  H   -0.000163   0.000000   0.000000   0.000000   0.000000   0.000000
    34  H    0.000018   0.000000   0.000000   0.000000   0.000000   0.000000
    35  H   -0.000185   0.000000   0.000000   0.000000   0.000000   0.000000
    36  H   -0.005873   0.000000   0.000000   0.000000   0.000000   0.000000
    37  H    0.621526   0.000000   0.000000   0.000000   0.000001   0.000149
    38  H    0.000000   0.551972  -0.005462  -0.000154   0.000015  -0.000146
    39  H    0.000000  -0.005462   0.573981  -0.005326  -0.000171   0.000014
    40  H    0.000000  -0.000154  -0.005326   0.576894  -0.005521  -0.000141
    41  H    0.000001   0.000015  -0.000171  -0.005521   0.572961  -0.004909
    42  H    0.000149  -0.000146   0.000014  -0.000141  -0.004909   0.521122
 Mulliken charges:
               1
     1  O   -0.531816
     2  S    1.222661
     3  N   -0.742623
     4  C    0.240838
     5  C   -0.506431
     6  S    0.755158
     7  O   -0.615657
     8  C   -0.494420
     9  C   -0.295880
    10  C   -0.394176
    11  C    0.154516
    12  C   -0.216298
    13  C   -0.129997
    14  C   -0.130031
    15  C   -0.127646
    16  C   -0.172751
    17  C   -0.140470
    18  C   -0.121815
    19  C   -0.130915
    20  C   -0.118326
    21  C   -0.127472
    22  C   -0.144086
    23  O   -0.549061
    24  H    0.350182
    25  H    0.212477
    26  H    0.180632
    27  H    0.234837
    28  H    0.196760
    29  H    0.181379
    30  H    0.148361
    31  H    0.153810
    32  H    0.185159
    33  H    0.179353
    34  H    0.130391
    35  H    0.126351
    36  H    0.124574
    37  H    0.117325
    38  H    0.164681
    39  H    0.147523
    40  H    0.146515
    41  H    0.148596
    42  H    0.187793
 Sum of Mulliken charges =   0.00000
 Mulliken charges with hydrogens summed into heavy atoms:
               1
     1  O   -0.531816
     2  S    1.222661
     3  N   -0.392440
     4  C    0.240838
     5  C   -0.113322
     6  S    0.755158
     7  O   -0.615657
     8  C   -0.062824
     9  C    0.033860
    10  C   -0.055207
    11  C    0.154516
    12  C   -0.036944
    13  C    0.000394
    14  C   -0.003680
    15  C   -0.003072
    16  C   -0.055426
    17  C   -0.140470
    18  C    0.042866
    19  C    0.016609
    20  C    0.028189
    21  C    0.021124
    22  C    0.043706
    23  O   -0.549061
 Electronic spatial extent (au):  <R**2>=           8560.0869
 Charge=              0.0000 electrons
 Dipole moment (field-independent basis, Debye):
    X=             -3.6022    Y=              0.5686    Z=             -3.1669  Tot=              4.8299
 Quadrupole moment (field-independent basis, Debye-Ang):
   XX=           -154.8701   YY=           -135.2919   ZZ=           -153.4355
   XY=             -2.9339   XZ=             19.7571   YZ=              3.5849
 Traceless Quadrupole moment (field-independent basis, Debye-Ang):
   XX=             -7.0043   YY=             12.5740   ZZ=             -5.5697
[...]
    40  H   -0.041122   0.364063  -0.041182   0.004801   0.000000   0.000000
    41  H    0.004292  -0.040667   0.365864  -0.042271   0.000003   0.000000
    42  H    0.000227   0.004202  -0.035708   0.359677   0.012879  -0.000004
              25         26         27         28         29         30
     1  O    0.000000  -0.000017  -0.000001  -0.000229   0.000023   0.000004
     2  S    0.000026   0.000030   0.000396   0.001321   0.014475  -0.001506
     3  N    0.002123  -0.004490   0.002464  -0.004579  -0.005460   0.000600
     4  C   -0.023937  -0.028924  -0.022027  -0.025646  -0.031284  -0.037448
     5  C    0.350226   0.333315   0.008069   0.007124   0.005567  -0.008122
     6  S   -0.018511  -0.010581  -0.020079  -0.010770  -0.000601  -0.000215
     7  O   -0.000344   0.001251  -0.001266   0.001246   0.000004   0.000009
     8  C    0.008226   0.007357   0.339476   0.331412  -0.004363   0.006409
     9  C   -0.007771   0.002799  -0.006862   0.002979   0.360122   0.357341
    10  C    0.000077   0.000113  -0.003492   0.000157  -0.039273  -0.026849
    11  C    0.000255  -0.000010   0.008995  -0.000009  -0.005117   0.003172
    12  C   -0.000021   0.000001   0.011228   0.000112   0.000353  -0.000110
    13  C    0.000000   0.000000   0.000332   0.000005  -0.000021   0.000003
    14  C    0.000000   0.000000  -0.000072  -0.000001  -0.000003   0.000000
    15  C    0.000000   0.000000  -0.000292   0.000000  -0.000215   0.000004
    16  C    0.000003   0.000000   0.000411  -0.000006   0.005098   0.000349
    17  C    0.000002  -0.000008   0.000006   0.000022  -0.003355   0.000416
    18  C    0.000000  -0.000001   0.000000   0.000000  -0.000497   0.001050
    19  C    0.000000   0.000000   0.000000   0.000000  -0.000089   0.000086
    20  C    0.000000   0.000000   0.000000   0.000000   0.000003   0.000013
    21  C    0.000000   0.000000   0.000000   0.000000   0.000011  -0.000044
    22  C    0.000000   0.000000  -0.000001   0.000000   0.001766  -0.000089
    23  O    0.000001   0.000004  -0.000094   0.001028   0.006488   0.000191
    24  H   -0.000082   0.004288  -0.000099   0.001336  -0.000010  -0.000066
    25  H    0.481434  -0.017127  -0.000361  -0.000286   0.000177   0.003113
    26  H   -0.017127   0.507961  -0.000278  -0.000422  -0.000127   0.000202
    27  H   -0.000361  -0.000278   0.467506  -0.014635   0.001585   0.000095
    28  H   -0.000286  -0.000422  -0.014635   0.505369   0.000038  -0.000123
    29  H    0.000177  -0.000127   0.001585   0.000038   0.537321  -0.031350
    30  H    0.003113   0.000202   0.000095  -0.000123  -0.031350   0.580692
    31  H   -0.000207   0.000002   0.000184   0.000001   0.001140  -0.007917
    32  H    0.003997   0.000142  -0.000097  -0.000006   0.004191   0.001127
    33  H    0.000011  -0.000003   0.000964   0.000018   0.000020  -0.000006
    34  H    0.000000   0.000000   0.000018   0.000000   0.000000   0.000000
    35  H    0.000000   0.000000   0.000000   0.000000   0.000000   0.000000
    36  H    0.000000   0.000000  -0.000001   0.000000   0.000012   0.000000
    37  H    0.000001   0.000000   0.000051   0.000000   0.004145  -0.000251
    38  H    0.000000   0.000006   0.000000   0.000000  -0.000014   0.000139
    39  H    0.000000   0.000000   0.000000   0.000000   0.000001   0.000000
    40  H    0.000000   0.000000   0.000000   0.000000   0.000000   0.000000
    41  H    0.000000   0.000000   0.000000   0.000000   0.000002   0.000000
    42  H    0.000000   0.000000   0.000001   0.000001   0.000433   0.000008
              31         32         33         34         35         36
     1  O    0.000000   0.000000   0.000000   0.000000   0.000000   0.000000
     2  S    0.000011   0.000024   0.000000   0.000000   0.000000   0.000000
     3  N   -0.000124  -0.000007  -0.000001   0.000000   0.000000   0.000000
     4  C    0.004081  -0.006235   0.000008   0.000000   0.000000   0.000000
     5  C    0.000095  -0.002275   0.000119   0.000000   0.000000   0.000000
     6  S    0.000031  -0.002283  -0.001453   0.000003   0.000000   0.000000
     7  O    0.000188   0.027197   0.021457  -0.000003   0.000000   0.000000
     8  C   -0.000063  -0.001809  -0.001285  -0.000007   0.000000   0.000000
     9  C   -0.032143  -0.039073   0.000326   0.000001   0.000000   0.000001
    10  C    0.356269   0.342604  -0.012521  -0.000180   0.000007  -0.000185
    11  C   -0.029619  -0.032861  -0.038002   0.003673   0.000632   0.003704
    12  C    0.001837  -0.004382   0.343467  -0.039435   0.004600   0.000748
    13  C   -0.000227   0.000329  -0.044269   0.358430  -0.043123   0.004642
    14  C    0.000033  -0.000011   0.004393  -0.043369   0.360908  -0.042826
    15  C   -0.000057  -0.000157   0.000223   0.004598  -0.042863   0.358416
    16  C   -0.005449   0.004292   0.006243   0.000824   0.004789  -0.040159
    17  C   -0.000001  -0.000002   0.000000   0.000000   0.000000   0.000000
    18  C    0.000000   0.000000   0.000000   0.000000   0.000000   0.000000
    19  C    0.000000   0.000000   0.000000   0.000000   0.000000   0.000000
    20  C    0.000000   0.000000   0.000000   0.000000   0.000000   0.000000
    21  C    0.000000   0.000000   0.000000   0.000000   0.000000   0.000000
    22  C    0.000002   0.000000   0.000000   0.000000   0.000000  -0.000001
    23  O   -0.000001  -0.000003   0.000000   0.000000   0.000000   0.000000
    24  H    0.000003  -0.000006   0.000000   0.000000   0.000000   0.000000
    25  H   -0.000207   0.003997   0.000011   0.000000   0.000000   0.000000
    26  H    0.000002   0.000142  -0.000003   0.000000   0.000000   0.000000
    27  H    0.000184  -0.000097   0.000964   0.000018   0.000000  -0.000001
    28  H    0.000001  -0.000006   0.000018   0.000000   0.000000   0.000000
    29  H    0.001140   0.004191   0.000020   0.000000   0.000000   0.000012
    30  H   -0.007917   0.001127  -0.000006   0.000000   0.000000   0.000000
    31  H    0.575909  -0.027439   0.000191   0.000004   0.000000  -0.000002
    32  H   -0.027439   0.547712   0.005972  -0.000006   0.000000   0.000002
    33  H    0.000191   0.005972   0.549517  -0.004736  -0.000150   0.000014
    34  H    0.000004  -0.000006  -0.004736   0.589115  -0.005503  -0.000185
    35  H    0.000000   0.000000  -0.000150  -0.005503   0.590202  -0.005406
    36  H   -0.000002   0.000002   0.000014  -0.000185  -0.005406   0.590635
    37  H    0.002215   0.000053  -0.000161   0.000018  -0.000178  -0.005604
    38  H    0.000000   0.000000   0.000000   0.000000   0.000000   0.000000
    39  H    0.000000   0.000000   0.000000   0.000000   0.000000   0.000000
    40  H    0.000000   0.000000   0.000000   0.000000   0.000000   0.000000
    41  H    0.000000   0.000000   0.000000   0.000000   0.000000   0.000000
    42  H    0.000000   0.000000   0.000000   0.000000   0.000000   0.000000
              37         38         39         40         41         42
     1  O    0.000000   0.000607   0.000001   0.000000   0.000000  -0.000011
     2  S   -0.000042  -0.002211  -0.000065   0.000007  -0.000079  -0.007884
     3  N    0.000002   0.006224   0.000000   0.000000   0.000000   0.000254
     4  C    0.000136   0.000110   0.000000   0.000000   0.000000  -0.000011
     5  C    0.000000  -0.000006   0.000000   0.000000   0.000000   0.000000
     6  S   -0.000003   0.000000   0.000000   0.000000   0.000000   0.000000
     7  O    0.000000   0.000000   0.000000   0.000000   0.000000   0.000000
     8  C   -0.000012   0.000007   0.000000   0.000000   0.000000   0.000000
     9  C    0.000797  -0.000087   0.000000   0.000000  -0.000001  -0.000183
    10  C   -0.009056   0.000001   0.000000   0.000000   0.000000   0.000000
    11  C   -0.047017   0.000000   0.000000   0.000000   0.000000   0.000004
    12  C    0.006334   0.000000   0.000000   0.000000   0.000000   0.000000
    13  C    0.000302   0.000000   0.000000   0.000000   0.000000   0.000000
    14  C    0.004840   0.000000   0.000000   0.000000   0.000000   0.000000
    15  C   -0.044677   0.000000   0.000000   0.000000   0.000000   0.000006
    16  C    0.353560   0.000000   0.000000   0.000000   0.000000   0.000093
    17  C    0.000010  -0.050133   0.004726   0.000474   0.004959  -0.044062
    18  C   -0.000002   0.363939  -0.040672   0.004808   0.000694   0.005131
    19  C   -0.000001  -0.036263   0.364983  -0.041122   0.004292   0.000227
    20  C    0.000001   0.004312  -0.040232   0.364063  -0.040667   0.004202
    21  C    0.000064   0.000314   0.004319  -0.041182   0.365864  -0.035708
    22  C    0.000409   0.004671   0.000628   0.004801  -0.042271   0.359677
    23  O   -0.000051   0.000054   0.000000   0.000000   0.000003   0.012879
    24  H    0.000000  -0.000301   0.000000   0.000000   0.000000  -0.000004
    25  H    0.000001   0.000000   0.000000   0.000000   0.000000   0.000000
    26  H    0.000000   0.000006   0.000000   0.000000   0.000000   0.000000
    27  H    0.000051   0.000000   0.000000   0.000000   0.000000   0.000001
    28  H    0.000000   0.000000   0.000000   0.000000   0.000000   0.000001
    29  H    0.004145  -0.000014   0.000001   0.000000   0.000002   0.000433
    30  H   -0.000251   0.000139   0.000000   0.000000   0.000000   0.000008
    31  H    0.002215   0.000000   0.000000   0.000000   0.000000   0.000000
    32  H    0.000053   0.000000   0.000000   0.000000   0.000000   0.000000
    33  H   -0.000161   0.000000   0.000000   0.000000   0.000000   0.000000
    34  H    0.000018   0.000000   0.000000   0.000000   0.000000   0.000000
    35  H   -0.000178   0.000000   0.000000   0.000000   0.000000   0.000000
    36  H   -0.005604   0.000000   0.000000   0.000000   0.000000   0.000000
    37  H    0.604806   0.000000   0.000000   0.000000   0.000001   0.000147
    38  H    0.000000   0.540404  -0.005295  -0.000148   0.000015  -0.000144
    39  H    0.000000  -0.005295   0.554893  -0.005083  -0.000162   0.000014
    40  H    0.000000  -0.000148  -0.005083   0.557991  -0.005283  -0.000138
    41  H    0.000001   0.000015  -0.000162  -0.005283   0.556268  -0.004934
    42  H    0.000147  -0.000144   0.000014  -0.000138  -0.004934   0.525933
 Mulliken charges:
               1
     1  O   -0.552225
     2  S    1.216110
     3  N   -0.744390
     4  C    0.238165
     5  C   -0.508552
     6  S    0.757386
     7  O   -0.642061
     8  C   -0.494390
     9  C   -0.297688
    10  C   -0.391601
    11  C    0.151888
    12  C   -0.217407
    13  C   -0.139581
    14  C   -0.141744
    15  C   -0.138818
    16  C   -0.179734
    17  C   -0.143432
    18  C   -0.129350
    19  C   -0.135568
    20  C   -0.123288
    21  C   -0.132060
    22  C   -0.146575
    23  O   -0.562762
    24  H    0.374073
    25  H    0.218975
    26  H    0.204515
    27  H    0.227874
    28  H    0.204547
    29  H    0.178805
    30  H    0.159074
    31  H    0.161054
    32  H    0.179012
    33  H    0.169643
    34  H    0.136741
    35  H    0.136085
    36  H    0.136194
    37  H    0.129164
    38  H    0.173797
    39  H    0.161945
    40  H    0.160811
    41  H    0.161300
    42  H    0.184069
 Sum of Mulliken charges =   0.00000
 Mulliken charges with hydrogens summed into heavy atoms:
               1
     1  O   -0.552225
     2  S    1.216110
     3  N   -0.370317
     4  C    0.238165
     5  C   -0.085062
     6  S    0.757386
     7  O   -0.642061
     8  C   -0.061969
     9  C    0.040191
    10  C   -0.051534
    11  C    0.151888
    12  C   -0.047763
    13  C   -0.002840
    14  C   -0.005659
    15  C   -0.002625
    16  C   -0.050570
    17  C   -0.143432
    18  C    0.044446
    19  C    0.026377
    20  C    0.037523
    21  C    0.029241
    22  C    0.037494
    23  O   -0.562762
 Electronic spatial extent (au):  <R**2>=           8559.2231
 Charge=              0.0000 electrons
 Dipole moment (field-independent basis, Debye):
    X=             -4.5289    Y=              0.4291    Z=             -3.8709  Tot=              5.9732
 Quadrupole moment (field-independent basis, Debye-Ang):
   XX=           -156.1823   YY=           -132.7591   ZZ=           -153.4943
   XY=             -3.3603   XZ=             22.5120   YZ=              3.7987
 Traceless Quadrupole moment (field-independent basis, Debye-Ang):
   XX=             -8.7037   YY=             14.7194   ZZ=             -6.0157
   XY=             -3.3603   XZ=             22.5120   YZ=              3.7987
 Octapole moment (field-independent basis, Debye-Ang**2):
  XXX=           -112.4026  YYY=            -22.0656  ZZZ=            -18.8199  XYY=            -36.0882
  XXY=             69.7527  XXZ=            -21.6729  XZZ=              5.6234  YZZ=             -5.2044
  YYZ=              8.5463  XYZ=             -7.1820
 Hexadecapole moment (field-independent basis, Debye-Ang**3):
 XXXX=          -6904.6764 YYYY=          -3128.0798 ZZZZ=          -1133.6637 XXXY=              3.7947
 XXXZ=            425.9688 YYYX=            -58.4764 YYYZ=             69.9757 ZZZX=             33.2904
 ZZZY=             15.9610 XXYY=          -1732.7835 XXZZ=          -1334.2951 YYZZ=           -744.7048
 XXYZ=             16.0817 YYXZ=             95.5540 ZZXY=            -47.4769
 N-N= 2.324270051912D+03 E-N=-8.723540966033D+03  KE= 1.724313506054D+03
 No NMR shielding tensors so no spin-rotation constants.
 Leave Link  601 at Sat Aug  8 04:41:42 2020, MaxMem=    33554432 cpu:         0.4
 (Enter /prod/apps/gaussian/g09d1/l9999.exe)
 1\1\GINC-PIRINEUS7\SP\RB3LYP\6-31G(d)\C17H19N1O3S2\UBAFAR01\08-Aug-202
 0\0\\#p b3lyp/6-31G(d) scrf=(iefpcm,read,solvent=n-Octanol) geom=allch
 eck guess=read\\SM36.n.13.pdb.xyz\\0,1\O,0,5.171,0.741,-0.63\S,0,4.772
 ,-0.055,-1.799\N,0,3.106,-0.252,-1.616\C,0,2.414,-1.453,-2.123\C,0,0.9
 4,-1.4,-1.65\S,0,1.001,-3.093,-0.856\O,0,0.322,-4.11,-1.761\C,0,2.765,
 -2.783,-1.397\C,0,2.543,-1.5,-3.654\C,0,1.893,-2.725,-4.34\C,0,2.825,-
 3.902,-4.562\C,0,2.533,-5.162,-4.024\C,0,3.374,-6.252,-4.262\C,0,4.521
 ,-6.098,-5.04\C,0,4.824,-4.845,-5.578\C,0,3.982,-3.76,-5.341\C,0,4.944
 ,0.952,-3.266\C,0,4.243,2.153,-3.368\C,0,4.445,2.958,-4.486\C,0,5.346,
 2.561,-5.48\C,0,6.045,1.36,-5.359\C,0,5.85,0.545,-4.245\O,0,5.428,-1.3
 42,-2.071\H,0,2.894,-0.036,-0.642\H,0,0.19,-1.371,-2.441\H,0,0.721,-0.
 632,-0.906\H,0,3.133,-3.592,-2.027\H,0,3.406,-2.668,-0.523\H,0,3.603,-
 1.468,-3.916\H,0,2.091,-0.576,-4.03\H,0,1.52,-2.393,-5.316\H,0,1.02,-3
 .065,-3.773\H,0,1.648,-5.272,-3.404\H,0,3.132,-7.221,-3.836\H,0,5.176,
 -6.944,-5.224\H,0,5.715,-4.715,-6.186\H,0,4.224,-2.79,-5.767\H,0,3.544
 ,2.444,-2.593\H,0,3.901,3.891,-4.582\H,0,5.5,3.19,-6.35\H,0,6.743,1.05
 6,-6.131\H,0,6.375,-0.394,-4.127\\Version=AM64L-G09RevD.01\State=1-A\H
 F=-1735.94205\RMSD=4.849e-09\Dipole=-0.3307638,2.0395161,-1.1196297\Qu
 adrupole=-7.0560531,3.3333601,3.7226931,-12.437828,-11.6787814,-7.5296
 342\PG=C01 [X(C17H19N1O3S2)]\\@


                                                                                    A
                                                                                  AA
                                                                                 AAA
                                                                                AAAA
                                                                               AAAAA
                                                                              AAAAAA   KKKKKKKK
                                                                             AAAAAAA   KKKKKKKK
                                                                            AAAAAAAA   KKKKKKKK
                                       ZZZZZZZZZZZZZZZZZZZZ                AAAA  AAA   KKKKKKKK
                                       ZZZZZZZZZZZZZZZZZZZ                AAAA   AAA   KKKKKKKK          K
                                       ZZZZZZZZZZZZZZZZZZ                AAAA    AAA   KKKKKKKK         KKK
                                       ZZZZZZZZZZZZZZZZZ                AAAA     AAA   KKKKKKKK        KKKKK
                                       ZZZZZZZZZZZZZZZZ                AAAA      AAA   KKKKKKKK       KKKKKKK
                                                ZZZZZZ                AAAA       AAA   KKKKKKKK      KKKKKKK
                                               ZZZZZZ                AAAA        AAA   KKKKKKKK     KKKKKKK
                                              ZZZZZZ                AAAA         AAA   KKKKKKKK    KKKKKKK
                                             ZZZZZZ                AAAA          AAA   KKKKKKKK   KKKKKKK
                                            ZZZZZZ                AAAAAAAAAAAAAAAAAA   KKKKKKKK  KKKKKKK
                                           ZZZZZZ                AAAAAAAAAAAAAAAAAAA   KKKKKKKK KKKKKKK
                                          ZZZZZZ                AAAAAAAAAAAAAAAAAAAA   KKKKKKKKKKKKKKK
                                         ZZZZZZ                AAAAAAAAAAAAAAAAAAAAA   KKKKKKKKKKKKKK
                                        ZZZZZZ                AAAAAA        AAAAAAAA   KKKKKKKKKKKKK
                                       ZZZZZZ                AAAAAA         AAAAAAAA   KKKKKKKKKKKK
                                      ZZZZZZ                AAAAAA          AAAAAAAA   KKKKKKKKKKK
                                     ZZZZZZ                AAAAAA           AAAAAAAA   KKKKKKKKKKKK
                                    ZZZZZZ                AAAAAA            AAAAAAAA   KKKKKKKKKKKKK
                                   ZZZZZZ                AAAAAA             AAAAAAAA   KKKKKKKKKKKKKK
                                  ZZZZZZ                AAAAAA              AAAAAAAA   KKKKKKKKKKKKKKK
                                 ZZZZZZ                AAAAAA               AAAAAAAA   KKKKK KKKKKKKKKK
                                ZZZZZZ                AAAAAA                AAAAAAAA   KKKKK  KKKKKKKKKK
                               ZZZZZZ                AAAAAA                            KKKKK   KKKKKKKKKK
                              ZZZZZZ                AAAAAA                             KKKKK    KKKKKKKKKK
                             ZZZZZZ                                                    KKKKK     KKKKKKKKKK
                            ZZZZZZ                                                     KKKKK      KKKKKKKKKK
                           ZZZZZZ                                                      KKKKK       KKKKKKKKKK
                          ZZZZZZ                                                       KKKKK        KKKKKKKKKK
                         ZZZZZZZZZZZZZZZZZZZZZZZZZZZZZZZZZZZZZZZZ                      KKKKK         KKKKKKKKKK
                        ZZZZZZZZZZZZZZZZZZZZZZZZZZZZZZZZZZZZZZZZZ                      KKKKK          KKKKKKKKKK
                       ZZZZZZZZZZZZZZZZZZZZZZZZZZZZZZZZZZZZZZZZZZ                      KKKKK           KKKKKKKKKK
                       ZZZZZZZZZZZZZZZZZZZZZZZZZZZZZZZZZZZZZZZZZZ                      KKKKK            KKKKKKKKKK
                       ZZZZZZZZZZZZZZZZZZZZZZZZZZZZZZZZZZZZZZZZZZ                      KKKKK             KKKKKKKKKK
                       ZZZZZZZZZZZZZZZZZZZZZZZZZZZZZZZZZZZZZZZZZZ                      KKKKK              KKKKKKKKKK
                       ZZZZZZZZZZZZZZZZZZZZZZZZZZZZZZZZZZZZZZZZZZ                      KKKKK               KKKKKKKKKK
                       ZZZZZZZZZZZZZZZZZZZZZZZZZZZZZZZZZZZZZZZZZZ                      KKKKK                KKKKKKKKKK
                       ZZZZZZZZZZZZZZZZZZZZZZZZZZZZZZZZZZZZZZZZZZ                      KKKKK
                                                                                       KKKKK
                                                                                          (J.P.)
 Job cpu time:       0 days  0 hours  5 minutes 54.4 seconds.
 File lengths (MBytes):  RWF=    275 Int=      0 D2E=      0 Chk=      8 Scr=      1
 Normal termination of Gaussian 09 at Sat Aug  8 04:41:42 2020.
