 Entering Gaussian System, Link 0=g09
 Initial command:
 /prod/apps/gaussian/g09d1/l1.exe "/tmp/ubafar01/1449185/Gau-148744.inp" -scrdir="/tmp/ubafar01/1449185/"
 Entering Link 1 = /prod/apps/gaussian/g09d1/l1.exe PID=    148745.
  
 Copyright (c) 1988,1990,1992,1993,1995,1998,2003,2009,2013,
            Gaussian, Inc.  All Rights Reserved.
  
 This is part of the Gaussian(R) 09 program.  It is based on
 the Gaussian(R) 03 system (copyright 2003, Gaussian, Inc.),
 the Gaussian(R) 98 system (copyright 1998, Gaussian, Inc.),
 the Gaussian(R) 94 system (copyright 1995, Gaussian, Inc.),
 the Gaussian 92(TM) system (copyright 1992, Gaussian, Inc.),
 the Gaussian 90(TM) system (copyright 1990, Gaussian, Inc.),
 the Gaussian 88(TM) system (copyright 1988, Gaussian, Inc.),
 the Gaussian 86(TM) system (copyright 1986, Carnegie Mellon
 University), and the Gaussian 82(TM) system (copyright 1983,
 Carnegie Mellon University). Gaussian is a federally registered
 trademark of Gaussian, Inc.
  
 This software contains proprietary and confidential information,
 including trade secrets, belonging to Gaussian, Inc.
  
 This software is provided under written license and may be
 used, copied, transmitted, or stored only in accord with that
 written license.
  
 The following legend is applicable only to US Government
 contracts under FAR:
  
                    RESTRICTED RIGHTS LEGEND
  
 Use, reproduction and disclosure by the US Government is
 subject to restrictions as set forth in subparagraphs (a)
 and (c) of the Commercial Computer Software - Restricted
 Rights clause in FAR 52.227-19.
  
 Gaussian, Inc.
 340 Quinnipiac St., Bldg. 40, Wallingford CT 06492
  
  
 ---------------------------------------------------------------
 Warning -- This program may not be used in any manner that
 competes with the business of Gaussian, Inc. or will provide
 assistance to any competitor of Gaussian, Inc.  The licensee
 of this program is prohibited from giving any competitor of
 Gaussian, Inc. access to this program.  By using this program,
 the user acknowledges that Gaussian, Inc. is engaged in the
 business of creating and licensing software in the field of
 computational chemistry and represents and warrants to the
 licensee that it is not a competitor of Gaussian, Inc. and that
 it will not use this program in any manner prohibited above.
 ---------------------------------------------------------------
  

 Cite this work as:
 Gaussian 09, Revision D.01,
 M. J. Frisch, G. W. Trucks, H. B. Schlegel, G. E. Scuseria, 
 M. A. Robb, J. R. Cheeseman, G. Scalmani, V. Barone, B. Mennucci, 
 G. A. Petersson, H. Nakatsuji, M. Caricato, X. Li, H. P. Hratchian, 
 A. F. Izmaylov, J. Bloino, G. Zheng, J. L. Sonnenberg, M. Hada, 
 M. Ehara, K. Toyota, R. Fukuda, J. Hasegawa, M. Ishida, T. Nakajima, 
 Y. Honda, O. Kitao, H. Nakai, T. Vreven, J. A. Montgomery, Jr., 
 J. E. Peralta, F. Ogliaro, M. Bearpark, J. J. Heyd, E. Brothers, 
 K. N. Kudin, V. N. Staroverov, T. Keith, R. Kobayashi, J. Normand, 
 K. Raghavachari, A. Rendell, J. C. Burant, S. S. Iyengar, J. Tomasi, 
 M. Cossi, N. Rega, J. M. Millam, M. Klene, J. E. Knox, J. B. Cross, 
 V. Bakken, C. Adamo, J. Jaramillo, R. Gomperts, R. E. Stratmann, 
 O. Yazyev, A. J. Austin, R. Cammi, C. Pomelli, J. W. Ochterski, 
 R. L. Martin, K. Morokuma, V. G. Zakrzewski, G. A. Voth, 
 P. Salvador, J. J. Dannenberg, S. Dapprich, A. D. Daniels, 
 O. Farkas, J. B. Foresman, J. V. Ortiz, J. Cioslowski, 
 and D. J. Fox, Gaussian, Inc., Wallingford CT, 2013.
 
 ******************************************
 Gaussian 09:  AM64L-G09RevD.01 24-Apr-2013
                 8-Aug-2020 
 ******************************************
 %nproc=1
 Will use up to    1 processors via shared memory.
 %Chk=SM36.n.12.pdb.xyz.mst.n.o.chk
 -----------------
 #p b3lyp/6-31G(d)
 -----------------
 1/38=1/1;
 2/12=2,17=6,18=5,40=1/2;
 3/5=1,6=6,7=1,11=2,16=1,25=1,30=1,74=-5/1,2,3;
 4//1;
 5/5=2,38=5/2;
 6/7=2,8=2,9=2,10=2,28=1/1;
 99/5=1,9=1/99;
 Leave Link    1 at Sat Aug  8 04:26:00 2020, MaxMem=           0 cpu:         0.0
 (Enter /prod/apps/gaussian/g09d1/l101.exe)
 -----------------
 SM36.n.12.pdb.xyz
 -----------------
 Symbolic Z-matrix:
 Charge =  0 Multiplicity = 1
 O                     3.672    -1.968     1.174 
 S                     3.325    -0.617     0.718 
 N                     3.279    -0.66     -0.954 
 C                     2.72     -1.73     -1.794 
 C                     1.275    -2.217    -1.51 
 S                     1.735    -3.986    -1.925 
 O                     1.561    -4.221    -3.418 
 C                     3.365    -3.123    -1.605 
 C                     2.8      -1.239    -3.252 
 C                     4.176    -0.759    -3.752 
 C                     5.219    -1.832    -3.989 
 C                     5.053    -2.795    -4.995 
 C                     6.025    -3.769    -5.219 
 C                     7.186    -3.795    -4.442 
 C                     7.366    -2.838    -3.443 
 C                     6.39     -1.865    -3.222 
 C                     1.68     -0.262     1.345 
 C                     0.961    -1.29      1.957 
 C                    -0.319    -1.025     2.442 
 C                    -0.865     0.253     2.313 
 C                    -0.13      1.277     1.706 
 C                     1.151     1.026     1.22 
 O                     4.169     0.538     1.035 
 H                     3.157     0.281    -1.322 
 H                     0.479    -1.818    -2.14 
 H                     0.985    -2.18     -0.459 
 H                     4.151    -3.409    -2.3 
 H                     3.653    -3.312    -0.571 
 H                     2.088    -0.411    -3.355 
 H                     2.422    -2.054    -3.877 
 H                     4.583    -0.028    -3.049 
 H                     3.997    -0.223    -4.69 
 H                     4.155    -2.783    -5.608 
 H                     5.879    -4.506    -6.002 
 H                     7.943    -4.552    -4.617 
 H                     8.266    -2.847    -2.836 
 H                     6.528    -1.121    -2.443 
 H                     1.417    -2.266     2.062 
 H                    -0.884    -1.815     2.925 
 H                    -1.861     0.456     2.691 
 H                    -0.552     2.272     1.617 
 H                     1.735     1.818     0.766 
 
 NAtoms=     42 NQM=       42 NQMF=       0 NMMI=      0 NMMIF=      0
                NMic=       0 NMicF=      0.
                    Isotopes and Nuclear Properties:
 (Nuclear quadrupole moments (NQMom) in fm**2, nuclear magnetic moments (NMagM)
  in nuclear magnetons)

  Atom         1           2           3           4           5           6           7           8           9          10
 IAtWgt=          16          32          14          12          12          32          16          12          12          12
 AtmWgt=  15.9949146  31.9720718  14.0030740  12.0000000  12.0000000  31.9720718  15.9949146  12.0000000  12.0000000  12.0000000
 NucSpn=           0           0           2           0           0           0           0           0           0           0
 AtZEff=   0.0000000   0.0000000   0.0000000   0.0000000   0.0000000   0.0000000   0.0000000   0.0000000   0.0000000   0.0000000
 NQMom=    0.0000000   0.0000000   2.0440000   0.0000000   0.0000000   0.0000000   0.0000000   0.0000000   0.0000000   0.0000000
 NMagM=    0.0000000   0.0000000   0.4037610   0.0000000   0.0000000   0.0000000   0.0000000   0.0000000   0.0000000   0.0000000
 AtZNuc=   8.0000000  16.0000000   7.0000000   6.0000000   6.0000000  16.0000000   8.0000000   6.0000000   6.0000000   6.0000000

  Atom        11          12          13          14          15          16          17          18          19          20
 IAtWgt=          12          12          12          12          12          12          12          12          12          12
 AtmWgt=  12.0000000  12.0000000  12.0000000  12.0000000  12.0000000  12.0000000  12.0000000  12.0000000  12.0000000  12.0000000
 NucSpn=           0           0           0           0           0           0           0           0           0           0
 AtZEff=   0.0000000   0.0000000   0.0000000   0.0000000   0.0000000   0.0000000   0.0000000   0.0000000   0.0000000   0.0000000
 NQMom=    0.0000000   0.0000000   0.0000000   0.0000000   0.0000000   0.0000000   0.0000000   0.0000000   0.0000000   0.0000000
 NMagM=    0.0000000   0.0000000   0.0000000   0.0000000   0.0000000   0.0000000   0.0000000   0.0000000   0.0000000   0.0000000
 AtZNuc=   6.0000000   6.0000000   6.0000000   6.0000000   6.0000000   6.0000000   6.0000000   6.0000000   6.0000000   6.0000000

  Atom        21          22          23          24          25          26          27          28          29          30
 IAtWgt=          12          12          16           1           1           1           1           1           1           1
 AtmWgt=  12.0000000  12.0000000  15.9949146   1.0078250   1.0078250   1.0078250   1.0078250   1.0078250   1.0078250   1.0078250
 NucSpn=           0           0           0           1           1           1           1           1           1           1
 AtZEff=   0.0000000   0.0000000   0.0000000   0.0000000   0.0000000   0.0000000   0.0000000   0.0000000   0.0000000   0.0000000
 NQMom=    0.0000000   0.0000000   0.0000000   0.0000000   0.0000000   0.0000000   0.0000000   0.0000000   0.0000000   0.0000000
 NMagM=    0.0000000   0.0000000   0.0000000   2.7928460   2.7928460   2.7928460   2.7928460   2.7928460   2.7928460   2.7928460
 AtZNuc=   6.0000000   6.0000000   8.0000000   1.0000000   1.0000000   1.0000000   1.0000000   1.0000000   1.0000000   1.0000000

  Atom        31          32          33          34          35          36          37          38          39          40
 IAtWgt=           1           1           1           1           1           1           1           1           1           1
 AtmWgt=   1.0078250   1.0078250   1.0078250   1.0078250   1.0078250   1.0078250   1.0078250   1.0078250   1.0078250   1.0078250
 NucSpn=           1           1           1           1           1           1           1           1           1           1
 AtZEff=   0.0000000   0.0000000   0.0000000   0.0000000   0.0000000   0.0000000   0.0000000   0.0000000   0.0000000   0.0000000
 NQMom=    0.0000000   0.0000000   0.0000000   0.0000000   0.0000000   0.0000000   0.0000000   0.0000000   0.0000000   0.0000000
 NMagM=    2.7928460   2.7928460   2.7928460   2.7928460   2.7928460   2.7928460   2.7928460   2.7928460   2.7928460   2.7928460
 AtZNuc=   1.0000000   1.0000000   1.0000000   1.0000000   1.0000000   1.0000000   1.0000000   1.0000000   1.0000000   1.0000000

  Atom        41          42
 IAtWgt=           1           1
 AtmWgt=   1.0078250   1.0078250
 NucSpn=           1           1
 AtZEff=   0.0000000   0.0000000
 NQMom=    0.0000000   0.0000000
 NMagM=    2.7928460   2.7928460
 AtZNuc=   1.0000000   1.0000000
 Leave Link  101 at Sat Aug  8 04:26:00 2020, MaxMem=    33554432 cpu:         0.1
 (Enter /prod/apps/gaussian/g09d1/l202.exe)
                          Input orientation:                          
 ---------------------------------------------------------------------
 Center     Atomic      Atomic             Coordinates (Angstroms)
 Number     Number       Type             X           Y           Z
 ---------------------------------------------------------------------
      1          8           0        3.672000   -1.968000    1.174000
      2         16           0        3.325000   -0.617000    0.718000
      3          7           0        3.279000   -0.660000   -0.954000
      4          6           0        2.720000   -1.730000   -1.794000
      5          6           0        1.275000   -2.217000   -1.510000
      6         16           0        1.735000   -3.986000   -1.925000
      7          8           0        1.561000   -4.221000   -3.418000
      8          6           0        3.365000   -3.123000   -1.605000
      9          6           0        2.800000   -1.239000   -3.252000
     10          6           0        4.176000   -0.759000   -3.752000
     11          6           0        5.219000   -1.832000   -3.989000
     12          6           0        5.053000   -2.795000   -4.995000
     13          6           0        6.025000   -3.769000   -5.219000
     14          6           0        7.186000   -3.795000   -4.442000
     15          6           0        7.366000   -2.838000   -3.443000
     16          6           0        6.390000   -1.865000   -3.222000
     17          6           0        1.680000   -0.262000    1.345000
     18          6           0        0.961000   -1.290000    1.957000
     19          6           0       -0.319000   -1.025000    2.442000
     20          6           0       -0.865000    0.253000    2.313000
     21          6           0       -0.130000    1.277000    1.706000
     22          6           0        1.151000    1.026000    1.220000
     23          8           0        4.169000    0.538000    1.035000
     24          1           0        3.157000    0.281000   -1.322000
     25          1           0        0.479000   -1.818000   -2.140000
     26          1           0        0.985000   -2.180000   -0.459000
     27          1           0        4.151000   -3.409000   -2.300000
     28          1           0        3.653000   -3.312000   -0.571000
     29          1           0        2.088000   -0.411000   -3.355000
     30          1           0        2.422000   -2.054000   -3.877000
     31          1           0        4.583000   -0.028000   -3.049000
     32          1           0        3.997000   -0.223000   -4.690000
     33          1           0        4.155000   -2.783000   -5.608000
     34          1           0        5.879000   -4.506000   -6.002000
     35          1           0        7.943000   -4.552000   -4.617000
     36          1           0        8.266000   -2.847000   -2.836000
     37          1           0        6.528000   -1.121000   -2.443000
     38          1           0        1.417000   -2.266000    2.062000
     39          1           0       -0.884000   -1.815000    2.925000
     40          1           0       -1.861000    0.456000    2.691000
     41          1           0       -0.552000    2.272000    1.617000
     42          1           0        1.735000    1.818000    0.766000
 ---------------------------------------------------------------------
                    Distance matrix (angstroms):
                    1          2          3          4          5
     1  O    0.000000
     2  S    1.467497   0.000000
     3  N    2.528576   1.673185   0.000000
     4  C    3.126015   2.813350   1.470708   0.000000
     5  C    3.607141   3.424395   2.597961   1.551080   0.000000
     6  S    4.174697   4.567681   3.793291   2.465141   1.874349
     7  O    5.533425   5.762552   4.658706   3.191510   2.781776
     8  C    3.025081   3.417304   2.549032   1.546672   2.279904
     9  C    4.569606   4.052581   2.417744   1.540534   2.513299
    10  C    5.097173   4.552501   2.939934   2.626127   3.945647
    11  C    5.391500   5.217213   3.787929   3.327676   4.674270
    12  C    6.375551   6.353585   4.902549   4.101648   5.172291
    13  C    7.046322   7.243830   5.949506   5.177950   6.223173
    14  C    6.872087   7.185583   6.104017   5.587601   6.784293
    15  C    5.976556   6.210994   5.257602   5.052938   6.420468
    16  C    5.169424   5.145418   4.034126   3.940344   5.405374
    17  C    2.628258   1.795878   2.828534   3.618003   3.483831
    18  C    2.902119   2.752553   3.774115   4.166255   3.602501
    19  C    4.292453   4.051836   4.961012   5.260821   4.424930
    20  C    5.178275   4.566949   5.355333   5.801031   5.029496
    21  C    5.026754   4.062069   4.738022   5.423518   4.952244
    22  C    3.914281   2.770872   3.478111   4.375099   4.240911
    23  O    2.558587   1.465213   2.486649   3.904698   4.737329
    24  H    3.399006   2.235224   1.017737   2.111368   3.133253
    25  H    4.604383   4.208358   3.253853   2.269260   1.090741
    26  H    3.151444   3.050229   2.796044   2.234938   1.090903
    27  H    3.791385   4.193550   3.182625   2.263369   3.211906
    28  H    2.202662   3.005350   2.705489   2.206568   2.781300
    29  H    5.044318   4.261682   2.691706   2.139137   2.706775
    30  H    5.204085   4.898408   3.349868   2.129007   2.635312
    31  H    4.735742   4.014944   2.547325   2.818262   4.254774
    32  H    6.126757   5.463816   3.829385   3.505509   4.636563
    33  H    6.847849   6.737858   5.189819   4.208875   5.040671
    34  H    7.925104   8.173472   6.858135   5.949178   6.827474
    35  H    7.645533   8.079132   7.093527   6.573640   7.718024
    36  H    6.160972   6.482075   5.761516   5.752527   7.143477
    37  H    4.685812   4.528261   3.603560   3.910620   5.446624
    38  H    2.441797   2.857622   3.891341   4.105343   3.575157
    39  H    4.883293   4.901197   5.806138   5.938434   4.948950
    40  H    6.228254   5.651429   6.399303   6.773432   5.884541
    41  H    6.001335   4.917891   5.466555   6.193295   5.767771
    42  H    4.272263   2.908544   3.388631   4.484655   4.655427
                    6          7          8          9         10
     6  S    0.000000
     7  O    1.521365   0.000000
     8  C    1.871916   2.783341   0.000000
     9  C    3.231279   3.233419   2.565403   0.000000
    10  C    4.439588   4.351462   3.294818   1.540706   0.000000
    11  C    4.586727   4.406169   3.284426   2.597379   1.515040
    12  C    4.674666   4.088333   3.801188   3.245796   2.541550
    13  C    5.413098   4.834791   4.533642   4.546495   3.825048
    14  C    6.007093   5.733295   4.806266   5.214042   4.330531
    15  C    5.943937   5.967524   4.412196   4.841657   3.820186
    16  C    5.277298   5.376653   3.653475   3.644294   2.530994
    17  C    4.956218   6.194676   4.441514   4.831287   5.697055
    18  C    4.789302   6.151535   4.671932   5.524328   6.573497
    19  C    5.661901   6.934581   5.861030   6.495813   7.657768
    20  C    6.533741   7.664627   6.681392   6.828434   7.951104
    21  C    6.660447   7.703432   6.522097   6.284658   7.244080
    22  C    5.945774   7.014995   5.486039   5.277140   6.087498
    23  O    5.928957   7.019897   4.584641   4.838415   4.959599
    24  H    4.537949   5.216171   3.422071   2.482488   2.832819
    25  H    2.514753   2.928893   3.212203   2.637959   4.169872
    26  H    2.444032   3.640486   2.804811   3.461294   4.800580
    27  H    2.512093   2.935535   1.087482   2.727711   3.021825
    28  H    2.442604   3.648034   1.089872   3.494667   4.112189
    29  H    3.866540   3.846791   3.471048   1.096876   2.153708
    30  H    2.831059   2.376529   2.682162   1.094410   2.183842
    31  H    5.004023   5.181688   3.625974   2.164906   1.092803
    32  H    5.188645   4.851400   4.280964   2.129063   1.095071
    33  H    4.568161   3.686839   4.094351   3.125811   2.746225
    34  H    5.836529   5.040179   5.250380   5.264602   4.690705
    35  H    6.790176   6.502083   5.663238   6.268145   5.415290
    36  H    6.691876   6.869034   5.060765   5.712782   4.682617
    37  H    5.607976   5.935631   3.835990   3.816594   2.715958
    38  H    4.353814   5.820065   4.239816   5.586234   6.609518
    39  H    5.924095   7.211138   6.347107   7.215190   8.443996
    40  H    7.346430   8.420469   7.653492   7.740620   8.912567
    41  H    7.545773   8.483811   7.404742   6.875332   7.769627
    42  H    6.397491   7.348854   5.717694   5.159825   5.745584
                   11         12         13         14         15
    11  C    0.000000
    12  C    1.402484   0.000000
    13  C    2.431976   1.394143   0.000000
    14  C    2.815611   2.419814   1.397257   0.000000
    15  C    2.433056   2.785771   2.412306   1.395081   0.000000
    16  C    1.400221   2.407488   2.783245   2.418040   1.395760
    17  C    6.590977   7.615039   8.617666   8.734271   7.867103
    18  C    7.333433   8.206083   9.126035   9.272155   8.519409
    19  C    8.525166   9.343460  10.318275  10.554022   9.847813
    20  C    9.004304   9.885337  10.971764  11.262101  10.508814
    21  C    8.408966   9.399366  10.549965  10.818824   9.981755
    22  C    7.200727   8.273565   9.391945   9.577135   8.677574
    23  O    5.653315   6.946312   7.817129   7.607543   6.455282
    24  H    3.978631   5.152429   6.309876   6.525413   5.651768
    25  H    5.087887   5.479693   6.636622   7.361493   7.083006
    26  H    5.523474   6.123899   7.112251   7.544860   7.074912
    27  H    2.545638   2.907512   3.487411   3.734754   3.459583
    28  H    4.040480   4.668947   5.238238   5.263081   4.717990
    29  H    3.496335   4.142980   5.500057   6.214711   5.809936
    30  H    2.808031   2.953162   4.209964   5.103528   5.024555
    31  H    2.131317   3.415275   4.558875   4.786058   3.974472
    32  H    2.138590   2.797024   4.119070   4.794831   4.443354
    33  H    2.158161   1.087344   2.149516   3.401567   3.873083
    34  H    3.411458   2.150313   1.085161   2.155776   3.397333
    35  H    3.900379   3.403239   2.157363   1.084769   2.156154
    36  H    3.412308   3.871350   3.398655   2.155073   1.085601
    37  H    2.146886   3.389779   3.869249   3.402828   2.156463
    38  H    7.159480   7.956229   8.746750   8.827300   8.125442
    39  H    9.222272   9.946596  10.857124  11.104863  10.471889
    40  H    9.999187  10.837296  11.941847  12.280020  11.559149
    41  H    9.031860  10.040371  11.246400  11.549745  10.696281
    42  H    6.933310   8.091849   9.243316   9.399066   8.432211
                   16         17         18         19         20
    16  C    0.000000
    17  C    6.753606   0.000000
    18  C    7.525072   1.395811   0.000000
    19  C    8.820271   2.404491   1.394220   0.000000
    20  C    9.367880   2.771150   2.416994   1.395722   0.000000
    21  C    8.756012   2.403111   2.800495   2.424174   1.399018
    22  C    7.452273   1.398002   2.437853   2.803709   2.420007
    23  O    5.369292   2.632721   3.805645   4.956285   5.201506
    24  H    4.320602   3.096654   4.247623   5.287335   5.421300
    25  H    6.009397   4.001095   4.158908   4.718090   5.091619
    26  H    6.078439   2.723264   2.574827   3.383821   4.126254
    27  H    2.871784   5.412529   5.726108   6.939086   7.736296
    28  H    4.075878   4.106858   4.210241   5.485009   6.437313
    29  H    4.543018   4.720028   5.500919   6.306810   6.425522
    30  H    4.026136   5.570558   6.062489   6.964315   7.378531
    31  H    2.582585   5.271565   6.306470   7.427967   7.649229
    32  H    3.252328   6.464614   7.385011   8.374753   8.538596
    33  H    3.395725   7.799056   8.346251   9.376019   9.856974
    34  H    3.868385   9.466866   9.893183  11.037830  11.716179
    35  H    3.402617   9.652705  10.129484  11.424966  12.194006
    36  H    2.152370   8.218174   8.874690  10.241054  10.931485
    37  H    1.086012   6.212079   7.097891   8.411531   8.897408
    38  H    7.267199   2.144592   1.082376   2.167528   3.408209
    39  H    9.523612   3.388555   2.148645   1.084718   2.156740
    40  H   10.412954   3.855635   3.398670   2.152470   1.084486
    41  H    9.419239   3.387767   3.884921   3.406629   2.158413
    42  H    7.151060   2.159784   3.417195   3.887228   3.406235
                   21         22         23         24         25
    21  C    0.000000
    22  C    1.392896   0.000000
    23  O    4.413362   3.062792   0.000000
    24  H    4.578774   3.322774   2.577914   0.000000
    25  H    4.974095   4.453035   5.408092   3.499516   0.000000
    26  H    4.228629   3.622849   4.444931   3.393947   1.792440
    27  H    7.505571   6.407778   5.167336   3.944695   4.005055
    28  H    6.368260   5.318452   4.203331   3.704007   3.842925
    29  H    5.777767   4.886058   4.950077   2.398898   2.458608
    30  H    6.984136   6.089438   5.822218   3.538428   2.616890
    31  H    6.820954   5.577984   4.143767   2.260860   4.568719
    32  H    7.758282   6.677411   5.777917   3.507569   4.628482
    33  H    9.398905   8.375803   7.426889   5.362266   5.145019
    34  H   11.356251  10.252526   8.825271   7.226829   7.162429
    35  H   11.795376  10.550636   8.490953   7.557824   8.325958
    36  H   10.398555   9.059497   6.574821   6.178872   7.885469
    37  H    8.203266   6.851227   4.518146   3.819147   6.096558
    38  H    3.882370   3.408370   4.060868   4.578893   4.328666
    39  H    3.408070   3.888384   5.885705   6.225745   5.245189
    40  H    2.154211   3.400130   6.253796   6.427684   5.829686
    41  H    1.084449   2.147169   5.062936   5.134051   5.648549
    42  H    2.157430   1.083714   2.763172   2.957059   4.821086
                   26         27         28         29         30
    26  H    0.000000
    27  H    3.863066   0.000000
    28  H    2.900378   1.801903   0.000000
    29  H    3.568303   3.789063   4.314589   0.000000
    30  H    3.709928   2.704144   3.745339   1.755987   0.000000
    31  H    4.927962   3.489812   4.217824   2.542705   3.075741
    32  H    5.550077   3.985776   5.160079   2.337060   2.548363
    33  H    6.076571   3.366713   5.089520   3.869739   2.555600
    34  H    7.751539   4.230153   5.989697   6.176351   4.741179
    35  H    8.445656   4.588486   6.025929   7.281590   6.104838
    36  H    7.688171   4.187644   5.160060   6.661167   5.988728
    37  H    5.981855   3.302351   4.070687   4.587967   4.448155
    38  H    2.559191   5.273353   3.609224   5.764994   6.027163
    39  H    3.883020   7.429178   5.920084   7.088187   7.566635
    40  H    4.997070   8.717365   7.432541   7.273267   8.233032
    41  H    5.147082   8.350740   7.324645   6.236094   7.598881
    42  H    4.248191   6.523721   5.637658   4.698478   6.084554
                   31         32         33         34         35
    31  H    0.000000
    32  H    1.753369   0.000000
    33  H    3.784401   2.724204   0.000000
    34  H    5.518361   4.858740   2.469036   0.000000
    35  H    5.849342   5.858027   4.296555   2.486048   0.000000
    36  H    4.642911   5.342944   4.958669   4.298093   2.486627
    37  H    2.311906   3.501624   4.290757   4.954383   4.301193
    38  H    6.415179   7.511308   8.160443   9.484468   9.613715
    39  H    8.292776   9.184054   9.956939  11.518289  11.928490
    40  H    8.643321   9.447559  10.749734  12.652956  13.213832
    41  H    7.309568   8.166803   9.995474  12.056044  12.553675
    42  H    5.106177   6.249021   8.225173  10.147489  10.396771
                   36         37         38         39         40
    36  H    0.000000
    37  H    2.480760   0.000000
    38  H    8.440188   6.908572   0.000000
    39  H   10.861705   9.177952   2.498554   0.000000
    40  H   12.000569   9.960934   4.306995   2.483289   0.000000
    41  H   11.126118   8.838690   4.966732   4.304028   2.482904
    42  H    8.797192   6.473658   4.296486   4.971834   4.300219
                   41         42
    41  H    0.000000
    42  H    2.482073   0.000000
 Stoichiometry    C17H19NO3S2
 Framework group  C1[X(C17H19NO3S2)]
 Deg. of freedom   120
 Full point group                 C1      NOp   1
 Largest Abelian subgroup         C1      NOp   1
 Largest concise Abelian subgroup C1      NOp   1
                         Standard orientation:                         
 ---------------------------------------------------------------------
 Center     Atomic      Atomic             Coordinates (Angstroms)
 Number     Number       Type             X           Y           Z
 ---------------------------------------------------------------------
      1          8           0       -1.271653   -0.976898   -1.917990
      2         16           0       -1.629533   -1.417801   -0.564819
      3          7           0       -0.429506   -0.868721    0.463771
      4          6           0        0.233647    0.443411    0.424821
      5          6           0       -0.648138    1.719134    0.395904
      6         16           0        0.557245    2.588288   -0.746379
      7          8           0        1.621014    3.296706    0.078902
      8          6           0        0.975465    0.769556   -0.892574
      9          6           0        1.161398    0.509884    1.652870
     10          6           0        2.161615   -0.647762    1.835077
     11          6           0        3.331736   -0.685313    0.873437
     12          6           0        4.308154    0.321429    0.879822
     13          6           0        5.391591    0.271426    0.003865
     14          6           0        5.521145   -0.791526   -0.893729
     15          6           0        4.560190   -1.802809   -0.904726
     16          6           0        3.476932   -1.748382   -0.026242
     17          6           0       -3.179320   -0.612215   -0.147241
     18          6           0       -3.677647    0.366904   -1.008220
     19          6           0       -4.877450    1.001474   -0.689404
     20          6           0       -5.563272    0.655709    0.475986
     21          6           0       -5.057718   -0.334155    1.325594
     22          6           0       -3.861619   -0.977755    1.016915
     23          8           0       -1.776387   -2.838202   -0.236575
     24          1           0       -0.571815   -1.248888    1.397050
     25          1           0       -0.803054    2.242518    1.340249
     26          1           0       -1.593737    1.601820   -0.135274
     27          1           0        2.044226    0.571665   -0.927285
     28          1           0        0.463361    0.371853   -1.768590
     29          1           0        0.520281    0.554352    2.541762
     30          1           0        1.683897    1.469929    1.597726
     31          1           0        1.629758   -1.600359    1.772587
     32          1           0        2.543960   -0.570968    2.858355
     33          1           0        4.219560    1.152080    1.575873
     34          1           0        6.137190    1.059637    0.023362
     35          1           0        6.364772   -0.831264   -1.574492
     36          1           0        4.653235   -2.635014   -1.595602
     37          1           0        2.727015   -2.533849   -0.035599
     38          1           0       -3.135619    0.600440   -1.915526
     39          1           0       -5.276935    1.759341   -1.354734
     40          1           0       -6.496163    1.151271    0.721431
     41          1           0       -5.598138   -0.608967    2.224735
     42          1           0       -3.472684   -1.759267    1.659102
 ---------------------------------------------------------------------
 Rotational constants (GHZ):      0.4408804      0.1334570      0.1176834
 Leave Link  202 at Sat Aug  8 04:26:00 2020, MaxMem=    33554432 cpu:         0.0
 (Enter /prod/apps/gaussian/g09d1/l301.exe)
 Standard basis: 6-31G(d) (6D, 7F)
 Ernie: Thresh=  0.10000D-02 Tol=  0.10000D-05 Strict=F.
 There are   391 symmetry adapted cartesian basis functions of A   symmetry.
 There are   391 symmetry adapted basis functions of A   symmetry.
   391 basis functions,   768 primitive gaussians,   391 cartesian basis functions
    92 alpha electrons       92 beta electrons
       nuclear repulsion energy      2309.6197634167 Hartrees.
 IExCor=  402 DFT=T Ex+Corr=B3LYP ExCW=0 ScaHFX=  0.200000
 ScaDFX=  0.800000  0.720000  1.000000  0.810000 ScalE2=  1.000000  1.000000
 IRadAn=      0 IRanWt=     -1 IRanGd=            0 ICorTp=0 IEmpDi=  4
 NAtoms=   42 NActive=   42 NUniq=   42 SFac= 1.00D+00 NAtFMM=   60 NAOKFM=F Big=F
 Integral buffers will be    131072 words long.
 Raffenetti 2 integral format.
 Two-electron integral symmetry is turned on.
 Leave Link  301 at Sat Aug  8 04:26:00 2020, MaxMem=    33554432 cpu:         0.0
 (Enter /prod/apps/gaussian/g09d1/l302.exe)
 NPDir=0 NMtPBC=     1 NCelOv=     1 NCel=       1 NClECP=     1 NCelD=      1
         NCelK=      1 NCelE2=     1 NClLst=     1 CellRange=     0.0.
 One-electron integrals computed using PRISM.
 NBasis=   391 RedAO= T EigKep=  4.68D-04  NBF=   391
 NBsUse=   391 1.00D-06 EigRej= -1.00D+00 NBFU=   391
 Precomputing XC quadrature grid using
 IXCGrd= 4 IRadAn=           0 IRanWt=          -1 IRanGd=           0 AccXCQ= 0.00D+00.
 Generated NRdTot=       0 NPtTot=           0 NUsed=           0 NTot=          32
 NSgBfM=   386   386   386   386   386 MxSgAt=    42 MxSgA2=    42.
 Leave Link  302 at Sat Aug  8 04:26:02 2020, MaxMem=    33554432 cpu:         1.4
 (Enter /prod/apps/gaussian/g09d1/l303.exe)
 DipDrv:  MaxL=1.
 Leave Link  303 at Sat Aug  8 04:26:02 2020, MaxMem=    33554432 cpu:         0.1
 (Enter /prod/apps/gaussian/g09d1/l401.exe)
 ExpMin= 1.17D-01 ExpMax= 2.19D+04 ExpMxC= 3.30D+03 IAcc=1 IRadAn=         1 AccDes= 0.00D+00
 Harris functional with IExCor=  402 and IRadAn=       1 diagonalized for initial guess.
 HarFok:  IExCor=  402 AccDes= 0.00D+00 IRadAn=         1 IDoV= 1 UseB2=F ITyADJ=14
 ICtDFT=  3500011 ScaDFX=  1.000000  1.000000  1.000000  1.000000
 FoFCou: FMM=F IPFlag=           0 FMFlag=      100000 FMFlg1=           0
         NFxFlg=           0 DoJE=T BraDBF=F KetDBF=T FulRan=T
         wScrn=  0.000000 ICntrl=     500 IOpCl=  0 I1Cent=   200000004 NGrid=           0
         NMat0=    1 NMatS0=      1 NMatT0=    0 NMatD0=    1 NMtDS0=    0 NMtDT0=    0
 Petite list used in FoFCou.
 Harris En= -1735.99397862111    
 JPrj=0 DoOrth=F DoCkMO=F.
 Leave Link  401 at Sat Aug  8 04:26:07 2020, MaxMem=    33554432 cpu:         5.2
 (Enter /prod/apps/gaussian/g09d1/l502.exe)
 Closed shell SCF:
 Using DIIS extrapolation, IDIIS=  1040.
 Integral symmetry usage will be decided dynamically.
 IVT=      482492 IEndB=      482492 NGot=    33554432 MDV=    33241853
 LenX=    33241853 LenY=    33088531
 Requested convergence on RMS density matrix=1.00D-08 within 128 cycles.
 Requested convergence on MAX density matrix=1.00D-06.
 Requested convergence on             energy=1.00D-06.
 No special actions if energy rises.
 Fock matrices will be formed incrementally for  20 cycles.
 Integral accuracy reduced to 1.0D-05 until final iterations.

 Cycle   1  Pass 0  IDiag  1:
 FoFJK:  IHMeth= 1 ICntrl=       0 DoSepK=F KAlg= 0 I1Cent=   0 FoldK=F
 IRaf= 730000000 NMat=   1 IRICut=       1 DoRegI=T DoRafI=F ISym2E= 0.
 FoFCou: FMM=F IPFlag=           0 FMFlag=      100000 FMFlg1=           0
         NFxFlg=           0 DoJE=F BraDBF=F KetDBF=F FulRan=T
         wScrn=  0.000000 ICntrl=       0 IOpCl=  0 I1Cent=           0 NGrid=           0
         NMat0=    1 NMatS0=      1 NMatT0=    0 NMatD0=    1 NMtDS0=    0 NMtDT0=    0
 Symmetry not used in FoFCou.
 E= -1735.08221191690    
 DIIS: error= 3.19D-02 at cycle   1 NSaved=   1.
 NSaved= 1 IEnMin= 1 EnMin= -1735.08221191690     IErMin= 1 ErrMin= 3.19D-02
 ErrMax= 3.19D-02  0.00D+00 EMaxC= 1.00D-01 BMatC= 9.21D-01 BMatP= 9.21D-01
 IDIUse=3 WtCom= 6.81D-01 WtEn= 3.19D-01
 Coeff-Com:  0.100D+01
 Coeff-En:   0.100D+01
 Coeff:      0.100D+01
 Gap=     0.231 Goal=   None    Shift=    0.000
 GapD=    0.231 DampG=1.000 DampE=0.500 DampFc=0.5000 IDamp=-1.
 Damping current iteration by 5.00D-01
 RMSDP=7.23D-03 MaxDP=5.77D-01              OVMax= 3.43D-01

 Cycle   2  Pass 0  IDiag  1:
 RMSU=  3.62D-03    CP:  9.97D-01
 E= -1735.21344870950     Delta-E=       -0.131236792605 Rises=F Damp=T
 DIIS: error= 1.72D-02 at cycle   2 NSaved=   2.
 NSaved= 2 IEnMin= 2 EnMin= -1735.21344870950     IErMin= 2 ErrMin= 1.72D-02
 ErrMax= 1.72D-02  0.00D+00 EMaxC= 1.00D-01 BMatC= 1.98D-01 BMatP= 9.21D-01
 IDIUse=3 WtCom= 8.28D-01 WtEn= 1.72D-01
 Coeff-Com:  0.270D+00 0.730D+00
 Coeff-En:   0.425D+00 0.575D+00
 Coeff:      0.297D+00 0.703D+00
 Gap=     0.267 Goal=   None    Shift=    0.000
 RMSDP=2.67D-03 MaxDP=1.50D-01 DE=-1.31D-01 OVMax= 2.24D-01

 Cycle   3  Pass 0  IDiag  1:
 RMSU=  1.99D-03    CP:  9.82D-01  5.12D-01
 E= -1735.75837430113     Delta-E=       -0.544925591627 Rises=F Damp=F
 DIIS: error= 1.51D-02 at cycle   3 NSaved=   3.
 NSaved= 3 IEnMin= 3 EnMin= -1735.75837430113     IErMin= 3 ErrMin= 1.51D-02
 ErrMax= 1.51D-02  0.00D+00 EMaxC= 1.00D-01 BMatC= 1.59D-01 BMatP= 1.98D-01
 IDIUse=3 WtCom= 8.49D-01 WtEn= 1.51D-01
 Coeff-Com:  0.117D+00 0.464D+00 0.419D+00
 Coeff-En:   0.000D+00 0.000D+00 0.100D+01
 Coeff:      0.992D-01 0.394D+00 0.507D+00
 Gap=     0.189 Goal=   None    Shift=    0.000
 RMSDP=1.81D-03 MaxDP=7.80D-02 DE=-5.45D-01 OVMax= 1.78D-01

 Cycle   4  Pass 0  IDiag  1:
 RMSU=  9.79D-04    CP:  9.91D-01  6.81D-01  3.01D-01
 E= -1735.87243342572     Delta-E=       -0.114059124591 Rises=F Damp=F
 DIIS: error= 1.04D-02 at cycle   4 NSaved=   4.
 NSaved= 4 IEnMin= 4 EnMin= -1735.87243342572     IErMin= 4 ErrMin= 1.04D-02
 ErrMax= 1.04D-02  0.00D+00 EMaxC= 1.00D-01 BMatC= 4.16D-02 BMatP= 1.59D-01
 IDIUse=3 WtCom= 8.96D-01 WtEn= 1.04D-01
 Coeff-Com:  0.248D-01 0.112D+00 0.336D+00 0.528D+00
 Coeff-En:   0.000D+00 0.000D+00 0.245D+00 0.755D+00
 Coeff:      0.222D-01 0.100D+00 0.326D+00 0.551D+00
 Gap=     0.179 Goal=   None    Shift=    0.000
 RMSDP=7.87D-04 MaxDP=4.36D-02 DE=-1.14D-01 OVMax= 8.29D-02

 Cycle   5  Pass 0  IDiag  1:
 RMSU=  3.31D-04    CP:  9.89D-01  6.17D-01  5.52D-01  5.37D-01
 E= -1735.90712251444     Delta-E=       -0.034689088715 Rises=F Damp=F
 DIIS: error= 2.84D-03 at cycle   5 NSaved=   5.
 NSaved= 5 IEnMin= 5 EnMin= -1735.90712251444     IErMin= 5 ErrMin= 2.84D-03
 ErrMax= 2.84D-03  0.00D+00 EMaxC= 1.00D-01 BMatC= 4.02D-03 BMatP= 4.16D-02
 IDIUse=3 WtCom= 9.72D-01 WtEn= 2.84D-02
 Coeff-Com:  0.147D-02 0.152D-01 0.146D+00 0.348D+00 0.490D+00
 Coeff-En:   0.000D+00 0.000D+00 0.000D+00 0.634D-01 0.937D+00
 Coeff:      0.143D-02 0.147D-01 0.142D+00 0.339D+00 0.503D+00
 Gap=     0.174 Goal=   None    Shift=    0.000
 RMSDP=2.31D-04 MaxDP=1.02D-02 DE=-3.47D-02 OVMax= 1.96D-02

 Cycle   6  Pass 0  IDiag  1:
 RMSU=  1.16D-04    CP:  9.89D-01  6.30D-01  5.24D-01  6.30D-01  5.08D-01
 E= -1735.91032320203     Delta-E=       -0.003200687590 Rises=F Damp=F
 DIIS: error= 7.05D-04 at cycle   6 NSaved=   6.
 NSaved= 6 IEnMin= 6 EnMin= -1735.91032320203     IErMin= 6 ErrMin= 7.05D-04
 ErrMax= 7.05D-04  0.00D+00 EMaxC= 1.00D-01 BMatC= 4.49D-04 BMatP= 4.02D-03
 IDIUse=3 WtCom= 9.93D-01 WtEn= 7.05D-03
 Coeff-Com: -0.144D-02-0.190D-02 0.421D-01 0.129D+00 0.308D+00 0.525D+00
 Coeff-En:   0.000D+00 0.000D+00 0.000D+00 0.000D+00 0.686D-01 0.931D+00
 Coeff:     -0.143D-02-0.189D-02 0.418D-01 0.128D+00 0.306D+00 0.528D+00
 Gap=     0.174 Goal=   None    Shift=    0.000
 RMSDP=7.01D-05 MaxDP=3.80D-03 DE=-3.20D-03 OVMax= 4.34D-03

 Cycle   7  Pass 0  IDiag  1:
 RMSU=  3.84D-05    CP:  9.89D-01  6.28D-01  5.27D-01  6.34D-01  5.85D-01
                    CP:  5.51D-01
 E= -1735.91065855973     Delta-E=       -0.000335357705 Rises=F Damp=F
 DIIS: error= 2.51D-04 at cycle   7 NSaved=   7.
 NSaved= 7 IEnMin= 7 EnMin= -1735.91065855973     IErMin= 7 ErrMin= 2.51D-04
 ErrMax= 2.51D-04  0.00D+00 EMaxC= 1.00D-01 BMatC= 4.63D-05 BMatP= 4.49D-04
 IDIUse=3 WtCom= 9.97D-01 WtEn= 2.51D-03
 Coeff-Com: -0.775D-03-0.261D-02 0.850D-02 0.349D-01 0.126D+00 0.313D+00
 Coeff-Com:  0.521D+00
 Coeff-En:   0.000D+00 0.000D+00 0.000D+00 0.000D+00 0.000D+00 0.610D-01
 Coeff-En:   0.939D+00
 Coeff:     -0.773D-03-0.260D-02 0.847D-02 0.349D-01 0.126D+00 0.313D+00
 Coeff:      0.522D+00
 Gap=     0.174 Goal=   None    Shift=    0.000
 RMSDP=2.26D-05 MaxDP=8.47D-04 DE=-3.35D-04 OVMax= 2.18D-03

 Cycle   8  Pass 0  IDiag  1:
 RMSU=  1.14D-05    CP:  9.89D-01  6.28D-01  5.27D-01  6.31D-01  5.91D-01
                    CP:  6.22D-01  5.54D-01
 E= -1735.91070239976     Delta-E=       -0.000043840025 Rises=F Damp=F
 DIIS: error= 6.47D-05 at cycle   8 NSaved=   8.
 NSaved= 8 IEnMin= 8 EnMin= -1735.91070239976     IErMin= 8 ErrMin= 6.47D-05
 ErrMax= 6.47D-05  0.00D+00 EMaxC= 1.00D-01 BMatC= 2.54D-06 BMatP= 4.63D-05
 IDIUse=1 WtCom= 1.00D+00 WtEn= 0.00D+00
 Coeff-Com: -0.169D-03-0.100D-02 0.158D-03 0.457D-02 0.335D-01 0.104D+00
 Coeff-Com:  0.257D+00 0.602D+00
 Coeff:     -0.169D-03-0.100D-02 0.158D-03 0.457D-02 0.335D-01 0.104D+00
 Coeff:      0.257D+00 0.602D+00
 Gap=     0.174 Goal=   None    Shift=    0.000
 RMSDP=6.46D-06 MaxDP=2.11D-04 DE=-4.38D-05 OVMax= 6.66D-04

 Initial convergence to 1.0D-05 achieved.  Increase integral accuracy.
 Cycle   9  Pass 1  IDiag  1:
 E= -1735.91060956533     Delta-E=        0.000092834422 Rises=F Damp=F
 DIIS: error= 8.07D-05 at cycle   1 NSaved=   1.
 NSaved= 1 IEnMin= 1 EnMin= -1735.91060956533     IErMin= 1 ErrMin= 8.07D-05
 ErrMax= 8.07D-05  0.00D+00 EMaxC= 1.00D-01 BMatC= 1.87D-06 BMatP= 1.87D-06
 IDIUse=1 WtCom= 1.00D+00 WtEn= 0.00D+00
 Coeff-Com:  0.100D+01
 Coeff:      0.100D+01
 Gap=     0.174 Goal=   None    Shift=    0.000
 RMSDP=6.46D-06 MaxDP=2.11D-04 DE= 9.28D-05 OVMax= 5.67D-04

 Cycle  10  Pass 1  IDiag  1:
 RMSU=  2.88D-05    CP:  1.00D+00
 E= -1735.91061007195     Delta-E=       -0.000000506614 Rises=F Damp=F
 DIIS: error= 5.00D-05 at cycle   2 NSaved=   2.
 NSaved= 2 IEnMin= 2 EnMin= -1735.91061007195     IErMin= 2 ErrMin= 5.00D-05
 ErrMax= 5.00D-05  0.00D+00 EMaxC= 1.00D-01 BMatC= 1.57D-06 BMatP= 1.87D-06
 IDIUse=1 WtCom= 1.00D+00 WtEn= 0.00D+00
 Coeff-Com:  0.470D+00 0.530D+00
 Coeff:      0.470D+00 0.530D+00
 Gap=     0.174 Goal=   None    Shift=    0.000
 RMSDP=5.64D-06 MaxDP=1.88D-04 DE=-5.07D-07 OVMax= 5.92D-04

 Cycle  11  Pass 1  IDiag  1:
 RMSU=  5.58D-06    CP:  1.00D+00  9.72D-01
 E= -1735.91061111692     Delta-E=       -0.000001044975 Rises=F Damp=F
 DIIS: error= 3.01D-05 at cycle   3 NSaved=   3.
 NSaved= 3 IEnMin= 3 EnMin= -1735.91061111692     IErMin= 3 ErrMin= 3.01D-05
 ErrMax= 3.01D-05  0.00D+00 EMaxC= 1.00D-01 BMatC= 6.16D-07 BMatP= 1.57D-06
 IDIUse=1 WtCom= 1.00D+00 WtEn= 0.00D+00
 Coeff-Com:  0.129D-01 0.382D+00 0.605D+00
 Coeff:      0.129D-01 0.382D+00 0.605D+00
 Gap=     0.174 Goal=   None    Shift=    0.000
 RMSDP=2.35D-06 MaxDP=9.24D-05 DE=-1.04D-06 OVMax= 2.16D-04

 Cycle  12  Pass 1  IDiag  1:
 RMSU=  9.85D-07    CP:  1.00D+00  9.92D-01  6.33D-01
 E= -1735.91061172340     Delta-E=       -0.000000606479 Rises=F Damp=F
 DIIS: error= 7.26D-06 at cycle   4 NSaved=   4.
 NSaved= 4 IEnMin= 4 EnMin= -1735.91061172340     IErMin= 4 ErrMin= 7.26D-06
 ErrMax= 7.26D-06  0.00D+00 EMaxC= 1.00D-01 BMatC= 3.89D-08 BMatP= 6.16D-07
 IDIUse=1 WtCom= 1.00D+00 WtEn= 0.00D+00
 Coeff-Com: -0.959D-02 0.219D+00 0.377D+00 0.413D+00
 Coeff:     -0.959D-02 0.219D+00 0.377D+00 0.413D+00
 Gap=     0.174 Goal=   None    Shift=    0.000
 RMSDP=5.82D-07 MaxDP=3.65D-05 DE=-6.06D-07 OVMax= 3.89D-05

 Cycle  13  Pass 1  IDiag  1:
 RMSU=  2.87D-07    CP:  1.00D+00  9.92D-01  6.38D-01  4.87D-01
 E= -1735.91061175572     Delta-E=       -0.000000032322 Rises=F Damp=F
 DIIS: error= 1.29D-06 at cycle   5 NSaved=   5.
 NSaved= 5 IEnMin= 5 EnMin= -1735.91061175572     IErMin= 5 ErrMin= 1.29D-06
 ErrMax= 1.29D-06  0.00D+00 EMaxC= 1.00D-01 BMatC= 1.49D-09 BMatP= 3.89D-08
 IDIUse=1 WtCom= 1.00D+00 WtEn= 0.00D+00
 Coeff-Com: -0.579D-02 0.966D-01 0.169D+00 0.229D+00 0.511D+00
 Coeff:     -0.579D-02 0.966D-01 0.169D+00 0.229D+00 0.511D+00
 Gap=     0.174 Goal=   None    Shift=    0.000
 RMSDP=1.27D-07 MaxDP=7.85D-06 DE=-3.23D-08 OVMax= 9.06D-06

 Cycle  14  Pass 1  IDiag  1:
 RMSU=  8.87D-08    CP:  1.00D+00  9.92D-01  6.39D-01  5.08D-01  6.97D-01
 E= -1735.91061175671     Delta-E=       -0.000000000985 Rises=F Damp=F
 DIIS: error= 4.03D-07 at cycle   6 NSaved=   6.
 NSaved= 6 IEnMin= 6 EnMin= -1735.91061175671     IErMin= 6 ErrMin= 4.03D-07
 ErrMax= 4.03D-07  0.00D+00 EMaxC= 1.00D-01 BMatC= 1.33D-10 BMatP= 1.49D-09
 IDIUse=1 WtCom= 1.00D+00 WtEn= 0.00D+00
 Coeff-Com: -0.207D-02 0.279D-01 0.496D-01 0.776D-01 0.273D+00 0.574D+00
 Coeff:     -0.207D-02 0.279D-01 0.496D-01 0.776D-01 0.273D+00 0.574D+00
 Gap=     0.174 Goal=   None    Shift=    0.000
 RMSDP=3.96D-08 MaxDP=1.86D-06 DE=-9.85D-10 OVMax= 3.73D-06

 Cycle  15  Pass 1  IDiag  1:
 RMSU=  3.10D-08    CP:  1.00D+00  9.93D-01  6.39D-01  5.10D-01  7.36D-01
                    CP:  7.56D-01
 E= -1735.91061175689     Delta-E=       -0.000000000182 Rises=F Damp=F
 DIIS: error= 1.47D-07 at cycle   7 NSaved=   7.
 NSaved= 7 IEnMin= 7 EnMin= -1735.91061175689     IErMin= 7 ErrMin= 1.47D-07
 ErrMax= 1.47D-07  0.00D+00 EMaxC= 1.00D-01 BMatC= 1.74D-11 BMatP= 1.33D-10
 IDIUse=1 WtCom= 1.00D+00 WtEn= 0.00D+00
 Coeff-Com: -0.413D-03 0.316D-02 0.590D-02 0.131D-01 0.829D-01 0.315D+00
 Coeff-Com:  0.580D+00
 Coeff:     -0.413D-03 0.316D-02 0.590D-02 0.131D-01 0.829D-01 0.315D+00
 Coeff:      0.580D+00
 Gap=     0.174 Goal=   None    Shift=    0.000
 RMSDP=1.45D-08 MaxDP=8.32D-07 DE=-1.82D-10 OVMax= 1.15D-06

 Cycle  16  Pass 1  IDiag  1:
 RMSU=  8.88D-09    CP:  1.00D+00  9.92D-01  6.39D-01  5.12D-01  7.42D-01
                    CP:  7.94D-01  6.65D-01
 E= -1735.91061175696     Delta-E=       -0.000000000071 Rises=F Damp=F
 DIIS: error= 4.94D-08 at cycle   8 NSaved=   8.
 NSaved= 8 IEnMin= 8 EnMin= -1735.91061175696     IErMin= 8 ErrMin= 4.94D-08
 ErrMax= 4.94D-08  0.00D+00 EMaxC= 1.00D-01 BMatC= 1.93D-12 BMatP= 1.74D-11
 IDIUse=1 WtCom= 1.00D+00 WtEn= 0.00D+00
 Coeff-Com: -0.298D-04-0.926D-03-0.149D-02-0.239D-03 0.199D-01 0.121D+00
 Coeff-Com:  0.323D+00 0.538D+00
 Coeff:     -0.298D-04-0.926D-03-0.149D-02-0.239D-03 0.199D-01 0.121D+00
 Coeff:      0.323D+00 0.538D+00
 Gap=     0.174 Goal=   None    Shift=    0.000
 RMSDP=5.06D-09 MaxDP=4.07D-07 DE=-7.14D-11 OVMax= 3.24D-07

 SCF Done:  E(RB3LYP) =  -1735.91061176     A.U. after   16 cycles
            NFock= 16  Conv=0.51D-08     -V/T= 2.0067
 KE= 1.724276642946D+03 PE=-8.693710347536D+03 EE= 2.923903329417D+03
 Leave Link  502 at Sat Aug  8 04:34:02 2020, MaxMem=    33554432 cpu:       474.9
 (Enter /prod/apps/gaussian/g09d1/l601.exe)
 Copying SCF densities to generalized density rwf, IOpCl= 0 IROHF=0.

 **********************************************************************

            Population analysis using the SCF density.

 **********************************************************************

 Orbital symmetries:
       Occupied  (A) (A) (A) (A) (A) (A) (A) (A) (A) (A) (A) (A)
                 (A) (A) (A) (A) (A) (A) (A) (A) (A) (A) (A) (A)
                 (A) (A) (A) (A) (A) (A) (A) (A) (A) (A) (A) (A)
                 (A) (A) (A) (A) (A) (A) (A) (A) (A) (A) (A) (A)
                 (A) (A) (A) (A) (A) (A) (A) (A) (A) (A) (A) (A)
                 (A) (A) (A) (A) (A) (A) (A) (A) (A) (A) (A) (A)
                 (A) (A) (A) (A) (A) (A) (A) (A) (A) (A) (A) (A)
                 (A) (A) (A) (A) (A) (A) (A) (A)
       Virtual   (A) (A) (A) (A) (A) (A) (A) (A) (A) (A) (A) (A)
                 (A) (A) (A) (A) (A) (A) (A) (A) (A) (A) (A) (A)
                 (A) (A) (A) (A) (A) (A) (A) (A) (A) (A) (A) (A)
                 (A) (A) (A) (A) (A) (A) (A) (A) (A) (A) (A) (A)
                 (A) (A) (A) (A) (A) (A) (A) (A) (A) (A) (A) (A)
                 (A) (A) (A) (A) (A) (A) (A) (A) (A) (A) (A) (A)
                 (A) (A) (A) (A) (A) (A) (A) (A) (A) (A) (A) (A)
                 (A) (A) (A) (A) (A) (A) (A) (A) (A) (A) (A) (A)
                 (A) (A) (A) (A) (A) (A) (A) (A) (A) (A) (A) (A)
                 (A) (A) (A) (A) (A) (A) (A) (A) (A) (A) (A) (A)
                 (A) (A) (A) (A) (A) (A) (A) (A) (A) (A) (A) (A)
                 (A) (A) (A) (A) (A) (A) (A) (A) (A) (A) (A) (A)
                 (A) (A) (A) (A) (A) (A) (A) (A) (A) (A) (A) (A)
                 (A) (A) (A) (A) (A) (A) (A) (A) (A) (A) (A) (A)
                 (A) (A) (A) (A) (A) (A) (A) (A) (A) (A) (A) (A)
                 (A) (A) (A) (A) (A) (A) (A) (A) (A) (A) (A) (A)
                 (A) (A) (A) (A) (A) (A) (A) (A) (A) (A) (A) (A)
                 (A) (A) (A) (A) (A) (A) (A) (A) (A) (A) (A) (A)
                 (A) (A) (A) (A) (A) (A) (A) (A) (A) (A) (A) (A)
                 (A) (A) (A) (A) (A) (A) (A) (A) (A) (A) (A) (A)
                 (A) (A) (A) (A) (A) (A) (A) (A) (A) (A) (A) (A)
                 (A) (A) (A) (A) (A) (A) (A) (A) (A) (A) (A) (A)
                 (A) (A) (A) (A) (A) (A) (A) (A) (A) (A) (A) (A)
                 (A) (A) (A) (A) (A) (A) (A) (A) (A) (A) (A) (A)
                 (A) (A) (A) (A) (A) (A) (A) (A) (A) (A) (A)
 The electronic state is 1-A.
 Alpha  occ. eigenvalues --  -89.12372 -88.98069 -19.15206 -19.14858 -19.10786
 Alpha  occ. eigenvalues --  -14.37996 -10.26561 -10.24151 -10.22774 -10.22410
 Alpha  occ. eigenvalues --  -10.22268 -10.22189 -10.22098 -10.21764 -10.20586
 Alpha  occ. eigenvalues --  -10.20086 -10.19622 -10.19431 -10.18687 -10.18663
 Alpha  occ. eigenvalues --  -10.18562 -10.18467 -10.18436  -8.14816  -8.02870
 Alpha  occ. eigenvalues --   -6.11323  -6.11237  -6.11132  -5.99274  -5.99100
 Alpha  occ. eigenvalues --   -5.98654  -1.11961  -1.00956  -0.99885  -0.94450
 Alpha  occ. eigenvalues --   -0.88833  -0.85462  -0.84368  -0.79296  -0.78813
 Alpha  occ. eigenvalues --   -0.77846  -0.74030  -0.73853  -0.69919  -0.69214
 Alpha  occ. eigenvalues --   -0.66672  -0.63807  -0.62692  -0.61507  -0.60099
 Alpha  occ. eigenvalues --   -0.57786  -0.57204  -0.56094  -0.52767  -0.51983
 Alpha  occ. eigenvalues --   -0.50512  -0.49710  -0.48431  -0.47648  -0.47038
 Alpha  occ. eigenvalues --   -0.46529  -0.45795  -0.45376  -0.44987  -0.44807
 Alpha  occ. eigenvalues --   -0.43478  -0.42472  -0.41462  -0.41354  -0.40107
 Alpha  occ. eigenvalues --   -0.39602  -0.39346  -0.38601  -0.38200  -0.37680
 Alpha  occ. eigenvalues --   -0.37047  -0.36708  -0.35403  -0.34814  -0.33689
 Alpha  occ. eigenvalues --   -0.33217  -0.33077  -0.32401  -0.31175  -0.31104
 Alpha  occ. eigenvalues --   -0.29874  -0.28253  -0.27137  -0.25428  -0.24662
 Alpha  occ. eigenvalues --   -0.24004  -0.22427
 Alpha virt. eigenvalues --   -0.05032  -0.03322  -0.00162   0.00245   0.01286
 Alpha virt. eigenvalues --    0.03624   0.04659   0.06224   0.06619   0.07429
 Alpha virt. eigenvalues --    0.08836   0.09743   0.10144   0.10800   0.11663
 Alpha virt. eigenvalues --    0.11670   0.12526   0.13479   0.13785   0.13938
 Alpha virt. eigenvalues --    0.15045   0.15545   0.15849   0.16379   0.16917
 Alpha virt. eigenvalues --    0.17251   0.17619   0.18217   0.18566   0.20095
 Alpha virt. eigenvalues --    0.20313   0.20620   0.22155   0.22775   0.24071
 Alpha virt. eigenvalues --    0.24559   0.26166   0.27207   0.27598   0.27962
 Alpha virt. eigenvalues --    0.29456   0.30747   0.31075   0.32573   0.33355
 Alpha virt. eigenvalues --    0.33643   0.35064   0.35283   0.35829   0.36217
 Alpha virt. eigenvalues --    0.39882   0.42550   0.42883   0.44049   0.46435
 Alpha virt. eigenvalues --    0.47590   0.48380   0.50069   0.50997   0.51459
 Alpha virt. eigenvalues --    0.51836   0.52994   0.53877   0.54321   0.55009
 Alpha virt. eigenvalues --    0.55845   0.55926   0.56322   0.57039   0.57546
 Alpha virt. eigenvalues --    0.58250   0.58469   0.58712   0.59603   0.59848
 Alpha virt. eigenvalues --    0.60113   0.60702   0.61360   0.61742   0.61895
 Alpha virt. eigenvalues --    0.62540   0.63118   0.63656   0.64080   0.64274
 Alpha virt. eigenvalues --    0.66283   0.66653   0.67877   0.68412   0.70609
 Alpha virt. eigenvalues --    0.71567   0.72741   0.73660   0.74774   0.76085
 Alpha virt. eigenvalues --    0.77351   0.78316   0.78660   0.80268   0.81004
 Alpha virt. eigenvalues --    0.81335   0.81742   0.82099   0.82534   0.83898
 Alpha virt. eigenvalues --    0.84127   0.84464   0.84876   0.85726   0.86566
 Alpha virt. eigenvalues --    0.86744   0.87229   0.88311   0.88664   0.89729
 Alpha virt. eigenvalues --    0.89812   0.90208   0.90694   0.91259   0.91920
 Alpha virt. eigenvalues --    0.92664   0.93970   0.94762   0.95182   0.96026
 Alpha virt. eigenvalues --    0.96494   0.97756   0.98733   1.00340   1.01133
 Alpha virt. eigenvalues --    1.02625   1.04048   1.04381   1.04866   1.05813
 Alpha virt. eigenvalues --    1.07473   1.07932   1.07963   1.09245   1.11325
 Alpha virt. eigenvalues --    1.11732   1.12724   1.14023   1.14429   1.16046
 Alpha virt. eigenvalues --    1.16612   1.17380   1.18101   1.19556   1.19801
 Alpha virt. eigenvalues --    1.20832   1.21797   1.22177   1.23600   1.25244
 Alpha virt. eigenvalues --    1.27679   1.27702   1.29257   1.32064   1.34709
 Alpha virt. eigenvalues --    1.36755   1.39464   1.40692   1.41363   1.43355
 Alpha virt. eigenvalues --    1.43735   1.44861   1.45501   1.45562   1.47399
 Alpha virt. eigenvalues --    1.47788   1.48866   1.49011   1.49343   1.51518
 Alpha virt. eigenvalues --    1.51827   1.56062   1.57330   1.60328   1.62975
 Alpha virt. eigenvalues --    1.67463   1.70722   1.71749   1.74818   1.75280
 Alpha virt. eigenvalues --    1.75530   1.75923   1.78172   1.79391   1.80674
 Alpha virt. eigenvalues --    1.80932   1.82191   1.84079   1.84344   1.85597
 Alpha virt. eigenvalues --    1.86023   1.86385   1.86900   1.88684   1.89747
 Alpha virt. eigenvalues --    1.90260   1.91360   1.91656   1.92920   1.93211
 Alpha virt. eigenvalues --    1.94829   1.96427   1.96544   1.96924   1.98008
 Alpha virt. eigenvalues --    1.98963   2.00224   2.02927   2.03914   2.05194
 Alpha virt. eigenvalues --    2.06585   2.07568   2.07853   2.09211   2.10227
 Alpha virt. eigenvalues --    2.11699   2.12479   2.12775   2.13557   2.13983
 Alpha virt. eigenvalues --    2.14424   2.14861   2.15215   2.15930   2.17322
 Alpha virt. eigenvalues --    2.19277   2.20992   2.23756   2.24875   2.25484
 Alpha virt. eigenvalues --    2.27163   2.27335   2.28082   2.29885   2.30324
 Alpha virt. eigenvalues --    2.31774   2.32587   2.34994   2.37022   2.39259
 Alpha virt. eigenvalues --    2.40862   2.45474   2.49261   2.52041   2.56432
 Alpha virt. eigenvalues --    2.58153   2.58693   2.59368   2.61846   2.63994
 Alpha virt. eigenvalues --    2.65886   2.68919   2.69638   2.70833   2.72026
 Alpha virt. eigenvalues --    2.72959   2.73177   2.74273   2.74953   2.75139
 Alpha virt. eigenvalues --    2.76279   2.76887   2.77286   2.79678   2.82895
 Alpha virt. eigenvalues --    2.88962   2.89498   3.01082   3.06022   3.35579
 Alpha virt. eigenvalues --    3.41364   3.74928   3.84707   3.93593   3.98972
 Alpha virt. eigenvalues --    4.03389   4.04937   4.06791   4.09583   4.10338
 Alpha virt. eigenvalues --    4.12330   4.15042   4.17094   4.21894   4.27028
 Alpha virt. eigenvalues --    4.32418   4.33151   4.33781   4.36703   4.42110
 Alpha virt. eigenvalues --    4.53717   4.64037   4.70325   4.73226
          Condensed to atoms (all electrons):
               1          2          3          4          5          6
     1  O    8.270920   0.406536  -0.051818   0.002112  -0.001414   0.000151
     2  S    0.406536  13.702372   0.130432  -0.001973  -0.007436   0.000422
     3  N   -0.051818   0.130432   7.403048   0.206517  -0.048281   0.003829
     4  C    0.002112  -0.001973   0.206517   4.845232   0.331284  -0.059366
     5  C   -0.001414  -0.007436  -0.048281   0.331284   5.728006   0.047632
     6  S    0.000151   0.000422   0.003829  -0.059366   0.047632  14.941545
     7  O    0.000000   0.000001  -0.000056  -0.001327  -0.039370   0.296892
     8  C   -0.010720  -0.004302  -0.045691   0.324308  -0.127465   0.065668
     9  C    0.000087   0.000723  -0.051691   0.372650  -0.054796   0.003956
    10  C   -0.000012  -0.000212  -0.008323  -0.038373   0.005021  -0.000177
    11  C    0.000001   0.000045  -0.000783  -0.002392  -0.000037  -0.000117
    12  C    0.000000   0.000003   0.000003  -0.000934  -0.000016   0.000149
    13  C    0.000000   0.000000   0.000000  -0.000003   0.000000  -0.000003
    14  C    0.000000   0.000000   0.000000   0.000004   0.000000  -0.000001
    15  C    0.000000  -0.000001   0.000004  -0.000005   0.000000   0.000004
    16  C   -0.000002   0.000041   0.000212   0.001077   0.000003   0.000119
    17  C   -0.058390   0.165254  -0.056907  -0.002926   0.000383   0.000056
    18  C    0.001523  -0.025616  -0.000619   0.000188  -0.005135  -0.000080
    19  C    0.000696   0.002923  -0.000104   0.000041  -0.000583   0.000000
    20  C   -0.000007  -0.000359   0.000001   0.000004   0.000024   0.000000
    21  C   -0.000041   0.002643  -0.000066  -0.000007   0.000092   0.000000
    22  C    0.001945  -0.019084  -0.001908   0.000116   0.000463   0.000008
    23  O   -0.039839   0.453018  -0.058632   0.002126  -0.000060  -0.000001
    24  H    0.001814  -0.003442   0.284534  -0.030418   0.001007  -0.000301
    25  H    0.000015   0.000130   0.001799  -0.028327   0.350732  -0.017461
    26  H    0.000519   0.003362  -0.005532  -0.026945   0.312526  -0.004452
    27  H    0.000191   0.000231   0.001333  -0.027308   0.009642  -0.018447
    28  H    0.015485   0.000993  -0.004592  -0.025297   0.003024  -0.004412
    29  H    0.000001  -0.000224  -0.006764  -0.037478  -0.008003  -0.000442
    30  H    0.000001   0.000047   0.002894  -0.032451  -0.006160   0.005354
    31  H   -0.000002   0.000168   0.008313  -0.011387   0.000233  -0.000048
    32  H    0.000000  -0.000003   0.000258   0.005143  -0.000131   0.000040
    33  H    0.000000   0.000000   0.000000   0.000108   0.000001  -0.000025
    34  H    0.000000   0.000000   0.000000   0.000000   0.000000   0.000001
    35  H    0.000000   0.000000   0.000000   0.000000   0.000000   0.000000
    36  H    0.000000   0.000000   0.000000   0.000001   0.000000   0.000000
    37  H   -0.000005   0.000237   0.000877  -0.000102   0.000004   0.000002
    38  H    0.012626  -0.005720   0.000224   0.000050  -0.000531   0.000210
    39  H    0.000003  -0.000050   0.000001   0.000000  -0.000007   0.000000
    40  H    0.000000   0.000007   0.000000   0.000000   0.000000   0.000000
    41  H    0.000000  -0.000041   0.000002   0.000000   0.000000   0.000000
    42  H    0.000070   0.000418   0.000148   0.000034  -0.000009   0.000000
               7          8          9         10         11         12
     1  O    0.000000  -0.010720   0.000087  -0.000012   0.000001   0.000000
     2  S    0.000001  -0.004302   0.000723  -0.000212   0.000045   0.000003
     3  N   -0.000056  -0.045691  -0.051691  -0.008323  -0.000783   0.000003
     4  C   -0.001327   0.324308   0.372650  -0.038373  -0.002392  -0.000934
     5  C   -0.039370  -0.127465  -0.054796   0.005021  -0.000037  -0.000016
     6  S    0.296892   0.065668   0.003956  -0.000177  -0.000117   0.000149
     7  O    8.383039  -0.038905  -0.008745   0.000250  -0.000187   0.000162
     8  C   -0.038905   5.698285  -0.049362  -0.005393  -0.001221  -0.001758
     9  C   -0.008745  -0.049362   5.217366   0.329653  -0.036633  -0.003366
    10  C    0.000250  -0.005393   0.329653   5.178289   0.358304  -0.067849
    11  C   -0.000187  -0.001221  -0.036633   0.358304   4.652222   0.537128
    12  C    0.000162  -0.001758  -0.003366  -0.067849   0.537128   4.974179
    13  C   -0.000025  -0.000175   0.000161   0.006319  -0.017189   0.527147
    14  C    0.000001   0.000065   0.000005   0.000357  -0.035129  -0.035463
    15  C    0.000000  -0.000015  -0.000160   0.007303  -0.022249  -0.047422
    16  C    0.000000  -0.002094  -0.000728  -0.050250   0.549227  -0.043346
    17  C    0.000000  -0.000697  -0.000235   0.000000   0.000000   0.000000
    18  C    0.000000   0.000008  -0.000005   0.000000   0.000000   0.000000
    19  C    0.000000  -0.000002   0.000000   0.000000   0.000000   0.000000
    20  C    0.000000   0.000000   0.000000   0.000000   0.000000   0.000000
    21  C    0.000000   0.000000   0.000000   0.000000   0.000000   0.000000
    22  C    0.000000  -0.000002  -0.000024   0.000000   0.000000   0.000000
    23  O    0.000000  -0.000087  -0.000079  -0.000009   0.000001   0.000000
    24  H    0.000003   0.005051  -0.005660   0.000229   0.000311   0.000005
    25  H    0.000164   0.010676  -0.006592   0.000135   0.000011   0.000000
    26  H    0.001287   0.002864   0.004603  -0.000120   0.000002   0.000000
    27  H    0.000010   0.352784  -0.006586  -0.001047   0.006591   0.003398
    28  H    0.001176   0.319806   0.004259  -0.000004  -0.000002   0.000062
    29  H    0.000323   0.006730   0.343554  -0.033416   0.004401   0.000107
    30  H    0.028243  -0.008068   0.353376  -0.026901  -0.005630   0.003147
    31  H   -0.000003  -0.000469  -0.037746   0.358752  -0.031598   0.004913
    32  H   -0.000001  -0.000090  -0.036677   0.359230  -0.029927  -0.005224
    33  H    0.000261  -0.000045   0.000748  -0.008782  -0.047551   0.357200
    34  H   -0.000001  -0.000003   0.000002  -0.000186   0.003615  -0.039204
    35  H    0.000000   0.000000   0.000000   0.000007   0.000703   0.004772
    36  H    0.000000  -0.000006   0.000001  -0.000183   0.003783   0.000809
    37  H    0.000000   0.000054   0.000142  -0.012266  -0.041472   0.006406
    38  H    0.000000  -0.000038   0.000002   0.000000   0.000000   0.000000
    39  H    0.000000   0.000000   0.000000   0.000000   0.000000   0.000000
    40  H    0.000000   0.000000   0.000000   0.000000   0.000000   0.000000
    41  H    0.000000   0.000000   0.000000   0.000000   0.000000   0.000000
    42  H    0.000000   0.000000  -0.000001   0.000000   0.000000   0.000000
              13         14         15         16         17         18
     1  O    0.000000   0.000000   0.000000  -0.000002  -0.058390   0.001523
     2  S    0.000000   0.000000  -0.000001   0.000041   0.165254  -0.025616
     3  N    0.000000   0.000000   0.000004   0.000212  -0.056907  -0.000619
     4  C   -0.000003   0.000004  -0.000005   0.001077  -0.002926   0.000188
     5  C    0.000000   0.000000   0.000000   0.000003   0.000383  -0.005135
     6  S   -0.000003  -0.000001   0.000004   0.000119   0.000056  -0.000080
     7  O   -0.000025   0.000001   0.000000   0.000000   0.000000   0.000000
     8  C   -0.000175   0.000065  -0.000015  -0.002094  -0.000697   0.000008
     9  C    0.000161   0.000005  -0.000160  -0.000728  -0.000235  -0.000005
    10  C    0.006319   0.000357   0.007303  -0.050250   0.000000   0.000000
    11  C   -0.017189  -0.035129  -0.022249   0.549227   0.000000   0.000000
    12  C    0.527147  -0.035463  -0.047422  -0.043346   0.000000   0.000000
    13  C    4.860942   0.546003  -0.025885  -0.046397   0.000000   0.000000
    14  C    0.546003   4.859025   0.550851  -0.035772   0.000000   0.000000
    15  C   -0.025885   0.550851   4.872927   0.518349   0.000000   0.000000
    16  C   -0.046397  -0.035772   0.518349   4.971194   0.000000   0.000000
    17  C    0.000000   0.000000   0.000000   0.000000   5.354477   0.508479
    18  C    0.000000   0.000000   0.000000   0.000000   0.508479   4.952212
    19  C    0.000000   0.000000   0.000000   0.000000  -0.031693   0.496493
    20  C    0.000000   0.000000   0.000000   0.000000  -0.038119  -0.030071
    21  C    0.000000   0.000000   0.000000   0.000000  -0.026760  -0.038221
    22  C    0.000000   0.000000   0.000000   0.000000   0.471188  -0.038731
    23  O    0.000000   0.000000   0.000000  -0.000004  -0.062063   0.000688
    24  H    0.000000   0.000000   0.000000  -0.000048  -0.000967   0.000007
    25  H    0.000000   0.000000   0.000000   0.000000   0.000044  -0.000011
    26  H    0.000000   0.000000   0.000000   0.000000   0.000340   0.010020
    27  H    0.000457   0.000187   0.000071   0.002058   0.000003   0.000000
    28  H    0.000002  -0.000004  -0.000030   0.000061  -0.000037  -0.000066
    29  H    0.000002   0.000000   0.000002  -0.000107   0.000011   0.000001
    30  H   -0.000154   0.000003   0.000000   0.000058   0.000002   0.000000
    31  H   -0.000181   0.000002   0.000176  -0.005271   0.000011   0.000000
    32  H    0.000008   0.000029  -0.000231   0.002219   0.000000   0.000000
    33  H   -0.042720   0.004784   0.000346   0.005978   0.000000   0.000000
    34  H    0.357809  -0.043443   0.004608   0.000838   0.000000   0.000000
    35  H   -0.042996   0.359422  -0.043468   0.004688   0.000000   0.000000
    36  H    0.004591  -0.043573   0.357223  -0.039019   0.000000   0.000000
    37  H    0.000312   0.004715  -0.045412   0.355055   0.000000   0.000000
    38  H    0.000000   0.000000   0.000000   0.000000  -0.043251   0.358606
    39  H    0.000000   0.000000   0.000000   0.000000   0.004769  -0.042116
    40  H    0.000000   0.000000   0.000000   0.000000   0.000479   0.004838
    41  H    0.000000   0.000000   0.000000   0.000000   0.004900   0.000645
    42  H    0.000000   0.000000   0.000000   0.000000  -0.050916   0.004520
              19         20         21         22         23         24
     1  O    0.000696  -0.000007  -0.000041   0.001945  -0.039839   0.001814
     2  S    0.002923  -0.000359   0.002643  -0.019084   0.453018  -0.003442
     3  N   -0.000104   0.000001  -0.000066  -0.001908  -0.058632   0.284534
     4  C    0.000041   0.000004  -0.000007   0.000116   0.002126  -0.030418
     5  C   -0.000583   0.000024   0.000092   0.000463  -0.000060   0.001007
     6  S    0.000000   0.000000   0.000000   0.000008  -0.000001  -0.000301
     7  O    0.000000   0.000000   0.000000   0.000000   0.000000   0.000003
     8  C   -0.000002   0.000000   0.000000  -0.000002  -0.000087   0.005051
     9  C    0.000000   0.000000   0.000000  -0.000024  -0.000079  -0.005660
    10  C    0.000000   0.000000   0.000000   0.000000  -0.000009   0.000229
    11  C    0.000000   0.000000   0.000000   0.000000   0.000001   0.000311
    12  C    0.000000   0.000000   0.000000   0.000000   0.000000   0.000005
    13  C    0.000000   0.000000   0.000000   0.000000   0.000000   0.000000
    14  C    0.000000   0.000000   0.000000   0.000000   0.000000   0.000000
    15  C    0.000000   0.000000   0.000000   0.000000   0.000000   0.000000
    16  C    0.000000   0.000000   0.000000   0.000000  -0.000004  -0.000048
    17  C   -0.031693  -0.038119  -0.026760   0.471188  -0.062063  -0.000967
    18  C    0.496493  -0.030071  -0.038221  -0.038731   0.000688   0.000007
    19  C    4.886535   0.545575  -0.029785  -0.036433  -0.000049  -0.000003
    20  C    0.545575   4.841910   0.542983  -0.030158  -0.000005   0.000000
    21  C   -0.029785   0.542983   4.868832   0.516847   0.000336   0.000031
    22  C   -0.036433  -0.030158   0.516847   4.945243   0.002458   0.000650
    23  O   -0.000049  -0.000005   0.000336   0.002458   8.222106   0.001447
    24  H   -0.000003   0.000000   0.000031   0.000650   0.001447   0.386807
    25  H    0.000003   0.000002  -0.000002  -0.000006   0.000001   0.000307
    26  H    0.000978  -0.000005  -0.000204  -0.000611  -0.000008  -0.000089
    27  H    0.000000   0.000000   0.000000   0.000000   0.000001  -0.000047
    28  H    0.000001   0.000000   0.000000  -0.000005  -0.000014  -0.000078
    29  H    0.000000   0.000000   0.000000   0.000001   0.000000   0.006401
    30  H    0.000000   0.000000   0.000000   0.000000   0.000000   0.000267
    31  H    0.000000   0.000000   0.000000  -0.000001   0.000016   0.002558
    32  H    0.000000   0.000000   0.000000   0.000000   0.000000  -0.000317
    33  H    0.000000   0.000000   0.000000   0.000000   0.000000   0.000000
    34  H    0.000000   0.000000   0.000000   0.000000   0.000000   0.000000
    35  H    0.000000   0.000000   0.000000   0.000000   0.000000   0.000000
    36  H    0.000000   0.000000   0.000000   0.000000   0.000000   0.000000
    37  H    0.000000   0.000000   0.000000   0.000000   0.000008  -0.000019
    38  H   -0.036274   0.004062   0.000286   0.004891   0.000069  -0.000015
    39  H    0.363896  -0.041521   0.004399   0.000663   0.000000   0.000000
    40  H   -0.041976   0.362413  -0.042050   0.004949   0.000000   0.000000
    41  H    0.004419  -0.041213   0.363164  -0.042035   0.000001   0.000000
    42  H    0.000388   0.004226  -0.036223   0.361487   0.005059   0.000537
              25         26         27         28         29         30
     1  O    0.000015   0.000519   0.000191   0.015485   0.000001   0.000001
     2  S    0.000130   0.003362   0.000231   0.000993  -0.000224   0.000047
     3  N    0.001799  -0.005532   0.001333  -0.004592  -0.006764   0.002894
     4  C   -0.028327  -0.026945  -0.027308  -0.025297  -0.037478  -0.032451
     5  C    0.350732   0.312526   0.009642   0.003024  -0.008003  -0.006160
     6  S   -0.017461  -0.004452  -0.018447  -0.004412  -0.000442   0.005354
     7  O    0.000164   0.001287   0.000010   0.001176   0.000323   0.028243
     8  C    0.010676   0.002864   0.352784   0.319806   0.006730  -0.008068
     9  C   -0.006592   0.004603  -0.006586   0.004259   0.343554   0.353376
    10  C    0.000135  -0.000120  -0.001047  -0.000004  -0.033416  -0.026901
    11  C    0.000011   0.000002   0.006591  -0.000002   0.004401  -0.005630
    12  C    0.000000   0.000000   0.003398   0.000062   0.000107   0.003147
    13  C    0.000000   0.000000   0.000457   0.000002   0.000002  -0.000154
    14  C    0.000000   0.000000   0.000187  -0.000004   0.000000   0.000003
    15  C    0.000000   0.000000   0.000071  -0.000030   0.000002   0.000000
    16  C    0.000000   0.000000   0.002058   0.000061  -0.000107   0.000058
    17  C    0.000044   0.000340   0.000003  -0.000037   0.000011   0.000002
    18  C   -0.000011   0.010020   0.000000  -0.000066   0.000001   0.000000
    19  C    0.000003   0.000978   0.000000   0.000001   0.000000   0.000000
    20  C    0.000002  -0.000005   0.000000   0.000000   0.000000   0.000000
    21  C   -0.000002  -0.000204   0.000000   0.000000   0.000000   0.000000
    22  C   -0.000006  -0.000611   0.000000  -0.000005   0.000001   0.000000
    23  O    0.000001  -0.000008   0.000001  -0.000014   0.000000   0.000000
    24  H    0.000307  -0.000089  -0.000047  -0.000078   0.006401   0.000267
    25  H    0.514372  -0.021755  -0.000335  -0.000320   0.005544   0.000243
    26  H   -0.021755   0.534463  -0.000272   0.000278   0.000048   0.000193
    27  H   -0.000335  -0.000272   0.468677  -0.014363   0.000144  -0.000062
    28  H   -0.000320   0.000278  -0.014363   0.474074  -0.000141   0.000133
    29  H    0.005544   0.000048   0.000144  -0.000141   0.622157  -0.025074
    30  H    0.000243   0.000193  -0.000062   0.000133  -0.025074   0.498681
    31  H   -0.000003   0.000002   0.000144  -0.000011  -0.002111   0.004274
    32  H   -0.000016   0.000002   0.000025   0.000004  -0.005655  -0.001935
    33  H    0.000000   0.000000   0.000125   0.000001  -0.000131   0.002607
    34  H    0.000000   0.000000   0.000005   0.000000   0.000000   0.000004
    35  H    0.000000   0.000000   0.000000   0.000000   0.000000   0.000000
    36  H    0.000000   0.000000   0.000009   0.000000   0.000000   0.000000
    37  H    0.000000   0.000000   0.000054   0.000012  -0.000015   0.000012
    38  H    0.000004   0.000846   0.000000   0.000139   0.000000   0.000000
    39  H    0.000000   0.000034   0.000000   0.000000   0.000000   0.000000
    40  H    0.000000  -0.000001   0.000000   0.000000   0.000000   0.000000
    41  H    0.000000   0.000001   0.000000   0.000000   0.000000   0.000000
    42  H    0.000000  -0.000004   0.000000   0.000000   0.000003   0.000000
              31         32         33         34         35         36
     1  O   -0.000002   0.000000   0.000000   0.000000   0.000000   0.000000
     2  S    0.000168  -0.000003   0.000000   0.000000   0.000000   0.000000
     3  N    0.008313   0.000258   0.000000   0.000000   0.000000   0.000000
     4  C   -0.011387   0.005143   0.000108   0.000000   0.000000   0.000001
     5  C    0.000233  -0.000131   0.000001   0.000000   0.000000   0.000000
     6  S   -0.000048   0.000040  -0.000025   0.000001   0.000000   0.000000
     7  O   -0.000003  -0.000001   0.000261  -0.000001   0.000000   0.000000
     8  C   -0.000469  -0.000090  -0.000045  -0.000003   0.000000  -0.000006
     9  C   -0.037746  -0.036677   0.000748   0.000002   0.000000   0.000001
    10  C    0.358752   0.359230  -0.008782  -0.000186   0.000007  -0.000183
    11  C   -0.031598  -0.029927  -0.047551   0.003615   0.000703   0.003783
    12  C    0.004913  -0.005224   0.357200  -0.039204   0.004772   0.000809
    13  C   -0.000181   0.000008  -0.042720   0.357809  -0.042996   0.004591
    14  C    0.000002   0.000029   0.004784  -0.043443   0.359422  -0.043573
    15  C    0.000176  -0.000231   0.000346   0.004608  -0.043468   0.357223
    16  C   -0.005271   0.002219   0.005978   0.000838   0.004688  -0.039019
    17  C    0.000011   0.000000   0.000000   0.000000   0.000000   0.000000
    18  C    0.000000   0.000000   0.000000   0.000000   0.000000   0.000000
    19  C    0.000000   0.000000   0.000000   0.000000   0.000000   0.000000
    20  C    0.000000   0.000000   0.000000   0.000000   0.000000   0.000000
    21  C    0.000000   0.000000   0.000000   0.000000   0.000000   0.000000
    22  C   -0.000001   0.000000   0.000000   0.000000   0.000000   0.000000
    23  O    0.000016   0.000000   0.000000   0.000000   0.000000   0.000000
    24  H    0.002558  -0.000317   0.000000   0.000000   0.000000   0.000000
    25  H   -0.000003  -0.000016   0.000000   0.000000   0.000000   0.000000
    26  H    0.000002   0.000002   0.000000   0.000000   0.000000   0.000000
    27  H    0.000144   0.000025   0.000125   0.000005   0.000000   0.000009
    28  H   -0.000011   0.000004   0.000001   0.000000   0.000000   0.000000
    29  H   -0.002111  -0.005655  -0.000131   0.000000   0.000000   0.000000
    30  H    0.004274  -0.001935   0.002607   0.000004   0.000000   0.000000
    31  H    0.587190  -0.033860   0.000046   0.000003   0.000000  -0.000010
    32  H   -0.033860   0.589180   0.002512  -0.000002   0.000000   0.000003
    33  H    0.000046   0.002512   0.594811  -0.005562  -0.000179   0.000018
    34  H    0.000003  -0.000002  -0.005562   0.593726  -0.005494  -0.000187
    35  H    0.000000   0.000000  -0.000179  -0.005494   0.598463  -0.005615
    36  H   -0.000010   0.000003   0.000018  -0.000187  -0.005615   0.595298
    37  H    0.007677   0.000137  -0.000173   0.000017  -0.000173  -0.005410
    38  H    0.000000   0.000000   0.000000   0.000000   0.000000   0.000000
    39  H    0.000000   0.000000   0.000000   0.000000   0.000000   0.000000
    40  H    0.000000   0.000000   0.000000   0.000000   0.000000   0.000000
    41  H    0.000000   0.000000   0.000000   0.000000   0.000000   0.000000
    42  H   -0.000002   0.000000   0.000000   0.000000   0.000000   0.000000
              37         38         39         40         41         42
     1  O   -0.000005   0.012626   0.000003   0.000000   0.000000   0.000070
     2  S    0.000237  -0.005720  -0.000050   0.000007  -0.000041   0.000418
     3  N    0.000877   0.000224   0.000001   0.000000   0.000002   0.000148
     4  C   -0.000102   0.000050   0.000000   0.000000   0.000000   0.000034
     5  C    0.000004  -0.000531  -0.000007   0.000000   0.000000  -0.000009
     6  S    0.000002   0.000210   0.000000   0.000000   0.000000   0.000000
     7  O    0.000000   0.000000   0.000000   0.000000   0.000000   0.000000
     8  C    0.000054  -0.000038   0.000000   0.000000   0.000000   0.000000
     9  C    0.000142   0.000002   0.000000   0.000000   0.000000  -0.000001
    10  C   -0.012266   0.000000   0.000000   0.000000   0.000000   0.000000
    11  C   -0.041472   0.000000   0.000000   0.000000   0.000000   0.000000
    12  C    0.006406   0.000000   0.000000   0.000000   0.000000   0.000000
    13  C    0.000312   0.000000   0.000000   0.000000   0.000000   0.000000
    14  C    0.004715   0.000000   0.000000   0.000000   0.000000   0.000000
    15  C   -0.045412   0.000000   0.000000   0.000000   0.000000   0.000000
    16  C    0.355055   0.000000   0.000000   0.000000   0.000000   0.000000
    17  C    0.000000  -0.043251   0.004769   0.000479   0.004900  -0.050916
    18  C    0.000000   0.358606  -0.042116   0.004838   0.000645   0.004520
    19  C    0.000000  -0.036274   0.363896  -0.041976   0.004419   0.000388
    20  C    0.000000   0.004062  -0.041521   0.362413  -0.041213   0.004226
    21  C    0.000000   0.000286   0.004399  -0.042050   0.363164  -0.036223
    22  C    0.000000   0.004891   0.000663   0.004949  -0.042035   0.361487
    23  O    0.000008   0.000069   0.000000   0.000000   0.000001   0.005059
    24  H   -0.000019  -0.000015   0.000000   0.000000   0.000000   0.000537
    25  H    0.000000   0.000004   0.000000   0.000000   0.000000   0.000000
    26  H    0.000000   0.000846   0.000034  -0.000001   0.000001  -0.000004
    27  H    0.000054   0.000000   0.000000   0.000000   0.000000   0.000000
    28  H    0.000012   0.000139   0.000000   0.000000   0.000000   0.000000
    29  H   -0.000015   0.000000   0.000000   0.000000   0.000000   0.000003
    30  H    0.000012   0.000000   0.000000   0.000000   0.000000   0.000000
    31  H    0.007677   0.000000   0.000000   0.000000   0.000000  -0.000002
    32  H    0.000137   0.000000   0.000000   0.000000   0.000000   0.000000
    33  H   -0.000173   0.000000   0.000000   0.000000   0.000000   0.000000
    34  H    0.000017   0.000000   0.000000   0.000000   0.000000   0.000000
    35  H   -0.000173   0.000000   0.000000   0.000000   0.000000   0.000000
    36  H   -0.005410   0.000000   0.000000   0.000000   0.000000   0.000000
    37  H    0.591623   0.000000   0.000000   0.000000   0.000000   0.000000
    38  H    0.000000   0.521621  -0.004866  -0.000143   0.000014  -0.000152
    39  H    0.000000  -0.004866   0.568307  -0.005406  -0.000167   0.000015
    40  H    0.000000  -0.000143  -0.005406   0.573051  -0.005340  -0.000154
    41  H    0.000000   0.000014  -0.000167  -0.005340   0.570974  -0.005370
    42  H    0.000000  -0.000152   0.000015  -0.000154  -0.005370   0.547761
 Mulliken charges:
               1
     1  O   -0.552444
     2  S    1.198457
     3  N   -0.702661
     4  C    0.236024
     5  C   -0.490642
     6  S    0.739296
     7  O   -0.623190
     8  C   -0.489693
     9  C   -0.332201
    10  C   -0.350346
    11  C    0.155772
    12  C   -0.175010
    13  C   -0.128026
    14  C   -0.132068
    15  C   -0.126986
    16  C   -0.188143
    17  C   -0.137436
    18  C   -0.157558
    19  C   -0.125047
    20  C   -0.119744
    21  C   -0.126251
    22  C   -0.141911
    23  O   -0.526487
    24  H    0.349439
    25  H    0.190647
    26  H    0.187630
    27  H    0.222325
    28  H    0.229869
    29  H    0.130132
    30  H    0.206894
    31  H    0.148225
    32  H    0.155279
    33  H    0.135623
    34  H    0.133457
    35  H    0.129870
    36  H    0.132268
    37  H    0.137705
    38  H    0.187342
    39  H    0.152045
    40  H    0.149333
    41  H    0.150046
    42  H    0.168166
 Sum of Mulliken charges =   0.00000
 Mulliken charges with hydrogens summed into heavy atoms:
               1
     1  O   -0.552444
     2  S    1.198457
     3  N   -0.353222
     4  C    0.236024
     5  C   -0.112365
     6  S    0.739296
     7  O   -0.623190
     8  C   -0.037499
     9  C    0.004824
    10  C   -0.046843
    11  C    0.155772
    12  C   -0.039387
    13  C    0.005431
    14  C   -0.002198
    15  C    0.005281
    16  C   -0.050438
    17  C   -0.137436
    18  C    0.029784
    19  C    0.026998
    20  C    0.029589
    21  C    0.023796
    22  C    0.026255
    23  O   -0.526487
 Electronic spatial extent (au):  <R**2>=           9198.2802
 Charge=              0.0000 electrons
 Dipole moment (field-independent basis, Debye):
    X=             -3.8639    Y=              0.6704    Z=              2.9653  Tot=              4.9165
 Quadrupole moment (field-independent basis, Debye-Ang):
   XX=           -126.7599   YY=           -168.4054   ZZ=           -142.5626
   XY=            -15.3470   XZ=             -8.9139   YZ=             -5.7527
 Traceless Quadrupole moment (field-independent basis, Debye-Ang):
   XX=             19.1494   YY=            -22.4961   ZZ=              3.3467
   XY=            -15.3470   XZ=             -8.9139   YZ=             -5.7527
[...]
    21  C    0.000000   0.000000   0.000000   0.000000  -0.027728  -0.038201
    22  C    0.000000   0.000000   0.000000   0.000000   0.469620  -0.036825
    23  O    0.000000   0.000000   0.000000  -0.000004  -0.063282   0.000642
    24  H    0.000000   0.000000   0.000000  -0.000044  -0.001041   0.000004
    25  H    0.000000   0.000000   0.000000   0.000000   0.000038  -0.000011
    26  H    0.000000   0.000000   0.000000   0.000000   0.000336   0.010297
    27  H    0.000483   0.000189   0.000074   0.002101   0.000003   0.000000
    28  H    0.000002  -0.000005  -0.000030   0.000063  -0.000036  -0.000068
    29  H    0.000002   0.000000   0.000002  -0.000103   0.000009   0.000001
    30  H   -0.000157   0.000003   0.000001   0.000068   0.000002   0.000000
    31  H   -0.000180   0.000001   0.000213  -0.005175   0.000010   0.000000
    32  H    0.000013   0.000029  -0.000229   0.002207   0.000000   0.000000
    33  H   -0.043450   0.004769   0.000318   0.005985   0.000000   0.000000
    34  H    0.359321  -0.042735   0.004573   0.000803   0.000000   0.000000
    35  H   -0.042432   0.361268  -0.042764   0.004605   0.000000   0.000000
    36  H    0.004559  -0.042931   0.358820  -0.038857   0.000000   0.000000
    37  H    0.000283   0.004735  -0.045708   0.355798   0.000001   0.000000
    38  H    0.000000   0.000000   0.000000   0.000000  -0.046368   0.360336
    39  H    0.000000   0.000000   0.000000   0.000000   0.004751  -0.041487
    40  H    0.000000   0.000000   0.000000   0.000000   0.000471   0.004782
    41  H    0.000000   0.000000   0.000000   0.000000   0.004841   0.000622
    42  H    0.000000   0.000000   0.000000   0.000000  -0.052237   0.004289
              19         20         21         22         23         24
     1  O    0.000667  -0.000006  -0.000042   0.001858  -0.039185   0.001659
     2  S    0.002847  -0.000370   0.002572  -0.020212   0.452321  -0.003635
     3  N   -0.000101   0.000001  -0.000057  -0.001818  -0.058824   0.288407
     4  C    0.000040   0.000004  -0.000007   0.000096   0.002105  -0.028757
     5  C   -0.000579   0.000023   0.000092   0.000475  -0.000062   0.000922
     6  S    0.000000   0.000000   0.000000   0.000007  -0.000001  -0.000316
     7  O    0.000000   0.000000   0.000000   0.000000   0.000000   0.000002
     8  C   -0.000002   0.000000   0.000000  -0.000002  -0.000086   0.004703
     9  C    0.000000   0.000000   0.000000  -0.000024  -0.000078  -0.004849
    10  C    0.000000   0.000000   0.000000   0.000000  -0.000009   0.000098
    11  C    0.000000   0.000000   0.000000   0.000000   0.000001   0.000281
    12  C    0.000000   0.000000   0.000000   0.000000   0.000000   0.000004
    13  C    0.000000   0.000000   0.000000   0.000000   0.000000   0.000000
    14  C    0.000000   0.000000   0.000000   0.000000   0.000000   0.000000
    15  C    0.000000   0.000000   0.000000   0.000000   0.000000   0.000000
    16  C    0.000000   0.000000   0.000000   0.000000  -0.000004  -0.000044
    17  C   -0.032303  -0.038256  -0.027728   0.469620  -0.063282  -0.001041
    18  C    0.501085  -0.031043  -0.038201  -0.036825   0.000642   0.000004
    19  C    4.884114   0.543482  -0.030182  -0.036668  -0.000048  -0.000002
    20  C    0.543482   4.847665   0.540369  -0.030904  -0.000005   0.000000
    21  C   -0.030182   0.540369   4.868262   0.519429   0.000328   0.000029
    22  C   -0.036668  -0.030904   0.519429   4.944892   0.002563   0.000638
    23  O   -0.000048  -0.000005   0.000328   0.002563   8.243912   0.001160
    24  H   -0.000002   0.000000   0.000029   0.000638   0.001160   0.358989
    25  H    0.000003   0.000002  -0.000001  -0.000006   0.000001   0.000273
    26  H    0.001017  -0.000003  -0.000207  -0.000633  -0.000009  -0.000087
    27  H    0.000000   0.000000   0.000000   0.000000   0.000001  -0.000043
    28  H    0.000001   0.000000   0.000000  -0.000004  -0.000014  -0.000072
    29  H    0.000000   0.000000   0.000000   0.000001   0.000000   0.005658
    30  H    0.000000   0.000000   0.000000   0.000000   0.000000   0.000247
    31  H    0.000000   0.000000   0.000000  -0.000001   0.000015   0.002407
    32  H    0.000000   0.000000   0.000000   0.000000   0.000000  -0.000282
    33  H    0.000000   0.000000   0.000000   0.000000   0.000000   0.000000
    34  H    0.000000   0.000000   0.000000   0.000000   0.000000   0.000000
    35  H    0.000000   0.000000   0.000000   0.000000   0.000000   0.000000
    36  H    0.000000   0.000000   0.000000   0.000000   0.000000   0.000000
    37  H    0.000000   0.000000   0.000000   0.000000   0.000007  -0.000020
    38  H   -0.034501   0.004106   0.000263   0.004733   0.000064  -0.000013
    39  H    0.365849  -0.040109   0.004297   0.000623   0.000000   0.000000
    40  H   -0.040941   0.364388  -0.040900   0.004875   0.000000   0.000000
    41  H    0.004302  -0.039988   0.365418  -0.040985   0.000001   0.000000
    42  H    0.000365   0.004183  -0.033584   0.363511   0.004702   0.000453
              25         26         27         28         29         30
     1  O    0.000014   0.000490   0.000186   0.015544   0.000001   0.000001
     2  S    0.000117   0.003475   0.000222   0.001143  -0.000206   0.000046
     3  N    0.001657  -0.005517   0.001410  -0.004594  -0.006370   0.003028
     4  C   -0.028479  -0.027096  -0.027348  -0.025515  -0.036290  -0.033134
     5  C    0.353194   0.315428   0.009621   0.002969  -0.007583  -0.006058
     6  S   -0.017491  -0.005588  -0.018139  -0.004902  -0.000512   0.005057
     7  O    0.000060   0.001270  -0.000018   0.001179   0.000296   0.027319
     8  C    0.010363   0.002906   0.351517   0.320805   0.006546  -0.008159
     9  C   -0.005856   0.004503  -0.006748   0.004247   0.350457   0.353547
    10  C    0.000133  -0.000117  -0.000977  -0.000016  -0.031961  -0.027760
    11  C    0.000011   0.000002   0.006499  -0.000002   0.004269  -0.005954
    12  C    0.000000   0.000000   0.003494   0.000063   0.000099   0.003264
    13  C    0.000000   0.000000   0.000483   0.000002   0.000002  -0.000157
    14  C    0.000000   0.000000   0.000189  -0.000005   0.000000   0.000003
    15  C    0.000000   0.000000   0.000074  -0.000030   0.000002   0.000001
    16  C    0.000000   0.000000   0.002101   0.000063  -0.000103   0.000068
    17  C    0.000038   0.000336   0.000003  -0.000036   0.000009   0.000002
    18  C   -0.000011   0.010297   0.000000  -0.000068   0.000001   0.000000
    19  C    0.000003   0.001017   0.000000   0.000001   0.000000   0.000000
    20  C    0.000002  -0.000003   0.000000   0.000000   0.000000   0.000000
    21  C   -0.000001  -0.000207   0.000000   0.000000   0.000000   0.000000
    22  C   -0.000006  -0.000633   0.000000  -0.000004   0.000001   0.000000
    23  O    0.000001  -0.000009   0.000001  -0.000014   0.000000   0.000000
    24  H    0.000273  -0.000087  -0.000043  -0.000072   0.005658   0.000247
    25  H    0.497415  -0.019904  -0.000330  -0.000305   0.005191   0.000205
    26  H   -0.019904   0.522713  -0.000268   0.000258   0.000044   0.000185
    27  H   -0.000330  -0.000268   0.472489  -0.014549   0.000141  -0.000041
    28  H   -0.000305   0.000258  -0.014549   0.475518  -0.000136   0.000131
    29  H    0.005191   0.000044   0.000141  -0.000136   0.593160  -0.024952
    30  H    0.000205   0.000185  -0.000041   0.000131  -0.024952   0.510847
    31  H   -0.000003   0.000002   0.000145  -0.000011  -0.002063   0.004333
    32  H   -0.000016   0.000002   0.000024   0.000004  -0.005623  -0.001874
    33  H    0.000000   0.000000   0.000124   0.000001  -0.000127   0.002666
    34  H    0.000000   0.000000   0.000005   0.000000   0.000000   0.000004
    35  H    0.000000   0.000000   0.000000   0.000000   0.000000   0.000000
    36  H    0.000000   0.000000   0.000009   0.000000   0.000000   0.000000
    37  H    0.000000   0.000000   0.000056   0.000012  -0.000015   0.000013
    38  H    0.000004   0.000835   0.000000   0.000132   0.000000   0.000000
    39  H    0.000000   0.000032   0.000000   0.000000   0.000000   0.000000
    40  H    0.000000  -0.000001   0.000000   0.000000   0.000000   0.000000
    41  H    0.000000   0.000001   0.000000   0.000000   0.000000   0.000000
    42  H    0.000000  -0.000004   0.000000   0.000000   0.000002   0.000000
              31         32         33         34         35         36
     1  O   -0.000002   0.000000   0.000000   0.000000   0.000000   0.000000
     2  S    0.000232  -0.000003   0.000000   0.000000   0.000000   0.000000
     3  N    0.008452   0.000251   0.000000   0.000000   0.000000   0.000000
     4  C   -0.011480   0.005034   0.000105   0.000000   0.000000   0.000001
     5  C    0.000221  -0.000126   0.000001   0.000000   0.000000   0.000000
     6  S   -0.000045   0.000041  -0.000022   0.000001   0.000000   0.000000
     7  O   -0.000003  -0.000001   0.000265  -0.000001   0.000000   0.000000
     8  C   -0.000443  -0.000093  -0.000046  -0.000003   0.000000  -0.000005
     9  C   -0.036888  -0.035278   0.000738   0.000002   0.000000   0.000001
    10  C    0.361101   0.361712  -0.008535  -0.000180   0.000007  -0.000177
    11  C   -0.033312  -0.030514  -0.046710   0.003580   0.000676   0.003751
    12  C    0.004904  -0.005269   0.357972  -0.039352   0.004681   0.000772
    13  C   -0.000180   0.000013  -0.043450   0.359321  -0.042432   0.004559
    14  C    0.000001   0.000029   0.004769  -0.042735   0.361268  -0.042931
    15  C    0.000213  -0.000229   0.000318   0.004573  -0.042764   0.358820
    16  C   -0.005175   0.002207   0.005985   0.000803   0.004605  -0.038857
    17  C    0.000010   0.000000   0.000000   0.000000   0.000000   0.000000
    18  C    0.000000   0.000000   0.000000   0.000000   0.000000   0.000000
    19  C    0.000000   0.000000   0.000000   0.000000   0.000000   0.000000
    20  C    0.000000   0.000000   0.000000   0.000000   0.000000   0.000000
    21  C    0.000000   0.000000   0.000000   0.000000   0.000000   0.000000
    22  C   -0.000001   0.000000   0.000000   0.000000   0.000000   0.000000
    23  O    0.000015   0.000000   0.000000   0.000000   0.000000   0.000000
    24  H    0.002407  -0.000282   0.000000   0.000000   0.000000   0.000000
    25  H   -0.000003  -0.000016   0.000000   0.000000   0.000000   0.000000
    26  H    0.000002   0.000002   0.000000   0.000000   0.000000   0.000000
    27  H    0.000145   0.000024   0.000124   0.000005   0.000000   0.000009
    28  H   -0.000011   0.000004   0.000001   0.000000   0.000000   0.000000
    29  H   -0.002063  -0.005623  -0.000127   0.000000   0.000000   0.000000
    30  H    0.004333  -0.001874   0.002666   0.000004   0.000000   0.000000
    31  H    0.578110  -0.032530   0.000044   0.000003   0.000000  -0.000010
    32  H   -0.032530   0.576841   0.002426  -0.000002   0.000000   0.000003
    33  H    0.000044   0.002426   0.590704  -0.005440  -0.000175   0.000017
    34  H    0.000003  -0.000002  -0.005440   0.584367  -0.005328  -0.000182
    35  H    0.000000   0.000000  -0.000175  -0.005328   0.585801  -0.005435
    36  H   -0.000010   0.000003   0.000017  -0.000182  -0.005435   0.584803
    37  H    0.007549   0.000130  -0.000171   0.000016  -0.000169  -0.005334
    38  H    0.000000   0.000000   0.000000   0.000000   0.000000   0.000000
    39  H    0.000000   0.000000   0.000000   0.000000   0.000000   0.000000
    40  H    0.000000   0.000000   0.000000   0.000000   0.000000   0.000000
    41  H    0.000000   0.000000   0.000000   0.000000   0.000000   0.000000
    42  H   -0.000002   0.000000   0.000000   0.000000   0.000000   0.000000
              37         38         39         40         41         42
     1  O   -0.000005   0.012007   0.000003   0.000000   0.000000   0.000064
     2  S    0.000254  -0.005843  -0.000054   0.000006  -0.000046   0.000143
     3  N    0.000914   0.000206   0.000001   0.000000   0.000002   0.000113
     4  C   -0.000108   0.000041   0.000000   0.000000   0.000000   0.000033
     5  C    0.000004  -0.000519  -0.000007   0.000000   0.000000  -0.000008
     6  S    0.000002   0.000194   0.000000   0.000000   0.000000   0.000000
     7  O    0.000000   0.000000   0.000000   0.000000   0.000000   0.000000
     8  C    0.000051  -0.000035   0.000000   0.000000   0.000000   0.000000
     9  C    0.000137   0.000002   0.000000   0.000000   0.000000  -0.000001
    10  C   -0.011881   0.000000   0.000000   0.000000   0.000000   0.000000
    11  C   -0.041635   0.000000   0.000000   0.000000   0.000000   0.000000
    12  C    0.006444   0.000000   0.000000   0.000000   0.000000   0.000000
    13  C    0.000283   0.000000   0.000000   0.000000   0.000000   0.000000
    14  C    0.004735   0.000000   0.000000   0.000000   0.000000   0.000000
    15  C   -0.045708   0.000000   0.000000   0.000000   0.000000   0.000000
    16  C    0.355798   0.000000   0.000000   0.000000   0.000000   0.000000
    17  C    0.000001  -0.046368   0.004751   0.000471   0.004841  -0.052237
    18  C    0.000000   0.360336  -0.041487   0.004782   0.000622   0.004289
    19  C    0.000000  -0.034501   0.365849  -0.040941   0.004302   0.000365
    20  C    0.000000   0.004106  -0.040109   0.364388  -0.039988   0.004183
    21  C    0.000000   0.000263   0.004297  -0.040900   0.365418  -0.033584
    22  C    0.000000   0.004733   0.000623   0.004875  -0.040985   0.363511
    23  O    0.000007   0.000064   0.000000   0.000000   0.000001   0.004702
    24  H   -0.000020  -0.000013   0.000000   0.000000   0.000000   0.000453
    25  H    0.000000   0.000004   0.000000   0.000000   0.000000   0.000000
    26  H    0.000000   0.000835   0.000032  -0.000001   0.000001  -0.000004
    27  H    0.000056   0.000000   0.000000   0.000000   0.000000   0.000000
    28  H    0.000012   0.000132   0.000000   0.000000   0.000000   0.000000
    29  H   -0.000015   0.000000   0.000000   0.000000   0.000000   0.000002
    30  H    0.000013   0.000000   0.000000   0.000000   0.000000   0.000000
    31  H    0.007549   0.000000   0.000000   0.000000   0.000000  -0.000002
    32  H    0.000130   0.000000   0.000000   0.000000   0.000000   0.000000
    33  H   -0.000171   0.000000   0.000000   0.000000   0.000000   0.000000
    34  H    0.000016   0.000000   0.000000   0.000000   0.000000   0.000000
    35  H   -0.000169   0.000000   0.000000   0.000000   0.000000   0.000000
    36  H   -0.005334   0.000000   0.000000   0.000000   0.000000   0.000000
    37  H    0.589442   0.000000   0.000000   0.000000   0.000000   0.000000
    38  H    0.000000   0.522699  -0.004875  -0.000139   0.000013  -0.000148
    39  H    0.000000  -0.004875   0.551314  -0.005177  -0.000159   0.000014
    40  H    0.000000  -0.000139  -0.005177   0.554245  -0.005101  -0.000147
    41  H    0.000000   0.000013  -0.000159  -0.005101   0.551665  -0.005241
    42  H    0.000000  -0.000148   0.000014  -0.000147  -0.005241   0.535954
 Mulliken charges:
               1
     1  O   -0.564484
     2  S    1.191265
     3  N   -0.711776
     4  C    0.235438
     5  C   -0.489903
     6  S    0.736619
     7  O   -0.650859
     8  C   -0.487132
     9  C   -0.333183
    10  C   -0.351761
    11  C    0.153508
    12  C   -0.181164
    13  C   -0.137887
    14  C   -0.142047
    15  C   -0.135954
    16  C   -0.193103
    17  C   -0.142891
    18  C   -0.161631
    19  C   -0.128445
    20  C   -0.123538
    21  C   -0.130149
    22  C   -0.145239
    23  O   -0.546218
    24  H    0.373228
    25  H    0.203721
    26  H    0.195637
    27  H    0.219668
    28  H    0.228190
    29  H    0.150062
    30  H    0.197123
    31  H    0.154403
    32  H    0.163123
    33  H    0.138541
    34  H    0.140548
    35  H    0.139265
    36  H    0.140194
    37  H    0.139200
    38  H    0.186807
    39  H    0.164984
    40  H    0.163638
    41  H    0.164657
    42  H    0.177546
 Sum of Mulliken charges =   0.00000
 Mulliken charges with hydrogens summed into heavy atoms:
               1
     1  O   -0.564484
     2  S    1.191265
     3  N   -0.338549
     4  C    0.235438
     5  C   -0.090545
     6  S    0.736619
     7  O   -0.650859
     8  C   -0.039275
     9  C    0.014002
    10  C   -0.034234
    11  C    0.153508
    12  C   -0.042623
    13  C    0.002661
    14  C   -0.002782
    15  C    0.004240
    16  C   -0.053904
    17  C   -0.142891
    18  C    0.025176
    19  C    0.036539
    20  C    0.040100
    21  C    0.034508
    22  C    0.032307
    23  O   -0.546218
 Electronic spatial extent (au):  <R**2>=           9196.6691
 Charge=              0.0000 electrons
 Dipole moment (field-independent basis, Debye):
    X=             -4.8537    Y=              0.7969    Z=              3.7521  Tot=              6.1864
 Quadrupole moment (field-independent basis, Debye-Ang):
   XX=           -123.6329   YY=           -170.4547   ZZ=           -141.4733
   XY=            -17.7162   XZ=            -10.2683   YZ=             -6.3791
 Traceless Quadrupole moment (field-independent basis, Debye-Ang):
   XX=             21.5541   YY=            -25.2677   ZZ=              3.7136
   XY=            -17.7162   XZ=            -10.2683   YZ=             -6.3791
 Octapole moment (field-independent basis, Debye-Ang**2):
  XXX=           -128.4823  YYY=            -25.6358  ZZZ=             14.0316  XYY=            -22.0401
  XXY=             39.0451  XXZ=              1.3685  XZZ=             -9.6190  YZZ=              2.6151
  YYZ=             -1.1381  XYZ=             28.3586
 Hexadecapole moment (field-independent basis, Debye-Ang**3):
 XXXX=          -8245.4072 YYYY=          -2418.6752 ZZZZ=           -988.8059 XXXY=            -81.0659
 XXXZ=           -323.3302 YYYX=           -162.0624 YYYZ=             -6.4118 ZZZX=            -24.4376
 ZZZY=            -17.9836 XXYY=          -1943.5357 XXZZ=          -1610.6540 YYZZ=           -501.4636
 XXYZ=             -0.6148 YYXZ=            -31.5109 ZZXY=             13.6922
 N-N= 2.309600528318D+03 E-N=-8.693972121557D+03  KE= 1.724286020291D+03
 No NMR shielding tensors so no spin-rotation constants.
 Leave Link  601 at Sat Aug  8 04:39:43 2020, MaxMem=    33554432 cpu:         0.4
 (Enter /prod/apps/gaussian/g09d1/l9999.exe)
 1\1\GINC-PIRINEUS13\SP\RB3LYP\6-31G(d)\C17H19N1O3S2\UBAFAR01\08-Aug-20
 20\0\\#p b3lyp/6-31G(d) scrf=(iefpcm,read,solvent=n-Octanol) geom=allc
 heck guess=read\\SM36.n.12.pdb.xyz\\0,1\O,0,3.672,-1.968,1.174\S,0,3.3
 25,-0.617,0.718\N,0,3.279,-0.66,-0.954\C,0,2.72,-1.73,-1.794\C,0,1.275
 ,-2.217,-1.51\S,0,1.735,-3.986,-1.925\O,0,1.561,-4.221,-3.418\C,0,3.36
 5,-3.123,-1.605\C,0,2.8,-1.239,-3.252\C,0,4.176,-0.759,-3.752\C,0,5.21
 9,-1.832,-3.989\C,0,5.053,-2.795,-4.995\C,0,6.025,-3.769,-5.219\C,0,7.
 186,-3.795,-4.442\C,0,7.366,-2.838,-3.443\C,0,6.39,-1.865,-3.222\C,0,1
 .68,-0.262,1.345\C,0,0.961,-1.29,1.957\C,0,-0.319,-1.025,2.442\C,0,-0.
 865,0.253,2.313\C,0,-0.13,1.277,1.706\C,0,1.151,1.026,1.22\O,0,4.169,0
 .538,1.035\H,0,3.157,0.281,-1.322\H,0,0.479,-1.818,-2.14\H,0,0.985,-2.
 18,-0.459\H,0,4.151,-3.409,-2.3\H,0,3.653,-3.312,-0.571\H,0,2.088,-0.4
 11,-3.355\H,0,2.422,-2.054,-3.877\H,0,4.583,-0.028,-3.049\H,0,3.997,-0
 .223,-4.69\H,0,4.155,-2.783,-5.608\H,0,5.879,-4.506,-6.002\H,0,7.943,-
 4.552,-4.617\H,0,8.266,-2.847,-2.836\H,0,6.528,-1.121,-2.443\H,0,1.417
 ,-2.266,2.062\H,0,-0.884,-1.815,2.925\H,0,-1.861,0.456,2.691\H,0,-0.55
 2,2.272,1.617\H,0,1.735,1.818,0.766\\Version=AM64L-G09RevD.01\State=1-
 A\HF=-1735.9420201\RMSD=4.857e-09\Dipole=-1.8555176,1.5307617,0.371139
 5\Quadrupole=7.823804,-1.4906777,-6.3331263,-13.8324909,-16.7334005,-6
 .3099819\PG=C01 [X(C17H19N1O3S2)]\\@


 IBM COMPATIBILITY IS LIKE PREGNANCY. YOU ARE OR
 OR YOU ARE NOT. -- ADAM OSBORNE
 Job cpu time:       0 days  0 hours  5 minutes 41.0 seconds.
 File lengths (MBytes):  RWF=    280 Int=      0 D2E=      0 Chk=      8 Scr=      1
 Normal termination of Gaussian 09 at Sat Aug  8 04:39:43 2020.
