 Entering Gaussian System, Link 0=g09
 Initial command:
 /prod/apps/gaussian/g09d1/l1.exe "/tmp/ubafar01/1449161/Gau-86870.inp" -scrdir="/tmp/ubafar01/1449161/"
 Entering Link 1 = /prod/apps/gaussian/g09d1/l1.exe PID=     86871.
  
 Copyright (c) 1988,1990,1992,1993,1995,1998,2003,2009,2013,
            Gaussian, Inc.  All Rights Reserved.
  
 This is part of the Gaussian(R) 09 program.  It is based on
 the Gaussian(R) 03 system (copyright 2003, Gaussian, Inc.),
 the Gaussian(R) 98 system (copyright 1998, Gaussian, Inc.),
 the Gaussian(R) 94 system (copyright 1995, Gaussian, Inc.),
 the Gaussian 92(TM) system (copyright 1992, Gaussian, Inc.),
 the Gaussian 90(TM) system (copyright 1990, Gaussian, Inc.),
 the Gaussian 88(TM) system (copyright 1988, Gaussian, Inc.),
 the Gaussian 86(TM) system (copyright 1986, Carnegie Mellon
 University), and the Gaussian 82(TM) system (copyright 1983,
 Carnegie Mellon University). Gaussian is a federally registered
 trademark of Gaussian, Inc.
  
 This software contains proprietary and confidential information,
 including trade secrets, belonging to Gaussian, Inc.
  
 This software is provided under written license and may be
 used, copied, transmitted, or stored only in accord with that
 written license.
  
 The following legend is applicable only to US Government
 contracts under FAR:
  
                    RESTRICTED RIGHTS LEGEND
  
 Use, reproduction and disclosure by the US Government is
 subject to restrictions as set forth in subparagraphs (a)
 and (c) of the Commercial Computer Software - Restricted
 Rights clause in FAR 52.227-19.
  
 Gaussian, Inc.
 340 Quinnipiac St., Bldg. 40, Wallingford CT 06492
  
  
 ---------------------------------------------------------------
 Warning -- This program may not be used in any manner that
 competes with the business of Gaussian, Inc. or will provide
 assistance to any competitor of Gaussian, Inc.  The licensee
 of this program is prohibited from giving any competitor of
 Gaussian, Inc. access to this program.  By using this program,
 the user acknowledges that Gaussian, Inc. is engaged in the
 business of creating and licensing software in the field of
 computational chemistry and represents and warrants to the
 licensee that it is not a competitor of Gaussian, Inc. and that
 it will not use this program in any manner prohibited above.
 ---------------------------------------------------------------
  

 Cite this work as:
 Gaussian 09, Revision D.01,
 M. J. Frisch, G. W. Trucks, H. B. Schlegel, G. E. Scuseria, 
 M. A. Robb, J. R. Cheeseman, G. Scalmani, V. Barone, B. Mennucci, 
 G. A. Petersson, H. Nakatsuji, M. Caricato, X. Li, H. P. Hratchian, 
 A. F. Izmaylov, J. Bloino, G. Zheng, J. L. Sonnenberg, M. Hada, 
 M. Ehara, K. Toyota, R. Fukuda, J. Hasegawa, M. Ishida, T. Nakajima, 
 Y. Honda, O. Kitao, H. Nakai, T. Vreven, J. A. Montgomery, Jr., 
 J. E. Peralta, F. Ogliaro, M. Bearpark, J. J. Heyd, E. Brothers, 
 K. N. Kudin, V. N. Staroverov, T. Keith, R. Kobayashi, J. Normand, 
 K. Raghavachari, A. Rendell, J. C. Burant, S. S. Iyengar, J. Tomasi, 
 M. Cossi, N. Rega, J. M. Millam, M. Klene, J. E. Knox, J. B. Cross, 
 V. Bakken, C. Adamo, J. Jaramillo, R. Gomperts, R. E. Stratmann, 
 O. Yazyev, A. J. Austin, R. Cammi, C. Pomelli, J. W. Ochterski, 
 R. L. Martin, K. Morokuma, V. G. Zakrzewski, G. A. Voth, 
 P. Salvador, J. J. Dannenberg, S. Dapprich, A. D. Daniels, 
 O. Farkas, J. B. Foresman, J. V. Ortiz, J. Cioslowski, 
 and D. J. Fox, Gaussian, Inc., Wallingford CT, 2013.
 
 ******************************************
 Gaussian 09:  AM64L-G09RevD.01 24-Apr-2013
                 8-Aug-2020 
 ******************************************
 %nproc=1
 Will use up to    1 processors via shared memory.
 %Chk=SM36.n.3.pdb.xyz.mst.n.w.chk
 -----------------
 #p b3lyp/6-31G(d)
 -----------------
 1/38=1/1;
 2/12=2,17=6,18=5,40=1/2;
 3/5=1,6=6,7=1,11=2,16=1,25=1,30=1,74=-5/1,2,3;
 4//1;
 5/5=2,38=5/2;
 6/7=2,8=2,9=2,10=2,28=1/1;
 99/5=1,9=1/99;
 Leave Link    1 at Sat Aug  8 02:20:24 2020, MaxMem=           0 cpu:         0.0
 (Enter /prod/apps/gaussian/g09d1/l101.exe)
 ----------------
 SM36.n.3.pdb.xyz
 ----------------
 Symbolic Z-matrix:
 Charge =  0 Multiplicity = 1
 O                     0.887     0.593    -0.586 
 S                     2.267     0.988    -0.906 
 N                     3.088    -0.407    -1.306 
 C                     2.584    -1.481    -2.186 
 C                     1.208    -2.046    -1.763 
 S                     1.786    -3.812    -1.949 
 O                     1.548    -4.287    -3.38 
 C                     3.35     -2.792    -1.879 
 C                     2.603    -1.167    -3.694 
 C                     3.983    -0.791    -4.262 
 C                     3.959    -0.67     -5.771 
 C                     3.753     0.57     -6.389 
 C                     3.702     0.679    -7.781 
 C                     3.859    -0.456    -8.579 
 C                     4.067    -1.699    -7.974 
 C                     4.116    -1.802    -6.583 
 C                     2.186     2.124    -2.292 
 C                     0.998     2.23     -3.015 
 C                     0.934     3.125    -4.083 
 C                     2.049     3.899    -4.415 
 C                     3.232     3.786    -3.678 
 C                     3.308     2.896    -2.607 
 O                     3.107     1.626     0.119 
 H                     4.085    -0.215    -1.416 
 H                     0.351    -1.809    -2.395 
 H                     0.972    -1.871    -0.715 
 H                     4.104    -3.117    -2.597 
 H                     3.741    -2.831    -0.861 
 H                     1.887    -0.366    -3.903 
 H                     2.231    -2.063    -4.201 
 H                     4.714    -1.553    -3.971 
 H                     4.317     0.156    -3.829 
 H                     3.635     1.458    -5.775 
 H                     3.545     1.65     -8.24 
 H                     3.824    -0.374    -9.66 
 H                     4.195    -2.586    -8.586 
 H                     4.282    -2.771    -6.121 
 H                     0.14      1.632    -2.733 
 H                     0.014     3.219    -4.649 
 H                     1.994     4.596    -5.245 
 H                     4.093     4.396    -3.93 
 H                     4.214     2.814    -2.018 
 
 NAtoms=     42 NQM=       42 NQMF=       0 NMMI=      0 NMMIF=      0
                NMic=       0 NMicF=      0.
                    Isotopes and Nuclear Properties:
 (Nuclear quadrupole moments (NQMom) in fm**2, nuclear magnetic moments (NMagM)
  in nuclear magnetons)

  Atom         1           2           3           4           5           6           7           8           9          10
 IAtWgt=          16          32          14          12          12          32          16          12          12          12
 AtmWgt=  15.9949146  31.9720718  14.0030740  12.0000000  12.0000000  31.9720718  15.9949146  12.0000000  12.0000000  12.0000000
 NucSpn=           0           0           2           0           0           0           0           0           0           0
 AtZEff=   0.0000000   0.0000000   0.0000000   0.0000000   0.0000000   0.0000000   0.0000000   0.0000000   0.0000000   0.0000000
 NQMom=    0.0000000   0.0000000   2.0440000   0.0000000   0.0000000   0.0000000   0.0000000   0.0000000   0.0000000   0.0000000
 NMagM=    0.0000000   0.0000000   0.4037610   0.0000000   0.0000000   0.0000000   0.0000000   0.0000000   0.0000000   0.0000000
 AtZNuc=   8.0000000  16.0000000   7.0000000   6.0000000   6.0000000  16.0000000   8.0000000   6.0000000   6.0000000   6.0000000

  Atom        11          12          13          14          15          16          17          18          19          20
 IAtWgt=          12          12          12          12          12          12          12          12          12          12
 AtmWgt=  12.0000000  12.0000000  12.0000000  12.0000000  12.0000000  12.0000000  12.0000000  12.0000000  12.0000000  12.0000000
 NucSpn=           0           0           0           0           0           0           0           0           0           0
 AtZEff=   0.0000000   0.0000000   0.0000000   0.0000000   0.0000000   0.0000000   0.0000000   0.0000000   0.0000000   0.0000000
 NQMom=    0.0000000   0.0000000   0.0000000   0.0000000   0.0000000   0.0000000   0.0000000   0.0000000   0.0000000   0.0000000
 NMagM=    0.0000000   0.0000000   0.0000000   0.0000000   0.0000000   0.0000000   0.0000000   0.0000000   0.0000000   0.0000000
 AtZNuc=   6.0000000   6.0000000   6.0000000   6.0000000   6.0000000   6.0000000   6.0000000   6.0000000   6.0000000   6.0000000

  Atom        21          22          23          24          25          26          27          28          29          30
 IAtWgt=          12          12          16           1           1           1           1           1           1           1
 AtmWgt=  12.0000000  12.0000000  15.9949146   1.0078250   1.0078250   1.0078250   1.0078250   1.0078250   1.0078250   1.0078250
 NucSpn=           0           0           0           1           1           1           1           1           1           1
 AtZEff=   0.0000000   0.0000000   0.0000000   0.0000000   0.0000000   0.0000000   0.0000000   0.0000000   0.0000000   0.0000000
 NQMom=    0.0000000   0.0000000   0.0000000   0.0000000   0.0000000   0.0000000   0.0000000   0.0000000   0.0000000   0.0000000
 NMagM=    0.0000000   0.0000000   0.0000000   2.7928460   2.7928460   2.7928460   2.7928460   2.7928460   2.7928460   2.7928460
 AtZNuc=   6.0000000   6.0000000   8.0000000   1.0000000   1.0000000   1.0000000   1.0000000   1.0000000   1.0000000   1.0000000

  Atom        31          32          33          34          35          36          37          38          39          40
 IAtWgt=           1           1           1           1           1           1           1           1           1           1
 AtmWgt=   1.0078250   1.0078250   1.0078250   1.0078250   1.0078250   1.0078250   1.0078250   1.0078250   1.0078250   1.0078250
 NucSpn=           1           1           1           1           1           1           1           1           1           1
 AtZEff=   0.0000000   0.0000000   0.0000000   0.0000000   0.0000000   0.0000000   0.0000000   0.0000000   0.0000000   0.0000000
 NQMom=    0.0000000   0.0000000   0.0000000   0.0000000   0.0000000   0.0000000   0.0000000   0.0000000   0.0000000   0.0000000
 NMagM=    2.7928460   2.7928460   2.7928460   2.7928460   2.7928460   2.7928460   2.7928460   2.7928460   2.7928460   2.7928460
 AtZNuc=   1.0000000   1.0000000   1.0000000   1.0000000   1.0000000   1.0000000   1.0000000   1.0000000   1.0000000   1.0000000

  Atom        41          42
 IAtWgt=           1           1
 AtmWgt=   1.0078250   1.0078250
 NucSpn=           1           1
 AtZEff=   0.0000000   0.0000000
 NQMom=    0.0000000   0.0000000
 NMagM=    2.7928460   2.7928460
 AtZNuc=   1.0000000   1.0000000
 Leave Link  101 at Sat Aug  8 02:20:24 2020, MaxMem=    33554432 cpu:         0.1
 (Enter /prod/apps/gaussian/g09d1/l202.exe)
                          Input orientation:                          
 ---------------------------------------------------------------------
 Center     Atomic      Atomic             Coordinates (Angstroms)
 Number     Number       Type             X           Y           Z
 ---------------------------------------------------------------------
      1          8           0        0.887000    0.593000   -0.586000
      2         16           0        2.267000    0.988000   -0.906000
      3          7           0        3.088000   -0.407000   -1.306000
      4          6           0        2.584000   -1.481000   -2.186000
      5          6           0        1.208000   -2.046000   -1.763000
      6         16           0        1.786000   -3.812000   -1.949000
      7          8           0        1.548000   -4.287000   -3.380000
      8          6           0        3.350000   -2.792000   -1.879000
      9          6           0        2.603000   -1.167000   -3.694000
     10          6           0        3.983000   -0.791000   -4.262000
     11          6           0        3.959000   -0.670000   -5.771000
     12          6           0        3.753000    0.570000   -6.389000
     13          6           0        3.702000    0.679000   -7.781000
     14          6           0        3.859000   -0.456000   -8.579000
     15          6           0        4.067000   -1.699000   -7.974000
     16          6           0        4.116000   -1.802000   -6.583000
     17          6           0        2.186000    2.124000   -2.292000
     18          6           0        0.998000    2.230000   -3.015000
     19          6           0        0.934000    3.125000   -4.083000
     20          6           0        2.049000    3.899000   -4.415000
     21          6           0        3.232000    3.786000   -3.678000
     22          6           0        3.308000    2.896000   -2.607000
     23          8           0        3.107000    1.626000    0.119000
     24          1           0        4.085000   -0.215000   -1.416000
     25          1           0        0.351000   -1.809000   -2.395000
     26          1           0        0.972000   -1.871000   -0.715000
     27          1           0        4.104000   -3.117000   -2.597000
     28          1           0        3.741000   -2.831000   -0.861000
     29          1           0        1.887000   -0.366000   -3.903000
     30          1           0        2.231000   -2.063000   -4.201000
     31          1           0        4.714000   -1.553000   -3.971000
     32          1           0        4.317000    0.156000   -3.829000
     33          1           0        3.635000    1.458000   -5.775000
     34          1           0        3.545000    1.650000   -8.240000
     35          1           0        3.824000   -0.374000   -9.660000
     36          1           0        4.195000   -2.586000   -8.586000
     37          1           0        4.282000   -2.771000   -6.121000
     38          1           0        0.140000    1.632000   -2.733000
     39          1           0        0.014000    3.219000   -4.649000
     40          1           0        1.994000    4.596000   -5.245000
     41          1           0        4.093000    4.396000   -3.930000
     42          1           0        4.214000    2.814000   -2.018000
 ---------------------------------------------------------------------
                    Distance matrix (angstroms):
                    1          2          3          4          5
     1  O    0.000000
     2  S    1.470655   0.000000
     3  N    2.522459   1.667353   0.000000
     4  C    3.121103   2.799080   1.477123   0.000000
     5  C    2.907351   3.325821   2.535660   1.546457   0.000000
     6  S    4.697871   4.935505   3.701713   2.475184   1.867468
     7  O    5.661957   5.870542   4.661274   3.220647   2.784308
     8  C    4.381375   4.050681   2.466819   1.549105   2.271153
     9  C    3.962565   3.539755   2.552522   1.540461   2.539178
    10  C    5.001365   4.168001   3.112301   2.596744   3.939626
    11  C    6.157644   5.411105   4.556757   3.924356   5.052271
    12  C    6.472194   5.696157   5.218586   4.820619   5.892398
    13  C    7.726555   7.029960   6.594090   6.100783   7.061302
    14  C    8.591928   7.968345   7.313916   6.598992   7.484234
    15  C    8.363505   7.772811   6.862210   5.978943   6.846226
    16  C    7.219867   6.590237   5.554236   4.667298   5.634572
    17  C    2.634729   1.793893   2.862125   3.628452   4.315695
    18  C    2.931234   2.756956   3.773930   4.119971   4.460469
    19  C    4.317666   4.054255   4.982617   5.247508   5.674215
    20  C    5.190484   4.564485   5.411750   5.847997   6.563795
    21  C    5.025409   4.055122   4.819582   5.512464   6.463438
    22  C    3.905060   2.759990   3.556798   4.456405   5.435596
    23  O    2.548041   1.470806   2.482756   3.903845   4.542214
    24  H    3.401319   2.238846   1.021260   2.109184   3.427842
    25  H    3.054404   3.702889   3.262314   2.266617   1.090890
    26  H    2.468838   3.144422   2.640082   2.216864   1.088405
    27  H    5.306346   4.804693   3.169075   2.270642   3.198345
    28  H    4.465951   4.093832   2.549551   2.217380   2.801057
    29  H    3.594742   3.310548   2.861554   2.162666   2.804111
    30  H    4.682830   4.490760   3.443517   2.126866   2.643986
    31  H    5.541613   4.673191   3.325570   2.779984   4.172571
    32  H    4.740561   3.665877   2.862331   2.895256   4.333941
    33  H    5.935103   5.079319   4.873335   4.756390   5.853588
    34  H    8.171042   7.473893   7.247100   6.883139   7.814955
    35  H    9.586372   8.995099   8.386424   7.656613   8.485379
    36  H    9.222196   8.687523   7.679316   6.691513   7.467737
    37  H    7.312916   6.736953   5.495303   4.475660   5.382125
    38  H    2.499428   2.876942   3.858051   3.995387   3.950849
    39  H    4.915890   4.905448   5.811454   5.895869   6.121671
    40  H    6.241453   5.649700   6.460849   6.829020   7.540443
    41  H    5.993628   4.908494   5.564549   6.313299   7.383663
    42  H    4.248811   2.891648   3.485636   4.596972   5.720198
                    6          7          8          9         10
     6  S    0.000000
     7  O    1.526444   0.000000
     8  C    1.868528   2.781228   0.000000
     9  C    3.272390   3.308477   2.548109   0.000000
    10  C    4.393543   4.350766   3.175434   1.538961   0.000000
    11  C    5.403867   4.961098   4.474531   2.529758   1.514034
    12  C    6.540995   6.124260   5.639641   3.406273   2.535616
    13  C    7.606074   6.976365   6.856045   4.617260   3.824032
    14  C    7.714724   6.859073   7.113788   5.093749   4.331754
    15  C    6.779997   5.843624   6.233600   4.554637   3.822364
    16  C    5.562639   4.798860   4.867697   3.322456   2.535123
    17  C    5.959341   6.533889   5.068779   3.601413   3.950612
    18  C    6.185715   6.550345   5.660643   3.817941   4.426248
    19  C    7.307656   7.470539   6.760589   4.621487   4.966236
    20  C    8.099990   8.266367   7.272783   5.146952   5.075418
    21  C    7.925274   8.252151   6.820587   4.992805   4.674825
    22  C    6.909900   7.435766   5.734552   4.264571   4.097392
    23  O    5.966030   7.045357   4.854871   4.753297   5.079609
    24  H    4.302081   5.184096   2.719471   2.879568   2.905494
    25  H    2.504027   2.922930   3.197897   2.677885   4.208733
    26  H    2.439843   3.642946   2.803216   3.468460   4.776372
    27  H    2.505205   2.918069   1.090718   2.694236   2.863065
    28  H    2.442976   3.643425   1.091204   3.477043   3.973281
    29  H    3.962730   3.970226   3.481727   1.094504   2.168576
    30  H    2.885919   2.467125   2.678672   1.094646   2.165920
    31  H    4.214825   4.224641   2.787845   2.163804   1.095302
    32  H    5.068075   5.254447   3.664464   2.169412   1.093551
    33  H    6.769784   6.564802   5.772568   3.505169   2.732814
    34  H    8.514940   7.928151   7.760909   5.430375   4.687730
    35  H    8.685206   7.741456   8.161823   6.141079   5.416417
    36  H    7.166319   6.082964   6.763158   5.336636   4.686571
    37  H    4.971849   4.157655   4.343228   3.358897   2.732340
    38  H    5.741177   6.118467   5.532196   3.850233   4.793477
    39  H    7.737244   7.765536   7.411742   5.181886   5.655336
    40  H    9.033346   9.087620   8.231114   5.999054   5.825992
    41  H    8.753164   9.064988   7.511724   5.763919   5.198778
    42  H    7.057182   7.706283   5.673892   4.610061   4.252637
                   11         12         13         14         15
    11  C    0.000000
    12  C    1.400700   0.000000
    13  C    2.434327   1.397192   0.000000
    14  C    2.817918   2.420746   1.396309   0.000000
    15  C    2.433868   2.785531   2.413578   1.397976   0.000000
    16  C    1.401933   2.407444   2.786030   2.421112   1.395669
    17  C    4.801396   4.653581   5.874981   6.998693   7.102015
    18  C    4.977254   4.661491   5.694908   6.808672   7.031890
    19  C    5.138287   4.448867   5.226848   6.449279   6.944534
    20  C    5.134452   4.228774   4.942749   6.291345   6.933715
    21  C    4.976456   4.238351   5.168071   6.512104   7.016984
    22  C    4.811554   4.462267   5.642748   6.870538   7.105969
    23  O    6.378842   6.624690   7.978774   8.975268   8.801924
    24  H    4.380517   5.045511   6.438878   7.170615   6.723834
    25  H    5.070736   5.760667   6.813835   7.237301   6.704178
    26  H    5.993972   6.773974   7.992731   8.495851   7.893142
    27  H    4.010375   5.300607   6.437785   6.551738   5.560955
    28  H    5.368943   6.490434   7.759383   8.076018   7.209887
    29  H    2.806247   3.246267   4.407395   5.075614   4.806488
    30  H    2.718701   3.746534   4.743291   4.939607   4.211760
    31  H    2.142362   3.358180   4.530129   4.813325   4.057577
    32  H    2.140515   2.653882   4.033616   4.811113   4.548027
    33  H    2.152528   1.086031   2.152990   3.402350   3.871547
    34  H    3.413174   2.153106   1.085436   2.156097   3.399859
    35  H    3.902584   3.405234   2.157391   1.084670   2.158071
    36  H    3.413353   3.870725   3.398720   2.156350   1.085217
    37  H    2.154305   3.393221   3.872273   3.402928   2.151515
    38  H    5.395684   5.248614   6.251268   7.236465   7.347447
    39  H    5.652100   4.901522   5.464647   6.613210   7.188126
    40  H    5.645233   4.539988   4.969049   6.333758   7.167412
    41  H    5.391808   4.560763   5.366486   6.723828   7.314618
    42  H    5.127211   4.934947   6.167053   7.339322   7.474136
                   16         17         18         19         20
    16  C    0.000000
    17  C    6.127892   0.000000
    18  C    6.221702   1.394743   0.000000
    19  C    6.375771   2.403578   1.394900   0.000000
    20  C    6.440040   2.770654   2.418711   1.397328   0.000000
    21  C    6.359735   2.403613   2.802046   2.425232   1.398366
    22  C    6.207467   1.397889   2.438467   2.804798   2.420734
    23  O    7.595135   2.628529   3.825526   4.962432   5.181028
    24  H    5.405314   3.137594   4.250223   5.310112   5.483092
    25  H    5.631573   4.341235   4.137213   5.247246   6.288471
    26  H    6.657546   4.463267   4.702008   6.025353   6.938503
    27  H    4.197328   5.589260   6.197771   7.156791   7.533419
    28  H    5.825869   5.386818   6.146339   7.330380   7.796581
    29  H    3.770005   2.980742   2.884108   3.623215   4.298676
    30  H    3.048815   4.601877   4.621335   5.348970   5.968615
    31  H    2.691124   4.767615   5.388291   6.015366   6.084707
    32  H    3.385067   3.282766   3.997478   4.508233   4.415571
    33  H    3.392908   3.830724   3.894529   3.596826   3.213017
    34  H    3.871433   6.119662   5.841595   5.125778   4.682589
    35  H    3.404758   7.950501   7.676139   7.190134   6.994225
    36  H    2.152419   8.113853   8.028120   7.970361   8.003611
    37  H    1.086260   6.558619   6.741060   7.079927   7.237791
    38  H    6.513327   2.150037   1.083186   2.163789   3.407740
    39  H    6.765885   3.387043   2.148565   1.084247   2.158328
    40  H    6.872229   3.855886   3.400422   2.153528   1.085235
    41  H    6.741969   3.388462   3.886876   3.408538   2.158743
    42  H    6.492787   2.159620   3.417268   3.888360   3.407354
                   21         22         23         24         25
    21  C    0.000000
    22  C    1.394603   0.000000
    23  O    4.370176   3.014030   0.000000
    24  H    4.674639   3.420604   2.588820   0.000000
    25  H    6.422638   5.561099   5.070992   4.176366   0.000000
    26  H    6.774114   5.635676   4.181243   3.595067   1.792173
    27  H    7.041332   6.065467   5.555782   3.133165   3.979532
    28  H    7.209664   6.002877   4.607299   2.696260   3.858723
    29  H    4.370212   3.786753   4.651123   3.322525   2.591449
    30  H    5.957040   5.319064   5.747912   3.822126   2.619266
    31  H    5.548612   4.861166   5.423706   2.951933   4.645975
    32  H    3.791692   3.165275   4.383116   2.452353   4.652605
    33  H    3.159019   3.494424   5.919987   4.690662   5.734313
    34  H    5.047010   5.774026   8.370502   7.094843   7.505354
    35  H    7.310293   7.791275  10.007144   8.249663   8.179314
    36  H    8.100507   8.160119   9.731481   7.552658   7.328611
    37  H    7.075662   6.738825   7.723460   5.358075   5.501025
    38  H    3.884997   3.413180   4.115462   4.550706   3.463993
    39  H    3.408791   3.889027   5.902383   6.230384   5.520405
    40  H    2.155048   3.402299   6.231546   6.494555   7.200415
    41  H    1.084862   2.148617   5.003948   5.251817   7.406809
    42  H    2.159794   1.083735   2.683945   3.090936   6.036309
                   26         27         28         29         30
    26  H    0.000000
    27  H    3.860552   0.000000
    28  H    2.934327   1.796458   0.000000
    29  H    3.642196   3.766793   4.332125   0.000000
    30  H    3.711353   2.681765   3.745067   1.756972   0.000000
    31  H    4.970435   2.169348   3.500302   3.066842   2.545248
    32  H    4.999475   3.503673   4.250055   2.486536   3.068182
    33  H    6.616450   5.590194   6.523354   3.144338   4.104404
    34  H    8.697321   7.408118   8.635243   5.061896   5.641497
    35  H    9.507257   7.582112   9.135980   6.074132   5.932205
    36  H    8.535315   6.013182   7.742207   5.673249   4.833120
    37  H    6.402416   3.545416   5.288089   4.054574   2.897286
    38  H    4.127415   6.187471   6.032409   2.900502   4.492252
    39  H    6.504016   7.815606   8.052451   4.113012   5.745896
    40  H    7.961625   8.423442   8.799534   5.141387   6.744508
    41  H    7.704035   7.630346   7.859529   5.248220   6.727493
    42  H    5.844450   5.960210   5.781730   4.368129   5.699378
                   31         32         33         34         35
    31  H    0.000000
    32  H    1.760243   0.000000
    33  H    3.672163   2.438697   0.000000
    34  H    5.463527   4.720693   2.474104   0.000000
    35  H    5.877658   5.875756   4.299438   2.488135   0.000000
    36  H    4.757591   5.492039   4.956739   4.299525   2.486777
    37  H    2.508515   3.717771   4.292175   4.957678   4.298825
    38  H    5.709496   4.563674   4.636708   6.474674   8.098100
    39  H    6.732137   5.345108   4.180985   5.274941   7.248163
    40  H    6.843367   5.207205   3.580618   4.478230   6.895073
    41  H    5.981465   4.247114   3.499376   5.139739   7.460440
    42  H    4.809875   3.217964   4.035967   6.365198   8.289488
                   36         37         38         39         40
    36  H    0.000000
    37  H    2.473463   0.000000
    38  H    8.275999   6.929727   0.000000
    39  H    8.165706   7.500847   2.491084   0.000000
    40  H    8.221180   7.763698   4.304969   2.484300   0.000000
    41  H    8.392679   7.496805   4.969780   4.305872   2.484960
    42  H    8.502881   6.930473   4.301840   4.972543   4.303191
                   41         42
    41  H    0.000000
    42  H    2.484574   0.000000
 Stoichiometry    C17H19NO3S2
 Framework group  C1[X(C17H19NO3S2)]
 Deg. of freedom   120
 Full point group                 C1      NOp   1
 Largest Abelian subgroup         C1      NOp   1
 Largest concise Abelian subgroup C1      NOp   1
                         Standard orientation:                         
 ---------------------------------------------------------------------
 Center     Atomic      Atomic             Coordinates (Angstroms)
 Number     Number       Type             X           Y           Z
 ---------------------------------------------------------------------
      1          8           0       -3.247286   -0.486999    0.915972
      2         16           0       -2.597635   -0.920517   -0.330158
      3          7           0       -1.880341    0.429565   -0.995618
      4          6           0       -1.087365    1.435100   -0.259426
      5          6           0       -1.821206    2.046242    0.956926
      6         16           0       -1.345548    3.785705    0.471691
      7          8           0        0.000424    4.147478    1.094196
      8          6           0       -1.069860    2.758419   -1.064563
      9          6           0        0.339354    1.001629    0.127353
     10          6           0        1.228412    0.567267   -1.051335
     11          6           0        2.659792    0.326536   -0.620638
     12          6           0        3.098084   -0.956613   -0.269371
     13          6           0        4.410866   -1.175771    0.155741
     14          6           0        5.309238   -0.109728    0.234212
     15          6           0        4.884197    1.175354   -0.115422
     16          6           0        3.571355    1.388472   -0.538408
     17          6           0       -1.380470   -2.162558    0.110180
     18          6           0       -1.017437   -2.313602    1.448351
     19          6           0       -0.081528   -3.290233    1.788955
     20          6           0        0.477631   -4.099740    0.796702
     21          6           0        0.100369   -3.940550   -0.540369
     22          6           0       -0.835562   -2.968787   -0.893395
     23          8           0       -3.403915   -1.483374   -1.423947
     24          1           0       -1.519812    0.219101   -1.927657
     25          1           0       -1.466154    1.768459    1.950313
     26          1           0       -2.904412    1.957847    0.897967
     27          1           0       -0.150839    3.017294   -1.591866
     28          1           0       -1.937276    2.874454   -1.716370
     29          1           0        0.281984    0.193958    0.863772
     30          1           0        0.796149    1.858130    0.633311
     31          1           0        1.208087    1.342451   -1.824874
     32          1           0        0.828241   -0.345578   -1.501257
     33          1           0        2.406444   -1.791537   -0.332615
     34          1           0        4.731328   -2.178615    0.419898
     35          1           0        6.330178   -0.277330    0.559943
     36          1           0        5.576550    2.009337   -0.062357
     37          1           0        3.250296    2.389469   -0.812064
     38          1           0       -1.472965   -1.686171    2.204735
     39          1           0        0.204513   -3.419563    2.826763
     40          1           0        1.203434   -4.860121    1.066451
     41          1           0        0.526978   -4.577580   -1.307913
     42          1           0       -1.148417   -2.849439   -1.924103
 ---------------------------------------------------------------------
 Rotational constants (GHZ):      0.2322194      0.2086710      0.1241792
 Leave Link  202 at Sat Aug  8 02:20:24 2020, MaxMem=    33554432 cpu:         0.0
 (Enter /prod/apps/gaussian/g09d1/l301.exe)
 Standard basis: 6-31G(d) (6D, 7F)
 Ernie: Thresh=  0.10000D-02 Tol=  0.10000D-05 Strict=F.
 There are   391 symmetry adapted cartesian basis functions of A   symmetry.
 There are   391 symmetry adapted basis functions of A   symmetry.
   391 basis functions,   768 primitive gaussians,   391 cartesian basis functions
    92 alpha electrons       92 beta electrons
       nuclear repulsion energy      2307.0208746967 Hartrees.
 IExCor=  402 DFT=T Ex+Corr=B3LYP ExCW=0 ScaHFX=  0.200000
 ScaDFX=  0.800000  0.720000  1.000000  0.810000 ScalE2=  1.000000  1.000000
 IRadAn=      0 IRanWt=     -1 IRanGd=            0 ICorTp=0 IEmpDi=  4
 NAtoms=   42 NActive=   42 NUniq=   42 SFac= 1.00D+00 NAtFMM=   60 NAOKFM=F Big=F
 Integral buffers will be    131072 words long.
 Raffenetti 2 integral format.
 Two-electron integral symmetry is turned on.
 Leave Link  301 at Sat Aug  8 02:20:24 2020, MaxMem=    33554432 cpu:         0.0
 (Enter /prod/apps/gaussian/g09d1/l302.exe)
 NPDir=0 NMtPBC=     1 NCelOv=     1 NCel=       1 NClECP=     1 NCelD=      1
         NCelK=      1 NCelE2=     1 NClLst=     1 CellRange=     0.0.
 One-electron integrals computed using PRISM.
 NBasis=   391 RedAO= T EigKep=  4.53D-04  NBF=   391
 NBsUse=   391 1.00D-06 EigRej= -1.00D+00 NBFU=   391
 Precomputing XC quadrature grid using
 IXCGrd= 4 IRadAn=           0 IRanWt=          -1 IRanGd=           0 AccXCQ= 0.00D+00.
 Generated NRdTot=       0 NPtTot=           0 NUsed=           0 NTot=          32
 NSgBfM=   387   387   387   387   387 MxSgAt=    42 MxSgA2=    42.
 Leave Link  302 at Sat Aug  8 02:20:25 2020, MaxMem=    33554432 cpu:         1.5
 (Enter /prod/apps/gaussian/g09d1/l303.exe)
 DipDrv:  MaxL=1.
 Leave Link  303 at Sat Aug  8 02:20:25 2020, MaxMem=    33554432 cpu:         0.0
 (Enter /prod/apps/gaussian/g09d1/l401.exe)
 ExpMin= 1.17D-01 ExpMax= 2.19D+04 ExpMxC= 3.30D+03 IAcc=1 IRadAn=         1 AccDes= 0.00D+00
 Harris functional with IExCor=  402 and IRadAn=       1 diagonalized for initial guess.
 HarFok:  IExCor=  402 AccDes= 0.00D+00 IRadAn=         1 IDoV= 1 UseB2=F ITyADJ=14
 ICtDFT=  3500011 ScaDFX=  1.000000  1.000000  1.000000  1.000000
 FoFCou: FMM=F IPFlag=           0 FMFlag=      100000 FMFlg1=           0
         NFxFlg=           0 DoJE=T BraDBF=F KetDBF=T FulRan=T
         wScrn=  0.000000 ICntrl=     500 IOpCl=  0 I1Cent=   200000004 NGrid=           0
         NMat0=    1 NMatS0=      1 NMatT0=    0 NMatD0=    1 NMtDS0=    0 NMtDT0=    0
 Petite list used in FoFCou.
 Harris En= -1735.99765102570    
 JPrj=0 DoOrth=F DoCkMO=F.
 Leave Link  401 at Sat Aug  8 02:20:31 2020, MaxMem=    33554432 cpu:         5.7
 (Enter /prod/apps/gaussian/g09d1/l502.exe)
 Closed shell SCF:
 Using DIIS extrapolation, IDIIS=  1040.
 Integral symmetry usage will be decided dynamically.
 IVT=      482492 IEndB=      482492 NGot=    33554432 MDV=    33241853
 LenX=    33241853 LenY=    33088531
 Requested convergence on RMS density matrix=1.00D-08 within 128 cycles.
 Requested convergence on MAX density matrix=1.00D-06.
 Requested convergence on             energy=1.00D-06.
 No special actions if energy rises.
 Fock matrices will be formed incrementally for  20 cycles.
 Integral accuracy reduced to 1.0D-05 until final iterations.

 Cycle   1  Pass 0  IDiag  1:
 FoFJK:  IHMeth= 1 ICntrl=       0 DoSepK=F KAlg= 0 I1Cent=   0 FoldK=F
 IRaf= 760000000 NMat=   1 IRICut=       1 DoRegI=T DoRafI=F ISym2E= 0.
 FoFCou: FMM=F IPFlag=           0 FMFlag=      100000 FMFlg1=           0
         NFxFlg=           0 DoJE=F BraDBF=F KetDBF=F FulRan=T
         wScrn=  0.000000 ICntrl=       0 IOpCl=  0 I1Cent=           0 NGrid=           0
         NMat0=    1 NMatS0=      1 NMatT0=    0 NMatD0=    1 NMtDS0=    0 NMtDT0=    0
 Symmetry not used in FoFCou.
 E= -1735.08276199255    
 DIIS: error= 3.28D-02 at cycle   1 NSaved=   1.
 NSaved= 1 IEnMin= 1 EnMin= -1735.08276199255     IErMin= 1 ErrMin= 3.28D-02
 ErrMax= 3.28D-02  0.00D+00 EMaxC= 1.00D-01 BMatC= 9.22D-01 BMatP= 9.22D-01
 IDIUse=3 WtCom= 6.72D-01 WtEn= 3.28D-01
 Coeff-Com:  0.100D+01
 Coeff-En:   0.100D+01
 Coeff:      0.100D+01
 Gap=     0.244 Goal=   None    Shift=    0.000
 GapD=    0.244 DampG=1.000 DampE=0.500 DampFc=0.5000 IDamp=-1.
 Damping current iteration by 5.00D-01
 RMSDP=7.42D-03 MaxDP=5.83D-01              OVMax= 3.70D-01

 Cycle   2  Pass 0  IDiag  1:
 RMSU=  3.71D-03    CP:  9.97D-01
 E= -1735.19699471611     Delta-E=       -0.114232723553 Rises=F Damp=T
 DIIS: error= 1.69D-02 at cycle   2 NSaved=   2.
 NSaved= 2 IEnMin= 2 EnMin= -1735.19699471611     IErMin= 2 ErrMin= 1.69D-02
 ErrMax= 1.69D-02  0.00D+00 EMaxC= 1.00D-01 BMatC= 2.10D-01 BMatP= 9.22D-01
 IDIUse=3 WtCom= 8.31D-01 WtEn= 1.69D-01
 Coeff-Com:  0.277D+00 0.723D+00
 Coeff-En:   0.436D+00 0.564D+00
 Coeff:      0.304D+00 0.696D+00
 Gap=     0.276 Goal=   None    Shift=    0.000
 RMSDP=2.79D-03 MaxDP=1.49D-01 DE=-1.14D-01 OVMax= 2.66D-01

 Cycle   3  Pass 0  IDiag  1:
 RMSU=  2.04D-03    CP:  9.83D-01  4.94D-01
 E= -1735.75082012101     Delta-E=       -0.553825404905 Rises=F Damp=F
 DIIS: error= 1.62D-02 at cycle   3 NSaved=   3.
 NSaved= 3 IEnMin= 3 EnMin= -1735.75082012101     IErMin= 3 ErrMin= 1.62D-02
 ErrMax= 1.62D-02  0.00D+00 EMaxC= 1.00D-01 BMatC= 1.70D-01 BMatP= 2.10D-01
 IDIUse=3 WtCom= 8.38D-01 WtEn= 1.62D-01
 Coeff-Com:  0.121D+00 0.463D+00 0.416D+00
 Coeff-En:   0.000D+00 0.000D+00 0.100D+01
 Coeff:      0.101D+00 0.388D+00 0.511D+00
 Gap=     0.200 Goal=   None    Shift=    0.000
 RMSDP=1.88D-03 MaxDP=9.13D-02 DE=-5.54D-01 OVMax= 1.88D-01

 Cycle   4  Pass 0  IDiag  1:
 RMSU=  9.88D-04    CP:  9.92D-01  6.76D-01  2.92D-01
 E= -1735.87182530642     Delta-E=       -0.121005185406 Rises=F Damp=F
 DIIS: error= 1.02D-02 at cycle   4 NSaved=   4.
 NSaved= 4 IEnMin= 4 EnMin= -1735.87182530642     IErMin= 4 ErrMin= 1.02D-02
 ErrMax= 1.02D-02  0.00D+00 EMaxC= 1.00D-01 BMatC= 4.55D-02 BMatP= 1.70D-01
 IDIUse=3 WtCom= 8.98D-01 WtEn= 1.02D-01
 Coeff-Com:  0.267D-01 0.111D+00 0.338D+00 0.525D+00
 Coeff-En:   0.000D+00 0.000D+00 0.247D+00 0.753D+00
 Coeff:      0.240D-01 0.997D-01 0.328D+00 0.548D+00
 Gap=     0.185 Goal=   None    Shift=    0.000
 RMSDP=8.20D-04 MaxDP=4.56D-02 DE=-1.21D-01 OVMax= 8.86D-02

 Cycle   5  Pass 0  IDiag  1:
 RMSU=  3.46D-04    CP:  9.90D-01  6.02D-01  5.50D-01  5.46D-01
 E= -1735.90906268682     Delta-E=       -0.037237380399 Rises=F Damp=F
 DIIS: error= 2.55D-03 at cycle   5 NSaved=   5.
 NSaved= 5 IEnMin= 5 EnMin= -1735.90906268682     IErMin= 5 ErrMin= 2.55D-03
 ErrMax= 2.55D-03  0.00D+00 EMaxC= 1.00D-01 BMatC= 4.60D-03 BMatP= 4.55D-02
 IDIUse=3 WtCom= 9.74D-01 WtEn= 2.55D-02
 Coeff-Com:  0.174D-02 0.132D-01 0.149D+00 0.352D+00 0.484D+00
 Coeff-En:   0.000D+00 0.000D+00 0.000D+00 0.685D-01 0.932D+00
 Coeff:      0.170D-02 0.128D-01 0.145D+00 0.345D+00 0.495D+00
 Gap=     0.180 Goal=   None    Shift=    0.000
 RMSDP=2.48D-04 MaxDP=1.23D-02 DE=-3.72D-02 OVMax= 2.24D-02

 Cycle   6  Pass 0  IDiag  1:
 RMSU=  1.24D-04    CP:  9.90D-01  6.18D-01  5.19D-01  6.37D-01  4.90D-01
 E= -1735.91265652248     Delta-E=       -0.003593835660 Rises=F Damp=F
 DIIS: error= 9.42D-04 at cycle   6 NSaved=   6.
 NSaved= 6 IEnMin= 6 EnMin= -1735.91265652248     IErMin= 6 ErrMin= 9.42D-04
 ErrMax= 9.42D-04  0.00D+00 EMaxC= 1.00D-01 BMatC= 5.12D-04 BMatP= 4.60D-03
 IDIUse=3 WtCom= 9.91D-01 WtEn= 9.42D-03
 Coeff-Com: -0.144D-02-0.304D-02 0.424D-01 0.129D+00 0.305D+00 0.528D+00
 Coeff-En:   0.000D+00 0.000D+00 0.000D+00 0.000D+00 0.740D-01 0.926D+00
 Coeff:     -0.143D-02-0.301D-02 0.420D-01 0.128D+00 0.302D+00 0.532D+00
 Gap=     0.180 Goal=   None    Shift=    0.000
 RMSDP=7.54D-05 MaxDP=4.01D-03 DE=-3.59D-03 OVMax= 4.88D-03

 Cycle   7  Pass 0  IDiag  1:
 RMSU=  4.09D-05    CP:  9.90D-01  6.16D-01  5.22D-01  6.43D-01  5.73D-01
                    CP:  5.52D-01
 E= -1735.91303674386     Delta-E=       -0.000380221381 Rises=F Damp=F
 DIIS: error= 3.85D-04 at cycle   7 NSaved=   7.
 NSaved= 7 IEnMin= 7 EnMin= -1735.91303674386     IErMin= 7 ErrMin= 3.85D-04
 ErrMax= 3.85D-04  0.00D+00 EMaxC= 1.00D-01 BMatC= 5.18D-05 BMatP= 5.12D-04
 IDIUse=3 WtCom= 9.96D-01 WtEn= 3.85D-03
 Coeff-Com: -0.734D-03-0.305D-02 0.772D-02 0.323D-01 0.122D+00 0.312D+00
 Coeff-Com:  0.530D+00
 Coeff-En:   0.000D+00 0.000D+00 0.000D+00 0.000D+00 0.000D+00 0.614D-01
 Coeff-En:   0.939D+00
 Coeff:     -0.731D-03-0.304D-02 0.769D-02 0.322D-01 0.121D+00 0.311D+00
 Coeff:      0.532D+00
 Gap=     0.180 Goal=   None    Shift=    0.000
 RMSDP=2.41D-05 MaxDP=9.17D-04 DE=-3.80D-04 OVMax= 2.43D-03

 Cycle   8  Pass 0  IDiag  1:
 RMSU=  1.20D-05    CP:  9.90D-01  6.15D-01  5.23D-01  6.39D-01  5.79D-01
                    CP:  6.22D-01  5.55D-01
 E= -1735.91308659171     Delta-E=       -0.000049847853 Rises=F Damp=F
 DIIS: error= 1.00D-04 at cycle   8 NSaved=   8.
 NSaved= 8 IEnMin= 8 EnMin= -1735.91308659171     IErMin= 8 ErrMin= 1.00D-04
 ErrMax= 1.00D-04  0.00D+00 EMaxC= 1.00D-01 BMatC= 2.67D-06 BMatP= 5.18D-05
 IDIUse=3 WtCom= 9.99D-01 WtEn= 1.00D-03
 Coeff-Com: -0.126D-03-0.108D-02-0.733D-04 0.347D-02 0.316D-01 0.101D+00
 Coeff-Com:  0.256D+00 0.609D+00
 Coeff-En:   0.000D+00 0.000D+00 0.000D+00 0.000D+00 0.000D+00 0.000D+00
 Coeff-En:   0.000D+00 0.100D+01
 Coeff:     -0.126D-03-0.108D-02-0.732D-04 0.346D-02 0.315D-01 0.101D+00
 Coeff:      0.256D+00 0.610D+00
 Gap=     0.180 Goal=   None    Shift=    0.000
 RMSDP=6.65D-06 MaxDP=2.35D-04 DE=-4.98D-05 OVMax= 7.50D-04

 Initial convergence to 1.0D-05 achieved.  Increase integral accuracy.
 Cycle   9  Pass 1  IDiag  1:
 E= -1735.91286557365     Delta-E=        0.000221018059 Rises=F Damp=F
 DIIS: error= 6.54D-05 at cycle   1 NSaved=   1.
 NSaved= 1 IEnMin= 1 EnMin= -1735.91286557365     IErMin= 1 ErrMin= 6.54D-05
 ErrMax= 6.54D-05  0.00D+00 EMaxC= 1.00D-01 BMatC= 1.54D-06 BMatP= 1.54D-06
 IDIUse=1 WtCom= 1.00D+00 WtEn= 0.00D+00
 Coeff-Com:  0.100D+01
 Coeff:      0.100D+01
 Gap=     0.180 Goal=   None    Shift=    0.000
 RMSDP=6.65D-06 MaxDP=2.35D-04 DE= 2.21D-04 OVMax= 6.75D-04

 Cycle  10  Pass 1  IDiag  1:
 RMSU=  3.42D-05    CP:  1.00D+00
 E= -1735.91286543987     Delta-E=        0.000000133778 Rises=F Damp=F
 DIIS: error= 8.36D-05 at cycle   2 NSaved=   2.
 NSaved= 2 IEnMin= 1 EnMin= -1735.91286557365     IErMin= 1 ErrMin= 6.54D-05
 ErrMax= 8.36D-05  0.00D+00 EMaxC= 1.00D-01 BMatC= 1.64D-06 BMatP= 1.54D-06
 IDIUse=1 WtCom= 1.00D+00 WtEn= 0.00D+00
 Coeff-Com:  0.510D+00 0.490D+00
 Coeff:      0.510D+00 0.490D+00
 Gap=     0.180 Goal=   None    Shift=    0.000
 RMSDP=5.33D-06 MaxDP=1.88D-04 DE= 1.34D-07 OVMax= 6.41D-04

 Cycle  11  Pass 1  IDiag  1:
 RMSU=  5.28D-06    CP:  1.00D+00  9.79D-01
 E= -1735.91286679215     Delta-E=       -0.000001352281 Rises=F Damp=F
 DIIS: error= 4.06D-05 at cycle   3 NSaved=   3.
 NSaved= 3 IEnMin= 3 EnMin= -1735.91286679215     IErMin= 3 ErrMin= 4.06D-05
 ErrMax= 4.06D-05  0.00D+00 EMaxC= 1.00D-01 BMatC= 3.89D-07 BMatP= 1.54D-06
 IDIUse=1 WtCom= 1.00D+00 WtEn= 0.00D+00
 Coeff-Com:  0.317D-01 0.324D+00 0.644D+00
 Coeff:      0.317D-01 0.324D+00 0.644D+00
 Gap=     0.180 Goal=   None    Shift=    0.000
 RMSDP=1.97D-06 MaxDP=7.27D-05 DE=-1.35D-06 OVMax= 2.10D-04

 Cycle  12  Pass 1  IDiag  1:
 RMSU=  9.25D-07    CP:  1.00D+00  9.93D-01  6.84D-01
 E= -1735.91286717332     Delta-E=       -0.000000381169 Rises=F Damp=F
 DIIS: error= 7.01D-06 at cycle   4 NSaved=   4.
 NSaved= 4 IEnMin= 4 EnMin= -1735.91286717332     IErMin= 4 ErrMin= 7.01D-06
 ErrMax= 7.01D-06  0.00D+00 EMaxC= 1.00D-01 BMatC= 3.80D-08 BMatP= 3.89D-07
 IDIUse=1 WtCom= 1.00D+00 WtEn= 0.00D+00
 Coeff-Com: -0.349D-02 0.182D+00 0.405D+00 0.416D+00
 Coeff:     -0.349D-02 0.182D+00 0.405D+00 0.416D+00
 Gap=     0.180 Goal=   None    Shift=    0.000
 RMSDP=5.66D-07 MaxDP=3.70D-05 DE=-3.81D-07 OVMax= 3.86D-05

 Cycle  13  Pass 1  IDiag  1:
 RMSU=  2.41D-07    CP:  1.00D+00  9.94D-01  6.94D-01  4.51D-01
 E= -1735.91286720463     Delta-E=       -0.000000031307 Rises=F Damp=F
 DIIS: error= 2.05D-06 at cycle   5 NSaved=   5.
 NSaved= 5 IEnMin= 5 EnMin= -1735.91286720463     IErMin= 5 ErrMin= 2.05D-06
 ErrMax= 2.05D-06  0.00D+00 EMaxC= 1.00D-01 BMatC= 1.51D-09 BMatP= 3.80D-08
 IDIUse=1 WtCom= 1.00D+00 WtEn= 0.00D+00
 Coeff-Com: -0.355D-02 0.911D-01 0.206D+00 0.247D+00 0.459D+00
 Coeff:     -0.355D-02 0.911D-01 0.206D+00 0.247D+00 0.459D+00
 Gap=     0.180 Goal=   None    Shift=    0.000
 RMSDP=1.19D-07 MaxDP=1.00D-05 DE=-3.13D-08 OVMax= 7.20D-06

 Cycle  14  Pass 1  IDiag  1:
 RMSU=  8.21D-08    CP:  1.00D+00  9.94D-01  6.93D-01  4.69D-01  6.54D-01
 E= -1735.91286720572     Delta-E=       -0.000000001091 Rises=F Damp=F
 DIIS: error= 3.11D-07 at cycle   6 NSaved=   6.
 NSaved= 6 IEnMin= 6 EnMin= -1735.91286720572     IErMin= 6 ErrMin= 3.11D-07
 ErrMax= 3.11D-07  0.00D+00 EMaxC= 1.00D-01 BMatC= 8.18D-11 BMatP= 1.51D-09
 IDIUse=1 WtCom= 1.00D+00 WtEn= 0.00D+00
 Coeff-Com: -0.151D-02 0.307D-01 0.704D-01 0.909D-01 0.241D+00 0.569D+00
 Coeff:     -0.151D-02 0.307D-01 0.704D-01 0.909D-01 0.241D+00 0.569D+00
 Gap=     0.180 Goal=   None    Shift=    0.000
 RMSDP=3.29D-08 MaxDP=1.27D-06 DE=-1.09D-09 OVMax= 1.88D-06

 Cycle  15  Pass 1  IDiag  1:
 RMSU=  2.78D-08    CP:  1.00D+00  9.94D-01  6.93D-01  4.69D-01  6.87D-01
                    CP:  8.10D-01
 E= -1735.91286720584     Delta-E=       -0.000000000119 Rises=F Damp=F
 DIIS: error= 9.15D-08 at cycle   7 NSaved=   7.
 NSaved= 7 IEnMin= 7 EnMin= -1735.91286720584     IErMin= 7 ErrMin= 9.15D-08
 ErrMax= 9.15D-08  0.00D+00 EMaxC= 1.00D-01 BMatC= 1.10D-11 BMatP= 8.18D-11
 IDIUse=1 WtCom= 1.00D+00 WtEn= 0.00D+00
 Coeff-Com: -0.411D-03 0.584D-02 0.138D-01 0.201D-01 0.744D-01 0.313D+00
 Coeff-Com:  0.574D+00
 Coeff:     -0.411D-03 0.584D-02 0.138D-01 0.201D-01 0.744D-01 0.313D+00
 Coeff:      0.574D+00
 Gap=     0.180 Goal=   None    Shift=    0.000
 RMSDP=1.18D-08 MaxDP=8.17D-07 DE=-1.19D-10 OVMax= 7.42D-07

 Cycle  16  Pass 1  IDiag  1:
 RMSU=  7.36D-09    CP:  1.00D+00  9.94D-01  6.94D-01  4.72D-01  6.96D-01
                    CP:  8.44D-01  7.10D-01
 E= -1735.91286720585     Delta-E=       -0.000000000007 Rises=F Damp=F
 DIIS: error= 4.93D-08 at cycle   8 NSaved=   8.
 NSaved= 8 IEnMin= 8 EnMin= -1735.91286720585     IErMin= 8 ErrMin= 4.93D-08
 ErrMax= 4.93D-08  0.00D+00 EMaxC= 1.00D-01 BMatC= 1.60D-12 BMatP= 1.10D-11
 IDIUse=1 WtCom= 1.00D+00 WtEn= 0.00D+00
 Coeff-Com: -0.408D-04-0.601D-03-0.112D-02-0.523D-04 0.122D-01 0.111D+00
 Coeff-Com:  0.328D+00 0.550D+00
 Coeff:     -0.408D-04-0.601D-03-0.112D-02-0.523D-04 0.122D-01 0.111D+00
 Coeff:      0.328D+00 0.550D+00
 Gap=     0.180 Goal=   None    Shift=    0.000
 RMSDP=4.83D-09 MaxDP=2.95D-07 DE=-6.82D-12 OVMax= 2.72D-07

 SCF Done:  E(RB3LYP) =  -1735.91286721     A.U. after   16 cycles
            NFock= 16  Conv=0.48D-08     -V/T= 2.0068
 KE= 1.724204963162D+03 PE=-8.688047628892D+03 EE= 2.920908923827D+03
 Leave Link  502 at Sat Aug  8 02:28:53 2020, MaxMem=    33554432 cpu:       501.7
 (Enter /prod/apps/gaussian/g09d1/l601.exe)
 Copying SCF densities to generalized density rwf, IOpCl= 0 IROHF=0.

 **********************************************************************

            Population analysis using the SCF density.

 **********************************************************************

 Orbital symmetries:
       Occupied  (A) (A) (A) (A) (A) (A) (A) (A) (A) (A) (A) (A)
                 (A) (A) (A) (A) (A) (A) (A) (A) (A) (A) (A) (A)
                 (A) (A) (A) (A) (A) (A) (A) (A) (A) (A) (A) (A)
                 (A) (A) (A) (A) (A) (A) (A) (A) (A) (A) (A) (A)
                 (A) (A) (A) (A) (A) (A) (A) (A) (A) (A) (A) (A)
                 (A) (A) (A) (A) (A) (A) (A) (A) (A) (A) (A) (A)
                 (A) (A) (A) (A) (A) (A) (A) (A) (A) (A) (A) (A)
                 (A) (A) (A) (A) (A) (A) (A) (A)
       Virtual   (A) (A) (A) (A) (A) (A) (A) (A) (A) (A) (A) (A)
                 (A) (A) (A) (A) (A) (A) (A) (A) (A) (A) (A) (A)
                 (A) (A) (A) (A) (A) (A) (A) (A) (A) (A) (A) (A)
                 (A) (A) (A) (A) (A) (A) (A) (A) (A) (A) (A) (A)
                 (A) (A) (A) (A) (A) (A) (A) (A) (A) (A) (A) (A)
                 (A) (A) (A) (A) (A) (A) (A) (A) (A) (A) (A) (A)
                 (A) (A) (A) (A) (A) (A) (A) (A) (A) (A) (A) (A)
                 (A) (A) (A) (A) (A) (A) (A) (A) (A) (A) (A) (A)
                 (A) (A) (A) (A) (A) (A) (A) (A) (A) (A) (A) (A)
                 (A) (A) (A) (A) (A) (A) (A) (A) (A) (A) (A) (A)
                 (A) (A) (A) (A) (A) (A) (A) (A) (A) (A) (A) (A)
                 (A) (A) (A) (A) (A) (A) (A) (A) (A) (A) (A) (A)
                 (A) (A) (A) (A) (A) (A) (A) (A) (A) (A) (A) (A)
                 (A) (A) (A) (A) (A) (A) (A) (A) (A) (A) (A) (A)
                 (A) (A) (A) (A) (A) (A) (A) (A) (A) (A) (A) (A)
                 (A) (A) (A) (A) (A) (A) (A) (A) (A) (A) (A) (A)
                 (A) (A) (A) (A) (A) (A) (A) (A) (A) (A) (A) (A)
                 (A) (A) (A) (A) (A) (A) (A) (A) (A) (A) (A) (A)
                 (A) (A) (A) (A) (A) (A) (A) (A) (A) (A) (A) (A)
                 (A) (A) (A) (A) (A) (A) (A) (A) (A) (A) (A) (A)
                 (A) (A) (A) (A) (A) (A) (A) (A) (A) (A) (A) (A)
                 (A) (A) (A) (A) (A) (A) (A) (A) (A) (A) (A) (A)
                 (A) (A) (A) (A) (A) (A) (A) (A) (A) (A) (A) (A)
                 (A) (A) (A) (A) (A) (A) (A) (A) (A) (A) (A) (A)
                 (A) (A) (A) (A) (A) (A) (A) (A) (A) (A) (A)
 The electronic state is 1-A.
 Alpha  occ. eigenvalues --  -89.12074 -88.98771 -19.14735 -19.14369 -19.11472
 Alpha  occ. eigenvalues --  -14.38215 -10.26990 -10.24071 -10.22641 -10.22629
 Alpha  occ. eigenvalues --  -10.22339 -10.22206 -10.22105 -10.21976 -10.21946
 Alpha  occ. eigenvalues --  -10.20282 -10.20025 -10.19816 -10.19229 -10.19153
 Alpha  occ. eigenvalues --  -10.19053 -10.19017 -10.18989  -8.14523  -8.03576
 Alpha  occ. eigenvalues --   -6.11032  -6.10936  -6.10841  -5.99976  -5.99817
 Alpha  occ. eigenvalues --   -5.99353  -1.11436  -1.00319  -1.00201  -0.94621
 Alpha  occ. eigenvalues --   -0.88707  -0.85899  -0.85008  -0.79611  -0.78858
 Alpha  occ. eigenvalues --   -0.77694  -0.74462  -0.73961  -0.71031  -0.69460
 Alpha  occ. eigenvalues --   -0.66932  -0.63614  -0.63198  -0.60925  -0.60687
 Alpha  occ. eigenvalues --   -0.58320  -0.57367  -0.56397  -0.53082  -0.52049
 Alpha  occ. eigenvalues --   -0.51446  -0.49576  -0.48626  -0.48163  -0.47682
 Alpha  occ. eigenvalues --   -0.46900  -0.46046  -0.45250  -0.44510  -0.44406
 Alpha  occ. eigenvalues --   -0.43408  -0.43008  -0.42159  -0.41482  -0.40478
 Alpha  occ. eigenvalues --   -0.39925  -0.39570  -0.39537  -0.38875  -0.37588
 Alpha  occ. eigenvalues --   -0.37166  -0.36102  -0.35652  -0.34994  -0.34056
 Alpha  occ. eigenvalues --   -0.33988  -0.33725  -0.31939  -0.31250  -0.30542
 Alpha  occ. eigenvalues --   -0.29968  -0.28060  -0.27192  -0.26257  -0.25088
 Alpha  occ. eigenvalues --   -0.24490  -0.22906
 Alpha virt. eigenvalues --   -0.04938  -0.03192  -0.00369  -0.00233   0.00021
 Alpha virt. eigenvalues --    0.02799   0.04211   0.05516   0.07080   0.07571
 Alpha virt. eigenvalues --    0.08588   0.08747   0.09861   0.10500   0.10849
 Alpha virt. eigenvalues --    0.11225   0.12134   0.12789   0.13105   0.13851
 Alpha virt. eigenvalues --    0.14467   0.15049   0.15643   0.16421   0.16519
 Alpha virt. eigenvalues --    0.17228   0.17288   0.17829   0.18402   0.19000
 Alpha virt. eigenvalues --    0.19418   0.19948   0.20000   0.21303   0.24789
 Alpha virt. eigenvalues --    0.25494   0.26303   0.26781   0.27020   0.27727
 Alpha virt. eigenvalues --    0.29142   0.30279   0.30564   0.32064   0.32762
 Alpha virt. eigenvalues --    0.32823   0.33954   0.34662   0.35476   0.37060
 Alpha virt. eigenvalues --    0.40201   0.41345   0.43033   0.43599   0.45338
 Alpha virt. eigenvalues --    0.47695   0.48545   0.50118   0.50884   0.51485
 Alpha virt. eigenvalues --    0.52389   0.52951   0.53427   0.54164   0.54828
 Alpha virt. eigenvalues --    0.55402   0.55523   0.56710   0.57132   0.57802
 Alpha virt. eigenvalues --    0.58079   0.58381   0.58920   0.59452   0.59614
 Alpha virt. eigenvalues --    0.59958   0.60208   0.60679   0.60926   0.61626
 Alpha virt. eigenvalues --    0.61887   0.62399   0.62763   0.63313   0.64567
 Alpha virt. eigenvalues --    0.65128   0.66216   0.66589   0.68140   0.69153
 Alpha virt. eigenvalues --    0.70623   0.72110   0.72834   0.74611   0.74916
 Alpha virt. eigenvalues --    0.77348   0.77803   0.78879   0.79354   0.80222
 Alpha virt. eigenvalues --    0.81193   0.81848   0.82427   0.82883   0.83046
 Alpha virt. eigenvalues --    0.83827   0.84096   0.84606   0.85053   0.85619
 Alpha virt. eigenvalues --    0.86242   0.86708   0.87371   0.88247   0.88821
 Alpha virt. eigenvalues --    0.89726   0.89911   0.90516   0.91616   0.91918
 Alpha virt. eigenvalues --    0.91983   0.93165   0.93959   0.94793   0.95946
 Alpha virt. eigenvalues --    0.97253   0.98226   0.99073   1.00180   1.00978
 Alpha virt. eigenvalues --    1.02859   1.03662   1.04448   1.05536   1.06578
 Alpha virt. eigenvalues --    1.06956   1.07933   1.09298   1.10062   1.10543
 Alpha virt. eigenvalues --    1.11078   1.12202   1.13492   1.13928   1.14190
 Alpha virt. eigenvalues --    1.15303   1.17663   1.17755   1.18756   1.19434
 Alpha virt. eigenvalues --    1.20013   1.22350   1.22519   1.23523   1.24598
 Alpha virt. eigenvalues --    1.25807   1.28100   1.31095   1.33548   1.35000
 Alpha virt. eigenvalues --    1.37401   1.40080   1.40719   1.41558   1.41865
 Alpha virt. eigenvalues --    1.43415   1.43692   1.44916   1.45879   1.46425
 Alpha virt. eigenvalues --    1.47902   1.48215   1.48801   1.49436   1.50486
 Alpha virt. eigenvalues --    1.51287   1.54790   1.58622   1.59105   1.62410
 Alpha virt. eigenvalues --    1.63965   1.70836   1.72030   1.72869   1.74742
 Alpha virt. eigenvalues --    1.75574   1.76341   1.78683   1.79409   1.80132
 Alpha virt. eigenvalues --    1.81095   1.82164   1.82459   1.84043   1.84611
 Alpha virt. eigenvalues --    1.85615   1.85924   1.86392   1.88456   1.88927
 Alpha virt. eigenvalues --    1.89971   1.90243   1.92153   1.92912   1.93224
 Alpha virt. eigenvalues --    1.94317   1.95342   1.96486   1.96875   1.97765
 Alpha virt. eigenvalues --    1.98568   1.99751   2.02464   2.03044   2.04344
 Alpha virt. eigenvalues --    2.05067   2.06102   2.08081   2.09290   2.10426
 Alpha virt. eigenvalues --    2.11377   2.11808   2.12701   2.12860   2.13323
 Alpha virt. eigenvalues --    2.13846   2.14070   2.14757   2.15255   2.15627
 Alpha virt. eigenvalues --    2.19976   2.20595   2.23209   2.25363   2.26477
 Alpha virt. eigenvalues --    2.26874   2.27725   2.28138   2.29788   2.30164
 Alpha virt. eigenvalues --    2.30754   2.31228   2.32647   2.39216   2.41331
 Alpha virt. eigenvalues --    2.43167   2.45318   2.51439   2.52565   2.54972
 Alpha virt. eigenvalues --    2.56795   2.57362   2.57944   2.61867   2.64136
 Alpha virt. eigenvalues --    2.65952   2.68168   2.69010   2.70585   2.72011
 Alpha virt. eigenvalues --    2.72200   2.72750   2.73640   2.73968   2.74946
 Alpha virt. eigenvalues --    2.75705   2.76472   2.77372   2.80553   2.81371
 Alpha virt. eigenvalues --    2.87654   2.93411   3.01084   3.04808   3.35657
 Alpha virt. eigenvalues --    3.40719   3.75860   3.83202   3.92489   3.95996
 Alpha virt. eigenvalues --    3.99527   4.03658   4.08110   4.09219   4.10520
 Alpha virt. eigenvalues --    4.12882   4.14951   4.16172   4.22203   4.23423
 Alpha virt. eigenvalues --    4.31029   4.31422   4.33417   4.35134   4.40801
 Alpha virt. eigenvalues --    4.52944   4.63872   4.70523   4.72905
          Condensed to atoms (all electrons):
               1          2          3          4          5          6
     1  O    8.266405   0.413695  -0.051527  -0.000789   0.001635   0.000327
     2  S    0.413695  13.729047   0.126451  -0.006236  -0.003345   0.000485
     3  N   -0.051527   0.126451   7.391957   0.211122  -0.044976   0.003518
     4  C   -0.000789  -0.006236   0.211122   4.881240   0.332148  -0.060931
     5  C    0.001635  -0.003345  -0.044976   0.332148   5.631222   0.056266
     6  S    0.000327   0.000485   0.003518  -0.060931   0.056266  14.948732
     7  O    0.000000  -0.000001  -0.000047  -0.000136  -0.038860   0.299347
     8  C   -0.000023   0.001335  -0.046871   0.321151  -0.103488   0.035998
     9  C   -0.001068  -0.008383  -0.065434   0.346670  -0.051981   0.008024
    10  C    0.000014  -0.000327  -0.003927  -0.029323   0.004210  -0.000480
    11  C    0.000000  -0.000010   0.000413   0.003406  -0.000109   0.000020
    12  C    0.000000   0.000009  -0.000017   0.000072  -0.000002   0.000001
    13  C    0.000000   0.000000   0.000000   0.000002   0.000000   0.000000
    14  C    0.000000   0.000000   0.000000   0.000000   0.000000   0.000000
    15  C    0.000000   0.000000   0.000000   0.000003   0.000000   0.000000
    16  C    0.000000  -0.000001  -0.000002   0.000147  -0.000006  -0.000010
    17  C   -0.058399   0.158539  -0.057713  -0.001769  -0.000876   0.000004
    18  C    0.002354  -0.024370  -0.000938   0.000280  -0.000059   0.000002
    19  C    0.000623   0.002771  -0.000091   0.000048  -0.000001   0.000000
    20  C   -0.000006  -0.000361   0.000000   0.000003   0.000000   0.000000
    21  C   -0.000042   0.002540  -0.000073  -0.000006   0.000000   0.000000
    22  C    0.001960  -0.019961  -0.002032   0.000181  -0.000001   0.000001
    23  O   -0.042864   0.448367  -0.058049   0.002036  -0.000008   0.000002
    24  H    0.001853  -0.003196   0.285819  -0.025873   0.004723   0.000092
    25  H   -0.000164   0.000371   0.000902  -0.029182   0.357606  -0.020540
    26  H    0.004280  -0.001605  -0.000800  -0.024428   0.324792  -0.006686
    27  H    0.000000  -0.000051   0.001096  -0.028213   0.009734  -0.016676
    28  H   -0.000014  -0.000059   0.000721  -0.029331   0.003186  -0.002624
    29  H   -0.000035   0.002892  -0.003783  -0.030710  -0.005224  -0.000419
    30  H   -0.000016   0.000237   0.003796  -0.028356  -0.006715   0.004496
    31  H    0.000000   0.000039  -0.000557  -0.004807   0.000051  -0.000057
    32  H   -0.000010   0.000375   0.006139  -0.007441  -0.000011  -0.000053
    33  H    0.000000  -0.000036   0.000006  -0.000031   0.000001   0.000000
    34  H    0.000000   0.000000   0.000000   0.000000   0.000000   0.000000
    35  H    0.000000   0.000000   0.000000   0.000000   0.000000   0.000000
    36  H    0.000000   0.000000   0.000000   0.000000   0.000000   0.000000
    37  H    0.000000   0.000000   0.000001  -0.000087   0.000003   0.000013
    38  H    0.011218  -0.004336   0.000167   0.000053   0.000159   0.000003
    39  H    0.000002  -0.000045   0.000001   0.000000   0.000000   0.000000
    40  H    0.000000   0.000007   0.000000   0.000000   0.000000   0.000000
    41  H    0.000000  -0.000038   0.000002   0.000000   0.000000   0.000000
    42  H    0.000082   0.000262   0.000071   0.000018   0.000000   0.000000
               7          8          9         10         11         12
     1  O    0.000000  -0.000023  -0.001068   0.000014   0.000000   0.000000
     2  S   -0.000001   0.001335  -0.008383  -0.000327  -0.000010   0.000009
     3  N   -0.000047  -0.046871  -0.065434  -0.003927   0.000413  -0.000017
     4  C   -0.000136   0.321151   0.346670  -0.029323   0.003406   0.000072
     5  C   -0.038860  -0.103488  -0.051981   0.004210  -0.000109  -0.000002
     6  S    0.299347   0.035998   0.008024  -0.000480   0.000020   0.000001
     7  O    8.377490  -0.039193  -0.007728   0.000073   0.000010   0.000000
     8  C   -0.039193   5.718416  -0.063589  -0.007847   0.000228  -0.000007
     9  C   -0.007728  -0.063589   5.222710   0.340297  -0.040679  -0.003317
    10  C    0.000073  -0.007847   0.340297   5.207722   0.350984  -0.055230
    11  C    0.000010   0.000228  -0.040679   0.350984   4.628867   0.549759
    12  C    0.000000  -0.000007  -0.003317  -0.055230   0.549759   4.977341
    13  C    0.000000   0.000000  -0.000084   0.007113  -0.019298   0.520528
    14  C    0.000000   0.000000   0.000015   0.000366  -0.034469  -0.035424
    15  C    0.000000   0.000000  -0.000005   0.006812  -0.017752  -0.047648
    16  C   -0.000054   0.000000  -0.004201  -0.061720   0.545458  -0.036919
    17  C    0.000000  -0.000134   0.001828  -0.001002  -0.000109   0.000186
    18  C    0.000000  -0.000004  -0.002283   0.000242  -0.000096   0.000202
    19  C    0.000000   0.000000  -0.000328   0.000076  -0.000006   0.000033
    20  C    0.000000   0.000000   0.000012  -0.000002   0.000045  -0.001005
    21  C    0.000000   0.000000   0.000063  -0.000210   0.000056  -0.001374
    22  C    0.000000  -0.000009   0.000175  -0.000832  -0.000047  -0.000268
    23  O    0.000000  -0.000067  -0.000090   0.000005   0.000000   0.000000
    24  H    0.000002  -0.004938  -0.002450   0.003329   0.000019  -0.000003
    25  H    0.000294   0.009857  -0.003856   0.000127  -0.000007   0.000000
    26  H    0.001218   0.003079   0.004554  -0.000113   0.000001   0.000000
    27  H    0.000319   0.348373  -0.006116   0.001419  -0.000184   0.000002
    28  H    0.001258   0.321019   0.005197  -0.000053   0.000002   0.000000
    29  H    0.000214   0.005723   0.351543  -0.035386  -0.000870   0.003002
    30  H    0.024523  -0.007304   0.345761  -0.034815  -0.000572  -0.000066
    31  H    0.000040   0.003630  -0.045494   0.357359  -0.027353   0.003558
    32  H   -0.000002  -0.000050  -0.034940   0.343785  -0.024060  -0.004944
    33  H    0.000000   0.000000   0.000375  -0.011040  -0.043711   0.347049
    34  H    0.000000   0.000000   0.000000  -0.000188   0.003746  -0.040033
    35  H    0.000000   0.000000   0.000000   0.000007   0.000705   0.004720
    36  H    0.000000   0.000000  -0.000001  -0.000188   0.003660   0.000864
    37  H    0.000117  -0.000017   0.000175  -0.009688  -0.047118   0.006063
    38  H    0.000000   0.000003  -0.000198   0.000008   0.000000   0.000000
    39  H    0.000000   0.000000  -0.000004   0.000000   0.000000  -0.000003
    40  H    0.000000   0.000000   0.000000   0.000000   0.000001   0.000000
    41  H    0.000000   0.000000   0.000000  -0.000002   0.000001  -0.000008
    42  H    0.000000   0.000000  -0.000001  -0.000032   0.000001  -0.000004
              13         14         15         16         17         18
     1  O    0.000000   0.000000   0.000000   0.000000  -0.058399   0.002354
     2  S    0.000000   0.000000   0.000000  -0.000001   0.158539  -0.024370
     3  N    0.000000   0.000000   0.000000  -0.000002  -0.057713  -0.000938
     4  C    0.000002   0.000000   0.000003   0.000147  -0.001769   0.000280
     5  C    0.000000   0.000000   0.000000  -0.000006  -0.000876  -0.000059
     6  S    0.000000   0.000000   0.000000  -0.000010   0.000004   0.000002
     7  O    0.000000   0.000000   0.000000  -0.000054   0.000000   0.000000
     8  C    0.000000   0.000000   0.000000   0.000000  -0.000134  -0.000004
     9  C   -0.000084   0.000015  -0.000005  -0.004201   0.001828  -0.002283
    10  C    0.007113   0.000366   0.006812  -0.061720  -0.001002   0.000242
    11  C   -0.019298  -0.034469  -0.017752   0.545458  -0.000109  -0.000096
    12  C    0.520528  -0.035424  -0.047648  -0.036919   0.000186   0.000202
    13  C    4.873717   0.550892  -0.025349  -0.048169   0.000003   0.000002
    14  C    0.550892   4.853449   0.548054  -0.035220   0.000000   0.000000
    15  C   -0.025349   0.548054   4.865633   0.524187   0.000000   0.000000
    16  C   -0.048169  -0.035220   0.524187   4.960114  -0.000002  -0.000001
    17  C    0.000003   0.000000   0.000000  -0.000002   5.352645   0.507822
    18  C    0.000002   0.000000   0.000000  -0.000001   0.507822   4.936406
    19  C   -0.000012   0.000000   0.000000   0.000000  -0.030455   0.499998
    20  C   -0.000021   0.000000   0.000000   0.000000  -0.038149  -0.030020
    21  C    0.000005   0.000000   0.000000   0.000000  -0.027677  -0.037558
    22  C    0.000007   0.000000   0.000000   0.000000   0.471989  -0.039557
    23  O    0.000000   0.000000   0.000000   0.000000  -0.061574   0.000982
    24  H    0.000000   0.000000   0.000000   0.000001  -0.000816   0.000027
    25  H    0.000000   0.000000   0.000000   0.000000  -0.000043  -0.000017
    26  H    0.000000   0.000000   0.000000   0.000000   0.000164  -0.000010
    27  H    0.000000   0.000000  -0.000001   0.000009   0.000002   0.000000
    28  H    0.000000   0.000000   0.000000   0.000000   0.000007   0.000000
    29  H   -0.000092  -0.000005  -0.000006  -0.000121   0.000267   0.005738
    30  H   -0.000023   0.000000  -0.000172   0.003723   0.000038   0.000004
    31  H   -0.000211   0.000013   0.000077  -0.004725   0.000008   0.000000
    32  H    0.000078   0.000012  -0.000215   0.004218   0.001702  -0.000223
    33  H   -0.046212   0.004794   0.000319   0.006208  -0.000276  -0.000317
    34  H    0.355745  -0.043314   0.004580   0.000864   0.000000   0.000000
    35  H   -0.043497   0.359142  -0.042853   0.004732   0.000000   0.000000
    36  H    0.004566  -0.043267   0.357030  -0.038772   0.000000   0.000000
    37  H    0.000354   0.004816  -0.044008   0.356033   0.000000   0.000000
    38  H    0.000000   0.000000   0.000000   0.000000  -0.042714   0.358864
    39  H    0.000000   0.000000   0.000000   0.000000   0.004765  -0.041551
    40  H    0.000000   0.000000   0.000000   0.000000   0.000472   0.004808
    41  H   -0.000001   0.000000   0.000000   0.000000   0.004856   0.000635
    42  H    0.000000   0.000000   0.000000   0.000000  -0.049665   0.004469
              19         20         21         22         23         24
     1  O    0.000623  -0.000006  -0.000042   0.001960  -0.042864   0.001853
     2  S    0.002771  -0.000361   0.002540  -0.019961   0.448367  -0.003196
     3  N   -0.000091   0.000000  -0.000073  -0.002032  -0.058049   0.285819
     4  C    0.000048   0.000003  -0.000006   0.000181   0.002036  -0.025873
     5  C   -0.000001   0.000000   0.000000  -0.000001  -0.000008   0.004723
     6  S    0.000000   0.000000   0.000000   0.000001   0.000002   0.000092
     7  O    0.000000   0.000000   0.000000   0.000000   0.000000   0.000002
     8  C    0.000000   0.000000   0.000000  -0.000009  -0.000067  -0.004938
     9  C   -0.000328   0.000012   0.000063   0.000175  -0.000090  -0.002450
    10  C    0.000076  -0.000002  -0.000210  -0.000832   0.000005   0.003329
    11  C   -0.000006   0.000045   0.000056  -0.000047   0.000000   0.000019
    12  C    0.000033  -0.001005  -0.001374  -0.000268   0.000000  -0.000003
    13  C   -0.000012  -0.000021   0.000005   0.000007   0.000000   0.000000
    14  C    0.000000   0.000000   0.000000   0.000000   0.000000   0.000000
    15  C    0.000000   0.000000   0.000000   0.000000   0.000000   0.000000
    16  C    0.000000   0.000000   0.000000   0.000000   0.000000   0.000001
    17  C   -0.030455  -0.038149  -0.027677   0.471989  -0.061574  -0.000816
    18  C    0.499998  -0.030020  -0.037558  -0.039557   0.000982   0.000027
    19  C    4.882317   0.543829  -0.030419  -0.036318  -0.000047   0.000000
    20  C    0.543829   4.846244   0.540434  -0.030867  -0.000005   0.000000
    21  C   -0.030419   0.540434   4.879982   0.510159   0.000427   0.000026
    22  C   -0.036318  -0.030867   0.510159   4.951973   0.002775   0.000234
    23  O   -0.000047  -0.000005   0.000427   0.002775   8.232444   0.001604
    24  H    0.000000   0.000000   0.000026   0.000234   0.001604   0.381809
    25  H    0.000000   0.000000   0.000000   0.000001   0.000001  -0.000104
    26  H    0.000000   0.000000   0.000000  -0.000001  -0.000131   0.000031
    27  H    0.000000   0.000000   0.000000   0.000000   0.000001   0.000606
    28  H    0.000000   0.000000   0.000000   0.000000  -0.000019   0.000621
    29  H    0.000508   0.000005  -0.000134  -0.000436  -0.000005  -0.000073
    30  H    0.000000   0.000000   0.000000  -0.000002   0.000000   0.000044
    31  H    0.000000   0.000000   0.000002   0.000010   0.000000   0.000625
    32  H   -0.000095  -0.000056   0.000291   0.003481  -0.000042   0.002063
    33  H    0.000345   0.003412   0.004459   0.000991   0.000000   0.000004
    34  H    0.000002   0.000016  -0.000001   0.000000   0.000000   0.000000
    35  H    0.000000   0.000000   0.000000   0.000000   0.000000   0.000000
    36  H    0.000000   0.000000   0.000000   0.000000   0.000000   0.000000
    37  H    0.000000   0.000000   0.000000   0.000000   0.000000   0.000001
    38  H   -0.036689   0.004142   0.000276   0.004835   0.000076  -0.000013
    39  H    0.363988  -0.041610   0.004388   0.000654   0.000000   0.000000
    40  H   -0.041715   0.362305  -0.042356   0.004895   0.000000   0.000000
    41  H    0.004390  -0.041424   0.363377  -0.041736   0.000001   0.000000
    42  H    0.000377   0.004168  -0.036334   0.361423   0.006458   0.000262
              25         26         27         28         29         30
     1  O   -0.000164   0.004280   0.000000  -0.000014  -0.000035  -0.000016
     2  S    0.000371  -0.001605  -0.000051  -0.000059   0.002892   0.000237
     3  N    0.000902  -0.000800   0.001096   0.000721  -0.003783   0.003796
     4  C   -0.029182  -0.024428  -0.028213  -0.029331  -0.030710  -0.028356
     5  C    0.357606   0.324792   0.009734   0.003186  -0.005224  -0.006715
     6  S   -0.020540  -0.006686  -0.016676  -0.002624  -0.000419   0.004496
     7  O    0.000294   0.001218   0.000319   0.001258   0.000214   0.024523
     8  C    0.009857   0.003079   0.348373   0.321019   0.005723  -0.007304
     9  C   -0.003856   0.004554  -0.006116   0.005197   0.351543   0.345761
    10  C    0.000127  -0.000113   0.001419  -0.000053  -0.035386  -0.034815
    11  C   -0.000007   0.000001  -0.000184   0.000002  -0.000870  -0.000572
    12  C    0.000000   0.000000   0.000002   0.000000   0.003002  -0.000066
    13  C    0.000000   0.000000   0.000000   0.000000  -0.000092  -0.000023
    14  C    0.000000   0.000000   0.000000   0.000000  -0.000005   0.000000
    15  C    0.000000   0.000000  -0.000001   0.000000  -0.000006  -0.000172
    16  C    0.000000   0.000000   0.000009   0.000000  -0.000121   0.003723
    17  C   -0.000043   0.000164   0.000002   0.000007   0.000267   0.000038
    18  C   -0.000017  -0.000010   0.000000   0.000000   0.005738   0.000004
    19  C    0.000000   0.000000   0.000000   0.000000   0.000508   0.000000
    20  C    0.000000   0.000000   0.000000   0.000000   0.000005   0.000000
    21  C    0.000000   0.000000   0.000000   0.000000  -0.000134   0.000000
    22  C    0.000001  -0.000001   0.000000   0.000000  -0.000436  -0.000002
    23  O    0.000001  -0.000131   0.000001  -0.000019  -0.000005   0.000000
    24  H   -0.000104   0.000031   0.000606   0.000621  -0.000073   0.000044
    25  H    0.497956  -0.017775  -0.000378  -0.000330   0.003811  -0.000008
    26  H   -0.017775   0.492784  -0.000320   0.000485  -0.000004   0.000121
    27  H   -0.000378  -0.000320   0.506543  -0.020940   0.000126  -0.000046
    28  H   -0.000330   0.000485  -0.020940   0.524543  -0.000140   0.000048
    29  H    0.003811  -0.000004   0.000126  -0.000140   0.575105  -0.025373
    30  H   -0.000008   0.000121  -0.000046   0.000048  -0.025373   0.522992
    31  H    0.000012  -0.000001   0.006415  -0.000272   0.005668  -0.003138
    32  H   -0.000004   0.000002  -0.000022  -0.000035  -0.005996   0.005103
    33  H    0.000000   0.000000   0.000000   0.000000   0.000254   0.000034
    34  H    0.000000   0.000000   0.000000   0.000000   0.000002   0.000000
    35  H    0.000000   0.000000   0.000000   0.000000   0.000000   0.000000
    36  H    0.000000   0.000000   0.000000   0.000000   0.000000   0.000004
    37  H    0.000000   0.000000   0.000320   0.000000   0.000033   0.001157
    38  H    0.000299  -0.000010   0.000000   0.000000   0.000565  -0.000002
    39  H    0.000000   0.000000   0.000000   0.000000   0.000012   0.000000
    40  H    0.000000   0.000000   0.000000   0.000000  -0.000001   0.000000
    41  H    0.000000   0.000000   0.000000   0.000000   0.000000   0.000000
    42  H    0.000000   0.000000   0.000000   0.000000  -0.000001   0.000000
              31         32         33         34         35         36
     1  O    0.000000  -0.000010   0.000000   0.000000   0.000000   0.000000
     2  S    0.000039   0.000375  -0.000036   0.000000   0.000000   0.000000
     3  N   -0.000557   0.006139   0.000006   0.000000   0.000000   0.000000
     4  C   -0.004807  -0.007441  -0.000031   0.000000   0.000000   0.000000
     5  C    0.000051  -0.000011   0.000001   0.000000   0.000000   0.000000
     6  S   -0.000057  -0.000053   0.000000   0.000000   0.000000   0.000000
     7  O    0.000040  -0.000002   0.000000   0.000000   0.000000   0.000000
     8  C    0.003630  -0.000050   0.000000   0.000000   0.000000   0.000000
     9  C   -0.045494  -0.034940   0.000375   0.000000   0.000000  -0.000001
    10  C    0.357359   0.343785  -0.011040  -0.000188   0.000007  -0.000188
    11  C   -0.027353  -0.024060  -0.043711   0.003746   0.000705   0.003660
    12  C    0.003558  -0.004944   0.347049  -0.040033   0.004720   0.000864
    13  C   -0.000211   0.000078  -0.046212   0.355745  -0.043497   0.004566
    14  C    0.000013   0.000012   0.004794  -0.043314   0.359142  -0.043267
    15  C    0.000077  -0.000215   0.000319   0.004580  -0.042853   0.357030
    16  C   -0.004725   0.004218   0.006208   0.000864   0.004732  -0.038772
    17  C    0.000008   0.001702  -0.000276   0.000000   0.000000   0.000000
    18  C    0.000000  -0.000223  -0.000317   0.000000   0.000000   0.000000
    19  C    0.000000  -0.000095   0.000345   0.000002   0.000000   0.000000
    20  C    0.000000  -0.000056   0.003412   0.000016   0.000000   0.000000
    21  C    0.000002   0.000291   0.004459  -0.000001   0.000000   0.000000
    22  C    0.000010   0.003481   0.000991   0.000000   0.000000   0.000000
    23  O    0.000000  -0.000042   0.000000   0.000000   0.000000   0.000000
    24  H    0.000625   0.002063   0.000004   0.000000   0.000000   0.000000
    25  H    0.000012  -0.000004   0.000000   0.000000   0.000000   0.000000
    26  H   -0.000001   0.000002   0.000000   0.000000   0.000000   0.000000
    27  H    0.006415  -0.000022   0.000000   0.000000   0.000000   0.000000
    28  H   -0.000272  -0.000035   0.000000   0.000000   0.000000   0.000000
    29  H    0.005668  -0.005996   0.000254   0.000002   0.000000   0.000000
    30  H   -0.003138   0.005103   0.000034   0.000000   0.000000   0.000004
    31  H    0.599583  -0.037419   0.000094   0.000003   0.000000  -0.000006
    32  H   -0.037419   0.606887   0.005958  -0.000007   0.000000   0.000003
    33  H    0.000094   0.005958   0.604590  -0.005427  -0.000177   0.000017
    34  H    0.000003  -0.000007  -0.005427   0.603916  -0.005573  -0.000191
    35  H    0.000000   0.000000  -0.000177  -0.005573   0.598863  -0.005479
    36  H   -0.000006   0.000003   0.000017  -0.000191  -0.005479   0.594253
    37  H    0.004561   0.000088  -0.000175   0.000018  -0.000179  -0.005547
    38  H    0.000000  -0.000004   0.000000   0.000000   0.000000   0.000000
    39  H    0.000000   0.000000   0.000004   0.000000   0.000000   0.000000
    40  H    0.000000  -0.000001   0.000010   0.000008   0.000000   0.000000
    41  H    0.000000   0.000007   0.000041   0.000000   0.000000   0.000000
    42  H    0.000001   0.000200   0.000010   0.000000   0.000000   0.000000
              37         38         39         40         41         42
     1  O    0.000000   0.011218   0.000002   0.000000   0.000000   0.000082
     2  S    0.000000  -0.004336  -0.000045   0.000007  -0.000038   0.000262
     3  N    0.000001   0.000167   0.000001   0.000000   0.000002   0.000071
     4  C   -0.000087   0.000053   0.000000   0.000000   0.000000   0.000018
     5  C    0.000003   0.000159   0.000000   0.000000   0.000000   0.000000
     6  S    0.000013   0.000003   0.000000   0.000000   0.000000   0.000000
     7  O    0.000117   0.000000   0.000000   0.000000   0.000000   0.000000
     8  C   -0.000017   0.000003   0.000000   0.000000   0.000000   0.000000
     9  C    0.000175  -0.000198  -0.000004   0.000000   0.000000  -0.000001
    10  C   -0.009688   0.000008   0.000000   0.000000  -0.000002  -0.000032
    11  C   -0.047118   0.000000   0.000000   0.000001   0.000001   0.000001
    12  C    0.006063   0.000000  -0.000003   0.000000  -0.000008  -0.000004
    13  C    0.000354   0.000000   0.000000   0.000000  -0.000001   0.000000
    14  C    0.004816   0.000000   0.000000   0.000000   0.000000   0.000000
    15  C   -0.044008   0.000000   0.000000   0.000000   0.000000   0.000000
    16  C    0.356033   0.000000   0.000000   0.000000   0.000000   0.000000
    17  C    0.000000  -0.042714   0.004765   0.000472   0.004856  -0.049665
    18  C    0.000000   0.358864  -0.041551   0.004808   0.000635   0.004469
    19  C    0.000000  -0.036689   0.363988  -0.041715   0.004390   0.000377
    20  C    0.000000   0.004142  -0.041610   0.362305  -0.041424   0.004168
    21  C    0.000000   0.000276   0.004388  -0.042356   0.363377  -0.036334
    22  C    0.000000   0.004835   0.000654   0.004895  -0.041736   0.361423
    23  O    0.000000   0.000076   0.000000   0.000000   0.000001   0.006458
    24  H    0.000001  -0.000013   0.000000   0.000000   0.000000   0.000262
    25  H    0.000000   0.000299   0.000000   0.000000   0.000000   0.000000
    26  H    0.000000  -0.000010   0.000000   0.000000   0.000000   0.000000
    27  H    0.000320   0.000000   0.000000   0.000000   0.000000   0.000000
    28  H    0.000000   0.000000   0.000000   0.000000   0.000000   0.000000
    29  H    0.000033   0.000565   0.000012  -0.000001   0.000000  -0.000001
    30  H    0.001157  -0.000002   0.000000   0.000000   0.000000   0.000000
    31  H    0.004561   0.000000   0.000000   0.000000   0.000000   0.000001
    32  H    0.000088  -0.000004   0.000000  -0.000001   0.000007   0.000200
    33  H   -0.000175   0.000000   0.000004   0.000010   0.000041   0.000010
    34  H    0.000018   0.000000   0.000000   0.000008   0.000000   0.000000
    35  H   -0.000179   0.000000   0.000000   0.000000   0.000000   0.000000
    36  H   -0.005547   0.000000   0.000000   0.000000   0.000000   0.000000
    37  H    0.601532   0.000000   0.000000   0.000000   0.000000   0.000000
    38  H    0.000000   0.524445  -0.004984  -0.000145   0.000014  -0.000149
    39  H    0.000000  -0.004984   0.567385  -0.005352  -0.000165   0.000015
    40  H    0.000000  -0.000145  -0.005352   0.573445  -0.005325  -0.000151
    41  H    0.000000   0.000014  -0.000165  -0.005325   0.569815  -0.005266
    42  H    0.000000  -0.000149   0.000015  -0.000151  -0.005266   0.540837
 Mulliken charges:
               1
     1  O   -0.549491
     2  S    1.184938
     3  N   -0.695345
     4  C    0.209071
     5  C   -0.470076
     6  S    0.751146
     7  O   -0.618885
     8  C   -0.495272
     9  C   -0.285169
    10  C   -0.371542
    11  C    0.169069
    12  C   -0.187119
    13  C   -0.130044
    14  C   -0.129855
    15  C   -0.128687
    16  C   -0.175771
    17  C   -0.133926
    18  C   -0.145830
    19  C   -0.123130
    20  C   -0.121087
    21  C   -0.130300
    22  C   -0.143676
    23  O   -0.532277
    24  H    0.353671
    25  H    0.201172
    26  H    0.220374
    27  H    0.197982
    28  H    0.196729
    29  H    0.153342
    30  H    0.194526
    31  H    0.142292
    32  H    0.135239
    33  H    0.128426
    34  H    0.125836
    35  H    0.129589
    36  H    0.133052
    37  H    0.131536
    38  H    0.184117
    39  H    0.152501
    40  H    0.149093
    41  H    0.150827
    42  H    0.172951
 Sum of Mulliken charges =   0.00000
 Mulliken charges with hydrogens summed into heavy atoms:
               1
     1  O   -0.549491
     2  S    1.184938
     3  N   -0.341674
     4  C    0.209071
     5  C   -0.048530
     6  S    0.751146
     7  O   -0.618885
     8  C   -0.100560
     9  C    0.062699
    10  C   -0.094011
    11  C    0.169069
    12  C   -0.058693
    13  C   -0.004207
    14  C   -0.000266
    15  C    0.004365
    16  C   -0.044235
    17  C   -0.133926
    18  C    0.038287
    19  C    0.029371
    20  C    0.028006
    21  C    0.020527
    22  C    0.029275
    23  O   -0.532277
 Electronic spatial extent (au):  <R**2>=           8595.4843
 Charge=              0.0000 electrons
 Dipole moment (field-independent basis, Debye):
    X=              3.3804    Y=             -2.9128    Z=             -1.4765  Tot=              4.7002
 Quadrupole moment (field-independent basis, Debye-Ang):
   XX=           -163.8656   YY=           -148.2339   ZZ=           -143.8198
   XY=            -15.0287   XZ=             -0.9485   YZ=            -12.3024
 Traceless Quadrupole moment (field-independent basis, Debye-Ang):
   XX=            -11.8925   YY=              3.7392   ZZ=              8.1533
[...]
    21  C    0.000006   0.000000   0.000000   0.000000  -0.029097  -0.037871
    22  C    0.000007   0.000000   0.000000  -0.000001   0.470309  -0.035611
    23  O    0.000000   0.000000   0.000000   0.000000  -0.063262   0.000873
    24  H    0.000000   0.000000   0.000000   0.000000  -0.001009   0.000018
    25  H    0.000000   0.000000   0.000000   0.000000  -0.000043  -0.000013
    26  H    0.000000   0.000000   0.000000   0.000000   0.000167  -0.000010
    27  H    0.000000   0.000000   0.000000   0.000015   0.000002   0.000000
    28  H    0.000000   0.000000   0.000000   0.000000   0.000007   0.000000
    29  H   -0.000094  -0.000005  -0.000005  -0.000069   0.000224   0.005631
    30  H   -0.000022   0.000000  -0.000189   0.004046   0.000032   0.000007
    31  H   -0.000206   0.000012   0.000105  -0.004252   0.000007   0.000000
    32  H    0.000119   0.000011  -0.000211   0.004048   0.001568  -0.000230
    33  H   -0.045077   0.004754   0.000246   0.006115  -0.000283  -0.000318
    34  H    0.360319  -0.042162   0.004483   0.000761   0.000000   0.000000
    35  H   -0.042218   0.363125  -0.042105   0.004639   0.000000   0.000000
    36  H    0.004521  -0.042298   0.360660  -0.038517   0.000000   0.000000
    37  H    0.000266   0.004788  -0.044072   0.359445   0.000000   0.000000
    38  H    0.000000   0.000000   0.000000   0.000000  -0.047460   0.361644
    39  H    0.000000   0.000000   0.000000   0.000000   0.004764  -0.040591
    40  H    0.000000   0.000000   0.000000   0.000000   0.000450   0.004755
    41  H    0.000000   0.000000   0.000000   0.000000   0.004817   0.000585
    42  H    0.000000   0.000000   0.000000   0.000000  -0.051624   0.004183
              19         20         21         22         23         24
     1  O    0.000582  -0.000005  -0.000042   0.001787  -0.041438   0.001499
     2  S    0.002535  -0.000391   0.002391  -0.022843   0.446158  -0.003476
     3  N   -0.000088   0.000000  -0.000060  -0.001958  -0.058727   0.289152
     4  C    0.000045   0.000003  -0.000005   0.000151   0.001957  -0.021518
     5  C    0.000000   0.000000   0.000000   0.000000  -0.000010   0.003998
     6  S    0.000000   0.000000   0.000000   0.000001   0.000002   0.000003
     7  O    0.000000   0.000000   0.000000   0.000000   0.000000   0.000002
     8  C    0.000000   0.000000   0.000000  -0.000008  -0.000064  -0.004731
     9  C   -0.000323   0.000011   0.000061   0.000189  -0.000091  -0.001886
    10  C    0.000070  -0.000004  -0.000202  -0.000723   0.000004   0.002864
    11  C   -0.000004   0.000042   0.000050  -0.000048   0.000000   0.000009
    12  C    0.000014  -0.001012  -0.001355  -0.000267   0.000000  -0.000003
    13  C   -0.000012  -0.000020   0.000006   0.000007   0.000000   0.000000
    14  C    0.000000   0.000000   0.000000   0.000000   0.000000   0.000000
    15  C    0.000000   0.000000   0.000000   0.000000   0.000000   0.000000
    16  C    0.000000   0.000000   0.000000  -0.000001   0.000000   0.000000
    17  C   -0.031641  -0.038608  -0.029097   0.470309  -0.063262  -0.001009
    18  C    0.506712  -0.031844  -0.037871  -0.035611   0.000873   0.000018
    19  C    4.885563   0.539477  -0.031178  -0.036786  -0.000046   0.000000
    20  C    0.539477   4.859089   0.535810  -0.032150  -0.000005   0.000000
    21  C   -0.031178   0.535810   4.880992   0.514477   0.000405   0.000020
    22  C   -0.036786  -0.032150   0.514477   4.951638   0.002979   0.000233
    23  O   -0.000046  -0.000005   0.000405   0.002979   8.278854   0.001052
    24  H    0.000000   0.000000   0.000020   0.000233   0.001052   0.317185
    25  H    0.000000   0.000000   0.000000   0.000000   0.000001  -0.000086
    26  H    0.000000   0.000000   0.000000  -0.000001  -0.000131   0.000035
    27  H    0.000000   0.000000   0.000000   0.000000   0.000001   0.000499
    28  H    0.000000   0.000000   0.000000   0.000000  -0.000018   0.000510
    29  H    0.000536   0.000008  -0.000130  -0.000456  -0.000006  -0.000092
    30  H    0.000000   0.000000   0.000000  -0.000003   0.000000   0.000025
    31  H    0.000000   0.000000   0.000002   0.000009   0.000000   0.000467
    32  H   -0.000087  -0.000049   0.000271   0.003210  -0.000039   0.001569
    33  H    0.000401   0.003477   0.004453   0.001005   0.000000   0.000003
    34  H    0.000002   0.000015  -0.000001   0.000000   0.000000   0.000000
    35  H    0.000000   0.000000   0.000000   0.000000   0.000000   0.000000
    36  H    0.000000   0.000000   0.000000   0.000000   0.000000   0.000000
    37  H    0.000000   0.000000   0.000000   0.000000   0.000000   0.000000
    38  H   -0.033327   0.004205   0.000239   0.004583   0.000068  -0.000010
    39  H    0.367019  -0.040036   0.004258   0.000586   0.000000   0.000000
    40  H   -0.040459   0.365374  -0.040677   0.004813   0.000000   0.000000
    41  H    0.004251  -0.039794   0.366765  -0.040459   0.000001   0.000000
    42  H    0.000329   0.004154  -0.032665   0.364608   0.005897   0.000183
              25         26         27         28         29         30
     1  O   -0.000171   0.004360   0.000000  -0.000013  -0.000044  -0.000016
     2  S    0.000385  -0.000754  -0.000053   0.000022   0.003021   0.000264
     3  N    0.000995  -0.000813   0.000936   0.000587  -0.003798   0.003946
     4  C   -0.029286  -0.025133  -0.028896  -0.028301  -0.029950  -0.028537
     5  C    0.356384   0.328382   0.009234   0.003220  -0.005057  -0.006782
     6  S   -0.019509  -0.007529  -0.017425  -0.005291  -0.000570   0.003659
     7  O    0.000167   0.001196   0.000281   0.001213   0.000205   0.024246
     8  C    0.009466   0.002789   0.351537   0.328536   0.005572  -0.007314
     9  C   -0.003882   0.004548  -0.005415   0.004991   0.353191   0.343647
    10  C    0.000115  -0.000111   0.001629  -0.000048  -0.035605  -0.036463
    11  C   -0.000007   0.000001  -0.000204   0.000002  -0.000996  -0.001020
    12  C    0.000000   0.000000   0.000001   0.000000   0.002970  -0.000027
    13  C    0.000000   0.000000   0.000000   0.000000  -0.000094  -0.000022
    14  C    0.000000   0.000000   0.000000   0.000000  -0.000005   0.000000
    15  C    0.000000   0.000000   0.000000   0.000000  -0.000005  -0.000189
    16  C    0.000000   0.000000   0.000015   0.000000  -0.000069   0.004046
    17  C   -0.000043   0.000167   0.000002   0.000007   0.000224   0.000032
    18  C   -0.000013  -0.000010   0.000000   0.000000   0.005631   0.000007
    19  C    0.000000   0.000000   0.000000   0.000000   0.000536   0.000000
    20  C    0.000000   0.000000   0.000000   0.000000   0.000008   0.000000
    21  C    0.000000   0.000000   0.000000   0.000000  -0.000130   0.000000
    22  C    0.000000  -0.000001   0.000000   0.000000  -0.000456  -0.000003
    23  O    0.000001  -0.000131   0.000001  -0.000018  -0.000006   0.000000
    24  H   -0.000086   0.000035   0.000499   0.000510  -0.000092   0.000025
    25  H    0.487837  -0.017272  -0.000362  -0.000305   0.003664   0.000029
    26  H   -0.017272   0.487248  -0.000290   0.000438  -0.000019   0.000109
    27  H   -0.000362  -0.000290   0.484113  -0.016970   0.000135  -0.000072
    28  H   -0.000305   0.000438  -0.016970   0.493818  -0.000130   0.000031
    29  H    0.003664  -0.000019   0.000135  -0.000130   0.568717  -0.026445
    30  H    0.000029   0.000109  -0.000072   0.000031  -0.026445   0.550559
    31  H    0.000011  -0.000001   0.005981  -0.000234   0.005362  -0.003076
    32  H   -0.000004   0.000002  -0.000020  -0.000029  -0.005641   0.005099
    33  H    0.000000   0.000000   0.000000   0.000000   0.000248   0.000035
    34  H    0.000000   0.000000   0.000000   0.000000   0.000002   0.000000
    35  H    0.000000   0.000000   0.000000   0.000000   0.000000   0.000000
    36  H    0.000000   0.000000   0.000000   0.000000   0.000000   0.000004
    37  H    0.000000   0.000000   0.000305   0.000000   0.000034   0.001229
    38  H    0.000291  -0.000010   0.000000   0.000000   0.000516  -0.000002
    39  H    0.000000   0.000000   0.000000   0.000000   0.000011   0.000000
    40  H    0.000000   0.000000   0.000000   0.000000  -0.000001   0.000000
    41  H    0.000000   0.000000   0.000000   0.000000   0.000000   0.000000
    42  H    0.000000   0.000000   0.000000   0.000000  -0.000001   0.000000
              31         32         33         34         35         36
     1  O    0.000000  -0.000009   0.000000   0.000000   0.000000   0.000000
     2  S    0.000045   0.000380  -0.000036   0.000000   0.000000   0.000000
     3  N   -0.000500   0.005730   0.000006   0.000000   0.000000   0.000000
     4  C   -0.004736  -0.007157  -0.000031   0.000000   0.000000   0.000000
     5  C    0.000064   0.000001   0.000001   0.000000   0.000000   0.000000
     6  S   -0.000134  -0.000047   0.000000   0.000000   0.000000   0.000000
     7  O    0.000031  -0.000002   0.000000   0.000000   0.000000   0.000000
     8  C    0.003427  -0.000038   0.000000   0.000000   0.000000   0.000000
     9  C   -0.043041  -0.033542   0.000373   0.000000   0.000000  -0.000001
    10  C    0.363693   0.351633  -0.010145  -0.000174   0.000006  -0.000176
    11  C   -0.029255  -0.026448  -0.043410   0.003681   0.000618   0.003651
    12  C    0.003356  -0.004423   0.350546  -0.038423   0.004622   0.000754
    13  C   -0.000206   0.000119  -0.045077   0.360319  -0.042218   0.004521
    14  C    0.000012   0.000011   0.004754  -0.042162   0.363125  -0.042298
    15  C    0.000105  -0.000211   0.000246   0.004483  -0.042105   0.360660
    16  C   -0.004252   0.004048   0.006115   0.000761   0.004639  -0.038517
    17  C    0.000007   0.001568  -0.000283   0.000000   0.000000   0.000000
    18  C    0.000000  -0.000230  -0.000318   0.000000   0.000000   0.000000
    19  C    0.000000  -0.000087   0.000401   0.000002   0.000000   0.000000
    20  C    0.000000  -0.000049   0.003477   0.000015   0.000000   0.000000
    21  C    0.000002   0.000271   0.004453  -0.000001   0.000000   0.000000
    22  C    0.000009   0.003210   0.001005   0.000000   0.000000   0.000000
    23  O    0.000000  -0.000039   0.000000   0.000000   0.000000   0.000000
    24  H    0.000467   0.001569   0.000003   0.000000   0.000000   0.000000
    25  H    0.000011  -0.000004   0.000000   0.000000   0.000000   0.000000
    26  H   -0.000001   0.000002   0.000000   0.000000   0.000000   0.000000
    27  H    0.005981  -0.000020   0.000000   0.000000   0.000000   0.000000
    28  H   -0.000234  -0.000029   0.000000   0.000000   0.000000   0.000000
    29  H    0.005362  -0.005641   0.000248   0.000002   0.000000   0.000000
    30  H   -0.003076   0.005099   0.000035   0.000000   0.000000   0.000004
    31  H    0.569844  -0.033589   0.000088   0.000003   0.000000  -0.000005
    32  H   -0.033589   0.577424   0.005583  -0.000007   0.000000   0.000003
    33  H    0.000088   0.005583   0.584466  -0.005133  -0.000164   0.000016
    34  H    0.000003  -0.000007  -0.005133   0.573505  -0.005211  -0.000176
    35  H    0.000000   0.000000  -0.000164  -0.005211   0.573921  -0.005201
    36  H   -0.000005   0.000003   0.000016  -0.000176  -0.005201   0.572884
    37  H    0.004199   0.000082  -0.000163   0.000017  -0.000167  -0.005316
    38  H    0.000000  -0.000004   0.000000   0.000000   0.000000   0.000000
    39  H    0.000000   0.000000   0.000004   0.000000   0.000000   0.000000
    40  H    0.000000  -0.000001   0.000013   0.000007   0.000000   0.000000
    41  H    0.000000   0.000007   0.000045   0.000000   0.000000   0.000000
    42  H    0.000001   0.000166   0.000010   0.000000   0.000000   0.000000
              37         38         39         40         41         42
     1  O    0.000000   0.010487   0.000002   0.000000   0.000000   0.000072
     2  S    0.000000  -0.004601  -0.000050   0.000007  -0.000044  -0.000594
     3  N    0.000001   0.000136   0.000001   0.000000   0.000001   0.000032
     4  C   -0.000087   0.000039   0.000000   0.000000   0.000000   0.000019
     5  C    0.000003   0.000143   0.000000   0.000000   0.000000   0.000000
     6  S    0.000008   0.000003   0.000000   0.000000   0.000000   0.000000
     7  O    0.000118   0.000000   0.000000   0.000000   0.000000   0.000000
     8  C   -0.000007   0.000003   0.000000   0.000000   0.000000   0.000000
     9  C    0.000146  -0.000179  -0.000003   0.000000   0.000000  -0.000001
    10  C   -0.008895   0.000007   0.000000   0.000000  -0.000002  -0.000028
    11  C   -0.046474   0.000000   0.000000   0.000001   0.000001   0.000000
    12  C    0.005976   0.000000  -0.000003  -0.000001  -0.000009  -0.000004
    13  C    0.000266   0.000000   0.000000   0.000000   0.000000   0.000000
    14  C    0.004788   0.000000   0.000000   0.000000   0.000000   0.000000
    15  C   -0.044072   0.000000   0.000000   0.000000   0.000000   0.000000
    16  C    0.359445   0.000000   0.000000   0.000000   0.000000   0.000000
    17  C    0.000000  -0.047460   0.004764   0.000450   0.004817  -0.051624
    18  C    0.000000   0.361644  -0.040591   0.004755   0.000585   0.004183
    19  C    0.000000  -0.033327   0.367019  -0.040459   0.004251   0.000329
    20  C    0.000000   0.004205  -0.040036   0.365374  -0.039794   0.004154
    21  C    0.000000   0.000239   0.004258  -0.040677   0.366765  -0.032665
    22  C    0.000000   0.004583   0.000586   0.004813  -0.040459   0.364608
    23  O    0.000000   0.000068   0.000000   0.000000   0.000001   0.005897
    24  H    0.000000  -0.000010   0.000000   0.000000   0.000000   0.000183
    25  H    0.000000   0.000291   0.000000   0.000000   0.000000   0.000000
    26  H    0.000000  -0.000010   0.000000   0.000000   0.000000   0.000000
    27  H    0.000305   0.000000   0.000000   0.000000   0.000000   0.000000
    28  H    0.000000   0.000000   0.000000   0.000000   0.000000   0.000000
    29  H    0.000034   0.000516   0.000011  -0.000001   0.000000  -0.000001
    30  H    0.001229  -0.000002   0.000000   0.000000   0.000000   0.000000
    31  H    0.004199   0.000000   0.000000   0.000000   0.000000   0.000001
    32  H    0.000082  -0.000004   0.000000  -0.000001   0.000007   0.000166
    33  H   -0.000163   0.000000   0.000004   0.000013   0.000045   0.000010
    34  H    0.000017   0.000000   0.000000   0.000007   0.000000   0.000000
    35  H   -0.000167   0.000000   0.000000   0.000000   0.000000   0.000000
    36  H   -0.005316   0.000000   0.000000   0.000000   0.000000   0.000000
    37  H    0.585065   0.000000   0.000000   0.000000   0.000000   0.000000
    38  H    0.000000   0.522200  -0.005006  -0.000138   0.000013  -0.000142
    39  H    0.000000  -0.005006   0.542692  -0.005045  -0.000153   0.000014
    40  H    0.000000  -0.000138  -0.005045   0.545409  -0.005013  -0.000140
    41  H    0.000000   0.000013  -0.000153  -0.005013   0.542094  -0.005129
    42  H    0.000000  -0.000142   0.000014  -0.000140  -0.005129   0.524319
 Mulliken charges:
               1
     1  O   -0.578117
     2  S    1.178644
     3  N   -0.716082
     4  C    0.207095
     5  C   -0.469654
     6  S    0.756568
     7  O   -0.684988
     8  C   -0.480692
     9  C   -0.283883
    10  C   -0.373604
    11  C    0.160615
    12  C   -0.201929
    13  C   -0.151228
    14  C   -0.151781
    15  C   -0.150305
    16  C   -0.195693
    17  C   -0.140881
    18  C   -0.151127
    19  C   -0.133586
    20  C   -0.127750
    21  C   -0.136917
    22  C   -0.149273
    23  O   -0.574414
    24  H    0.413485
    25  H    0.211594
    26  H    0.222798
    27  H    0.215039
    28  H    0.217966
    29  H    0.159061
    30  H    0.173001
    31  H    0.162321
    32  H    0.154669
    33  H    0.142873
    34  H    0.148492
    35  H    0.148135
    36  H    0.149199
    37  H    0.143502
    38  H    0.186302
    39  H    0.171535
    40  H    0.170645
    41  H    0.172023
    42  H    0.186341
 Sum of Mulliken charges =   0.00000
 Mulliken charges with hydrogens summed into heavy atoms:
               1
     1  O   -0.578117
     2  S    1.178644
     3  N   -0.302598
     4  C    0.207095
     5  C   -0.035262
     6  S    0.756568
     7  O   -0.684988
     8  C   -0.047687
     9  C    0.048180
    10  C   -0.056613
    11  C    0.160615
    12  C   -0.059056
    13  C   -0.002735
    14  C   -0.003646
    15  C   -0.001106
    16  C   -0.052191
    17  C   -0.140881
    18  C    0.035174
    19  C    0.037949
    20  C    0.042895
    21  C    0.035106
    22  C    0.037068
    23  O   -0.574414
 Electronic spatial extent (au):  <R**2>=           8597.3191
 Charge=              0.0000 electrons
 Dipole moment (field-independent basis, Debye):
    X=              4.0318    Y=             -3.8419    Z=             -2.5771  Tot=              6.1366
 Quadrupole moment (field-independent basis, Debye-Ang):
   XX=           -168.1395   YY=           -148.1817   ZZ=           -142.0660
   XY=            -19.4934   XZ=             -0.5911   YZ=            -15.6430
 Traceless Quadrupole moment (field-independent basis, Debye-Ang):
   XX=            -15.3438   YY=              4.6140   ZZ=             10.7298
   XY=            -19.4934   XZ=             -0.5911   YZ=            -15.6430
 Octapole moment (field-independent basis, Debye-Ang**2):
  XXX=            104.1838  YYY=           -133.8052  ZZZ=              2.2435  XYY=              8.4868
  XXY=             54.3051  XXZ=             29.3889  XZZ=            -18.5579  YZZ=             -8.4627
  YYZ=            -42.1102  XYZ=             -2.8898
 Hexadecapole moment (field-independent basis, Debye-Ang**3):
 XXXX=          -5654.3498 YYYY=          -5120.2517 ZZZZ=           -782.4426 XXXY=           -118.8188
 XXXZ=             59.3491 YYYX=           -203.6655 YYYZ=           -191.9868 ZZZX=              9.3456
 ZZZY=            -22.7577 XXYY=          -1695.5208 XXZZ=          -1180.5437 YYZZ=           -922.3540
 XXYZ=            -45.3307 YYXZ=             -4.6974 ZZXY=            -39.9253
 N-N= 2.307023596908D+03 E-N=-8.688292178899D+03  KE= 1.724221628660D+03
 No NMR shielding tensors so no spin-rotation constants.
 Leave Link  601 at Sat Aug  8 02:35:04 2020, MaxMem=    33554432 cpu:         0.4
 (Enter /prod/apps/gaussian/g09d1/l9999.exe)
 1\1\GINC-PIRINEUS22\SP\RB3LYP\6-31G(d)\C17H19N1O3S2\UBAFAR01\08-Aug-20
 20\0\\#p b3lyp/6-31G(d) scrf=(iefpcm,read,solvent=Water) geom=allcheck
  guess=read\\SM36.n.3.pdb.xyz\\0,1\O,0,0.887,0.593,-0.586\S,0,2.267,0.
 988,-0.906\N,0,3.088,-0.407,-1.306\C,0,2.584,-1.481,-2.186\C,0,1.208,-
 2.046,-1.763\S,0,1.786,-3.812,-1.949\O,0,1.548,-4.287,-3.38\C,0,3.35,-
 2.792,-1.879\C,0,2.603,-1.167,-3.694\C,0,3.983,-0.791,-4.262\C,0,3.959
 ,-0.67,-5.771\C,0,3.753,0.57,-6.389\C,0,3.702,0.679,-7.781\C,0,3.859,-
 0.456,-8.579\C,0,4.067,-1.699,-7.974\C,0,4.116,-1.802,-6.583\C,0,2.186
 ,2.124,-2.292\C,0,0.998,2.23,-3.015\C,0,0.934,3.125,-4.083\C,0,2.049,3
 .899,-4.415\C,0,3.232,3.786,-3.678\C,0,3.308,2.896,-2.607\O,0,3.107,1.
 626,0.119\H,0,4.085,-0.215,-1.416\H,0,0.351,-1.809,-2.395\H,0,0.972,-1
 .871,-0.715\H,0,4.104,-3.117,-2.597\H,0,3.741,-2.831,-0.861\H,0,1.887,
 -0.366,-3.903\H,0,2.231,-2.063,-4.201\H,0,4.714,-1.553,-3.971\H,0,4.31
 7,0.156,-3.829\H,0,3.635,1.458,-5.775\H,0,3.545,1.65,-8.24\H,0,3.824,-
 0.374,-9.66\H,0,4.195,-2.586,-8.586\H,0,4.282,-2.771,-6.121\H,0,0.14,1
 .632,-2.733\H,0,0.014,3.219,-4.649\H,0,1.994,4.596,-5.245\H,0,4.093,4.
 396,-3.93\H,0,4.214,2.814,-2.018\\Version=AM64L-G09RevD.01\State=1-A\H
 F=-1735.9390971\RMSD=6.056e-09\Dipole=1.4215642,1.3922651,-1.3673594\Q
 uadrupole=6.6311522,0.7656431,-7.3967953,-6.9156269,5.0747116,-18.0292
 412\PG=C01 [X(C17H19N1O3S2)]\\@


 EDUCATION IS NOT TRAINING BUT RATHER THE PROCESS THAT EQUIPS YOU TO
 ENTERTAIN YOURSELF, A FRIEND, OR AN IDEA.  -- WALLACE STERLING
 Job cpu time:       0 days  0 hours  6 minutes 10.5 seconds.
 File lengths (MBytes):  RWF=    295 Int=      0 D2E=      0 Chk=      8 Scr=      1
 Normal termination of Gaussian 09 at Sat Aug  8 02:35:04 2020.
