 Entering Gaussian System, Link 0=g09
 Initial command:
 /prod/apps/gaussian/g09d1/l1.exe "/tmp/ubafar01/1449183/Gau-216807.inp" -scrdir="/tmp/ubafar01/1449183/"
 Entering Link 1 = /prod/apps/gaussian/g09d1/l1.exe PID=    216808.
  
 Copyright (c) 1988,1990,1992,1993,1995,1998,2003,2009,2013,
            Gaussian, Inc.  All Rights Reserved.
  
 This is part of the Gaussian(R) 09 program.  It is based on
 the Gaussian(R) 03 system (copyright 2003, Gaussian, Inc.),
 the Gaussian(R) 98 system (copyright 1998, Gaussian, Inc.),
 the Gaussian(R) 94 system (copyright 1995, Gaussian, Inc.),
 the Gaussian 92(TM) system (copyright 1992, Gaussian, Inc.),
 the Gaussian 90(TM) system (copyright 1990, Gaussian, Inc.),
 the Gaussian 88(TM) system (copyright 1988, Gaussian, Inc.),
 the Gaussian 86(TM) system (copyright 1986, Carnegie Mellon
 University), and the Gaussian 82(TM) system (copyright 1983,
 Carnegie Mellon University). Gaussian is a federally registered
 trademark of Gaussian, Inc.
  
 This software contains proprietary and confidential information,
 including trade secrets, belonging to Gaussian, Inc.
  
 This software is provided under written license and may be
 used, copied, transmitted, or stored only in accord with that
 written license.
  
 The following legend is applicable only to US Government
 contracts under FAR:
  
                    RESTRICTED RIGHTS LEGEND
  
 Use, reproduction and disclosure by the US Government is
 subject to restrictions as set forth in subparagraphs (a)
 and (c) of the Commercial Computer Software - Restricted
 Rights clause in FAR 52.227-19.
  
 Gaussian, Inc.
 340 Quinnipiac St., Bldg. 40, Wallingford CT 06492
  
  
 ---------------------------------------------------------------
 Warning -- This program may not be used in any manner that
 competes with the business of Gaussian, Inc. or will provide
 assistance to any competitor of Gaussian, Inc.  The licensee
 of this program is prohibited from giving any competitor of
 Gaussian, Inc. access to this program.  By using this program,
 the user acknowledges that Gaussian, Inc. is engaged in the
 business of creating and licensing software in the field of
 computational chemistry and represents and warrants to the
 licensee that it is not a competitor of Gaussian, Inc. and that
 it will not use this program in any manner prohibited above.
 ---------------------------------------------------------------
  

 Cite this work as:
 Gaussian 09, Revision D.01,
 M. J. Frisch, G. W. Trucks, H. B. Schlegel, G. E. Scuseria, 
 M. A. Robb, J. R. Cheeseman, G. Scalmani, V. Barone, B. Mennucci, 
 G. A. Petersson, H. Nakatsuji, M. Caricato, X. Li, H. P. Hratchian, 
 A. F. Izmaylov, J. Bloino, G. Zheng, J. L. Sonnenberg, M. Hada, 
 M. Ehara, K. Toyota, R. Fukuda, J. Hasegawa, M. Ishida, T. Nakajima, 
 Y. Honda, O. Kitao, H. Nakai, T. Vreven, J. A. Montgomery, Jr., 
 J. E. Peralta, F. Ogliaro, M. Bearpark, J. J. Heyd, E. Brothers, 
 K. N. Kudin, V. N. Staroverov, T. Keith, R. Kobayashi, J. Normand, 
 K. Raghavachari, A. Rendell, J. C. Burant, S. S. Iyengar, J. Tomasi, 
 M. Cossi, N. Rega, J. M. Millam, M. Klene, J. E. Knox, J. B. Cross, 
 V. Bakken, C. Adamo, J. Jaramillo, R. Gomperts, R. E. Stratmann, 
 O. Yazyev, A. J. Austin, R. Cammi, C. Pomelli, J. W. Ochterski, 
 R. L. Martin, K. Morokuma, V. G. Zakrzewski, G. A. Voth, 
 P. Salvador, J. J. Dannenberg, S. Dapprich, A. D. Daniels, 
 O. Farkas, J. B. Foresman, J. V. Ortiz, J. Cioslowski, 
 and D. J. Fox, Gaussian, Inc., Wallingford CT, 2013.
 
 ******************************************
 Gaussian 09:  AM64L-G09RevD.01 24-Apr-2013
                 8-Aug-2020 
 ******************************************
 %nproc=1
 Will use up to    1 processors via shared memory.
 %Chk=SM36.n.10.pdb.xyz.mst.n.o.chk
 -----------------
 #p b3lyp/6-31G(d)
 -----------------
 1/38=1/1;
 2/12=2,17=6,18=5,40=1/2;
 3/5=1,6=6,7=1,11=2,16=1,25=1,30=1,74=-5/1,2,3;
 4//1;
 5/5=2,38=5/2;
 6/7=2,8=2,9=2,10=2,28=1/1;
 99/5=1,9=1/99;
 Leave Link    1 at Sat Aug  8 04:12:58 2020, MaxMem=           0 cpu:         0.0
 (Enter /prod/apps/gaussian/g09d1/l101.exe)
 -----------------
 SM36.n.10.pdb.xyz
 -----------------
 Symbolic Z-matrix:
 Charge =  0 Multiplicity = 1
 O                     4.816     0.882     0.104 
 S                     4.58      0.473    -1.288 
 N                     3.035    -0.206    -1.274 
 C                     2.7      -1.355    -2.134 
 C                     1.383    -2.015    -1.665 
 S                     2.033    -3.735    -2.042 
 O                     1.734    -4.084    -3.49 
 C                     3.548    -2.641    -1.956 
 C                     2.635    -0.965    -3.619 
 C                     1.593     0.113    -3.963 
 C                     1.491     0.357    -5.453 
 C                     0.882    -0.585    -6.294 
 C                     0.798    -0.369    -7.669 
 C                     1.323     0.798    -8.229 
 C                     1.931     1.743    -7.404 
 C                     2.013     1.522    -6.027 
 C                     4.435     1.951    -2.288 
 C                     3.553     2.962    -1.898 
 C                     3.5       4.134    -2.647 
 C                     4.328     4.291    -3.764 
 C                     5.211     3.275    -4.136 
 C                     5.27      2.093    -3.395 
 O                     5.524    -0.424    -1.97 
 H                     2.786    -0.341    -0.296 
 H                     0.471    -1.767    -2.207 
 H                     1.212    -1.948    -0.587 
 H                     4.29     -2.867    -2.722 
 H                     3.987    -2.744    -0.962 
 H                     2.409    -1.886    -4.166 
 H                     3.631    -0.643    -3.941 
 H                     1.845     1.046    -3.453 
 H                     0.615    -0.199    -3.579 
 H                     0.468    -1.494    -5.867 
 H                     0.319    -1.109    -8.303 
 H                     1.256     0.968    -9.299 
 H                     2.34      2.654    -7.828 
 H                     2.484     2.263    -5.388 
 H                     2.92      2.831    -1.028 
 H                     2.817     4.925    -2.359 
 H                     4.286     5.208    -4.342 
 H                     5.855     3.4      -5. 
 H                     5.947     1.29     -3.658 
 
 NAtoms=     42 NQM=       42 NQMF=       0 NMMI=      0 NMMIF=      0
                NMic=       0 NMicF=      0.
                    Isotopes and Nuclear Properties:
 (Nuclear quadrupole moments (NQMom) in fm**2, nuclear magnetic moments (NMagM)
  in nuclear magnetons)

  Atom         1           2           3           4           5           6           7           8           9          10
 IAtWgt=          16          32          14          12          12          32          16          12          12          12
 AtmWgt=  15.9949146  31.9720718  14.0030740  12.0000000  12.0000000  31.9720718  15.9949146  12.0000000  12.0000000  12.0000000
 NucSpn=           0           0           2           0           0           0           0           0           0           0
 AtZEff=   0.0000000   0.0000000   0.0000000   0.0000000   0.0000000   0.0000000   0.0000000   0.0000000   0.0000000   0.0000000
 NQMom=    0.0000000   0.0000000   2.0440000   0.0000000   0.0000000   0.0000000   0.0000000   0.0000000   0.0000000   0.0000000
 NMagM=    0.0000000   0.0000000   0.4037610   0.0000000   0.0000000   0.0000000   0.0000000   0.0000000   0.0000000   0.0000000
 AtZNuc=   8.0000000  16.0000000   7.0000000   6.0000000   6.0000000  16.0000000   8.0000000   6.0000000   6.0000000   6.0000000

  Atom        11          12          13          14          15          16          17          18          19          20
 IAtWgt=          12          12          12          12          12          12          12          12          12          12
 AtmWgt=  12.0000000  12.0000000  12.0000000  12.0000000  12.0000000  12.0000000  12.0000000  12.0000000  12.0000000  12.0000000
 NucSpn=           0           0           0           0           0           0           0           0           0           0
 AtZEff=   0.0000000   0.0000000   0.0000000   0.0000000   0.0000000   0.0000000   0.0000000   0.0000000   0.0000000   0.0000000
 NQMom=    0.0000000   0.0000000   0.0000000   0.0000000   0.0000000   0.0000000   0.0000000   0.0000000   0.0000000   0.0000000
 NMagM=    0.0000000   0.0000000   0.0000000   0.0000000   0.0000000   0.0000000   0.0000000   0.0000000   0.0000000   0.0000000
 AtZNuc=   6.0000000   6.0000000   6.0000000   6.0000000   6.0000000   6.0000000   6.0000000   6.0000000   6.0000000   6.0000000

  Atom        21          22          23          24          25          26          27          28          29          30
 IAtWgt=          12          12          16           1           1           1           1           1           1           1
 AtmWgt=  12.0000000  12.0000000  15.9949146   1.0078250   1.0078250   1.0078250   1.0078250   1.0078250   1.0078250   1.0078250
 NucSpn=           0           0           0           1           1           1           1           1           1           1
 AtZEff=   0.0000000   0.0000000   0.0000000   0.0000000   0.0000000   0.0000000   0.0000000   0.0000000   0.0000000   0.0000000
 NQMom=    0.0000000   0.0000000   0.0000000   0.0000000   0.0000000   0.0000000   0.0000000   0.0000000   0.0000000   0.0000000
 NMagM=    0.0000000   0.0000000   0.0000000   2.7928460   2.7928460   2.7928460   2.7928460   2.7928460   2.7928460   2.7928460
 AtZNuc=   6.0000000   6.0000000   8.0000000   1.0000000   1.0000000   1.0000000   1.0000000   1.0000000   1.0000000   1.0000000

  Atom        31          32          33          34          35          36          37          38          39          40
 IAtWgt=           1           1           1           1           1           1           1           1           1           1
 AtmWgt=   1.0078250   1.0078250   1.0078250   1.0078250   1.0078250   1.0078250   1.0078250   1.0078250   1.0078250   1.0078250
 NucSpn=           1           1           1           1           1           1           1           1           1           1
 AtZEff=   0.0000000   0.0000000   0.0000000   0.0000000   0.0000000   0.0000000   0.0000000   0.0000000   0.0000000   0.0000000
 NQMom=    0.0000000   0.0000000   0.0000000   0.0000000   0.0000000   0.0000000   0.0000000   0.0000000   0.0000000   0.0000000
 NMagM=    2.7928460   2.7928460   2.7928460   2.7928460   2.7928460   2.7928460   2.7928460   2.7928460   2.7928460   2.7928460
 AtZNuc=   1.0000000   1.0000000   1.0000000   1.0000000   1.0000000   1.0000000   1.0000000   1.0000000   1.0000000   1.0000000

  Atom        41          42
 IAtWgt=           1           1
 AtmWgt=   1.0078250   1.0078250
 NucSpn=           1           1
 AtZEff=   0.0000000   0.0000000
 NQMom=    0.0000000   0.0000000
 NMagM=    2.7928460   2.7928460
 AtZNuc=   1.0000000   1.0000000
 Leave Link  101 at Sat Aug  8 04:12:58 2020, MaxMem=    33554432 cpu:         0.1
 (Enter /prod/apps/gaussian/g09d1/l202.exe)
                          Input orientation:                          
 ---------------------------------------------------------------------
 Center     Atomic      Atomic             Coordinates (Angstroms)
 Number     Number       Type             X           Y           Z
 ---------------------------------------------------------------------
      1          8           0        4.816000    0.882000    0.104000
      2         16           0        4.580000    0.473000   -1.288000
      3          7           0        3.035000   -0.206000   -1.274000
      4          6           0        2.700000   -1.355000   -2.134000
      5          6           0        1.383000   -2.015000   -1.665000
      6         16           0        2.033000   -3.735000   -2.042000
      7          8           0        1.734000   -4.084000   -3.490000
      8          6           0        3.548000   -2.641000   -1.956000
      9          6           0        2.635000   -0.965000   -3.619000
     10          6           0        1.593000    0.113000   -3.963000
     11          6           0        1.491000    0.357000   -5.453000
     12          6           0        0.882000   -0.585000   -6.294000
     13          6           0        0.798000   -0.369000   -7.669000
     14          6           0        1.323000    0.798000   -8.229000
     15          6           0        1.931000    1.743000   -7.404000
     16          6           0        2.013000    1.522000   -6.027000
     17          6           0        4.435000    1.951000   -2.288000
     18          6           0        3.553000    2.962000   -1.898000
     19          6           0        3.500000    4.134000   -2.647000
     20          6           0        4.328000    4.291000   -3.764000
     21          6           0        5.211000    3.275000   -4.136000
     22          6           0        5.270000    2.093000   -3.395000
     23          8           0        5.524000   -0.424000   -1.970000
     24          1           0        2.786000   -0.341000   -0.296000
     25          1           0        0.471000   -1.767000   -2.207000
     26          1           0        1.212000   -1.948000   -0.587000
     27          1           0        4.290000   -2.867000   -2.722000
     28          1           0        3.987000   -2.744000   -0.962000
     29          1           0        2.409000   -1.886000   -4.166000
     30          1           0        3.631000   -0.643000   -3.941000
     31          1           0        1.845000    1.046000   -3.453000
     32          1           0        0.615000   -0.199000   -3.579000
     33          1           0        0.468000   -1.494000   -5.867000
     34          1           0        0.319000   -1.109000   -8.303000
     35          1           0        1.256000    0.968000   -9.299000
     36          1           0        2.340000    2.654000   -7.828000
     37          1           0        2.484000    2.263000   -5.388000
     38          1           0        2.920000    2.831000   -1.028000
     39          1           0        2.817000    4.925000   -2.359000
     40          1           0        4.286000    5.208000   -4.342000
     41          1           0        5.855000    3.400000   -5.000000
     42          1           0        5.947000    1.290000   -3.658000
 ---------------------------------------------------------------------
                    Distance matrix (angstroms):
                    1          2          3          4          5
     1  O    0.000000
     2  S    1.469912   0.000000
     3  N    2.500918   1.687679   0.000000
     4  C    3.806609   2.755304   1.473779   0.000000
     5  C    4.827780   4.068548   2.480820   1.545979   0.000000
     6  S    5.802335   4.976242   3.748022   2.473409   1.876973
     7  O    6.861247   5.806442   4.652111   3.196769   2.781113
     8  C    4.273518   3.347872   2.580217   1.550672   2.272396
     9  C    4.693495   3.359231   2.497019   1.536734   2.547179
    10  C    5.245911   4.025841   3.067873   2.593398   3.138995
    11  C    6.497038   5.186772   4.490540   3.925352   4.470681
    12  C    7.652637   6.313050   5.475349   4.604739   4.870682
    13  C    8.839053   7.465229   6.776929   5.935152   6.252964
    14  C    9.035873   7.674057   7.232633   6.609127   7.141615
    15  C    8.089166   6.784951   6.526432   6.161320   6.881787
    16  C    6.771674   5.490720   5.159600   4.889228   5.651045
    17  C    2.647562   1.790394   2.764208   3.736787   5.043014
    18  C    3.151122   2.760788   3.270157   4.406790   5.434493
    19  C    4.458179   4.051691   4.575692   5.570663   6.576946
    20  C    5.178885   4.557544   5.300468   6.097918   7.269420
    21  C    4.884677   4.044808   5.004336   5.634716   6.981656
    22  C    3.730367   2.745897   3.844381   4.481487   5.914164
    23  O    2.551152   1.469989   2.593658   2.978025   4.446593
    24  H    2.403462   2.205696   1.018190   2.100913   2.577760
    25  H    5.589002   4.769281   3.143454   2.267932   1.089501
    26  H    4.634134   4.206669   2.613400   2.226882   1.093533
    27  H    4.724188   3.646376   3.279123   2.271561   3.208396
    28  H    3.869299   3.287402   2.728570   2.226943   2.794005
    29  H    5.629243   4.308249   3.402637   2.120299   2.706348
    30  H    4.482396   3.030588   2.767503   2.153823   3.480814
    31  H    4.637455   3.534937   2.780584   2.869771   3.574928
    32  H    5.690470   4.628336   3.342076   2.787756   2.747922
    33  H    7.759080   6.461027   5.417018   4.351601   4.331913
    34  H    9.739853   8.358772   7.589394   6.617117   6.783508
    35  H   10.054721   8.687354   8.303237   7.669334   8.197095
    36  H    8.496304   7.248859   7.184535   6.973042   7.790891
    37  H    6.124333   4.940376   4.829550   4.870841   5.777042
    38  H    2.945308   2.895404   3.049116   4.335231   5.123656
    39  H    5.138893   4.906681   5.248991   6.285118   7.120505
    40  H    6.225921   5.642125   6.347363   7.103776   8.231978
    41  H    5.785383   4.896110   5.902433   6.385766   7.774525
    42  H    3.949464   2.855360   4.049841   4.456637   5.977054
                    6          7          8          9         10
     6  S    0.000000
     7  O    1.519179   0.000000
     8  C    1.870684   2.779568   0.000000
     9  C    3.243799   3.249093   2.531425   0.000000
    10  C    4.323303   4.225922   3.928688   1.538241   0.000000
    11  C    5.354731   4.861574   5.044627   2.533767   1.513288
    12  C    5.415423   4.564134   5.491169   3.220719   2.535012
    13  C    6.672204   5.669335   6.735195   4.486901   3.820836
    14  C    7.702672   6.816228   7.491854   5.107016   4.329074
    15  C    7.666155   7.022260   7.177385   4.706921   3.822516
    16  C    6.596717   6.159663   6.021614   3.517175   2.534123
    17  C    6.177436   6.720225   4.688652   3.676223   3.776352
    18  C    6.868839   7.449117   5.603302   4.384734   4.027732
    19  C    8.027408   8.447777   6.810316   5.262396   4.640792
    20  C    8.523437   8.771804   7.206240   5.523840   4.997550
    21  C    7.976504   8.164663   6.520508   4.988052   4.808128
    22  C    6.802526   7.118121   5.238966   4.042866   4.214659
    23  O    4.811963   5.483621   2.969825   3.370193   4.439953
    24  H    3.890342   5.031738   2.937047   3.384451   3.882815
    25  H    2.517954   2.934237   3.208552   2.705521   2.806567
    26  H    2.446310   3.641756   2.794871   3.490593   3.973696
    27  H    2.511946   2.933266   1.090136   2.676049   4.206458
    28  H    2.442662   3.641757   1.091497   3.471656   4.785362
    29  H    2.841048   2.396624   2.598354   1.094772   2.168655
    30  H    3.964879   3.955059   2.817644   1.095164   2.173813
    31  H    4.988409   5.131334   4.328416   2.166974   1.092746
    32  H    4.108088   4.043922   4.147286   2.160730   1.096031
    33  H    4.701269   3.736440   5.108613   3.166897   2.733732
    34  H    7.002413   5.832480   7.284084   5.227279   4.685292
    35  H    8.682510   7.713344   8.496929   6.156341   5.414563
    36  H    8.625043   8.036549   7.998542   5.558765   4.685394
    37  H    6.882959   6.667032   6.079468   3.684039   2.728920
    38  H    6.702785   7.435406   5.585548   4.604793   4.214579
    39  H    8.701192   9.144076   7.611907   6.026012   5.217886
    40  H    9.504907   9.673669   8.236774   6.430743   5.775371
    41  H    8.617753   8.676001   7.147158   5.597212   5.481276
    42  H    6.571261   6.830627   4.909660   4.006980   4.520583
                   11         12         13         14         15
    11  C    0.000000
    12  C    1.401972   0.000000
    13  C    2.432690   1.394395   0.000000
    14  C    2.815827   2.418966   1.396823   0.000000
    15  C    2.433310   2.784257   2.411319   1.394028   0.000000
    16  C    1.399709   2.406221   2.783571   2.418487   1.397030
    17  C    4.607081   5.924790   6.896762   6.805104   5.699714
    18  C    4.865788   6.248221   7.210411   7.052472   5.867954
    19  C    5.116194   6.513332   7.266244   6.857620   5.550468
    20  C    5.135917   6.484689   7.030329   6.416175   5.048516
    21  C    4.907913   6.188441   6.725726   6.164797   4.877012
    22  C    4.640032   5.901731   6.657875   6.373648   5.229101
    23  O    5.385753   6.345948   7.403830   7.636541   6.865413
    24  H    5.362730   6.297679   7.636364   8.146789   7.456390
    25  H    4.011021   4.274297   5.647546   6.600728   6.438984
    26  H    5.391551   5.876778   7.267693   8.121145   7.785366
    27  H    5.068228   5.438858   6.550334   7.249991   6.981268
    28  H    6.001275   6.537012   7.797063   8.511871   8.115397
    29  H    2.744110   2.924502   4.143383   4.989110   4.887000
    30  H    2.804593   3.618974   4.690304   5.078414   4.536008
    31  H    2.144770   3.414500   4.568708   4.810838   4.012930
    32  H    2.142052   2.755269   4.097620   4.808095   4.487075
    33  H    2.155023   1.086281   2.149821   3.400490   3.870518
    34  H    3.412512   2.151192   1.085816   2.156419   3.397153
    35  H    3.901315   3.403191   2.157367   1.085490   2.155754
    36  H    3.411398   3.869114   3.397289   2.154026   1.084886
    37  H    2.150142   3.390921   3.869494   3.400798   2.154174
    38  H    5.267195   6.599489   7.671099   7.651006   6.543336
    39  H    5.674305   7.041914   7.765236   7.329466   6.030103
    40  H    5.707762   6.996883   7.371431   6.583027   5.189229
    41  H    5.339434   6.502722   6.848516   6.142953   4.891078
    42  H    4.893715   6.009854   6.734434   6.520543   5.510534
                   16         17         18         19         20
    16  C    0.000000
    17  C    4.475516   0.000000
    18  C    4.636145   1.397192   0.000000
    19  C    4.523065   2.401790   1.391903   0.000000
    20  C    4.260018   2.768687   2.418434   1.399258   0.000000
    21  C    4.108052   2.402136   2.802780   2.425391   1.396542
    22  C    4.226288   1.393857   2.438085   2.803228   2.419655
    23  O    5.707301   2.632047   3.918548   5.032919   5.184600
    24  H    6.075579   3.455507   3.750267   5.105156   5.988340
    25  H    5.271403   5.435382   5.653109   6.647574   7.348473
    26  H    6.502007   5.336978   5.595275   6.816837   7.663413
    27  H    5.947359   4.839680   5.932907   7.045830   7.233545
    28  H    6.910113   4.899184   5.798525   7.098118   7.580152
    29  H    3.903153   4.728015   5.473177   6.303812   6.480702
    30  H    3.414168   3.179255   4.144389   4.950891   4.986130
    31  H    2.623028   2.980663   3.001057   3.595053   4.097809
    32  H    3.302870   4.569637   4.631363   5.288359   5.829296
    33  H    3.392474   6.357229   6.717598   7.157919   7.265565
    34  H    3.869363   7.904763   8.249595   8.342550   8.113852
    35  H    3.403814   7.760570   8.001690   7.701181   7.149527
    36  H    2.152197   5.964464   6.060622   5.511693   4.811238
    37  H    1.085930   3.676105   3.716378   3.470732   3.185984
    38  H    5.246535   2.158060   1.083859   2.157631   3.405842
    39  H    5.067647   3.386391   2.146529   1.084027   2.158495
    40  H    4.646757   3.853462   3.399256   2.155063   1.084775
    41  H    4.398020   3.386878   3.887602   3.409016   2.157152
    42  H    4.598080   2.144753   3.409460   3.885649   3.411510
                   21         22         23         24         25
    21  C    0.000000
    22  C    1.396312   0.000000
    23  O    4.297921   2.903520   0.000000
    24  H    5.805315   4.658156   3.210266   0.000000
    25  H    7.184038   6.272268   5.233797   3.323345   0.000000
    26  H    7.474432   6.378237   4.777929   2.268172   1.790598
    27  H    6.369600   5.100483   2.838399   3.811583   4.007491
    28  H    6.913813   5.564364   2.959870   2.767737   3.855750
    29  H    5.872651   4.961069   4.082044   4.184024   2.758203
    30  H    4.229084   3.235758   2.741578   3.753832   3.775676
    31  H    4.094495   3.581927   4.230275   3.574339   3.369475
    32  H    5.788103   5.191931   5.170859   3.938463   2.088479
    33  H    6.945198   6.483561   6.472607   6.143173   3.670169
    34  H    7.779139   7.671614   8.226065   8.413558   6.133293
    35  H    6.900786   7.227381   8.594634   9.225421   7.641526
    36  H    4.717960   5.343324   7.343576   8.117879   7.391484
    37  H    3.166730   3.429686   5.305120   5.727171   5.514692
    38  H    3.886577   3.416114   4.273547   3.258123   5.341278
    39  H    3.407560   3.887252   6.007576   5.655766   7.092932
    40  H    2.152801   3.401219   6.235259   7.029333   8.231833
    41  H    1.084830   2.150930   4.890137   6.748441   7.967822
    42  H    2.170347   1.082731   2.442554   4.894397   6.437175
                   26         27         28         29         30
    26  H    0.000000
    27  H    3.857055   0.000000
    28  H    2.911162   1.790122   0.000000
    29  H    3.774373   2.566254   3.673127   0.000000
    30  H    4.336347   2.620385   3.662701   1.757543   0.000000
    31  H    4.192694   4.671612   5.015710   3.069705   2.506125
    32  H    3.516742   4.621504   4.969517   2.531595   3.069924
    33  H    5.351453   5.136520   6.164810   2.610469   3.799769
    34  H    7.812684   7.071560   8.367660   4.699638   5.496685
    35  H    9.187161   8.195689   9.525905   5.985183   6.078167
    36  H    8.653489   7.768859   8.887799   5.833233   5.257914
    37  H    6.511536   6.056904   6.849711   4.325865   3.443001
    38  H    5.094172   6.100307   5.676572   5.688432   4.589092
    39  H    7.276959   7.938310   7.882517   7.058430   5.845335
    40  H    8.646261   8.235900   8.645699   7.340228   5.901189
    41  H    8.344646   6.849365   7.585750   6.364925   4.734290
    42  H    6.506605   4.571914   5.232893   4.781473   3.029923
                   31         32         33         34         35
    31  H    0.000000
    32  H    1.754651   0.000000
    33  H    3.764987   2.633169   0.000000
    34  H    5.522246   4.819947   2.470733   0.000000
    35  H    5.876114   5.872918   4.296628   2.486748   0.000000
    36  H    4.687357   5.400855   4.955382   4.297701   2.486261
    37  H    2.373528   3.581492   4.290541   4.955283   4.298945
    38  H    3.197261   4.582742   6.937856   8.672625   8.639971
    39  H    4.145873   5.708991   7.682931   8.830645   8.139912
    40  H    4.906225   6.579822   7.862541   8.445774   7.192381
    41  H    4.900472   6.513804   7.329577   7.866904   6.748839
    42  H    4.114361   5.536568   6.530680   7.681511   7.343708
                   36         37         38         39         40
    36  H    0.000000
    37  H    2.475322   0.000000
    38  H    6.826985   4.418407   0.000000
    39  H    5.940954   4.046230   2.483346   0.000000
    40  H    4.739412   3.607540   4.301009   2.484017   0.000000
    41  H    4.572672   3.578680   4.971395   4.304643   2.482658
    42  H    5.679775   3.991491   4.295848   4.969661   4.310163
                   41         42
    41  H    0.000000
    42  H    2.502305   0.000000
 Stoichiometry    C17H19NO3S2
 Framework group  C1[X(C17H19NO3S2)]
 Deg. of freedom   120
 Full point group                 C1      NOp   1
 Largest Abelian subgroup         C1      NOp   1
 Largest concise Abelian subgroup C1      NOp   1
                         Standard orientation:                         
 ---------------------------------------------------------------------
 Center     Atomic      Atomic             Coordinates (Angstroms)
 Number     Number       Type             X           Y           Z
 ---------------------------------------------------------------------
      1          8           0       -0.996242   -3.835860    0.255082
      2         16           0       -0.630604   -2.521503   -0.292109
      3          7           0       -1.347001   -1.411232    0.757813
      4          6           0       -1.895869   -0.137088    0.260494
      5          6           0       -2.815665    0.506462    1.323447
      6         16           0       -4.015854    1.112969    0.013973
      7          8           0       -3.575488    2.479066   -0.483785
      8          6           0       -3.003582   -0.219986   -0.821487
      9          6           0       -0.790459    0.832265   -0.186690
     10          6           0        0.211703    1.226690    0.911619
     11          6           0        1.193003    2.278383    0.441479
     12          6           0        0.785393    3.606494    0.253061
     13          6           0        1.684081    4.575112   -0.192445
     14          6           0        3.011670    4.231098   -0.457540
     15          6           0        3.430148    2.914076   -0.274115
     16          6           0        2.526003    1.947088    0.172147
     17          6           0        1.133169   -2.298693   -0.080052
     18          6           0        1.706494   -2.503935    1.177454
     19          6           0        3.087375   -2.393576    1.313027
     20          6           0        3.879889   -2.091968    0.199979
     21          6           0        3.292953   -1.898484   -1.052378
     22          6           0        1.908342   -2.002276   -1.199909
     23          8           0       -0.948487   -2.181668   -1.686502
     24          1           0       -1.997345   -1.937918    1.337782
     25          1           0       -2.400208    1.306310    1.935534
     26          1           0       -3.340923   -0.217171    1.952950
     27          1           0       -2.727211    0.024414   -1.847295
     28          1           0       -3.575334   -1.149374   -0.794943
     29          1           0       -1.301586    1.725771   -0.559414
     30          1           0       -0.261901    0.392364   -1.039038
     31          1           0        0.754709    0.341242    1.251061
     32          1           0       -0.339440    1.607216    1.779216
     33          1           0       -0.244298    3.883984    0.459802
     34          1           0        1.349804    5.599194   -0.328498
     35          1           0        3.712489    4.984992   -0.802192
     36          1           0        4.459517    2.636334   -0.474706
     37          1           0        2.857800    0.923335    0.317351
     38          1           0        1.082889   -2.741911    2.031406
     39          1           0        3.545570   -2.545474    2.283645
     40          1           0        4.956050   -2.011224    0.309953
     41          1           0        3.909284   -1.668559   -1.915007
     42          1           0        1.426323   -1.860627   -2.159023
 ---------------------------------------------------------------------
 Rotational constants (GHZ):      0.2271426      0.2189179      0.1232140
 Leave Link  202 at Sat Aug  8 04:12:58 2020, MaxMem=    33554432 cpu:         0.0
 (Enter /prod/apps/gaussian/g09d1/l301.exe)
 Standard basis: 6-31G(d) (6D, 7F)
 Ernie: Thresh=  0.10000D-02 Tol=  0.10000D-05 Strict=F.
 There are   391 symmetry adapted cartesian basis functions of A   symmetry.
 There are   391 symmetry adapted basis functions of A   symmetry.
   391 basis functions,   768 primitive gaussians,   391 cartesian basis functions
    92 alpha electrons       92 beta electrons
       nuclear repulsion energy      2312.7216046873 Hartrees.
 IExCor=  402 DFT=T Ex+Corr=B3LYP ExCW=0 ScaHFX=  0.200000
 ScaDFX=  0.800000  0.720000  1.000000  0.810000 ScalE2=  1.000000  1.000000
 IRadAn=      0 IRanWt=     -1 IRanGd=            0 ICorTp=0 IEmpDi=  4
 NAtoms=   42 NActive=   42 NUniq=   42 SFac= 1.00D+00 NAtFMM=   60 NAOKFM=F Big=F
 Integral buffers will be    131072 words long.
 Raffenetti 2 integral format.
 Two-electron integral symmetry is turned on.
 Leave Link  301 at Sat Aug  8 04:12:58 2020, MaxMem=    33554432 cpu:         0.0
 (Enter /prod/apps/gaussian/g09d1/l302.exe)
 NPDir=0 NMtPBC=     1 NCelOv=     1 NCel=       1 NClECP=     1 NCelD=      1
         NCelK=      1 NCelE2=     1 NClLst=     1 CellRange=     0.0.
 One-electron integrals computed using PRISM.
 NBasis=   391 RedAO= T EigKep=  4.52D-04  NBF=   391
 NBsUse=   391 1.00D-06 EigRej= -1.00D+00 NBFU=   391
 Precomputing XC quadrature grid using
 IXCGrd= 4 IRadAn=           0 IRanWt=          -1 IRanGd=           0 AccXCQ= 0.00D+00.
 Generated NRdTot=       0 NPtTot=           0 NUsed=           0 NTot=          32
 NSgBfM=   387   387   387   387   387 MxSgAt=    42 MxSgA2=    42.
 Leave Link  302 at Sat Aug  8 04:12:59 2020, MaxMem=    33554432 cpu:         1.4
 (Enter /prod/apps/gaussian/g09d1/l303.exe)
 DipDrv:  MaxL=1.
 Leave Link  303 at Sat Aug  8 04:12:59 2020, MaxMem=    33554432 cpu:         0.0
 (Enter /prod/apps/gaussian/g09d1/l401.exe)
 ExpMin= 1.17D-01 ExpMax= 2.19D+04 ExpMxC= 3.30D+03 IAcc=1 IRadAn=         1 AccDes= 0.00D+00
 Harris functional with IExCor=  402 and IRadAn=       1 diagonalized for initial guess.
 HarFok:  IExCor=  402 AccDes= 0.00D+00 IRadAn=         1 IDoV= 1 UseB2=F ITyADJ=14
 ICtDFT=  3500011 ScaDFX=  1.000000  1.000000  1.000000  1.000000
 FoFCou: FMM=F IPFlag=           0 FMFlag=      100000 FMFlg1=           0
         NFxFlg=           0 DoJE=T BraDBF=F KetDBF=T FulRan=T
         wScrn=  0.000000 ICntrl=     500 IOpCl=  0 I1Cent=   200000004 NGrid=           0
         NMat0=    1 NMatS0=      1 NMatT0=    0 NMatD0=    1 NMtDS0=    0 NMtDT0=    0
 Petite list used in FoFCou.
 Harris En= -1735.99712031218    
 JPrj=0 DoOrth=F DoCkMO=F.
 Leave Link  401 at Sat Aug  8 04:13:05 2020, MaxMem=    33554432 cpu:         5.6
 (Enter /prod/apps/gaussian/g09d1/l502.exe)
 Closed shell SCF:
 Using DIIS extrapolation, IDIIS=  1040.
 Integral symmetry usage will be decided dynamically.
 IVT=      482492 IEndB=      482492 NGot=    33554432 MDV=    33241853
 LenX=    33241853 LenY=    33088531
 Requested convergence on RMS density matrix=1.00D-08 within 128 cycles.
 Requested convergence on MAX density matrix=1.00D-06.
 Requested convergence on             energy=1.00D-06.
 No special actions if energy rises.
 Fock matrices will be formed incrementally for  20 cycles.
 Integral accuracy reduced to 1.0D-05 until final iterations.

 Cycle   1  Pass 0  IDiag  1:
 FoFJK:  IHMeth= 1 ICntrl=       0 DoSepK=F KAlg= 0 I1Cent=   0 FoldK=F
 IRaf= 760000000 NMat=   1 IRICut=       1 DoRegI=T DoRafI=F ISym2E= 0.
 FoFCou: FMM=F IPFlag=           0 FMFlag=      100000 FMFlg1=           0
         NFxFlg=           0 DoJE=F BraDBF=F KetDBF=F FulRan=T
         wScrn=  0.000000 ICntrl=       0 IOpCl=  0 I1Cent=           0 NGrid=           0
         NMat0=    1 NMatS0=      1 NMatT0=    0 NMatD0=    1 NMtDS0=    0 NMtDT0=    0
 Symmetry not used in FoFCou.
 E= -1735.08489253965    
 DIIS: error= 2.62D-02 at cycle   1 NSaved=   1.
 NSaved= 1 IEnMin= 1 EnMin= -1735.08489253965     IErMin= 1 ErrMin= 2.62D-02
 ErrMax= 2.62D-02  0.00D+00 EMaxC= 1.00D-01 BMatC= 9.21D-01 BMatP= 9.21D-01
 IDIUse=3 WtCom= 7.38D-01 WtEn= 2.62D-01
 Coeff-Com:  0.100D+01
 Coeff-En:   0.100D+01
 Coeff:      0.100D+01
 Gap=     0.258 Goal=   None    Shift=    0.000
 GapD=    0.258 DampG=1.000 DampE=0.500 DampFc=0.5000 IDamp=-1.
 Damping current iteration by 5.00D-01
 RMSDP=7.34D-03 MaxDP=5.78D-01              OVMax= 3.61D-01

 Cycle   2  Pass 0  IDiag  1:
 RMSU=  3.67D-03    CP:  9.97D-01
 E= -1735.21363985194     Delta-E=       -0.128747312287 Rises=F Damp=T
 DIIS: error= 2.00D-02 at cycle   2 NSaved=   2.
 NSaved= 2 IEnMin= 2 EnMin= -1735.21363985194     IErMin= 2 ErrMin= 2.00D-02
 ErrMax= 2.00D-02  0.00D+00 EMaxC= 1.00D-01 BMatC= 1.99D-01 BMatP= 9.21D-01
 IDIUse=3 WtCom= 8.00D-01 WtEn= 2.00D-01
 Coeff-Com:  0.270D+00 0.730D+00
 Coeff-En:   0.426D+00 0.574D+00
 Coeff:      0.301D+00 0.699D+00
 Gap=     0.265 Goal=   None    Shift=    0.000
 RMSDP=2.73D-03 MaxDP=1.57D-01 DE=-1.29D-01 OVMax= 2.44D-01

 Cycle   3  Pass 0  IDiag  1:
 RMSU=  2.03D-03    CP:  9.82D-01  5.06D-01
 E= -1735.75883243342     Delta-E=       -0.545192581484 Rises=F Damp=F
 DIIS: error= 1.89D-02 at cycle   3 NSaved=   3.
 NSaved= 3 IEnMin= 3 EnMin= -1735.75883243342     IErMin= 3 ErrMin= 1.89D-02
 ErrMax= 1.89D-02  0.00D+00 EMaxC= 1.00D-01 BMatC= 1.63D-01 BMatP= 1.99D-01
 IDIUse=3 WtCom= 8.11D-01 WtEn= 1.89D-01
 Coeff-Com:  0.122D+00 0.464D+00 0.414D+00
 Coeff-En:   0.000D+00 0.000D+00 0.100D+01
 Coeff:      0.987D-01 0.376D+00 0.525D+00
 Gap=     0.192 Goal=   None    Shift=    0.000
 RMSDP=1.93D-03 MaxDP=9.63D-02 DE=-5.45D-01 OVMax= 1.95D-01

 Cycle   4  Pass 0  IDiag  1:
 RMSU=  1.01D-03    CP:  9.91D-01  6.93D-01  2.67D-01
 E= -1735.86535986914     Delta-E=       -0.106527435718 Rises=F Damp=F
 DIIS: error= 1.19D-02 at cycle   4 NSaved=   4.
 NSaved= 4 IEnMin= 4 EnMin= -1735.86535986914     IErMin= 4 ErrMin= 1.19D-02
 ErrMax= 1.19D-02  0.00D+00 EMaxC= 1.00D-01 BMatC= 5.51D-02 BMatP= 1.63D-01
 IDIUse=3 WtCom= 8.81D-01 WtEn= 1.19D-01
 Coeff-Com:  0.290D-01 0.101D+00 0.357D+00 0.513D+00
 Coeff-En:   0.000D+00 0.000D+00 0.288D+00 0.712D+00
 Coeff:      0.256D-01 0.890D-01 0.349D+00 0.536D+00
 Gap=     0.190 Goal=   None    Shift=    0.000
 RMSDP=8.74D-04 MaxDP=4.75D-02 DE=-1.07D-01 OVMax= 8.02D-02

 Cycle   5  Pass 0  IDiag  1:
 RMSU=  3.31D-04    CP:  9.89D-01  6.07D-01  5.54D-01  5.40D-01
 E= -1735.91155611729     Delta-E=       -0.046196248149 Rises=F Damp=F
 DIIS: error= 2.84D-03 at cycle   5 NSaved=   5.
 NSaved= 5 IEnMin= 5 EnMin= -1735.91155611729     IErMin= 5 ErrMin= 2.84D-03
 ErrMax= 2.84D-03  0.00D+00 EMaxC= 1.00D-01 BMatC= 4.03D-03 BMatP= 5.51D-02
 IDIUse=3 WtCom= 9.72D-01 WtEn= 2.84D-02
 Coeff-Com:  0.315D-02 0.804D-02 0.158D+00 0.333D+00 0.498D+00
 Coeff-En:   0.000D+00 0.000D+00 0.000D+00 0.267D-01 0.973D+00
 Coeff:      0.306D-02 0.781D-02 0.153D+00 0.325D+00 0.511D+00
 Gap=     0.184 Goal=   None    Shift=    0.000
 RMSDP=2.39D-04 MaxDP=1.20D-02 DE=-4.62D-02 OVMax= 2.07D-02

 Cycle   6  Pass 0  IDiag  1:
 RMSU=  1.24D-04    CP:  9.89D-01  6.23D-01  5.23D-01  6.20D-01  4.99D-01
 E= -1735.91464242889     Delta-E=       -0.003086311607 Rises=F Damp=F
 DIIS: error= 8.08D-04 at cycle   6 NSaved=   6.
 NSaved= 6 IEnMin= 6 EnMin= -1735.91464242889     IErMin= 6 ErrMin= 8.08D-04
 ErrMax= 8.08D-04  0.00D+00 EMaxC= 1.00D-01 BMatC= 5.64D-04 BMatP= 4.03D-03
 IDIUse=3 WtCom= 9.92D-01 WtEn= 8.08D-03
 Coeff-Com: -0.964D-03-0.476D-02 0.449D-01 0.119D+00 0.322D+00 0.520D+00
 Coeff-En:   0.000D+00 0.000D+00 0.000D+00 0.000D+00 0.108D+00 0.892D+00
 Coeff:     -0.956D-03-0.472D-02 0.446D-01 0.118D+00 0.320D+00 0.523D+00
 Gap=     0.184 Goal=   None    Shift=    0.000
 RMSDP=7.83D-05 MaxDP=3.83D-03 DE=-3.09D-03 OVMax= 4.74D-03

 Cycle   7  Pass 0  IDiag  1:
 RMSU=  4.21D-05    CP:  9.89D-01  6.21D-01  5.27D-01  6.26D-01  5.90D-01
                    CP:  5.40D-01
 E= -1735.91505734272     Delta-E=       -0.000414913828 Rises=F Damp=F
 DIIS: error= 3.61D-04 at cycle   7 NSaved=   7.
 NSaved= 7 IEnMin= 7 EnMin= -1735.91505734272     IErMin= 7 ErrMin= 3.61D-04
 ErrMax= 3.61D-04  0.00D+00 EMaxC= 1.00D-01 BMatC= 5.61D-05 BMatP= 5.64D-04
 IDIUse=3 WtCom= 9.96D-01 WtEn= 3.61D-03
 Coeff-Com: -0.616D-03-0.338D-02 0.764D-02 0.278D-01 0.130D+00 0.310D+00
 Coeff-Com:  0.529D+00
 Coeff-En:   0.000D+00 0.000D+00 0.000D+00 0.000D+00 0.000D+00 0.568D-01
 Coeff-En:   0.943D+00
 Coeff:     -0.614D-03-0.336D-02 0.761D-02 0.277D-01 0.129D+00 0.309D+00
 Coeff:      0.530D+00
 Gap=     0.183 Goal=   None    Shift=    0.000
 RMSDP=2.51D-05 MaxDP=9.29D-04 DE=-4.15D-04 OVMax= 2.29D-03

 Cycle   8  Pass 0  IDiag  1:
 RMSU=  1.21D-05    CP:  9.89D-01  6.20D-01  5.28D-01  6.22D-01  5.96D-01
                    CP:  6.14D-01  5.45D-01
 E= -1735.91511036888     Delta-E=       -0.000053026163 Rises=F Damp=F
 DIIS: error= 1.04D-04 at cycle   8 NSaved=   8.
 NSaved= 8 IEnMin= 8 EnMin= -1735.91511036888     IErMin= 8 ErrMin= 1.04D-04
 ErrMax= 1.04D-04  0.00D+00 EMaxC= 1.00D-01 BMatC= 2.77D-06 BMatP= 5.61D-05
 IDIUse=3 WtCom= 9.99D-01 WtEn= 1.04D-03
 Coeff-Com: -0.119D-03-0.105D-02-0.231D-03 0.250D-02 0.348D-01 0.102D+00
 Coeff-Com:  0.255D+00 0.607D+00
 Coeff-En:   0.000D+00 0.000D+00 0.000D+00 0.000D+00 0.000D+00 0.000D+00
 Coeff-En:   0.000D+00 0.100D+01
 Coeff:     -0.119D-03-0.105D-02-0.231D-03 0.249D-02 0.348D-01 0.102D+00
 Coeff:      0.255D+00 0.607D+00
 Gap=     0.184 Goal=   None    Shift=    0.000
 RMSDP=6.74D-06 MaxDP=2.67D-04 DE=-5.30D-05 OVMax= 7.55D-04

 Initial convergence to 1.0D-05 achieved.  Increase integral accuracy.
 Cycle   9  Pass 1  IDiag  1:
 E= -1735.91509250085     Delta-E=        0.000017868039 Rises=F Damp=F
 DIIS: error= 1.33D-04 at cycle   1 NSaved=   1.
 NSaved= 1 IEnMin= 1 EnMin= -1735.91509250085     IErMin= 1 ErrMin= 1.33D-04
 ErrMax= 1.33D-04  0.00D+00 EMaxC= 1.00D-01 BMatC= 1.89D-06 BMatP= 1.89D-06
 IDIUse=3 WtCom= 9.99D-01 WtEn= 1.33D-03
 Coeff-Com:  0.100D+01
 Coeff-En:   0.100D+01
 Coeff:      0.100D+01
 Gap=     0.184 Goal=   None    Shift=    0.000
 RMSDP=6.74D-06 MaxDP=2.67D-04 DE= 1.79D-05 OVMax= 7.83D-04

 Cycle  10  Pass 1  IDiag  1:
 RMSU=  4.35D-05    CP:  1.00D+00
 E= -1735.91509249067     Delta-E=        0.000000010176 Rises=F Damp=F
 DIIS: error= 9.75D-05 at cycle   2 NSaved=   2.
 NSaved= 2 IEnMin= 1 EnMin= -1735.91509250085     IErMin= 2 ErrMin= 9.75D-05
 ErrMax= 9.75D-05  0.00D+00 EMaxC= 1.00D-01 BMatC= 1.94D-06 BMatP= 1.89D-06
 IDIUse=1 WtCom= 1.00D+00 WtEn= 0.00D+00
 Coeff-Com:  0.504D+00 0.496D+00
 Coeff:      0.504D+00 0.496D+00
 Gap=     0.184 Goal=   None    Shift=    0.000
 RMSDP=5.93D-06 MaxDP=2.55D-04 DE= 1.02D-08 OVMax= 6.95D-04

 Cycle  11  Pass 1  IDiag  1:
 RMSU=  5.90D-06    CP:  1.00D+00  9.85D-01
 E= -1735.91509398864     Delta-E=       -0.000001497972 Rises=F Damp=F
 DIIS: error= 4.96D-05 at cycle   3 NSaved=   3.
 NSaved= 3 IEnMin= 3 EnMin= -1735.91509398864     IErMin= 3 ErrMin= 4.96D-05
 ErrMax= 4.96D-05  0.00D+00 EMaxC= 1.00D-01 BMatC= 5.67D-07 BMatP= 1.89D-06
 IDIUse=1 WtCom= 1.00D+00 WtEn= 0.00D+00
 Coeff-Com:  0.265D-01 0.347D+00 0.626D+00
 Coeff:      0.265D-01 0.347D+00 0.626D+00
 Gap=     0.184 Goal=   None    Shift=    0.000
 RMSDP=2.28D-06 MaxDP=9.64D-05 DE=-1.50D-06 OVMax= 2.19D-04

 Cycle  12  Pass 1  IDiag  1:
 RMSU=  1.05D-06    CP:  1.00D+00  9.98D-01  6.69D-01
 E= -1735.91509452721     Delta-E=       -0.000000538571 Rises=F Damp=F
 DIIS: error= 8.07D-06 at cycle   4 NSaved=   4.
 NSaved= 4 IEnMin= 4 EnMin= -1735.91509452721     IErMin= 4 ErrMin= 8.07D-06
 ErrMax= 8.07D-06  0.00D+00 EMaxC= 1.00D-01 BMatC= 5.01D-08 BMatP= 5.67D-07
 IDIUse=1 WtCom= 1.00D+00 WtEn= 0.00D+00
 Coeff-Com: -0.504D-02 0.203D+00 0.400D+00 0.402D+00
 Coeff:     -0.504D-02 0.203D+00 0.400D+00 0.402D+00
 Gap=     0.184 Goal=   None    Shift=    0.000
 RMSDP=6.35D-07 MaxDP=4.17D-05 DE=-5.39D-07 OVMax= 4.23D-05

 Cycle  13  Pass 1  IDiag  1:
 RMSU=  2.46D-07    CP:  1.00D+00  9.98D-01  6.74D-01  4.44D-01
 E= -1735.91509456718     Delta-E=       -0.000000039969 Rises=F Damp=F
 DIIS: error= 1.50D-06 at cycle   5 NSaved=   5.
 NSaved= 5 IEnMin= 5 EnMin= -1735.91509456718     IErMin= 5 ErrMin= 1.50D-06
 ErrMax= 1.50D-06  0.00D+00 EMaxC= 1.00D-01 BMatC= 1.81D-09 BMatP= 5.01D-08
 IDIUse=1 WtCom= 1.00D+00 WtEn= 0.00D+00
 Coeff-Com: -0.422D-02 0.102D+00 0.203D+00 0.237D+00 0.463D+00
 Coeff:     -0.422D-02 0.102D+00 0.203D+00 0.237D+00 0.463D+00
 Gap=     0.184 Goal=   None    Shift=    0.000
 RMSDP=1.33D-07 MaxDP=8.58D-06 DE=-4.00D-08 OVMax= 7.68D-06

 Cycle  14  Pass 1  IDiag  1:
 RMSU=  9.32D-08    CP:  1.00D+00  9.98D-01  6.73D-01  4.67D-01  6.32D-01
 E= -1735.91509456872     Delta-E=       -0.000000001538 Rises=F Damp=F
 DIIS: error= 3.09D-07 at cycle   6 NSaved=   6.
 NSaved= 6 IEnMin= 6 EnMin= -1735.91509456872     IErMin= 6 ErrMin= 3.09D-07
 ErrMax= 3.09D-07  0.00D+00 EMaxC= 1.00D-01 BMatC= 8.49D-11 BMatP= 1.81D-09
 IDIUse=1 WtCom= 1.00D+00 WtEn= 0.00D+00
 Coeff-Com: -0.153D-02 0.304D-01 0.603D-01 0.769D-01 0.226D+00 0.608D+00
 Coeff:     -0.153D-02 0.304D-01 0.603D-01 0.769D-01 0.226D+00 0.608D+00
 Gap=     0.184 Goal=   None    Shift=    0.000
 RMSDP=3.88D-08 MaxDP=1.38D-06 DE=-1.54D-09 OVMax= 3.24D-06

 Cycle  15  Pass 1  IDiag  1:
 RMSU=  3.36D-08    CP:  1.00D+00  9.98D-01  6.72D-01  4.65D-01  6.71D-01
                    CP:  8.27D-01
 E= -1735.91509456876     Delta-E=       -0.000000000041 Rises=F Damp=F
 DIIS: error= 2.07D-07 at cycle   7 NSaved=   7.
 NSaved= 7 IEnMin= 7 EnMin= -1735.91509456876     IErMin= 7 ErrMin= 2.07D-07
 ErrMax= 2.07D-07  0.00D+00 EMaxC= 1.00D-01 BMatC= 2.35D-11 BMatP= 8.49D-11
 IDIUse=1 WtCom= 1.00D+00 WtEn= 0.00D+00
 Coeff-Com: -0.398D-03 0.508D-02 0.981D-02 0.156D-01 0.785D-01 0.390D+00
 Coeff-Com:  0.502D+00
 Coeff:     -0.398D-03 0.508D-02 0.981D-02 0.156D-01 0.785D-01 0.390D+00
 Coeff:      0.502D+00
 Gap=     0.184 Goal=   None    Shift=    0.000
 RMSDP=1.88D-08 MaxDP=9.56D-07 DE=-4.09D-11 OVMax= 1.52D-06

 Cycle  16  Pass 1  IDiag  1:
 RMSU=  1.05D-08    CP:  1.00D+00  9.98D-01  6.72D-01  4.69D-01  6.81D-01
                    CP:  8.87D-01  5.88D-01
 E= -1735.91509456882     Delta-E=       -0.000000000060 Rises=F Damp=F
 DIIS: error= 8.74D-08 at cycle   8 NSaved=   8.
 NSaved= 8 IEnMin= 8 EnMin= -1735.91509456882     IErMin= 8 ErrMin= 8.74D-08
 ErrMax= 8.74D-08  0.00D+00 EMaxC= 1.00D-01 BMatC= 3.61D-12 BMatP= 2.35D-11
 IDIUse=1 WtCom= 1.00D+00 WtEn= 0.00D+00
 Coeff-Com: -0.283D-04-0.121D-02-0.259D-02-0.122D-02 0.186D-01 0.172D+00
 Coeff-Com:  0.324D+00 0.490D+00
 Coeff:     -0.283D-04-0.121D-02-0.259D-02-0.122D-02 0.186D-01 0.172D+00
 Coeff:      0.324D+00 0.490D+00
 Gap=     0.184 Goal=   None    Shift=    0.000
 RMSDP=6.61D-09 MaxDP=4.06D-07 DE=-6.05D-11 OVMax= 5.99D-07

 SCF Done:  E(RB3LYP) =  -1735.91509457     A.U. after   16 cycles
            NFock= 16  Conv=0.66D-08     -V/T= 2.0068
 KE= 1.724267643604D+03 PE=-8.699879451825D+03 EE= 2.926975108965D+03
 Leave Link  502 at Sat Aug  8 04:21:18 2020, MaxMem=    33554432 cpu:       492.9
 (Enter /prod/apps/gaussian/g09d1/l601.exe)
 Copying SCF densities to generalized density rwf, IOpCl= 0 IROHF=0.

 **********************************************************************

            Population analysis using the SCF density.

 **********************************************************************

 Orbital symmetries:
       Occupied  (A) (A) (A) (A) (A) (A) (A) (A) (A) (A) (A) (A)
                 (A) (A) (A) (A) (A) (A) (A) (A) (A) (A) (A) (A)
                 (A) (A) (A) (A) (A) (A) (A) (A) (A) (A) (A) (A)
                 (A) (A) (A) (A) (A) (A) (A) (A) (A) (A) (A) (A)
                 (A) (A) (A) (A) (A) (A) (A) (A) (A) (A) (A) (A)
                 (A) (A) (A) (A) (A) (A) (A) (A) (A) (A) (A) (A)
                 (A) (A) (A) (A) (A) (A) (A) (A) (A) (A) (A) (A)
                 (A) (A) (A) (A) (A) (A) (A) (A)
       Virtual   (A) (A) (A) (A) (A) (A) (A) (A) (A) (A) (A) (A)
                 (A) (A) (A) (A) (A) (A) (A) (A) (A) (A) (A) (A)
                 (A) (A) (A) (A) (A) (A) (A) (A) (A) (A) (A) (A)
                 (A) (A) (A) (A) (A) (A) (A) (A) (A) (A) (A) (A)
                 (A) (A) (A) (A) (A) (A) (A) (A) (A) (A) (A) (A)
                 (A) (A) (A) (A) (A) (A) (A) (A) (A) (A) (A) (A)
                 (A) (A) (A) (A) (A) (A) (A) (A) (A) (A) (A) (A)
                 (A) (A) (A) (A) (A) (A) (A) (A) (A) (A) (A) (A)
                 (A) (A) (A) (A) (A) (A) (A) (A) (A) (A) (A) (A)
                 (A) (A) (A) (A) (A) (A) (A) (A) (A) (A) (A) (A)
                 (A) (A) (A) (A) (A) (A) (A) (A) (A) (A) (A) (A)
                 (A) (A) (A) (A) (A) (A) (A) (A) (A) (A) (A) (A)
                 (A) (A) (A) (A) (A) (A) (A) (A) (A) (A) (A) (A)
                 (A) (A) (A) (A) (A) (A) (A) (A) (A) (A) (A) (A)
                 (A) (A) (A) (A) (A) (A) (A) (A) (A) (A) (A) (A)
                 (A) (A) (A) (A) (A) (A) (A) (A) (A) (A) (A) (A)
                 (A) (A) (A) (A) (A) (A) (A) (A) (A) (A) (A) (A)
                 (A) (A) (A) (A) (A) (A) (A) (A) (A) (A) (A) (A)
                 (A) (A) (A) (A) (A) (A) (A) (A) (A) (A) (A) (A)
                 (A) (A) (A) (A) (A) (A) (A) (A) (A) (A) (A) (A)
                 (A) (A) (A) (A) (A) (A) (A) (A) (A) (A) (A) (A)
                 (A) (A) (A) (A) (A) (A) (A) (A) (A) (A) (A) (A)
                 (A) (A) (A) (A) (A) (A) (A) (A) (A) (A) (A) (A)
                 (A) (A) (A) (A) (A) (A) (A) (A) (A) (A) (A) (A)
                 (A) (A) (A) (A) (A) (A) (A) (A) (A) (A) (A)
 The electronic state is 1-A.
 Alpha  occ. eigenvalues --  -89.12190 -88.98901 -19.15236 -19.14922 -19.11632
 Alpha  occ. eigenvalues --  -14.37900 -10.26732 -10.23866 -10.22976 -10.22373
 Alpha  occ. eigenvalues --  -10.22096 -10.21952 -10.21901 -10.21809 -10.21715
 Alpha  occ. eigenvalues --  -10.19227 -10.19188 -10.19001 -10.18592 -10.18529
 Alpha  occ. eigenvalues --  -10.18436 -10.18326 -10.18253  -8.14710  -8.03711
 Alpha  occ. eigenvalues --   -6.11220  -6.11126  -6.11002  -6.00112  -5.99945
 Alpha  occ. eigenvalues --   -5.99492  -1.11844  -1.00798  -1.00760  -0.94564
 Alpha  occ. eigenvalues --   -0.88512  -0.85346  -0.84729  -0.78915  -0.78754
 Alpha  occ. eigenvalues --   -0.77435  -0.73852  -0.73517  -0.71033  -0.69377
 Alpha  occ. eigenvalues --   -0.66648  -0.63437  -0.62615  -0.60149  -0.60047
 Alpha  occ. eigenvalues --   -0.57857  -0.57308  -0.55501  -0.53221  -0.51920
 Alpha  occ. eigenvalues --   -0.50900  -0.49665  -0.48758  -0.47976  -0.46842
 Alpha  occ. eigenvalues --   -0.46342  -0.45480  -0.44990  -0.44853  -0.44050
 Alpha  occ. eigenvalues --   -0.43902  -0.41950  -0.41803  -0.41284  -0.40858
 Alpha  occ. eigenvalues --   -0.39510  -0.39313  -0.39132  -0.38480  -0.37316
 Alpha  occ. eigenvalues --   -0.36791  -0.36099  -0.35358  -0.34728  -0.34315
 Alpha  occ. eigenvalues --   -0.33171  -0.33085  -0.32457  -0.31866  -0.30921
 Alpha  occ. eigenvalues --   -0.29537  -0.27836  -0.27115  -0.26310  -0.24482
 Alpha  occ. eigenvalues --   -0.23894  -0.23018
 Alpha virt. eigenvalues --   -0.04656  -0.02764   0.00044   0.00219   0.00516
 Alpha virt. eigenvalues --    0.03067   0.04032   0.05552   0.06329   0.07886
 Alpha virt. eigenvalues --    0.08994   0.09231   0.09951   0.10393   0.10783
 Alpha virt. eigenvalues --    0.12114   0.12381   0.12638   0.13556   0.13742
 Alpha virt. eigenvalues --    0.14724   0.15264   0.15763   0.16070   0.16842
 Alpha virt. eigenvalues --    0.17359   0.17657   0.18290   0.18946   0.19588
 Alpha virt. eigenvalues --    0.20410   0.20717   0.20935   0.22454   0.25214
 Alpha virt. eigenvalues --    0.25929   0.26707   0.27088   0.27848   0.28086
 Alpha virt. eigenvalues --    0.29738   0.30865   0.30977   0.32275   0.32962
 Alpha virt. eigenvalues --    0.33331   0.34234   0.35098   0.35963   0.37731
 Alpha virt. eigenvalues --    0.40709   0.42335   0.43002   0.44049   0.46180
 Alpha virt. eigenvalues --    0.48134   0.49654   0.50022   0.51194   0.51848
 Alpha virt. eigenvalues --    0.52700   0.53376   0.53880   0.54214   0.55050
 Alpha virt. eigenvalues --    0.55512   0.56007   0.56485   0.57088   0.57572
 Alpha virt. eigenvalues --    0.58125   0.58190   0.59245   0.59633   0.59967
 Alpha virt. eigenvalues --    0.60137   0.60668   0.61436   0.61722   0.62085
 Alpha virt. eigenvalues --    0.62502   0.63235   0.63260   0.63661   0.65051
 Alpha virt. eigenvalues --    0.66382   0.66628   0.67470   0.68195   0.69681
 Alpha virt. eigenvalues --    0.70575   0.71800   0.72221   0.75021   0.76872
 Alpha virt. eigenvalues --    0.77486   0.78384   0.79235   0.80490   0.80994
 Alpha virt. eigenvalues --    0.81507   0.81744   0.82066   0.82993   0.83247
 Alpha virt. eigenvalues --    0.83954   0.84255   0.84894   0.85341   0.85649
 Alpha virt. eigenvalues --    0.86343   0.86418   0.87935   0.88319   0.89458
 Alpha virt. eigenvalues --    0.90097   0.90664   0.90896   0.91396   0.92897
 Alpha virt. eigenvalues --    0.92924   0.93296   0.94467   0.94730   0.96023
 Alpha virt. eigenvalues --    0.97223   0.98583   0.99419   1.00081   1.01223
 Alpha virt. eigenvalues --    1.02524   1.03719   1.04200   1.05019   1.05471
 Alpha virt. eigenvalues --    1.07075   1.07526   1.08182   1.10308   1.10886
 Alpha virt. eigenvalues --    1.11335   1.11336   1.12330   1.13268   1.14541
 Alpha virt. eigenvalues --    1.16050   1.16272   1.17892   1.18830   1.19906
 Alpha virt. eigenvalues --    1.21363   1.21707   1.22750   1.24503   1.25890
 Alpha virt. eigenvalues --    1.27242   1.29901   1.31078   1.34606   1.37122
 Alpha virt. eigenvalues --    1.37853   1.40016   1.41144   1.41791   1.42524
 Alpha virt. eigenvalues --    1.43537   1.44818   1.45224   1.45722   1.46412
 Alpha virt. eigenvalues --    1.48080   1.48673   1.49204   1.49679   1.50933
 Alpha virt. eigenvalues --    1.51987   1.53272   1.57897   1.60825   1.64375
 Alpha virt. eigenvalues --    1.69827   1.70648   1.72936   1.73663   1.75264
 Alpha virt. eigenvalues --    1.76438   1.77868   1.78807   1.80031   1.80858
 Alpha virt. eigenvalues --    1.81137   1.81605   1.83006   1.83472   1.84670
 Alpha virt. eigenvalues --    1.85112   1.85942   1.86847   1.87892   1.88888
 Alpha virt. eigenvalues --    1.90596   1.91338   1.91663   1.93315   1.94625
 Alpha virt. eigenvalues --    1.94694   1.95782   1.96793   1.97256   1.98539
 Alpha virt. eigenvalues --    1.99721   2.00658   2.02045   2.03366   2.04629
 Alpha virt. eigenvalues --    2.06231   2.06921   2.08398   2.09108   2.09474
 Alpha virt. eigenvalues --    2.11924   2.12735   2.12934   2.13399   2.13974
 Alpha virt. eigenvalues --    2.14243   2.14777   2.15072   2.16058   2.19040
 Alpha virt. eigenvalues --    2.20352   2.21382   2.24767   2.25204   2.26338
 Alpha virt. eigenvalues --    2.27380   2.28093   2.28588   2.29516   2.31237
 Alpha virt. eigenvalues --    2.31509   2.32569   2.34003   2.39496   2.41312
 Alpha virt. eigenvalues --    2.42449   2.46385   2.50812   2.53113   2.55926
 Alpha virt. eigenvalues --    2.57170   2.58040   2.59065   2.62274   2.64307
 Alpha virt. eigenvalues --    2.66507   2.68958   2.69632   2.71506   2.72812
 Alpha virt. eigenvalues --    2.73024   2.73557   2.73646   2.74129   2.74821
 Alpha virt. eigenvalues --    2.75923   2.77011   2.77773   2.81737   2.83354
 Alpha virt. eigenvalues --    2.84599   2.94082   3.01650   3.06094   3.35953
 Alpha virt. eigenvalues --    3.41664   3.76022   3.84065   3.92967   4.00098
 Alpha virt. eigenvalues --    4.02046   4.07620   4.08745   4.10186   4.11009
 Alpha virt. eigenvalues --    4.13444   4.15396   4.16979   4.21830   4.24819
 Alpha virt. eigenvalues --    4.31805   4.33072   4.34294   4.35588   4.41600
 Alpha virt. eigenvalues --    4.53668   4.64298   4.70190   4.71876
          Condensed to atoms (all electrons):
               1          2          3          4          5          6
     1  O    8.231613   0.457687  -0.057069   0.001740  -0.000087  -0.000005
     2  S    0.457687  13.706320   0.110113  -0.003055   0.001378   0.000315
     3  N   -0.057069   0.110113   7.422304   0.219376  -0.034007   0.003337
     4  C    0.001740  -0.003055   0.219376   4.886359   0.306361  -0.058432
     5  C   -0.000087   0.001378  -0.034007   0.306361   5.718022   0.041813
     6  S   -0.000005   0.000315   0.003337  -0.058432   0.041813  14.947742
     7  O    0.000000  -0.000001  -0.000052  -0.001320  -0.039033   0.299135
     8  C   -0.000062  -0.005720  -0.059560   0.332624  -0.120082   0.057114
     9  C   -0.000100  -0.004324  -0.061350   0.338499  -0.051055   0.005767
    10  C    0.000002  -0.000031  -0.000185  -0.030525  -0.009270  -0.000611
    11  C    0.000000  -0.000117   0.000136   0.003184   0.000270   0.000027
    12  C    0.000000  -0.000002   0.000000   0.000273   0.000009   0.000007
    13  C    0.000000   0.000000   0.000000   0.000004   0.000000   0.000001
    14  C    0.000000   0.000000   0.000000   0.000000   0.000000   0.000000
    15  C    0.000000   0.000000   0.000000   0.000002   0.000000   0.000000
    16  C    0.000000   0.000011  -0.000007  -0.000021  -0.000005   0.000001
    17  C   -0.063590   0.177091  -0.053495  -0.004336  -0.000155   0.000006
    18  C    0.001332  -0.018369   0.000141   0.000211  -0.000018   0.000000
    19  C    0.000174   0.002276   0.000054   0.000002   0.000000   0.000000
    20  C   -0.000005  -0.000387   0.000007   0.000001   0.000000   0.000000
    21  C   -0.000052   0.003261  -0.000098   0.000004   0.000000   0.000000
    22  C   -0.000776  -0.031412   0.000635   0.000052   0.000000   0.000000
    23  O   -0.041142   0.397371  -0.052946   0.007385   0.000166   0.000284
    24  H    0.006749  -0.012067   0.292748  -0.025834  -0.007849   0.000569
    25  H    0.000000   0.000021   0.001481  -0.025346   0.351219  -0.016672
    26  H   -0.000021  -0.000181  -0.006367  -0.030467   0.318952  -0.004177
    27  H    0.000002   0.000629   0.001524  -0.025790   0.009864  -0.019701
    28  H   -0.000119   0.000855  -0.002709  -0.027063   0.004266  -0.007055
    29  H    0.000000  -0.000079   0.003119  -0.032247  -0.007664   0.005636
    30  H    0.000013   0.008366  -0.005924  -0.030478   0.005804  -0.000460
    31  H   -0.000003  -0.000736   0.004941  -0.006769  -0.000202  -0.000014
    32  H    0.000000   0.000005  -0.000147  -0.005723   0.002268  -0.000079
    33  H    0.000000   0.000000  -0.000001  -0.000187  -0.000019  -0.000017
    34  H    0.000000   0.000000   0.000000   0.000000   0.000000   0.000000
    35  H    0.000000   0.000000   0.000000   0.000000   0.000000   0.000000
    36  H    0.000000   0.000000   0.000000   0.000000   0.000000   0.000000
    37  H    0.000000  -0.000057  -0.000003  -0.000015   0.000001   0.000000
    38  H    0.001767  -0.000699   0.003436   0.000062   0.000002   0.000000
    39  H    0.000001  -0.000055   0.000001   0.000000   0.000000   0.000000
    40  H    0.000000   0.000008   0.000000   0.000000   0.000000   0.000000
    41  H    0.000000  -0.000066   0.000001   0.000000   0.000000   0.000000
    42  H    0.000024  -0.007910   0.000258  -0.000015   0.000001   0.000000
               7          8          9         10         11         12
     1  O    0.000000  -0.000062  -0.000100   0.000002   0.000000   0.000000
     2  S   -0.000001  -0.005720  -0.004324  -0.000031  -0.000117  -0.000002
     3  N   -0.000052  -0.059560  -0.061350  -0.000185   0.000136   0.000000
     4  C   -0.001320   0.332624   0.338499  -0.030525   0.003184   0.000273
     5  C   -0.039033  -0.120082  -0.051055  -0.009270   0.000270   0.000009
     6  S    0.299135   0.057114   0.005767  -0.000611   0.000027   0.000007
     7  O    8.372715  -0.038348  -0.007995  -0.000072   0.000053  -0.000271
     8  C   -0.038348   5.661466  -0.057809   0.004705  -0.000090  -0.000010
     9  C   -0.007995  -0.057809   5.216923   0.340327  -0.040265  -0.003134
    10  C   -0.000072   0.004705   0.340327   5.182120   0.351174  -0.064422
    11  C    0.000053  -0.000090  -0.040265   0.351174   4.634749   0.536239
    12  C   -0.000271  -0.000010  -0.003134  -0.064422   0.536239   4.979950
    13  C   -0.000001   0.000000   0.000174   0.006205  -0.016356   0.524373
    14  C    0.000000   0.000000   0.000004   0.000412  -0.034919  -0.034472
    15  C    0.000000   0.000000  -0.000129   0.007180  -0.020290  -0.048998
    16  C    0.000000  -0.000001  -0.002542  -0.049085   0.555438  -0.038908
    17  C    0.000000  -0.000280   0.002901  -0.001464  -0.000253  -0.000003
    18  C    0.000000   0.000002  -0.000019  -0.001315   0.000002   0.000000
    19  C    0.000000   0.000000   0.000011  -0.000293   0.000056   0.000000
    20  C    0.000000   0.000000   0.000002  -0.000014   0.000057   0.000000
    21  C    0.000000   0.000000  -0.000047   0.000144  -0.000004   0.000000
    22  C    0.000000   0.000001  -0.000588   0.000361  -0.000225  -0.000003
    23  O    0.000000   0.004065  -0.006353   0.000070   0.000000   0.000000
    24  H    0.000003  -0.000170   0.005142  -0.000112   0.000003   0.000000
    25  H    0.000398   0.010091  -0.007589   0.002137  -0.000132  -0.000006
    26  H    0.001364   0.002617   0.005063   0.000024   0.000005  -0.000001
    27  H   -0.000047   0.357663  -0.003553   0.000102  -0.000009   0.000001
    28  H    0.001358   0.321239   0.004550  -0.000121   0.000001   0.000000
    29  H    0.025631  -0.006522   0.354955  -0.034490  -0.001911   0.003506
    30  H    0.000265  -0.005583   0.352651  -0.036195   0.000323  -0.000141
    31  H   -0.000004   0.000058  -0.032214   0.357561  -0.030856   0.004523
    32  H    0.000076   0.000031  -0.044642   0.356140  -0.027351  -0.004767
    33  H    0.000781   0.000006  -0.000169  -0.008499  -0.046989   0.354969
    34  H    0.000000   0.000000   0.000000  -0.000184   0.003648  -0.039278
    35  H    0.000000   0.000000   0.000000   0.000007   0.000681   0.004841
    36  H    0.000000   0.000000   0.000001  -0.000188   0.003875   0.000828
    37  H    0.000000   0.000000   0.000239  -0.010849  -0.041231   0.006474
    38  H    0.000000   0.000003  -0.000030  -0.000014   0.000002   0.000000
    39  H    0.000000   0.000000   0.000000  -0.000002   0.000000   0.000000
    40  H    0.000000   0.000000   0.000000   0.000000   0.000001   0.000000
    41  H    0.000000   0.000000  -0.000001   0.000000   0.000000   0.000000
    42  H    0.000000  -0.000003  -0.000158   0.000000  -0.000002   0.000000
              13         14         15         16         17         18
     1  O    0.000000   0.000000   0.000000   0.000000  -0.063590   0.001332
     2  S    0.000000   0.000000   0.000000   0.000011   0.177091  -0.018369
     3  N    0.000000   0.000000   0.000000  -0.000007  -0.053495   0.000141
     4  C    0.000004   0.000000   0.000002  -0.000021  -0.004336   0.000211
     5  C    0.000000   0.000000   0.000000  -0.000005  -0.000155  -0.000018
     6  S    0.000001   0.000000   0.000000   0.000001   0.000006   0.000000
     7  O   -0.000001   0.000000   0.000000   0.000000   0.000000   0.000000
     8  C    0.000000   0.000000   0.000000  -0.000001  -0.000280   0.000002
     9  C    0.000174   0.000004  -0.000129  -0.002542   0.002901  -0.000019
    10  C    0.006205   0.000412   0.007180  -0.049085  -0.001464  -0.001315
    11  C   -0.016356  -0.034919  -0.020290   0.555438  -0.000253   0.000002
    12  C    0.524373  -0.034472  -0.048998  -0.038908  -0.000003   0.000000
    13  C    4.866080   0.546726  -0.024990  -0.047490   0.000000   0.000000
    14  C    0.546726   4.854855   0.552419  -0.035181   0.000000   0.000000
    15  C   -0.024990   0.552419   4.878186   0.517389   0.000006   0.000001
    16  C   -0.047490  -0.035181   0.517389   4.977836   0.000369   0.000014
    17  C    0.000000   0.000000   0.000006   0.000369   5.322339   0.465956
    18  C    0.000000   0.000000   0.000001   0.000014   0.465956   4.923653
    19  C    0.000000   0.000000  -0.000002  -0.000460  -0.025256   0.519654
    20  C    0.000000   0.000000  -0.000018  -0.001183  -0.038987  -0.030320
    21  C    0.000000   0.000000  -0.000001  -0.000708  -0.030782  -0.037311
    22  C    0.000000   0.000000   0.000008   0.000390   0.524506  -0.035158
    23  O    0.000000   0.000000   0.000000   0.000000  -0.059128   0.001797
    24  H    0.000000   0.000000   0.000000   0.000000   0.002751  -0.000097
    25  H    0.000000   0.000000   0.000000   0.000002   0.000002   0.000000
    26  H    0.000000   0.000000   0.000000   0.000000   0.000001   0.000000
    27  H    0.000000   0.000000   0.000000   0.000000   0.000007   0.000000
    28  H    0.000000   0.000000   0.000000   0.000000   0.000024   0.000000
    29  H   -0.000177   0.000003  -0.000008   0.000089   0.000029   0.000001
    30  H   -0.000031  -0.000006  -0.000066   0.002005  -0.001702  -0.000082
    31  H   -0.000175   0.000001   0.000190  -0.004409   0.002252   0.004309
    32  H    0.000011   0.000020  -0.000230   0.002641   0.000042   0.000020
    33  H   -0.043530   0.004822   0.000350   0.005985   0.000000   0.000000
    34  H    0.357011  -0.043711   0.004642   0.000849   0.000000   0.000000
    35  H   -0.043344   0.358768  -0.044063   0.004784   0.000000   0.000000
    36  H    0.004683  -0.044032   0.355394  -0.040372   0.000000   0.000000
    37  H    0.000312   0.004800  -0.047451   0.346534  -0.000482   0.000000
    38  H    0.000000   0.000000   0.000000  -0.000001  -0.049548   0.362981
    39  H    0.000000   0.000000   0.000000  -0.000004   0.004798  -0.041502
    40  H    0.000000   0.000000  -0.000001  -0.000002   0.000490   0.004883
    41  H    0.000000   0.000000   0.000001   0.000008   0.004876   0.000704
    42  H    0.000000   0.000000   0.000000   0.000001  -0.040044   0.005125
              19         20         21         22         23         24
     1  O    0.000174  -0.000005  -0.000052  -0.000776  -0.041142   0.006749
     2  S    0.002276  -0.000387   0.003261  -0.031412   0.397371  -0.012067
     3  N    0.000054   0.000007  -0.000098   0.000635  -0.052946   0.292748
     4  C    0.000002   0.000001   0.000004   0.000052   0.007385  -0.025834
     5  C    0.000000   0.000000   0.000000   0.000000   0.000166  -0.007849
     6  S    0.000000   0.000000   0.000000   0.000000   0.000284   0.000569
     7  O    0.000000   0.000000   0.000000   0.000000   0.000000   0.000003
     8  C    0.000000   0.000000   0.000000   0.000001   0.004065  -0.000170
     9  C    0.000011   0.000002  -0.000047  -0.000588  -0.006353   0.005142
    10  C   -0.000293  -0.000014   0.000144   0.000361   0.000070  -0.000112
    11  C    0.000056   0.000057  -0.000004  -0.000225   0.000000   0.000003
    12  C    0.000000   0.000000   0.000000  -0.000003   0.000000   0.000000
    13  C    0.000000   0.000000   0.000000   0.000000   0.000000   0.000000
    14  C    0.000000   0.000000   0.000000   0.000000   0.000000   0.000000
    15  C   -0.000002  -0.000018  -0.000001   0.000008   0.000000   0.000000
    16  C   -0.000460  -0.001183  -0.000708   0.000390   0.000000   0.000000
    17  C   -0.025256  -0.038987  -0.030782   0.524506  -0.059128   0.002751
    18  C    0.519654  -0.030320  -0.037311  -0.035158   0.001797  -0.000097
    19  C    4.873274   0.538874  -0.029908  -0.039466  -0.000045   0.000002
    20  C    0.538874   4.849070   0.543102  -0.029320  -0.000006   0.000000
    21  C   -0.029908   0.543102   4.886543   0.499252   0.000648   0.000002
    22  C   -0.039466  -0.029320   0.499252   4.920983   0.001481  -0.000042
    23  O   -0.000045  -0.000006   0.000648   0.001481   8.276151   0.000326
    24  H    0.000002   0.000000   0.000002  -0.000042   0.000326   0.378916
    25  H    0.000000   0.000000   0.000000   0.000000   0.000001  -0.000056
    26  H    0.000000   0.000000   0.000000   0.000000   0.000001   0.007103
    27  H    0.000000   0.000000   0.000000  -0.000005   0.000789  -0.000182
    28  H    0.000000   0.000000   0.000000   0.000000  -0.000518   0.001603
    29  H    0.000000   0.000000   0.000000   0.000009   0.000024  -0.000122
    30  H   -0.000024   0.000001  -0.000004   0.001692   0.004514  -0.000065
    31  H    0.000719  -0.000066  -0.000269  -0.000509  -0.000006  -0.000061
    32  H   -0.000001   0.000000  -0.000001   0.000011  -0.000003  -0.000053
    33  H    0.000000   0.000000   0.000000   0.000000   0.000000   0.000000
    34  H    0.000000   0.000000   0.000000   0.000000   0.000000   0.000000
    35  H    0.000000   0.000000   0.000000   0.000000   0.000000   0.000000
    36  H   -0.000001   0.000005   0.000014   0.000001   0.000000   0.000000
    37  H    0.001497   0.003823   0.002748   0.000050   0.000000   0.000000
    38  H   -0.037789   0.004336   0.000358   0.004639   0.000055  -0.000234
    39  H    0.363226  -0.041533   0.004415   0.000625   0.000000   0.000000
    40  H   -0.041988   0.362256  -0.042080   0.004781   0.000000   0.000000
    41  H    0.004341  -0.042058   0.364245  -0.041718   0.000003   0.000000
    42  H    0.000244   0.004108  -0.036685   0.358676   0.012782  -0.000005
              25         26         27         28         29         30
     1  O    0.000000  -0.000021   0.000002  -0.000119   0.000000   0.000013
     2  S    0.000021  -0.000181   0.000629   0.000855  -0.000079   0.008366
     3  N    0.001481  -0.006367   0.001524  -0.002709   0.003119  -0.005924
     4  C   -0.025346  -0.030467  -0.025790  -0.027063  -0.032247  -0.030478
     5  C    0.351219   0.318952   0.009864   0.004266  -0.007664   0.005804
     6  S   -0.016672  -0.004177  -0.019701  -0.007055   0.005636  -0.000460
     7  O    0.000398   0.001364  -0.000047   0.001358   0.025631   0.000265
     8  C    0.010091   0.002617   0.357663   0.321239  -0.006522  -0.005583
     9  C   -0.007589   0.005063  -0.003553   0.004550   0.354955   0.352651
    10  C    0.002137   0.000024   0.000102  -0.000121  -0.034490  -0.036195
    11  C   -0.000132   0.000005  -0.000009   0.000001  -0.001911   0.000323
    12  C   -0.000006  -0.000001   0.000001   0.000000   0.003506  -0.000141
    13  C    0.000000   0.000000   0.000000   0.000000  -0.000177  -0.000031
    14  C    0.000000   0.000000   0.000000   0.000000   0.000003  -0.000006
    15  C    0.000000   0.000000   0.000000   0.000000  -0.000008  -0.000066
    16  C    0.000002   0.000000   0.000000   0.000000   0.000089   0.002005
    17  C    0.000002   0.000001   0.000007   0.000024   0.000029  -0.001702
    18  C    0.000000   0.000000   0.000000   0.000000   0.000001  -0.000082
    19  C    0.000000   0.000000   0.000000   0.000000   0.000000  -0.000024
    20  C    0.000000   0.000000   0.000000   0.000000   0.000000   0.000001
    21  C    0.000000   0.000000   0.000000   0.000000   0.000000  -0.000004
    22  C    0.000000   0.000000  -0.000005   0.000000   0.000009   0.001692
    23  O    0.000001   0.000001   0.000789  -0.000518   0.000024   0.004514
    24  H   -0.000056   0.007103  -0.000182   0.001603  -0.000122  -0.000065
    25  H    0.492582  -0.021111  -0.000333  -0.000358  -0.000118   0.000140
    26  H   -0.021111   0.555949  -0.000328   0.000411   0.000058  -0.000132
    27  H   -0.000333  -0.000328   0.477907  -0.018172  -0.000030   0.003402
    28  H   -0.000358   0.000411  -0.018172   0.537283   0.000247   0.000001
    29  H   -0.000118   0.000058  -0.000030   0.000247   0.514044  -0.023420
    30  H    0.000140  -0.000132   0.003402   0.000001  -0.023420   0.556669
    31  H   -0.000004  -0.000039  -0.000005   0.000003   0.004471  -0.005165
    32  H    0.007700  -0.000187   0.000012   0.000000  -0.003129   0.005493
    33  H    0.000240   0.000001   0.000000   0.000000   0.002452   0.000102
    34  H    0.000000   0.000000   0.000000   0.000000   0.000004   0.000000
    35  H    0.000000   0.000000   0.000000   0.000000   0.000000   0.000000
    36  H    0.000000   0.000000   0.000000   0.000000   0.000000   0.000001
    37  H    0.000000   0.000000   0.000000   0.000000   0.000017   0.000100
    38  H    0.000000  -0.000001   0.000000   0.000000   0.000000  -0.000002
    39  H    0.000000   0.000000   0.000000   0.000000   0.000000   0.000000
    40  H    0.000000   0.000000   0.000000   0.000000   0.000000   0.000000
    41  H    0.000000   0.000000   0.000000   0.000000   0.000000   0.000000
    42  H    0.000000   0.000000   0.000007   0.000001   0.000002   0.000736
              31         32         33         34         35         36
     1  O   -0.000003   0.000000   0.000000   0.000000   0.000000   0.000000
     2  S   -0.000736   0.000005   0.000000   0.000000   0.000000   0.000000
     3  N    0.004941  -0.000147  -0.000001   0.000000   0.000000   0.000000
     4  C   -0.006769  -0.005723  -0.000187   0.000000   0.000000   0.000000
     5  C   -0.000202   0.002268  -0.000019   0.000000   0.000000   0.000000
     6  S   -0.000014  -0.000079  -0.000017   0.000000   0.000000   0.000000
     7  O   -0.000004   0.000076   0.000781   0.000000   0.000000   0.000000
     8  C    0.000058   0.000031   0.000006   0.000000   0.000000   0.000000
     9  C   -0.032214  -0.044642  -0.000169   0.000000   0.000000   0.000001
    10  C    0.357561   0.356140  -0.008499  -0.000184   0.000007  -0.000188
    11  C   -0.030856  -0.027351  -0.046989   0.003648   0.000681   0.003875
    12  C    0.004523  -0.004767   0.354969  -0.039278   0.004841   0.000828
    13  C   -0.000175   0.000011  -0.043530   0.357011  -0.043344   0.004683
    14  C    0.000001   0.000020   0.004822  -0.043711   0.358768  -0.044032
    15  C    0.000190  -0.000230   0.000350   0.004642  -0.044063   0.355394
    16  C   -0.004409   0.002641   0.005985   0.000849   0.004784  -0.040372
    17  C    0.002252   0.000042   0.000000   0.000000   0.000000   0.000000
    18  C    0.004309   0.000020   0.000000   0.000000   0.000000   0.000000
    19  C    0.000719  -0.000001   0.000000   0.000000   0.000000  -0.000001
    20  C   -0.000066   0.000000   0.000000   0.000000   0.000000   0.000005
    21  C   -0.000269  -0.000001   0.000000   0.000000   0.000000   0.000014
    22  C   -0.000509   0.000011   0.000000   0.000000   0.000000   0.000001
    23  O   -0.000006  -0.000003   0.000000   0.000000   0.000000   0.000000
    24  H   -0.000061  -0.000053   0.000000   0.000000   0.000000   0.000000
    25  H   -0.000004   0.007700   0.000240   0.000000   0.000000   0.000000
    26  H   -0.000039  -0.000187   0.000001   0.000000   0.000000   0.000000
    27  H   -0.000005   0.000012   0.000000   0.000000   0.000000   0.000000
    28  H    0.000003   0.000000   0.000000   0.000000   0.000000   0.000000
    29  H    0.004471  -0.003129   0.002452   0.000004   0.000000   0.000000
    30  H   -0.005165   0.005493   0.000102   0.000000   0.000000   0.000001
    31  H    0.572103  -0.034679   0.000033   0.000003   0.000000  -0.000009
    32  H   -0.034679   0.603062   0.003187  -0.000003   0.000000   0.000003
    33  H    0.000033   0.003187   0.593922  -0.005599  -0.000179   0.000018
    34  H    0.000003  -0.000003  -0.005599   0.597682  -0.005573  -0.000193
    35  H    0.000000   0.000000  -0.000179  -0.005573   0.603583  -0.005749
    36  H   -0.000009   0.000003   0.000018  -0.000193  -0.005749   0.608372
    37  H    0.006655   0.000080  -0.000175   0.000017  -0.000177  -0.005483
    38  H    0.000085   0.000006   0.000000   0.000000   0.000000   0.000000
    39  H    0.000008   0.000000   0.000000   0.000000   0.000000   0.000000
    40  H   -0.000001   0.000000   0.000000   0.000000   0.000000   0.000002
    41  H    0.000001   0.000000   0.000000   0.000000   0.000000   0.000003
    42  H   -0.000006   0.000000   0.000000   0.000000   0.000000   0.000000
              37         38         39         40         41         42
     1  O    0.000000   0.001767   0.000001   0.000000   0.000000   0.000024
     2  S   -0.000057  -0.000699  -0.000055   0.000008  -0.000066  -0.007910
     3  N   -0.000003   0.003436   0.000001   0.000000   0.000001   0.000258
     4  C   -0.000015   0.000062   0.000000   0.000000   0.000000  -0.000015
     5  C    0.000001   0.000002   0.000000   0.000000   0.000000   0.000001
     6  S    0.000000   0.000000   0.000000   0.000000   0.000000   0.000000
     7  O    0.000000   0.000000   0.000000   0.000000   0.000000   0.000000
     8  C    0.000000   0.000003   0.000000   0.000000   0.000000  -0.000003
     9  C    0.000239  -0.000030   0.000000   0.000000  -0.000001  -0.000158
    10  C   -0.010849  -0.000014  -0.000002   0.000000   0.000000   0.000000
    11  C   -0.041231   0.000002   0.000000   0.000001   0.000000  -0.000002
    12  C    0.006474   0.000000   0.000000   0.000000   0.000000   0.000000
    13  C    0.000312   0.000000   0.000000   0.000000   0.000000   0.000000
    14  C    0.004800   0.000000   0.000000   0.000000   0.000000   0.000000
    15  C   -0.047451   0.000000   0.000000  -0.000001   0.000001   0.000000
    16  C    0.346534  -0.000001  -0.000004  -0.000002   0.000008   0.000001
    17  C   -0.000482  -0.049548   0.004798   0.000490   0.004876  -0.040044
    18  C    0.000000   0.362981  -0.041502   0.004883   0.000704   0.005125
    19  C    0.001497  -0.037789   0.363226  -0.041988   0.004341   0.000244
    20  C    0.003823   0.004336  -0.041533   0.362256  -0.042058   0.004108
    21  C    0.002748   0.000358   0.004415  -0.042080   0.364245  -0.036685
    22  C    0.000050   0.004639   0.000625   0.004781  -0.041718   0.358676
    23  O    0.000000   0.000055   0.000000   0.000000   0.000003   0.012782
    24  H    0.000000  -0.000234   0.000000   0.000000   0.000000  -0.000005
    25  H    0.000000   0.000000   0.000000   0.000000   0.000000   0.000000
    26  H    0.000000  -0.000001   0.000000   0.000000   0.000000   0.000000
    27  H    0.000000   0.000000   0.000000   0.000000   0.000000   0.000007
    28  H    0.000000   0.000000   0.000000   0.000000   0.000000   0.000001
    29  H    0.000017   0.000000   0.000000   0.000000   0.000000   0.000002
    30  H    0.000100  -0.000002   0.000000   0.000000   0.000000   0.000736
    31  H    0.006655   0.000085   0.000008  -0.000001   0.000001  -0.000006
    32  H    0.000080   0.000006   0.000000   0.000000   0.000000   0.000000
    33  H   -0.000175   0.000000   0.000000   0.000000   0.000000   0.000000
    34  H    0.000017   0.000000   0.000000   0.000000   0.000000   0.000000
    35  H   -0.000177   0.000000   0.000000   0.000000   0.000000   0.000000
    36  H   -0.005483   0.000000   0.000000   0.000002   0.000003   0.000000
    37  H    0.603546   0.000000   0.000010   0.000011  -0.000005   0.000006
    38  H    0.000000   0.548942  -0.005463  -0.000154   0.000015  -0.000147
    39  H    0.000010  -0.005463   0.571234  -0.005308  -0.000168   0.000014
    40  H    0.000011  -0.000154  -0.005308   0.574359  -0.005394  -0.000140
    41  H   -0.000005   0.000015  -0.000168  -0.005394   0.568494  -0.004874
    42  H    0.000006  -0.000147   0.000014  -0.000140  -0.004874   0.520351
 Mulliken charges:
               1
     1  O   -0.538076
     2  S    1.219561
     3  N   -0.729692
     4  C    0.211482
     5  C   -0.490948
     6  S    0.745469
     7  O   -0.614632
     8  C   -0.457445
     9  C   -0.303147
    10  C   -0.360732
    11  C    0.171073
    12  C   -0.181576
    13  C   -0.129485
    14  C   -0.130509
    15  C   -0.129522
    16  C   -0.193964
    17  C   -0.138943
    18  C   -0.126594
    19  C   -0.129173
    20  C   -0.121744
    21  C   -0.126786
    22  C   -0.138930
    23  O   -0.547765
    24  H    0.351033
    25  H    0.205711
    26  H    0.171464
    27  H    0.216248
    28  H    0.184275
    29  H    0.195620
    30  H    0.167203
    31  H    0.158287
    32  H    0.140185
    33  H    0.138497
    34  H    0.130685
    35  H    0.126421
    36  H    0.122826
    37  H    0.129007
    38  H    0.167392
    39  H    0.149702
    40  H    0.148279
    41  H    0.151590
    42  H    0.187656
 Sum of Mulliken charges =   0.00000
 Mulliken charges with hydrogens summed into heavy atoms:
               1
     1  O   -0.538076
     2  S    1.219561
     3  N   -0.378659
     4  C    0.211482
     5  C   -0.113773
     6  S    0.745469
     7  O   -0.614632
     8  C   -0.056923
     9  C    0.059676
    10  C   -0.062260
    11  C    0.171073
    12  C   -0.043078
    13  C    0.001200
    14  C   -0.004088
    15  C   -0.006696
    16  C   -0.064957
    17  C   -0.138943
    18  C    0.040798
    19  C    0.020529
    20  C    0.026534
    21  C    0.024803
    22  C    0.048726
    23  O   -0.547765
 Electronic spatial extent (au):  <R**2>=           8571.7045
 Charge=              0.0000 electrons
 Dipole moment (field-independent basis, Debye):
    X=              2.9183    Y=             -0.8173    Z=              2.8820  Tot=              4.1822
 Quadrupole moment (field-independent basis, Debye-Ang):
   XX=           -134.2296   YY=           -169.1792   ZZ=           -144.0858
   XY=              2.4647   XZ=             -8.8704   YZ=             -3.6994
 Traceless Quadrupole moment (field-independent basis, Debye-Ang):
[...]
    26  H    0.000000   0.000000   0.000000   0.000000   0.000001   0.000000
    27  H    0.000000   0.000000   0.000000   0.000000   0.000007   0.000000
    28  H    0.000000   0.000000   0.000000   0.000000   0.000023   0.000000
    29  H   -0.000186   0.000003  -0.000008   0.000098   0.000030   0.000000
    30  H   -0.000031  -0.000006  -0.000067   0.001988  -0.001652  -0.000086
    31  H   -0.000176   0.000002   0.000201  -0.004280   0.002241   0.004284
    32  H    0.000016   0.000020  -0.000229   0.002586   0.000044   0.000019
    33  H   -0.044460   0.004888   0.000290   0.006054   0.000000   0.000000
    34  H    0.358870  -0.042988   0.004609   0.000792   0.000000   0.000000
    35  H   -0.042824   0.360945  -0.043117   0.004696   0.000000   0.000000
    36  H    0.004596  -0.043173   0.358008  -0.039234   0.000000   0.000000
    37  H    0.000278   0.004770  -0.046586   0.348145  -0.000502   0.000005
    38  H    0.000000   0.000000   0.000000  -0.000001  -0.051079   0.364560
    39  H    0.000000   0.000000   0.000000  -0.000004   0.004729  -0.040586
    40  H    0.000000   0.000000  -0.000001  -0.000002   0.000478   0.004805
    41  H    0.000000   0.000000   0.000001   0.000007   0.004847   0.000662
    42  H    0.000000   0.000000   0.000000   0.000001  -0.043196   0.005023
              19         20         21         22         23         24
     1  O    0.000172  -0.000005  -0.000050  -0.000804  -0.040591   0.005945
     2  S    0.002227  -0.000390   0.003255  -0.031621   0.398160  -0.011179
     3  N    0.000061   0.000007  -0.000100   0.000672  -0.053295   0.294971
     4  C    0.000002   0.000001   0.000004   0.000042   0.007081  -0.024396
     5  C    0.000000   0.000000   0.000000   0.000000   0.000156  -0.007080
     6  S    0.000000   0.000000   0.000000   0.000000   0.000283   0.000533
     7  O    0.000000   0.000000   0.000000   0.000000   0.000000   0.000003
     8  C    0.000000   0.000000   0.000000   0.000002   0.004012  -0.000108
     9  C    0.000011   0.000001  -0.000047  -0.000616  -0.006238   0.004838
    10  C   -0.000292  -0.000016   0.000142   0.000381   0.000069  -0.000105
    11  C    0.000056   0.000057  -0.000003  -0.000230   0.000000   0.000003
    12  C    0.000000   0.000000   0.000000  -0.000003   0.000000   0.000000
    13  C    0.000000   0.000000   0.000000   0.000000   0.000000   0.000000
    14  C    0.000000   0.000000   0.000000   0.000000   0.000000   0.000000
    15  C   -0.000002  -0.000017  -0.000002   0.000008   0.000000   0.000000
    16  C   -0.000471  -0.001211  -0.000753   0.000390   0.000000   0.000000
    17  C   -0.026589  -0.039003  -0.030961   0.519231  -0.059530   0.002456
    18  C    0.520812  -0.031218  -0.037593  -0.033856   0.001745  -0.000098
    19  C    4.874444   0.536769  -0.030492  -0.039228  -0.000046   0.000002
    20  C    0.536769   4.854972   0.540775  -0.030380  -0.000005   0.000000
    21  C   -0.030492   0.540775   4.889086   0.501592   0.000629   0.000002
    22  C   -0.039228  -0.030380   0.501592   4.925534   0.001361  -0.000039
    23  O   -0.000046  -0.000005   0.000629   0.001361   8.288775   0.000263
    24  H    0.000002   0.000000   0.000002  -0.000039   0.000263   0.352790
    25  H    0.000000   0.000000   0.000000   0.000000   0.000001  -0.000047
    26  H    0.000000   0.000000   0.000000   0.000000   0.000001   0.006185
    27  H    0.000000   0.000000   0.000000  -0.000005   0.000799  -0.000169
    28  H    0.000000   0.000000   0.000000   0.000000  -0.000506   0.001445
    29  H    0.000000   0.000000   0.000000   0.000010   0.000025  -0.000117
    30  H   -0.000024   0.000001   0.000000   0.001738   0.004408  -0.000064
    31  H    0.000725  -0.000061  -0.000267  -0.000533  -0.000005  -0.000048
    32  H   -0.000001   0.000000  -0.000001   0.000011  -0.000003  -0.000049
    33  H    0.000000   0.000000   0.000000   0.000000   0.000000   0.000000
    34  H    0.000000   0.000000   0.000000   0.000000   0.000000   0.000000
    35  H    0.000000   0.000000   0.000000   0.000000   0.000000   0.000000
    36  H   -0.000001   0.000005   0.000013   0.000001   0.000000   0.000000
    37  H    0.001542   0.003928   0.002885   0.000068   0.000000   0.000000
    38  H   -0.035395   0.004271   0.000338   0.004431   0.000052  -0.000211
    39  H    0.365403  -0.040218   0.004300   0.000608   0.000000   0.000000
    40  H   -0.040749   0.364321  -0.041058   0.004711   0.000000   0.000000
    41  H    0.004250  -0.040728   0.366101  -0.041261   0.000003   0.000000
    42  H    0.000215   0.004168  -0.035464   0.360104   0.012498  -0.000005
              25         26         27         28         29         30
     1  O    0.000000  -0.000020   0.000002  -0.000119   0.000000   0.000012
     2  S    0.000013  -0.000145   0.000660   0.001068  -0.000089   0.008199
     3  N    0.001364  -0.005740   0.001557  -0.002543   0.003195  -0.005927
     4  C   -0.026435  -0.029156  -0.026553  -0.026398  -0.031980  -0.030317
     5  C    0.352166   0.327160   0.009798   0.003947  -0.007690   0.005760
     6  S   -0.016995  -0.005406  -0.019378  -0.007388   0.005251  -0.000533
     7  O    0.000348   0.001296  -0.000065   0.001313   0.025612   0.000264
     8  C    0.009856   0.002463   0.355597   0.325823  -0.006521  -0.005526
     9  C   -0.007201   0.004829  -0.003687   0.004428   0.353570   0.352602
    10  C    0.002030   0.000019   0.000100  -0.000117  -0.035126  -0.036361
    11  C   -0.000129   0.000004  -0.000009   0.000001  -0.002105   0.000261
    12  C   -0.000005  -0.000001   0.000001   0.000000   0.003662  -0.000127
    13  C    0.000000   0.000000   0.000000   0.000000  -0.000186  -0.000031
    14  C    0.000000   0.000000   0.000000   0.000000   0.000003  -0.000006
    15  C    0.000000   0.000000   0.000000   0.000000  -0.000008  -0.000067
    16  C    0.000002   0.000000   0.000000   0.000000   0.000098   0.001988
    17  C    0.000002   0.000001   0.000007   0.000023   0.000030  -0.001652
    18  C    0.000000   0.000000   0.000000   0.000000   0.000000  -0.000086
    19  C    0.000000   0.000000   0.000000   0.000000   0.000000  -0.000024
    20  C    0.000000   0.000000   0.000000   0.000000   0.000000   0.000001
    21  C    0.000000   0.000000   0.000000   0.000000   0.000000   0.000000
    22  C    0.000000   0.000000  -0.000005   0.000000   0.000010   0.001738
    23  O    0.000001   0.000001   0.000799  -0.000506   0.000025   0.004408
    24  H   -0.000047   0.006185  -0.000169   0.001445  -0.000117  -0.000064
    25  H    0.484425  -0.018781  -0.000336  -0.000330  -0.000129   0.000137
    26  H   -0.018781   0.519782  -0.000307   0.000343   0.000051  -0.000124
    27  H   -0.000336  -0.000307   0.483322  -0.017923  -0.000011   0.003446
    28  H   -0.000330   0.000343  -0.017923   0.519087   0.000237  -0.000009
    29  H   -0.000129   0.000051  -0.000011   0.000237   0.526903  -0.024258
    30  H    0.000137  -0.000124   0.003446  -0.000009  -0.024258   0.559148
    31  H    0.000009  -0.000036  -0.000005   0.000003   0.004522  -0.005134
    32  H    0.007454  -0.000170   0.000011   0.000000  -0.003120   0.005414
    33  H    0.000238   0.000001   0.000000   0.000000   0.002552   0.000103
    34  H    0.000000   0.000000   0.000000   0.000000   0.000004   0.000000
    35  H    0.000000   0.000000   0.000000   0.000000   0.000000   0.000000
    36  H    0.000000   0.000000   0.000000   0.000000   0.000000   0.000001
    37  H    0.000000   0.000000   0.000000   0.000000   0.000017   0.000100
    38  H    0.000000  -0.000001   0.000000   0.000000   0.000000  -0.000002
    39  H    0.000000   0.000000   0.000000   0.000000   0.000000   0.000000
    40  H    0.000000   0.000000   0.000000   0.000000   0.000000   0.000000
    41  H    0.000000   0.000000   0.000000   0.000000   0.000000   0.000000
    42  H    0.000000   0.000000   0.000007   0.000001   0.000002   0.000739
              31         32         33         34         35         36
     1  O   -0.000003   0.000000   0.000000   0.000000   0.000000   0.000000
     2  S   -0.000736   0.000004   0.000000   0.000000   0.000000   0.000000
     3  N    0.004856  -0.000150  -0.000001   0.000000   0.000000   0.000000
     4  C   -0.006603  -0.005646  -0.000186   0.000000   0.000000   0.000000
     5  C   -0.000190   0.002507  -0.000013   0.000000   0.000000   0.000000
     6  S   -0.000014  -0.000121  -0.000022   0.000000   0.000000   0.000000
     7  O   -0.000004   0.000073   0.000800   0.000000   0.000000   0.000000
     8  C    0.000062   0.000043   0.000006   0.000000   0.000000   0.000000
     9  C   -0.031973  -0.043674  -0.000204   0.000000   0.000000   0.000001
    10  C    0.358809   0.358643  -0.008444  -0.000178   0.000006  -0.000180
    11  C   -0.031238  -0.027677  -0.047168   0.003640   0.000651   0.003790
    12  C    0.004514  -0.004662   0.355686  -0.039358   0.004747   0.000793
    13  C   -0.000176   0.000016  -0.044460   0.358870  -0.042824   0.004596
    14  C    0.000002   0.000020   0.004888  -0.042988   0.360945  -0.043173
    15  C    0.000201  -0.000229   0.000290   0.004609  -0.043117   0.358008
    16  C   -0.004280   0.002586   0.006054   0.000792   0.004696  -0.039234
    17  C    0.002241   0.000044   0.000000   0.000000   0.000000   0.000000
    18  C    0.004284   0.000019   0.000000   0.000000   0.000000   0.000000
    19  C    0.000725  -0.000001   0.000000   0.000000   0.000000  -0.000001
    20  C   -0.000061   0.000000   0.000000   0.000000   0.000000   0.000005
    21  C   -0.000267  -0.000001   0.000000   0.000000   0.000000   0.000013
    22  C   -0.000533   0.000011   0.000000   0.000000   0.000000   0.000001
    23  O   -0.000005  -0.000003   0.000000   0.000000   0.000000   0.000000
    24  H   -0.000048  -0.000049   0.000000   0.000000   0.000000   0.000000
    25  H    0.000009   0.007454   0.000238   0.000000   0.000000   0.000000
    26  H   -0.000036  -0.000170   0.000001   0.000000   0.000000   0.000000
    27  H   -0.000005   0.000011   0.000000   0.000000   0.000000   0.000000
    28  H    0.000003   0.000000   0.000000   0.000000   0.000000   0.000000
    29  H    0.004522  -0.003120   0.002552   0.000004   0.000000   0.000000
    30  H   -0.005134   0.005414   0.000103   0.000000   0.000000   0.000001
    31  H    0.565270  -0.033629   0.000033   0.000003   0.000000  -0.000009
    32  H   -0.033629   0.590297   0.003115  -0.000003   0.000000   0.000003
    33  H    0.000033   0.003115   0.594511  -0.005561  -0.000174   0.000017
    34  H    0.000003  -0.000003  -0.005561   0.586965  -0.005390  -0.000185
    35  H    0.000000   0.000000  -0.000174  -0.005390   0.589089  -0.005492
    36  H   -0.000009   0.000003   0.000017  -0.000185  -0.005492   0.590206
    37  H    0.006476   0.000080  -0.000170   0.000017  -0.000171  -0.005277
    38  H    0.000091   0.000005   0.000000   0.000000   0.000000   0.000000
    39  H    0.000008   0.000000   0.000000   0.000000   0.000000   0.000000
    40  H   -0.000001   0.000000   0.000000   0.000000   0.000000   0.000002
    41  H    0.000001   0.000000   0.000000   0.000000   0.000000   0.000003
    42  H   -0.000006   0.000000   0.000000   0.000000   0.000000   0.000000
              37         38         39         40         41         42
     1  O    0.000000   0.001631   0.000001   0.000000   0.000000   0.000024
     2  S   -0.000059  -0.000467  -0.000059   0.000008  -0.000069  -0.007742
     3  N   -0.000003   0.003243   0.000001   0.000000   0.000000   0.000247
     4  C   -0.000014   0.000055   0.000000   0.000000   0.000000  -0.000015
     5  C    0.000001   0.000001   0.000000   0.000000   0.000000   0.000001
     6  S    0.000000   0.000000   0.000000   0.000000   0.000000   0.000000
     7  O    0.000000   0.000000   0.000000   0.000000   0.000000   0.000000
     8  C    0.000000   0.000003   0.000000   0.000000   0.000000  -0.000003
     9  C    0.000240  -0.000029   0.000000   0.000000  -0.000001  -0.000161
    10  C   -0.010527  -0.000016  -0.000002   0.000000   0.000000   0.000000
    11  C   -0.041024   0.000002   0.000000   0.000001   0.000000  -0.000002
    12  C    0.006415   0.000000   0.000000   0.000000   0.000000   0.000000
    13  C    0.000278   0.000000   0.000000   0.000000   0.000000   0.000000
    14  C    0.004770   0.000000   0.000000   0.000000   0.000000   0.000000
    15  C   -0.046586   0.000000   0.000000  -0.000001   0.000001   0.000000
    16  C    0.348145  -0.000001  -0.000004  -0.000002   0.000007   0.000001
    17  C   -0.000502  -0.051079   0.004729   0.000478   0.004847  -0.043196
    18  C    0.000005   0.364560  -0.040586   0.004805   0.000662   0.005023
    19  C    0.001542  -0.035395   0.365403  -0.040749   0.004250   0.000215
    20  C    0.003928   0.004271  -0.040218   0.364321  -0.040728   0.004168
    21  C    0.002885   0.000338   0.004300  -0.041058   0.366101  -0.035464
    22  C    0.000068   0.004431   0.000608   0.004711  -0.041261   0.360104
    23  O    0.000000   0.000052   0.000000   0.000000   0.000003   0.012498
    24  H    0.000000  -0.000211   0.000000   0.000000   0.000000  -0.000005
    25  H    0.000000   0.000000   0.000000   0.000000   0.000000   0.000000
    26  H    0.000000  -0.000001   0.000000   0.000000   0.000000   0.000000
    27  H    0.000000   0.000000   0.000000   0.000000   0.000000   0.000007
    28  H    0.000000   0.000000   0.000000   0.000000   0.000000   0.000001
    29  H    0.000017   0.000000   0.000000   0.000000   0.000000   0.000002
    30  H    0.000100  -0.000002   0.000000   0.000000   0.000000   0.000739
    31  H    0.006476   0.000091   0.000008  -0.000001   0.000001  -0.000006
    32  H    0.000080   0.000005   0.000000   0.000000   0.000000   0.000000
    33  H   -0.000170   0.000000   0.000000   0.000000   0.000000   0.000000
    34  H    0.000017   0.000000   0.000000   0.000000   0.000000   0.000000
    35  H   -0.000171   0.000000   0.000000   0.000000   0.000000   0.000000
    36  H   -0.005277   0.000000   0.000000   0.000002   0.000003   0.000000
    37  H    0.592256   0.000000   0.000010   0.000012  -0.000003   0.000006
    38  H    0.000000   0.538057  -0.005302  -0.000147   0.000014  -0.000144
    39  H    0.000010  -0.005302   0.552228  -0.005066  -0.000159   0.000013
    40  H    0.000012  -0.000147  -0.005066   0.555111  -0.005163  -0.000136
    41  H   -0.000003   0.000014  -0.000159  -0.005163   0.552687  -0.004886
    42  H    0.000006  -0.000144   0.000013  -0.000136  -0.004886   0.523104
 Mulliken charges:
               1
     1  O   -0.557076
     2  S    1.214372
     3  N   -0.732693
     4  C    0.209822
     5  C   -0.493147
     6  S    0.746795
     7  O   -0.645942
     8  C   -0.460844
     9  C   -0.301058
    10  C   -0.362283
    11  C    0.167004
    12  C   -0.188451
    13  C   -0.140531
    14  C   -0.142019
    15  C   -0.140462
    16  C   -0.199716
    17  C   -0.142287
    18  C   -0.134991
    19  C   -0.133403
    20  C   -0.126025
    21  C   -0.132332
    22  C   -0.142319
    23  O   -0.560102
    24  H    0.374278
    25  H    0.212343
    26  H    0.197751
    27  H    0.213142
    28  H    0.197614
    29  H    0.185593
    30  H    0.165926
    31  H    0.162841
    32  H    0.148789
    33  H    0.138110
    34  H    0.138763
    35  H    0.137032
    36  H    0.136112
    37  H    0.137086
    38  H    0.176037
    39  H    0.164096
    40  H    0.162875
    41  H    0.163693
    42  H    0.185607
 Sum of Mulliken charges =   0.00000
 Mulliken charges with hydrogens summed into heavy atoms:
               1
     1  O   -0.557076
     2  S    1.214372
     3  N   -0.358415
     4  C    0.209822
     5  C   -0.083053
     6  S    0.746795
     7  O   -0.645942
     8  C   -0.050087
     9  C    0.050461
    10  C   -0.050653
    11  C    0.167004
    12  C   -0.050341
    13  C   -0.001769
    14  C   -0.004987
    15  C   -0.004349
    16  C   -0.062631
    17  C   -0.142287
    18  C    0.041046
    19  C    0.030693
    20  C    0.036850
    21  C    0.031361
    22  C    0.043288
    23  O   -0.560102
 Electronic spatial extent (au):  <R**2>=           8571.0106
 Charge=              0.0000 electrons
 Dipole moment (field-independent basis, Debye):
    X=              3.3886    Y=             -1.1710    Z=              3.6722  Tot=              5.1322
 Quadrupole moment (field-independent basis, Debye-Ang):
   XX=           -131.2180   YY=           -172.1066   ZZ=           -143.2366
   XY=              3.2105   XZ=            -10.2483   YZ=             -4.2838
 Traceless Quadrupole moment (field-independent basis, Debye-Ang):
   XX=             17.6357   YY=            -23.2529   ZZ=              5.6172
   XY=              3.2105   XZ=            -10.2483   YZ=             -4.2838
 Octapole moment (field-independent basis, Debye-Ang**2):
  XXX=             47.0924  YYY=             69.4162  ZZZ=              8.5518  XYY=             55.8016
  XXY=            -78.1132  XXZ=             15.1461  XZZ=            -12.8788  YZZ=            -20.3265
  YYZ=             12.8789  XYZ=            -16.6833
 Hexadecapole moment (field-independent basis, Debye-Ang**3):
 XXXX=          -5108.4023 YYYY=          -5456.7739 ZZZZ=           -700.4543 XXXY=            132.8936
 XXXZ=            -80.0804 YYYX=             79.0030 YYYZ=            -53.8037 ZZZX=            -10.2119
 ZZZY=            -26.4324 XXYY=          -1862.7363 XXZZ=           -958.5789 YYZZ=          -1007.8510
 XXYZ=            -24.2954 YYXZ=            -65.6289 ZZXY=            -62.4089
 N-N= 2.312701929788D+03 E-N=-8.700131006691D+03  KE= 1.724278403078D+03
 No NMR shielding tensors so no spin-rotation constants.
 Leave Link  601 at Sat Aug  8 04:27:14 2020, MaxMem=    33554432 cpu:         0.4
 (Enter /prod/apps/gaussian/g09d1/l9999.exe)
 1\1\GINC-PIRINEUS7\SP\RB3LYP\6-31G(d)\C17H19N1O3S2\UBAFAR01\08-Aug-202
 0\0\\#p b3lyp/6-31G(d) scrf=(iefpcm,read,solvent=n-Octanol) geom=allch
 eck guess=read\\SM36.n.10.pdb.xyz\\0,1\O,0,4.816,0.882,0.104\S,0,4.58,
 0.473,-1.288\N,0,3.035,-0.206,-1.274\C,0,2.7,-1.355,-2.134\C,0,1.383,-
 2.015,-1.665\S,0,2.033,-3.735,-2.042\O,0,1.734,-4.084,-3.49\C,0,3.548,
 -2.641,-1.956\C,0,2.635,-0.965,-3.619\C,0,1.593,0.113,-3.963\C,0,1.491
 ,0.357,-5.453\C,0,0.882,-0.585,-6.294\C,0,0.798,-0.369,-7.669\C,0,1.32
 3,0.798,-8.229\C,0,1.931,1.743,-7.404\C,0,2.013,1.522,-6.027\C,0,4.435
 ,1.951,-2.288\C,0,3.553,2.962,-1.898\C,0,3.5,4.134,-2.647\C,0,4.328,4.
 291,-3.764\C,0,5.211,3.275,-4.136\C,0,5.27,2.093,-3.395\O,0,5.524,-0.4
 24,-1.97\H,0,2.786,-0.341,-0.296\H,0,0.471,-1.767,-2.207\H,0,1.212,-1.
 948,-0.587\H,0,4.29,-2.867,-2.722\H,0,3.987,-2.744,-0.962\H,0,2.409,-1
 .886,-4.166\H,0,3.631,-0.643,-3.941\H,0,1.845,1.046,-3.453\H,0,0.615,-
 0.199,-3.579\H,0,0.468,-1.494,-5.867\H,0,0.319,-1.109,-8.303\H,0,1.256
 ,0.968,-9.299\H,0,2.34,2.654,-7.828\H,0,2.484,2.263,-5.388\H,0,2.92,2.
 831,-1.028\H,0,2.817,4.925,-2.359\H,0,4.286,5.208,-4.342\H,0,5.855,3.4
 ,-5.\H,0,5.947,1.29,-3.658\\Version=AM64L-G09RevD.01\State=1-A\HF=-173
 5.9472869\RMSD=3.964e-09\Dipole=-0.8309581,1.8220284,0.2582952\Quadrup
 ole=-4.275894,1.8784425,2.3974515,-0.5665127,-13.3310597,-11.2335762\P
 G=C01 [X(C17H19N1O3S2)]\\@


 LET US LEARN TO DREAM, GENTLEMEN, THEN PERHAPS WE SHALL
 DISCOVER THE TRUTH;  BUT LET US BEWARE OF PUBLISHING
 OUR DREAMS ABROAD BEFORE THEY HAVE BEEN SCRUTINIZED
 BY OUR VIGILANT INTELLECT ... LET US ALWAYS ALLOW
 THE FRUIT TO HANG UNTIL IT IS RIPE.  UNRIPE FRUIT
 BRINGS EVEN THE GROWER BUT LITTLE PROFIT; IT DAMAGES
 THE HEALTH OF THOSE WHO CONSUME IT; IT ENDANGERS
 PARTICULARLY THE YOUTH WHO CANNOT YET DISTINGUISH
 BETWEEN RIPE AND UNRIPE FRUIT.

                                  -- KEKULE, 1890
 Job cpu time:       0 days  0 hours  5 minutes 55.8 seconds.
 File lengths (MBytes):  RWF=    271 Int=      0 D2E=      0 Chk=      8 Scr=      1
 Normal termination of Gaussian 09 at Sat Aug  8 04:27:14 2020.
