 Entering Gaussian System, Link 0=g09
 Initial command:
 /prod/apps/gaussian/g09d1/l1.exe "/tmp/ubafar01/1449167/Gau-195550.inp" -scrdir="/tmp/ubafar01/1449167/"
 Entering Link 1 = /prod/apps/gaussian/g09d1/l1.exe PID=    195551.
  
 Copyright (c) 1988,1990,1992,1993,1995,1998,2003,2009,2013,
            Gaussian, Inc.  All Rights Reserved.
  
 This is part of the Gaussian(R) 09 program.  It is based on
 the Gaussian(R) 03 system (copyright 2003, Gaussian, Inc.),
 the Gaussian(R) 98 system (copyright 1998, Gaussian, Inc.),
 the Gaussian(R) 94 system (copyright 1995, Gaussian, Inc.),
 the Gaussian 92(TM) system (copyright 1992, Gaussian, Inc.),
 the Gaussian 90(TM) system (copyright 1990, Gaussian, Inc.),
 the Gaussian 88(TM) system (copyright 1988, Gaussian, Inc.),
 the Gaussian 86(TM) system (copyright 1986, Carnegie Mellon
 University), and the Gaussian 82(TM) system (copyright 1983,
 Carnegie Mellon University). Gaussian is a federally registered
 trademark of Gaussian, Inc.
  
 This software contains proprietary and confidential information,
 including trade secrets, belonging to Gaussian, Inc.
  
 This software is provided under written license and may be
 used, copied, transmitted, or stored only in accord with that
 written license.
  
 The following legend is applicable only to US Government
 contracts under FAR:
  
                    RESTRICTED RIGHTS LEGEND
  
 Use, reproduction and disclosure by the US Government is
 subject to restrictions as set forth in subparagraphs (a)
 and (c) of the Commercial Computer Software - Restricted
 Rights clause in FAR 52.227-19.
  
 Gaussian, Inc.
 340 Quinnipiac St., Bldg. 40, Wallingford CT 06492
  
  
 ---------------------------------------------------------------
 Warning -- This program may not be used in any manner that
 competes with the business of Gaussian, Inc. or will provide
 assistance to any competitor of Gaussian, Inc.  The licensee
 of this program is prohibited from giving any competitor of
 Gaussian, Inc. access to this program.  By using this program,
 the user acknowledges that Gaussian, Inc. is engaged in the
 business of creating and licensing software in the field of
 computational chemistry and represents and warrants to the
 licensee that it is not a competitor of Gaussian, Inc. and that
 it will not use this program in any manner prohibited above.
 ---------------------------------------------------------------
  

 Cite this work as:
 Gaussian 09, Revision D.01,
 M. J. Frisch, G. W. Trucks, H. B. Schlegel, G. E. Scuseria, 
 M. A. Robb, J. R. Cheeseman, G. Scalmani, V. Barone, B. Mennucci, 
 G. A. Petersson, H. Nakatsuji, M. Caricato, X. Li, H. P. Hratchian, 
 A. F. Izmaylov, J. Bloino, G. Zheng, J. L. Sonnenberg, M. Hada, 
 M. Ehara, K. Toyota, R. Fukuda, J. Hasegawa, M. Ishida, T. Nakajima, 
 Y. Honda, O. Kitao, H. Nakai, T. Vreven, J. A. Montgomery, Jr., 
 J. E. Peralta, F. Ogliaro, M. Bearpark, J. J. Heyd, E. Brothers, 
 K. N. Kudin, V. N. Staroverov, T. Keith, R. Kobayashi, J. Normand, 
 K. Raghavachari, A. Rendell, J. C. Burant, S. S. Iyengar, J. Tomasi, 
 M. Cossi, N. Rega, J. M. Millam, M. Klene, J. E. Knox, J. B. Cross, 
 V. Bakken, C. Adamo, J. Jaramillo, R. Gomperts, R. E. Stratmann, 
 O. Yazyev, A. J. Austin, R. Cammi, C. Pomelli, J. W. Ochterski, 
 R. L. Martin, K. Morokuma, V. G. Zakrzewski, G. A. Voth, 
 P. Salvador, J. J. Dannenberg, S. Dapprich, A. D. Daniels, 
 O. Farkas, J. B. Foresman, J. V. Ortiz, J. Cioslowski, 
 and D. J. Fox, Gaussian, Inc., Wallingford CT, 2013.
 
 ******************************************
 Gaussian 09:  AM64L-G09RevD.01 24-Apr-2013
                 8-Aug-2020 
 ******************************************
 %nproc=1
 Will use up to    1 processors via shared memory.
 %Chk=SM36.n.9.pdb.xyz.mst.n.w.chk
 -----------------
 #p b3lyp/6-31G(d)
 -----------------
 1/38=1/1;
 2/12=2,17=6,18=5,40=1/2;
 3/5=1,6=6,7=1,11=2,16=1,25=1,30=1,74=-5/1,2,3;
 4//1;
 5/5=2,38=5/2;
 6/7=2,8=2,9=2,10=2,28=1/1;
 99/5=1,9=1/99;
 Leave Link    1 at Sat Aug  8 02:33:59 2020, MaxMem=           0 cpu:         0.0
 (Enter /prod/apps/gaussian/g09d1/l101.exe)
 ----------------
 SM36.n.9.pdb.xyz
 ----------------
 Symbolic Z-matrix:
 Charge =  0 Multiplicity = 1
 O                     5.209     0.782    -0.283 
 S                     4.754     0.267    -1.587 
 N                     3.202    -0.312    -1.296 
 C                     2.635    -1.43     -2.079 
 C                     1.253    -1.788    -1.474 
 S                     1.705    -3.581    -1.2 
 O                     1.079    -4.457    -2.279 
 C                     3.292    -2.814    -1.812 
 C                     2.566    -1.032    -3.562 
 C                     1.931    -2.073    -4.501 
 C                     1.872    -1.573    -5.928 
 C                     2.925    -1.819    -6.819 
 C                     2.883    -1.339    -8.129 
 C                     1.782    -0.604    -8.571 
 C                     0.724    -0.354    -7.694 
 C                     0.771    -0.835    -6.385 
 C                     4.519     1.647    -2.698 
 C                     3.58      2.634    -2.386 
 C                     3.467     3.74     -3.224 
 C                     4.289     3.856    -4.35 
 C                     5.228     2.865    -4.644 
 C                     5.35      1.75     -3.813 
 O                     5.585    -0.731    -2.285 
 H                     3.128    -0.458    -0.287 
 H                     0.401    -1.695    -2.148 
 H                     1.027    -1.303    -0.523 
 H                     3.676    -3.347    -2.682 
 H                     4.036    -2.815    -1.017 
 H                     3.582    -0.824    -3.909 
 H                     2.003    -0.095    -3.623 
 H                     0.921    -2.318    -4.157 
 H                     2.506    -3.003    -4.466 
 H                     3.782    -2.396    -6.483 
 H                     3.708    -1.544    -8.804 
 H                     1.745    -0.233    -9.591 
 H                    -0.14      0.212    -8.03 
 H                    -0.058    -0.642    -5.71 
 H                     2.944     2.531    -1.516 
 H                     2.737     4.51     -2.999 
 H                     4.195     4.72     -4.999 
 H                     5.863     2.955    -5.518 
 H                     6.066     0.965    -4.024 
 
 NAtoms=     42 NQM=       42 NQMF=       0 NMMI=      0 NMMIF=      0
                NMic=       0 NMicF=      0.
                    Isotopes and Nuclear Properties:
 (Nuclear quadrupole moments (NQMom) in fm**2, nuclear magnetic moments (NMagM)
  in nuclear magnetons)

  Atom         1           2           3           4           5           6           7           8           9          10
 IAtWgt=          16          32          14          12          12          32          16          12          12          12
 AtmWgt=  15.9949146  31.9720718  14.0030740  12.0000000  12.0000000  31.9720718  15.9949146  12.0000000  12.0000000  12.0000000
 NucSpn=           0           0           2           0           0           0           0           0           0           0
 AtZEff=   0.0000000   0.0000000   0.0000000   0.0000000   0.0000000   0.0000000   0.0000000   0.0000000   0.0000000   0.0000000
 NQMom=    0.0000000   0.0000000   2.0440000   0.0000000   0.0000000   0.0000000   0.0000000   0.0000000   0.0000000   0.0000000
 NMagM=    0.0000000   0.0000000   0.4037610   0.0000000   0.0000000   0.0000000   0.0000000   0.0000000   0.0000000   0.0000000
 AtZNuc=   8.0000000  16.0000000   7.0000000   6.0000000   6.0000000  16.0000000   8.0000000   6.0000000   6.0000000   6.0000000

  Atom        11          12          13          14          15          16          17          18          19          20
 IAtWgt=          12          12          12          12          12          12          12          12          12          12
 AtmWgt=  12.0000000  12.0000000  12.0000000  12.0000000  12.0000000  12.0000000  12.0000000  12.0000000  12.0000000  12.0000000
 NucSpn=           0           0           0           0           0           0           0           0           0           0
 AtZEff=   0.0000000   0.0000000   0.0000000   0.0000000   0.0000000   0.0000000   0.0000000   0.0000000   0.0000000   0.0000000
 NQMom=    0.0000000   0.0000000   0.0000000   0.0000000   0.0000000   0.0000000   0.0000000   0.0000000   0.0000000   0.0000000
 NMagM=    0.0000000   0.0000000   0.0000000   0.0000000   0.0000000   0.0000000   0.0000000   0.0000000   0.0000000   0.0000000
 AtZNuc=   6.0000000   6.0000000   6.0000000   6.0000000   6.0000000   6.0000000   6.0000000   6.0000000   6.0000000   6.0000000

  Atom        21          22          23          24          25          26          27          28          29          30
 IAtWgt=          12          12          16           1           1           1           1           1           1           1
 AtmWgt=  12.0000000  12.0000000  15.9949146   1.0078250   1.0078250   1.0078250   1.0078250   1.0078250   1.0078250   1.0078250
 NucSpn=           0           0           0           1           1           1           1           1           1           1
 AtZEff=   0.0000000   0.0000000   0.0000000   0.0000000   0.0000000   0.0000000   0.0000000   0.0000000   0.0000000   0.0000000
 NQMom=    0.0000000   0.0000000   0.0000000   0.0000000   0.0000000   0.0000000   0.0000000   0.0000000   0.0000000   0.0000000
 NMagM=    0.0000000   0.0000000   0.0000000   2.7928460   2.7928460   2.7928460   2.7928460   2.7928460   2.7928460   2.7928460
 AtZNuc=   6.0000000   6.0000000   8.0000000   1.0000000   1.0000000   1.0000000   1.0000000   1.0000000   1.0000000   1.0000000

  Atom        31          32          33          34          35          36          37          38          39          40
 IAtWgt=           1           1           1           1           1           1           1           1           1           1
 AtmWgt=   1.0078250   1.0078250   1.0078250   1.0078250   1.0078250   1.0078250   1.0078250   1.0078250   1.0078250   1.0078250
 NucSpn=           1           1           1           1           1           1           1           1           1           1
 AtZEff=   0.0000000   0.0000000   0.0000000   0.0000000   0.0000000   0.0000000   0.0000000   0.0000000   0.0000000   0.0000000
 NQMom=    0.0000000   0.0000000   0.0000000   0.0000000   0.0000000   0.0000000   0.0000000   0.0000000   0.0000000   0.0000000
 NMagM=    2.7928460   2.7928460   2.7928460   2.7928460   2.7928460   2.7928460   2.7928460   2.7928460   2.7928460   2.7928460
 AtZNuc=   1.0000000   1.0000000   1.0000000   1.0000000   1.0000000   1.0000000   1.0000000   1.0000000   1.0000000   1.0000000

  Atom        41          42
 IAtWgt=           1           1
 AtmWgt=   1.0078250   1.0078250
 NucSpn=           1           1
 AtZEff=   0.0000000   0.0000000
 NQMom=    0.0000000   0.0000000
 NMagM=    2.7928460   2.7928460
 AtZNuc=   1.0000000   1.0000000
 Leave Link  101 at Sat Aug  8 02:33:59 2020, MaxMem=    33554432 cpu:         0.1
 (Enter /prod/apps/gaussian/g09d1/l202.exe)
                          Input orientation:                          
 ---------------------------------------------------------------------
 Center     Atomic      Atomic             Coordinates (Angstroms)
 Number     Number       Type             X           Y           Z
 ---------------------------------------------------------------------
      1          8           0        5.209000    0.782000   -0.283000
      2         16           0        4.754000    0.267000   -1.587000
      3          7           0        3.202000   -0.312000   -1.296000
      4          6           0        2.635000   -1.430000   -2.079000
      5          6           0        1.253000   -1.788000   -1.474000
      6         16           0        1.705000   -3.581000   -1.200000
      7          8           0        1.079000   -4.457000   -2.279000
      8          6           0        3.292000   -2.814000   -1.812000
      9          6           0        2.566000   -1.032000   -3.562000
     10          6           0        1.931000   -2.073000   -4.501000
     11          6           0        1.872000   -1.573000   -5.928000
     12          6           0        2.925000   -1.819000   -6.819000
     13          6           0        2.883000   -1.339000   -8.129000
     14          6           0        1.782000   -0.604000   -8.571000
     15          6           0        0.724000   -0.354000   -7.694000
     16          6           0        0.771000   -0.835000   -6.385000
     17          6           0        4.519000    1.647000   -2.698000
     18          6           0        3.580000    2.634000   -2.386000
     19          6           0        3.467000    3.740000   -3.224000
     20          6           0        4.289000    3.856000   -4.350000
     21          6           0        5.228000    2.865000   -4.644000
     22          6           0        5.350000    1.750000   -3.813000
     23          8           0        5.585000   -0.731000   -2.285000
     24          1           0        3.128000   -0.458000   -0.287000
     25          1           0        0.401000   -1.695000   -2.148000
     26          1           0        1.027000   -1.303000   -0.523000
     27          1           0        3.676000   -3.347000   -2.682000
     28          1           0        4.036000   -2.815000   -1.017000
     29          1           0        3.582000   -0.824000   -3.909000
     30          1           0        2.003000   -0.095000   -3.623000
     31          1           0        0.921000   -2.318000   -4.157000
     32          1           0        2.506000   -3.003000   -4.466000
     33          1           0        3.782000   -2.396000   -6.483000
     34          1           0        3.708000   -1.544000   -8.804000
     35          1           0        1.745000   -0.233000   -9.591000
     36          1           0       -0.140000    0.212000   -8.030000
     37          1           0       -0.058000   -0.642000   -5.710000
     38          1           0        2.944000    2.531000   -1.516000
     39          1           0        2.737000    4.510000   -2.999000
     40          1           0        4.195000    4.720000   -4.999000
     41          1           0        5.863000    2.955000   -5.518000
     42          1           0        6.066000    0.965000   -4.024000
 ---------------------------------------------------------------------
                    Distance matrix (angstroms):
                    1          2          3          4          5
     1  O    0.000000
     2  S    1.473997   0.000000
     3  N    2.500211   1.681852   0.000000
     4  C    3.839796   2.758991   1.478006   0.000000
     5  C    4.865523   4.061132   2.451298   1.550520   0.000000
     6  S    5.670509   4.924761   3.596747   2.502867   1.869286
     7  O    6.963335   6.025003   4.759668   3.409379   2.793181
     8  C    4.352464   3.417694   2.556239   1.555119   2.307475
     9  C    4.585617   3.221082   2.461230   1.537028   2.579777
    10  C    6.057048   4.683623   3.871510   2.602912   3.115066
    11  C    6.967612   5.525921   4.981410   3.926502   4.501944
    12  C    7.396023   5.922032   5.731606   4.764769   5.600497
    13  C    8.453912   6.991255   6.917108   6.055765   6.866406
    14  C    9.075035   7.639874   7.418038   6.599693   7.214507
    15  C    8.736626   7.343159   6.861243   6.028094   6.405045
    16  C    7.716537   6.332416   5.664028   4.729710   5.025779
    17  C    2.656417   1.787161   2.745501   3.660676   4.895320
    18  C    3.241320   2.760320   3.163843   4.183703   5.079445
    19  C    4.520377   4.049428   4.495121   5.360238   6.206696
    20  C    5.180383   4.553165   5.280219   5.986230   7.024486
    21  C    4.832967   4.039744   5.040546   5.634705   6.892020
    22  C    3.663032   2.740361   3.898851   4.526630   5.896929
    23  O    2.537430   1.474371   2.613880   3.038674   4.532239
    24  H    2.422432   2.204428   1.022190   2.097402   2.587179
    25  H    5.721068   4.807575   3.237931   2.250720   1.090334
    26  H    4.679097   4.181809   2.512018   2.241189   1.091193
    27  H    5.015369   3.927099   3.370000   2.263223   3.124208
    28  H    3.853971   3.215455   2.652999   2.238050   3.001444
    29  H    4.286519   2.820558   2.689668   2.147777   3.504677
    30  H    4.712023   3.441561   2.626713   2.136723   2.836715
    31  H    6.557806   5.289519   4.172807   2.836269   2.754925
    32  H    6.255392   4.902555   4.216017   2.861597   3.463856
    33  H    7.111681   5.657488   5.620002   4.652309   5.644075
    34  H    8.959393   7.513915   7.625216   6.811017   7.734046
    35  H    9.983405   8.565518   8.422358   7.658659   8.279238
    36  H    9.431474   8.091138   7.535934   6.768396   6.994397
    37  H    7.695544   6.401621   5.497263   4.588829   4.579927
    38  H    3.116009   2.899455   2.863147   4.012726   4.638427
    39  H    5.233108   4.905617   5.134990   6.011689   6.647758
    40  H    6.227094   5.637680   6.326080   6.984447   7.964613
    41  H    5.705688   4.889579   5.964855   6.440103   7.752553
    42  H    3.842267   2.854386   4.156346   4.614197   6.102989
                    6          7          8          9         10
     6  S    0.000000
     7  O    1.524301   0.000000
     8  C    1.865852   2.795516   0.000000
     9  C    3.580191   3.948149   2.600981   0.000000
    10  C    3.636171   3.368478   3.103566   1.539034   0.000000
    11  C    5.139449   4.718210   4.527465   2.524336   1.513212
    12  C    6.013834   5.565821   5.118082   3.369911   2.534892
    13  C    7.377350   6.870141   6.499800   4.588271   3.821969
    14  C    7.949849   7.411416   7.269682   5.088017   4.329557
    15  C    7.317645   6.803151   6.873438   4.574502   3.821918
    16  C    5.941136   5.483884   5.584282   3.351144   2.535291
    17  C    6.123282   7.019115   4.710737   3.426039   4.877187
    18  C    6.599125   7.519889   5.485720   3.981297   5.417405
    19  C    7.797324   8.589900   6.706660   4.868062   6.146625
    20  C    8.479889   9.148722   7.205855   5.242348   6.382476
    21  C    8.113173   8.741802   6.634709   4.841857   5.939234
    22  C    6.966588   7.689047   5.391610   3.943752   5.174769
    23  O    4.934990   5.846978   3.133762   3.291761   4.479212
    24  H    3.551285   4.915126   2.811273   3.372083   4.668922
    25  H    2.481152   2.847014   3.118163   2.669492   2.832030
    26  H    2.471295   3.610257   3.012452   3.417233   4.151458
    27  H    2.477079   2.852879   1.090158   2.713987   2.824334
    28  H    2.460448   3.610077   1.088835   3.437588   4.137613
    29  H    4.296843   4.703254   2.905445   1.093585   2.153199
    30  H    4.255811   4.656947   3.512008   1.094833   2.165306
    31  H    3.309634   2.850819   3.371451   2.171139   1.094742
    32  H    3.412102   2.988882   2.774389   2.169253   1.093961
    33  H    5.798986   5.406251   4.715195   3.445489   2.731090
    34  H    8.122942   7.613989   7.118569   5.389329   4.685443
    35  H    9.034356   8.470601   8.340720   6.136879   5.415561
    36  H    8.027439   7.507298   7.720027   5.369636   4.686588
    37  H    5.664450   5.255355   5.579829   3.413412   2.732318
    38  H    6.244319   7.272726   5.364489   4.126011   5.579714
    39  H    8.352587   9.147374   7.440294   5.573148   6.800112
    40  H    9.462510  10.066041   8.230039   6.148505   7.177642
    41  H    8.868674   9.397634   7.322966   5.531032   6.463412
    42  H    6.903580   7.570553   5.183518   4.056039   5.153174
                   11         12         13         14         15
    11  C    0.000000
    12  C    1.401145   0.000000
    13  C    2.433368   1.395802   0.000000
    14  C    2.816471   2.419128   1.395632   0.000000
    15  C    2.433644   2.785005   2.412619   1.396780   0.000000
    16  C    1.402032   2.407556   2.784977   2.419520   1.395368
    17  C    5.273320   5.615749   6.410028   6.859322   6.585290
    18  C    5.758635   6.317414   7.018019   7.209138   6.727536
    19  C    6.171192   6.642309   7.084936   7.092247   6.653254
    20  C    6.148660   6.337356   6.576146   6.632759   6.451020
    21  C    5.710275   5.654581   5.942884   6.271380   6.320639
    22  C    5.254716   5.258747   5.852851   6.396132   6.394439
    23  O    5.269420   5.368100   6.467055   7.347975   7.282083
    24  H    5.885715   6.675369   7.895135   8.393908   7.788047
    25  H    4.057971   5.310762   6.485324   6.659758   5.714956
    26  H    5.477312   6.596080   7.829257   8.113503   7.239865
    27  H    4.115581   4.473651   5.859242   6.766950   6.541597
    28  H    5.508483   5.990788   7.354490   8.187304   7.849089
    29  H    2.749811   3.144801   4.308390   5.002264   4.766056
    30  H    2.741290   3.746555   4.756677   4.979019   4.275040
    31  H    2.143797   3.369163   4.537033   4.812745   4.050491
    32  H    2.141098   2.667213   4.040866   4.809408   4.540122
    33  H    2.152546   1.086404   2.152851   3.401618   3.871389
    34  H    3.412201   2.151497   1.085484   2.155775   3.398890
    35  H    3.902473   3.404670   2.157713   1.086006   2.157705
    36  H    3.413616   3.871138   3.399107   2.156994   1.086162
    37  H    2.153877   3.393155   3.871285   3.401818   2.151912
    38  H    6.120273   6.858912   7.662401   7.807144   7.170726
    39  H    6.806626   7.394862   7.781325   7.623136   7.053630
    40  H    6.772091   6.905347   6.944762   6.850309   6.712402
    41  H    6.049708   5.754609   5.842616   6.216257   6.487972
    42  H    5.258925   5.042674   5.682511   6.441244   6.614048
                   16         17         18         19         20
    16  C    0.000000
    17  C    5.813931   0.000000
    18  C    5.993033   1.397581   0.000000
    19  C    6.179884   2.400839   1.392210   0.000000
    20  C    6.206692   2.767975   2.419351   1.398934   0.000000
    21  C    6.048630   2.402732   2.804965   2.425520   1.396509
    22  C    5.853601   1.394416   2.439403   2.802269   2.418538
    23  O    6.324193   2.638524   3.918348   5.035622   5.194652
    24  H    6.548525   3.489818   3.764382   5.134598   6.038749
    25  H    4.339201   5.331922   5.376144   6.332247   7.125935
    26  H    5.886222   5.062330   5.048618   6.219393   7.204294
    27  H    5.334921   5.064676   5.989089   7.110767   7.418976
    28  H    6.587568   4.792546   5.636816   6.939930   7.461578
    29  H    3.745987   2.906945   3.778531   4.616551   4.753602
    30  H    3.113530   3.196943   3.385933   4.124284   4.622199
    31  H    2.680629   5.549370   5.893134   6.637166   7.035549
    32  H    3.375353   5.366609   6.103740   6.923448   7.087907
    33  H    3.393000   5.587060   6.490540   6.954912   6.625273
    34  H    3.870428   6.937106   7.659164   7.688637   7.023936
    35  H    3.404338   7.664393   7.968622   7.699916   7.117580
    36  H    2.152244   7.224661   7.180475   6.968132   6.814483
    37  H    1.086331   5.938063   5.917448   6.148800   6.401407
    38  H    6.305477   2.158519   1.082592   2.156959   3.405320
    39  H    6.625645   3.385690   2.146111   1.084631   2.159079
    40  H    6.671042   3.852649   3.399616   2.154300   1.084681
    41  H    6.406579   3.386680   3.889030   3.408735   2.157197
    42  H    6.070531   2.148630   3.413034   3.885283   3.409089
                   21         22         23         24         25
    21  C    0.000000
    22  C    1.395948   0.000000
    23  O    4.315501   2.923246   0.000000
    24  H    5.868201   4.716484   3.178582   0.000000
    25  H    7.093909   6.255626   5.274649   3.525623   0.000000
    26  H    7.211329   6.231632   4.920080   2.276823   1.784983
    27  H    6.696797   5.482777   3.262721   3.792446   3.706735
    28  H    6.843858   5.512117   2.889685   2.629223   3.968222
    29  H    4.105881   3.124182   2.580317   3.668645   3.738786
    30  H    4.494960   3.826556   3.876269   3.539250   2.702227
    31  H    6.756545   6.023537   5.270280   4.827769   2.166705
    32  H    6.471043   5.577253   4.404428   4.932337   3.393378
    33  H    5.757687   5.174634   4.862740   6.524874   5.542092
    34  H    6.249422   6.201345   6.832383   8.605526   7.433800
    35  H    6.797183   7.093208   8.268690   9.408918   7.703378
    36  H    6.878868   7.091448   8.165164   8.431060   6.207033
    37  H    6.432511   6.210212   6.601666   6.292327   3.742637
    38  H    3.887492   3.416871   4.266953   3.237038   4.972459
    39  H    3.408391   3.886897   6.007411   5.673522   6.684544
    40  H    2.152705   3.400224   6.245902   7.081887   7.979653
    41  H    1.084067   2.149935   4.910822   6.818516   7.925455
    42  H    2.167174   1.083237   2.476267   4.962050   6.533544
                   26         27         28         29         30
    26  H    0.000000
    27  H    3.982012   0.000000
    28  H    3.403566   1.784615   0.000000
    29  H    4.268778   2.807115   3.540319   0.000000
    30  H    3.467253   3.776230   4.280505   1.762520   0.000000
    31  H    3.774575   3.290059   4.450824   3.061774   2.529350
    32  H    4.541441   2.160993   3.777810   2.493204   3.069222
    33  H    6.656296   3.919597   5.487917   3.022691   4.079098
    34  H    8.707514   6.382062   7.896860   4.949273   5.643526
    35  H    9.159096   7.820488   9.242775   6.000748   5.975168
    36  H    7.746752   7.471910   8.705393   5.648825   4.910025
    37  H    5.340329   5.516209   6.595985   4.065258   2.983706
    38  H    4.400056   6.037074   5.479159   4.170074   3.495827
    39  H    6.545658   7.919259   7.698789   5.476649   4.704695
    40  H    8.145387   8.409182   8.523956   5.683292   5.466486
    41  H    8.152759   7.248522   7.542535   4.698157   5.271919
    42  H    6.541586   5.109443   5.239403   3.063332   4.218100
                   31         32         33         34         35
    31  H    0.000000
    32  H    1.754118   0.000000
    33  H    3.688046   2.462705   0.000000
    34  H    5.473669   4.731990   2.473544   0.000000
    35  H    5.878312   5.875172   4.299721   2.488264   0.000000
    36  H    4.746235   5.480843   4.957515   4.299967   2.487563
    37  H    2.485805   3.700804   4.291811   4.956732   4.298866
    38  H    5.880494   6.286454   7.046181   8.384764   8.618754
    39  H    7.159637   7.658369   7.805326   8.443446   8.181355
    40  H    7.807784   7.923480   7.280816   7.345263   7.184788
    41  H    7.353925   6.919098   5.821940   5.973510   6.611399
    42  H    6.104654   5.349204   4.749701   5.890980   7.148268
                   36         37         38         39         40
    36  H    0.000000
    37  H    2.473548   0.000000
    38  H    7.571064   6.055540   0.000000
    39  H    7.215324   6.457914   2.481648   0.000000
    40  H    6.949910   6.880739   4.299769   2.483921   0.000000
    41  H    7.061884   6.930621   4.971553   4.305260   2.483306
    42  H    7.424923   6.551978   4.299919   4.969898   4.307121
                   41         42
    41  H    0.000000
    42  H    2.496667   0.000000
 Stoichiometry    C17H19NO3S2
 Framework group  C1[X(C17H19NO3S2)]
 Deg. of freedom   120
 Full point group                 C1      NOp   1
 Largest Abelian subgroup         C1      NOp   1
 Largest concise Abelian subgroup C1      NOp   1
                         Standard orientation:                         
 ---------------------------------------------------------------------
 Center     Atomic      Atomic             Coordinates (Angstroms)
 Number     Number       Type             X           Y           Z
 ---------------------------------------------------------------------
      1          8           0       -3.883231    1.070065   -0.413523
      2         16           0       -2.510528    0.563550   -0.591833
      3          7           0       -1.592749    1.424259    0.524181
      4          6           0       -0.163894    1.718331    0.286701
      5          6           0        0.338151    2.625052    1.439923
      6         16           0        0.944022    3.962624    0.283182
      7          8           0        2.459501    3.890653    0.136086
      8          6           0        0.112403    2.738938   -0.853657
      9          6           0        0.616005    0.399441    0.165284
     10          6           0        2.137630    0.541084   -0.016988
     11          6           0        2.818267   -0.808692   -0.085177
     12          6           0        3.009962   -1.454792   -1.313597
     13          6           0        3.616816   -2.710187   -1.376655
     14          6           0        4.044954   -3.341031   -0.207672
     15          6           0        3.862672   -2.706820    1.023402
     16          6           0        3.254521   -1.452297    1.081505
     17          6           0       -2.444952   -1.128314   -0.019782
     18          6           0       -2.733805   -1.418290    1.316523
     19          6           0       -2.753446   -2.749366    1.724079
     20          6           0       -2.496224   -3.770601    0.803247
     21          6           0       -2.216885   -3.465040   -0.530485
     22          6           0       -2.192112   -2.134364   -0.951625
     23          8           0       -1.908649    0.603100   -1.937175
     24          1           0       -2.132976    2.257109    0.767878
     25          1           0        1.155263    2.222559    2.039220
     26          1           0       -0.443988    3.013468    2.094212
     27          1           0        0.789150    2.414591   -1.644389
     28          1           0       -0.781447    3.183540   -1.288310
     29          1           0        0.214138   -0.159779   -0.684247
     30          1           0        0.410103   -0.186142    1.067147
     31          1           0        2.559335    1.122275    0.809355
     32          1           0        2.350544    1.101320   -0.932167
     33          1           0        2.684729   -0.966186   -2.227797
     34          1           0        3.758838   -3.191565   -2.339141
     35          1           0        4.521176   -4.315935   -0.254413
     36          1           0        4.197641   -3.186787    1.938375
     37          1           0        3.121289   -0.962102    2.041752
     38          1           0       -2.924550   -0.620010    2.022476
     39          1           0       -2.968040   -2.989173    2.759871
     40          1           0       -2.512375   -4.805438    1.127875
     41          1           0       -2.015679   -4.257187   -1.242679
     42          1           0       -1.971157   -1.872023   -1.979125
 ---------------------------------------------------------------------
 Rotational constants (GHZ):      0.2161116      0.2044845      0.1211079
 Leave Link  202 at Sat Aug  8 02:33:59 2020, MaxMem=    33554432 cpu:         0.0
 (Enter /prod/apps/gaussian/g09d1/l301.exe)
 Standard basis: 6-31G(d) (6D, 7F)
 Ernie: Thresh=  0.10000D-02 Tol=  0.10000D-05 Strict=F.
 There are   391 symmetry adapted cartesian basis functions of A   symmetry.
 There are   391 symmetry adapted basis functions of A   symmetry.
   391 basis functions,   768 primitive gaussians,   391 cartesian basis functions
    92 alpha electrons       92 beta electrons
       nuclear repulsion energy      2283.9417000845 Hartrees.
 IExCor=  402 DFT=T Ex+Corr=B3LYP ExCW=0 ScaHFX=  0.200000
 ScaDFX=  0.800000  0.720000  1.000000  0.810000 ScalE2=  1.000000  1.000000
 IRadAn=      0 IRanWt=     -1 IRanGd=            0 ICorTp=0 IEmpDi=  4
 NAtoms=   42 NActive=   42 NUniq=   42 SFac= 1.00D+00 NAtFMM=   60 NAOKFM=F Big=F
 Integral buffers will be    131072 words long.
 Raffenetti 2 integral format.
 Two-electron integral symmetry is turned on.
 Leave Link  301 at Sat Aug  8 02:33:59 2020, MaxMem=    33554432 cpu:         0.0
 (Enter /prod/apps/gaussian/g09d1/l302.exe)
 NPDir=0 NMtPBC=     1 NCelOv=     1 NCel=       1 NClECP=     1 NCelD=      1
         NCelK=      1 NCelE2=     1 NClLst=     1 CellRange=     0.0.
 One-electron integrals computed using PRISM.
 NBasis=   391 RedAO= T EigKep=  4.66D-04  NBF=   391
 NBsUse=   391 1.00D-06 EigRej= -1.00D+00 NBFU=   391
 Precomputing XC quadrature grid using
 IXCGrd= 4 IRadAn=           0 IRanWt=          -1 IRanGd=           0 AccXCQ= 0.00D+00.
 Generated NRdTot=       0 NPtTot=           0 NUsed=           0 NTot=          32
 NSgBfM=   388   388   388   388   388 MxSgAt=    42 MxSgA2=    42.
 Leave Link  302 at Sat Aug  8 02:34:00 2020, MaxMem=    33554432 cpu:         1.4
 (Enter /prod/apps/gaussian/g09d1/l303.exe)
 DipDrv:  MaxL=1.
 Leave Link  303 at Sat Aug  8 02:34:00 2020, MaxMem=    33554432 cpu:         0.0
 (Enter /prod/apps/gaussian/g09d1/l401.exe)
 ExpMin= 1.17D-01 ExpMax= 2.19D+04 ExpMxC= 3.30D+03 IAcc=1 IRadAn=         1 AccDes= 0.00D+00
 Harris functional with IExCor=  402 and IRadAn=       1 diagonalized for initial guess.
 HarFok:  IExCor=  402 AccDes= 0.00D+00 IRadAn=         1 IDoV= 1 UseB2=F ITyADJ=14
 ICtDFT=  3500011 ScaDFX=  1.000000  1.000000  1.000000  1.000000
 FoFCou: FMM=F IPFlag=           0 FMFlag=      100000 FMFlg1=           0
         NFxFlg=           0 DoJE=T BraDBF=F KetDBF=T FulRan=T
         wScrn=  0.000000 ICntrl=     500 IOpCl=  0 I1Cent=   200000004 NGrid=           0
         NMat0=    1 NMatS0=      1 NMatT0=    0 NMatD0=    1 NMtDS0=    0 NMtDT0=    0
 Petite list used in FoFCou.
 Harris En= -1735.99614515851    
 JPrj=0 DoOrth=F DoCkMO=F.
 Leave Link  401 at Sat Aug  8 02:34:06 2020, MaxMem=    33554432 cpu:         5.5
 (Enter /prod/apps/gaussian/g09d1/l502.exe)
 Closed shell SCF:
 Using DIIS extrapolation, IDIIS=  1040.
 Integral symmetry usage will be decided dynamically.
 IVT=      482492 IEndB=      482492 NGot=    33554432 MDV=    33241853
 LenX=    33241853 LenY=    33088531
 Requested convergence on RMS density matrix=1.00D-08 within 128 cycles.
 Requested convergence on MAX density matrix=1.00D-06.
 Requested convergence on             energy=1.00D-06.
 No special actions if energy rises.
 Fock matrices will be formed incrementally for  20 cycles.
 Integral accuracy reduced to 1.0D-05 until final iterations.

 Cycle   1  Pass 0  IDiag  1:
 FoFJK:  IHMeth= 1 ICntrl=       0 DoSepK=F KAlg= 0 I1Cent=   0 FoldK=F
 IRaf= 750000000 NMat=   1 IRICut=       1 DoRegI=T DoRafI=F ISym2E= 0.
 FoFCou: FMM=F IPFlag=           0 FMFlag=      100000 FMFlg1=           0
         NFxFlg=           0 DoJE=F BraDBF=F KetDBF=F FulRan=T
         wScrn=  0.000000 ICntrl=       0 IOpCl=  0 I1Cent=           0 NGrid=           0
         NMat0=    1 NMatS0=      1 NMatT0=    0 NMatD0=    1 NMtDS0=    0 NMtDT0=    0
 Symmetry not used in FoFCou.
 E= -1735.07753944654    
 DIIS: error= 3.71D-02 at cycle   1 NSaved=   1.
 NSaved= 1 IEnMin= 1 EnMin= -1735.07753944654     IErMin= 1 ErrMin= 3.71D-02
 ErrMax= 3.71D-02  0.00D+00 EMaxC= 1.00D-01 BMatC= 9.25D-01 BMatP= 9.25D-01
 IDIUse=3 WtCom= 6.29D-01 WtEn= 3.71D-01
 Coeff-Com:  0.100D+01
 Coeff-En:   0.100D+01
 Coeff:      0.100D+01
 Gap=     0.261 Goal=   None    Shift=    0.000
 GapD=    0.261 DampG=1.000 DampE=0.500 DampFc=0.5000 IDamp=-1.
 Damping current iteration by 5.00D-01
 RMSDP=7.58D-03 MaxDP=5.82D-01              OVMax= 3.81D-01

 Cycle   2  Pass 0  IDiag  1:
 RMSU=  3.79D-03    CP:  9.98D-01
 E= -1735.18857780749     Delta-E=       -0.111038360951 Rises=F Damp=T
 DIIS: error= 2.58D-02 at cycle   2 NSaved=   2.
 NSaved= 2 IEnMin= 2 EnMin= -1735.18857780749     IErMin= 2 ErrMin= 2.58D-02
 ErrMax= 2.58D-02  0.00D+00 EMaxC= 1.00D-01 BMatC= 2.12D-01 BMatP= 9.25D-01
 IDIUse=3 WtCom= 7.42D-01 WtEn= 2.58D-01
 Coeff-Com:  0.278D+00 0.722D+00
 Coeff-En:   0.439D+00 0.561D+00
 Coeff:      0.320D+00 0.680D+00
 Gap=     0.291 Goal=   None    Shift=    0.000
 RMSDP=2.84D-03 MaxDP=1.64D-01 DE=-1.11D-01 OVMax= 2.18D-01

 Cycle   3  Pass 0  IDiag  1:
 RMSU=  2.08D-03    CP:  9.83D-01  4.93D-01
 E= -1735.74969807624     Delta-E=       -0.561120268745 Rises=F Damp=F
 DIIS: error= 2.38D-02 at cycle   3 NSaved=   3.
 NSaved= 3 IEnMin= 3 EnMin= -1735.74969807624     IErMin= 3 ErrMin= 2.38D-02
 ErrMax= 2.38D-02  0.00D+00 EMaxC= 1.00D-01 BMatC= 1.66D-01 BMatP= 2.12D-01
 IDIUse=3 WtCom= 7.62D-01 WtEn= 2.38D-01
 Coeff-Com:  0.132D+00 0.453D+00 0.415D+00
 Coeff-En:   0.000D+00 0.000D+00 0.100D+01
 Coeff:      0.100D+00 0.345D+00 0.554D+00
 Gap=     0.199 Goal=   None    Shift=    0.000
 RMSDP=2.15D-03 MaxDP=1.06D-01 DE=-5.61D-01 OVMax= 2.13D-01

 Cycle   4  Pass 0  IDiag  1:
 RMSU=  1.10D-03    CP:  9.93D-01  7.06D-01  2.07D-01
 E= -1735.83895857052     Delta-E=       -0.089260494286 Rises=F Damp=F
 DIIS: error= 1.92D-02 at cycle   4 NSaved=   4.
 NSaved= 4 IEnMin= 4 EnMin= -1735.83895857052     IErMin= 4 ErrMin= 1.92D-02
 ErrMax= 1.92D-02  0.00D+00 EMaxC= 1.00D-01 BMatC= 7.98D-02 BMatP= 1.66D-01
 IDIUse=3 WtCom= 8.08D-01 WtEn= 1.92D-01
 Coeff-Com:  0.390D-01 0.926D-01 0.389D+00 0.479D+00
 Coeff-En:   0.000D+00 0.000D+00 0.349D+00 0.651D+00
 Coeff:      0.316D-01 0.749D-01 0.381D+00 0.512D+00
 Gap=     0.193 Goal=   None    Shift=    0.000
 RMSDP=1.07D-03 MaxDP=6.18D-02 DE=-8.93D-02 OVMax= 8.52D-02

 Cycle   5  Pass 0  IDiag  1:
 RMSU=  3.64D-04    CP:  9.90D-01  5.88D-01  5.51D-01  5.07D-01
 E= -1735.90620472247     Delta-E=       -0.067246151944 Rises=F Damp=F
 DIIS: error= 4.19D-03 at cycle   5 NSaved=   5.
 NSaved= 5 IEnMin= 5 EnMin= -1735.90620472247     IErMin= 5 ErrMin= 4.19D-03
 ErrMax= 4.19D-03  0.00D+00 EMaxC= 1.00D-01 BMatC= 5.17D-03 BMatP= 7.98D-02
 IDIUse=3 WtCom= 9.58D-01 WtEn= 4.19D-02
 Coeff-Com:  0.616D-02 0.197D-02 0.181D+00 0.324D+00 0.487D+00
 Coeff-En:   0.000D+00 0.000D+00 0.000D+00 0.117D-01 0.988D+00
 Coeff:      0.590D-02 0.188D-02 0.174D+00 0.311D+00 0.508D+00
 Gap=     0.185 Goal=   None    Shift=    0.000
 RMSDP=2.81D-04 MaxDP=1.48D-02 DE=-6.72D-02 OVMax= 2.34D-02

 Cycle   6  Pass 0  IDiag  1:
 RMSU=  1.41D-04    CP:  9.90D-01  6.10D-01  5.15D-01  5.92D-01  4.65D-01
 E= -1735.91000339658     Delta-E=       -0.003798674112 Rises=F Damp=F
 DIIS: error= 1.27D-03 at cycle   6 NSaved=   6.
 NSaved= 6 IEnMin= 6 EnMin= -1735.91000339658     IErMin= 6 ErrMin= 1.27D-03
 ErrMax= 1.27D-03  0.00D+00 EMaxC= 1.00D-01 BMatC= 8.10D-04 BMatP= 5.17D-03
 IDIUse=3 WtCom= 9.87D-01 WtEn= 1.27D-02
 Coeff-Com: -0.920D-03-0.747D-02 0.450D-01 0.103D+00 0.326D+00 0.535D+00
 Coeff-En:   0.000D+00 0.000D+00 0.000D+00 0.000D+00 0.143D+00 0.857D+00
 Coeff:     -0.908D-03-0.737D-02 0.444D-01 0.101D+00 0.323D+00 0.539D+00
 Gap=     0.186 Goal=   None    Shift=    0.000
 RMSDP=9.04D-05 MaxDP=4.50D-03 DE=-3.80D-03 OVMax= 5.26D-03

 Cycle   7  Pass 0  IDiag  1:
 RMSU=  4.60D-05    CP:  9.90D-01  6.06D-01  5.21D-01  5.93D-01  5.81D-01
                    CP:  5.56D-01
 E= -1735.91060968233     Delta-E=       -0.000606285748 Rises=F Damp=F
 DIIS: error= 4.00D-04 at cycle   7 NSaved=   7.
 NSaved= 7 IEnMin= 7 EnMin= -1735.91060968233     IErMin= 7 ErrMin= 4.00D-04
 ErrMax= 4.00D-04  0.00D+00 EMaxC= 1.00D-01 BMatC= 6.34D-05 BMatP= 8.10D-04
 IDIUse=3 WtCom= 9.96D-01 WtEn= 4.00D-03
 Coeff-Com: -0.709D-03-0.355D-02 0.552D-02 0.187D-01 0.129D+00 0.306D+00
 Coeff-Com:  0.546D+00
 Coeff-En:   0.000D+00 0.000D+00 0.000D+00 0.000D+00 0.000D+00 0.167D-01
 Coeff-En:   0.983D+00
 Coeff:     -0.706D-03-0.354D-02 0.550D-02 0.186D-01 0.128D+00 0.305D+00
 Coeff:      0.547D+00
 Gap=     0.185 Goal=   None    Shift=    0.000
 RMSDP=2.71D-05 MaxDP=1.04D-03 DE=-6.06D-04 OVMax= 2.61D-03

 Cycle   8  Pass 0  IDiag  1:
 RMSU=  1.36D-05    CP:  9.90D-01  6.05D-01  5.22D-01  5.89D-01  5.85D-01
                    CP:  6.26D-01  5.58D-01
 E= -1735.91067006735     Delta-E=       -0.000060385020 Rises=F Damp=F
 DIIS: error= 1.24D-04 at cycle   8 NSaved=   8.
 NSaved= 8 IEnMin= 8 EnMin= -1735.91067006735     IErMin= 8 ErrMin= 1.24D-04
 ErrMax= 1.24D-04  0.00D+00 EMaxC= 1.00D-01 BMatC= 3.80D-06 BMatP= 6.34D-05
 IDIUse=3 WtCom= 9.99D-01 WtEn= 1.24D-03
 Coeff-Com: -0.185D-03-0.981D-03-0.784D-03 0.756D-03 0.389D-01 0.109D+00
 Coeff-Com:  0.277D+00 0.577D+00
 Coeff-En:   0.000D+00 0.000D+00 0.000D+00 0.000D+00 0.000D+00 0.000D+00
 Coeff-En:   0.000D+00 0.100D+01
 Coeff:     -0.185D-03-0.980D-03-0.783D-03 0.755D-03 0.389D-01 0.108D+00
 Coeff:      0.277D+00 0.577D+00
 Gap=     0.185 Goal=   None    Shift=    0.000
 RMSDP=7.65D-06 MaxDP=3.41D-04 DE=-6.04D-05 OVMax= 9.33D-04

 Initial convergence to 1.0D-05 achieved.  Increase integral accuracy.
 Cycle   9  Pass 1  IDiag  1:
 E= -1735.91080708709     Delta-E=       -0.000137019741 Rises=F Damp=F
 DIIS: error= 8.68D-05 at cycle   1 NSaved=   1.
 NSaved= 1 IEnMin= 1 EnMin= -1735.91080708709     IErMin= 1 ErrMin= 8.68D-05
 ErrMax= 8.68D-05  0.00D+00 EMaxC= 1.00D-01 BMatC= 1.60D-06 BMatP= 1.60D-06
 IDIUse=1 WtCom= 1.00D+00 WtEn= 0.00D+00
 Coeff-Com:  0.100D+01
 Coeff:      0.100D+01
 Gap=     0.185 Goal=   None    Shift=    0.000
 RMSDP=7.65D-06 MaxDP=3.41D-04 DE=-1.37D-04 OVMax= 8.29D-04

 Cycle  10  Pass 1  IDiag  1:
 RMSU=  3.37D-05    CP:  1.00D+00
 E= -1735.91080629557     Delta-E=        0.000000791514 Rises=F Damp=F
 DIIS: error= 1.12D-04 at cycle   2 NSaved=   2.
 NSaved= 2 IEnMin= 1 EnMin= -1735.91080708709     IErMin= 1 ErrMin= 8.68D-05
 ErrMax= 1.12D-04  0.00D+00 EMaxC= 1.00D-01 BMatC= 2.38D-06 BMatP= 1.60D-06
 IDIUse=3 WtCom= 4.86D-01 WtEn= 5.14D-01
 Coeff-Com:  0.562D+00 0.438D+00
 Coeff-En:   0.607D+00 0.393D+00
 Coeff:      0.585D+00 0.415D+00
 Gap=     0.185 Goal=   None    Shift=    0.000
 RMSDP=5.42D-06 MaxDP=2.47D-04 DE= 7.92D-07 OVMax= 6.85D-04

 Cycle  11  Pass 1  IDiag  1:
 RMSU=  5.36D-06    CP:  1.00D+00  9.76D-01
 E= -1735.91080858003     Delta-E=       -0.000002284452 Rises=F Damp=F
 DIIS: error= 2.92D-05 at cycle   3 NSaved=   3.
 NSaved= 3 IEnMin= 3 EnMin= -1735.91080858003     IErMin= 3 ErrMin= 2.92D-05
 ErrMax= 2.92D-05  0.00D+00 EMaxC= 1.00D-01 BMatC= 2.19D-07 BMatP= 1.60D-06
 IDIUse=1 WtCom= 1.00D+00 WtEn= 0.00D+00
 Coeff-Com:  0.433D-01 0.230D+00 0.727D+00
 Coeff:      0.433D-01 0.230D+00 0.727D+00
 Gap=     0.185 Goal=   None    Shift=    0.000
 RMSDP=1.60D-06 MaxDP=8.77D-05 DE=-2.28D-06 OVMax= 1.19D-04

 Cycle  12  Pass 1  IDiag  1:
 RMSU=  1.09D-06    CP:  1.00D+00  9.87D-01  7.94D-01
 E= -1735.91080874594     Delta-E=       -0.000000165918 Rises=F Damp=F
 DIIS: error= 8.21D-06 at cycle   4 NSaved=   4.
 NSaved= 4 IEnMin= 4 EnMin= -1735.91080874594     IErMin= 4 ErrMin= 8.21D-06
 ErrMax= 8.21D-06  0.00D+00 EMaxC= 1.00D-01 BMatC= 5.51D-08 BMatP= 2.19D-07
 IDIUse=1 WtCom= 1.00D+00 WtEn= 0.00D+00
 Coeff-Com: -0.339D-02 0.127D+00 0.476D+00 0.400D+00
 Coeff:     -0.339D-02 0.127D+00 0.476D+00 0.400D+00
 Gap=     0.185 Goal=   None    Shift=    0.000
 RMSDP=6.62D-07 MaxDP=4.51D-05 DE=-1.66D-07 OVMax= 4.74D-05

 Cycle  13  Pass 1  IDiag  1:
 RMSU=  2.57D-07    CP:  1.00D+00  9.88D-01  7.99D-01  4.42D-01
 E= -1735.91080878992     Delta-E=       -0.000000043980 Rises=F Damp=F
 DIIS: error= 1.33D-06 at cycle   5 NSaved=   5.
 NSaved= 5 IEnMin= 5 EnMin= -1735.91080878992     IErMin= 5 ErrMin= 1.33D-06
 ErrMax= 1.33D-06  0.00D+00 EMaxC= 1.00D-01 BMatC= 1.72D-09 BMatP= 5.51D-08
 IDIUse=1 WtCom= 1.00D+00 WtEn= 0.00D+00
 Coeff-Com: -0.414D-02 0.627D-01 0.241D+00 0.234D+00 0.466D+00
 Coeff:     -0.414D-02 0.627D-01 0.241D+00 0.234D+00 0.466D+00
 Gap=     0.185 Goal=   None    Shift=    0.000
 RMSDP=1.25D-07 MaxDP=9.71D-06 DE=-4.40D-08 OVMax= 7.50D-06

 Cycle  14  Pass 1  IDiag  1:
 RMSU=  8.24D-08    CP:  1.00D+00  9.88D-01  7.99D-01  4.56D-01  6.38D-01
 E= -1735.91080879136     Delta-E=       -0.000000001436 Rises=F Damp=F
 DIIS: error= 2.53D-07 at cycle   6 NSaved=   6.
 NSaved= 6 IEnMin= 6 EnMin= -1735.91080879136     IErMin= 6 ErrMin= 2.53D-07
 ErrMax= 2.53D-07  0.00D+00 EMaxC= 1.00D-01 BMatC= 5.56D-11 BMatP= 1.72D-09
 IDIUse=1 WtCom= 1.00D+00 WtEn= 0.00D+00
 Coeff-Com: -0.160D-02 0.193D-01 0.749D-01 0.771D-01 0.211D+00 0.620D+00
 Coeff:     -0.160D-02 0.193D-01 0.749D-01 0.771D-01 0.211D+00 0.620D+00
 Gap=     0.185 Goal=   None    Shift=    0.000
 RMSDP=2.97D-08 MaxDP=1.31D-06 DE=-1.44D-09 OVMax= 2.35D-06

 Cycle  15  Pass 1  IDiag  1:
 RMSU=  2.62D-08    CP:  1.00D+00  9.88D-01  7.99D-01  4.57D-01  6.78D-01
                    CP:  8.83D-01
 E= -1735.91080879143     Delta-E=       -0.000000000067 Rises=F Damp=F
 DIIS: error= 1.54D-07 at cycle   7 NSaved=   7.
 NSaved= 7 IEnMin= 7 EnMin= -1735.91080879143     IErMin= 7 ErrMin= 1.54D-07
 ErrMax= 1.54D-07  0.00D+00 EMaxC= 1.00D-01 BMatC= 1.42D-11 BMatP= 5.56D-11
 IDIUse=1 WtCom= 1.00D+00 WtEn= 0.00D+00
 Coeff-Com: -0.359D-03 0.254D-02 0.102D-01 0.125D-01 0.586D-01 0.372D+00
 Coeff-Com:  0.545D+00
 Coeff:     -0.359D-03 0.254D-02 0.102D-01 0.125D-01 0.586D-01 0.372D+00
 Coeff:      0.545D+00
 Gap=     0.185 Goal=   None    Shift=    0.000
 RMSDP=1.52D-08 MaxDP=7.36D-07 DE=-6.68D-11 OVMax= 1.12D-06

 Cycle  16  Pass 1  IDiag  1:
 RMSU=  8.98D-09    CP:  1.00D+00  9.88D-01  7.99D-01  4.58D-01  6.83D-01
                    CP:  9.25D-01  5.62D-01
 E= -1735.91080879147     Delta-E=       -0.000000000040 Rises=F Damp=F
 DIIS: error= 7.58D-08 at cycle   8 NSaved=   8.
 NSaved= 8 IEnMin= 8 EnMin= -1735.91080879147     IErMin= 8 ErrMin= 7.58D-08
 ErrMax= 7.58D-08  0.00D+00 EMaxC= 1.00D-01 BMatC= 2.53D-12 BMatP= 1.42D-11
 IDIUse=1 WtCom= 1.00D+00 WtEn= 0.00D+00
 Coeff-Com: -0.444D-04-0.632D-03-0.227D-02-0.100D-02 0.126D-01 0.166D+00
 Coeff-Com:  0.350D+00 0.476D+00
 Coeff:     -0.444D-04-0.632D-03-0.227D-02-0.100D-02 0.126D-01 0.166D+00
 Coeff:      0.350D+00 0.476D+00
 Gap=     0.185 Goal=   None    Shift=    0.000
 RMSDP=5.72D-09 MaxDP=3.19D-07 DE=-3.96D-11 OVMax= 4.48D-07

 SCF Done:  E(RB3LYP) =  -1735.91080879     A.U. after   16 cycles
            NFock= 16  Conv=0.57D-08     -V/T= 2.0068
 KE= 1.724241358890D+03 PE=-8.642199129050D+03 EE= 2.898105261284D+03
 Leave Link  502 at Sat Aug  8 02:42:03 2020, MaxMem=    33554432 cpu:       476.5
 (Enter /prod/apps/gaussian/g09d1/l601.exe)
 Copying SCF densities to generalized density rwf, IOpCl= 0 IROHF=0.

 **********************************************************************

            Population analysis using the SCF density.

 **********************************************************************

 Orbital symmetries:
       Occupied  (A) (A) (A) (A) (A) (A) (A) (A) (A) (A) (A) (A)
                 (A) (A) (A) (A) (A) (A) (A) (A) (A) (A) (A) (A)
                 (A) (A) (A) (A) (A) (A) (A) (A) (A) (A) (A) (A)
                 (A) (A) (A) (A) (A) (A) (A) (A) (A) (A) (A) (A)
                 (A) (A) (A) (A) (A) (A) (A) (A) (A) (A) (A) (A)
                 (A) (A) (A) (A) (A) (A) (A) (A) (A) (A) (A) (A)
                 (A) (A) (A) (A) (A) (A) (A) (A) (A) (A) (A) (A)
                 (A) (A) (A) (A) (A) (A) (A) (A)
       Virtual   (A) (A) (A) (A) (A) (A) (A) (A) (A) (A) (A) (A)
                 (A) (A) (A) (A) (A) (A) (A) (A) (A) (A) (A) (A)
                 (A) (A) (A) (A) (A) (A) (A) (A) (A) (A) (A) (A)
                 (A) (A) (A) (A) (A) (A) (A) (A) (A) (A) (A) (A)
                 (A) (A) (A) (A) (A) (A) (A) (A) (A) (A) (A) (A)
                 (A) (A) (A) (A) (A) (A) (A) (A) (A) (A) (A) (A)
                 (A) (A) (A) (A) (A) (A) (A) (A) (A) (A) (A) (A)
                 (A) (A) (A) (A) (A) (A) (A) (A) (A) (A) (A) (A)
                 (A) (A) (A) (A) (A) (A) (A) (A) (A) (A) (A) (A)
                 (A) (A) (A) (A) (A) (A) (A) (A) (A) (A) (A) (A)
                 (A) (A) (A) (A) (A) (A) (A) (A) (A) (A) (A) (A)
                 (A) (A) (A) (A) (A) (A) (A) (A) (A) (A) (A) (A)
                 (A) (A) (A) (A) (A) (A) (A) (A) (A) (A) (A) (A)
                 (A) (A) (A) (A) (A) (A) (A) (A) (A) (A) (A) (A)
                 (A) (A) (A) (A) (A) (A) (A) (A) (A) (A) (A) (A)
                 (A) (A) (A) (A) (A) (A) (A) (A) (A) (A) (A) (A)
                 (A) (A) (A) (A) (A) (A) (A) (A) (A) (A) (A) (A)
                 (A) (A) (A) (A) (A) (A) (A) (A) (A) (A) (A) (A)
                 (A) (A) (A) (A) (A) (A) (A) (A) (A) (A) (A) (A)
                 (A) (A) (A) (A) (A) (A) (A) (A) (A) (A) (A) (A)
                 (A) (A) (A) (A) (A) (A) (A) (A) (A) (A) (A) (A)
                 (A) (A) (A) (A) (A) (A) (A) (A) (A) (A) (A) (A)
                 (A) (A) (A) (A) (A) (A) (A) (A) (A) (A) (A) (A)
                 (A) (A) (A) (A) (A) (A) (A) (A) (A) (A) (A) (A)
                 (A) (A) (A) (A) (A) (A) (A) (A) (A) (A) (A)
 The electronic state is 1-A.
 Alpha  occ. eigenvalues --  -89.12023 -88.98741 -19.14940 -19.14557 -19.11474
 Alpha  occ. eigenvalues --  -14.38219 -10.27100 -10.23692 -10.22813 -10.22134
 Alpha  occ. eigenvalues --  -10.21950 -10.21903 -10.21673 -10.21543 -10.21449
 Alpha  occ. eigenvalues --  -10.20063 -10.19694 -10.19280 -10.19048 -10.19003
 Alpha  occ. eigenvalues --  -10.18885 -10.18868 -10.18801  -8.14548  -8.03559
 Alpha  occ. eigenvalues --   -6.11063  -6.10956  -6.10841  -5.99962  -5.99806
 Alpha  occ. eigenvalues --   -5.99329  -1.11457  -1.00277  -1.00168  -0.94928
 Alpha  occ. eigenvalues --   -0.88268  -0.85714  -0.84640  -0.79316  -0.78571
 Alpha  occ. eigenvalues --   -0.77201  -0.74322  -0.74036  -0.71385  -0.69503
 Alpha  occ. eigenvalues --   -0.66989  -0.63293  -0.62632  -0.60510  -0.60262
 Alpha  occ. eigenvalues --   -0.58577  -0.56734  -0.55314  -0.52847  -0.52094
 Alpha  occ. eigenvalues --   -0.50830  -0.49426  -0.48773  -0.48090  -0.47383
 Alpha  occ. eigenvalues --   -0.46610  -0.45501  -0.45029  -0.44795  -0.44620
 Alpha  occ. eigenvalues --   -0.44295  -0.42390  -0.41966  -0.41102  -0.40689
 Alpha  occ. eigenvalues --   -0.39982  -0.39290  -0.38857  -0.38458  -0.37746
 Alpha  occ. eigenvalues --   -0.37131  -0.35534  -0.35332  -0.35162  -0.34477
 Alpha  occ. eigenvalues --   -0.33633  -0.33278  -0.32345  -0.31667  -0.30444
 Alpha  occ. eigenvalues --   -0.29354  -0.27569  -0.26989  -0.26178  -0.24945
 Alpha  occ. eigenvalues --   -0.24298  -0.22923
 Alpha virt. eigenvalues --   -0.04416  -0.02532  -0.00100  -0.00084   0.00541
 Alpha virt. eigenvalues --    0.01723   0.04409   0.05124   0.05963   0.08080
 Alpha virt. eigenvalues --    0.08308   0.09467   0.10045   0.10536   0.10871
 Alpha virt. eigenvalues --    0.11020   0.12284   0.13019   0.13439   0.13957
 Alpha virt. eigenvalues --    0.14978   0.15149   0.15424   0.15672   0.16316
 Alpha virt. eigenvalues --    0.17007   0.17513   0.17814   0.18525   0.19168
 Alpha virt. eigenvalues --    0.19814   0.20572   0.21722   0.22940   0.23309
 Alpha virt. eigenvalues --    0.26066   0.26819   0.27466   0.28209   0.28459
 Alpha virt. eigenvalues --    0.30003   0.30495   0.30614   0.32675   0.33568
 Alpha virt. eigenvalues --    0.34171   0.34326   0.35192   0.35844   0.37887
 Alpha virt. eigenvalues --    0.40580   0.42514   0.43363   0.44581   0.46017
 Alpha virt. eigenvalues --    0.47739   0.49497   0.50786   0.51271   0.51953
 Alpha virt. eigenvalues --    0.52242   0.52836   0.53603   0.54327   0.54926
 Alpha virt. eigenvalues --    0.55156   0.55399   0.56496   0.56797   0.57171
 Alpha virt. eigenvalues --    0.57768   0.57979   0.58830   0.59499   0.59619
 Alpha virt. eigenvalues --    0.59807   0.60261   0.60352   0.60953   0.61217
 Alpha virt. eigenvalues --    0.62157   0.62415   0.63051   0.63570   0.64182
 Alpha virt. eigenvalues --    0.65590   0.66409   0.67127   0.68902   0.69671
 Alpha virt. eigenvalues --    0.70202   0.72511   0.73205   0.74454   0.75808
 Alpha virt. eigenvalues --    0.77645   0.78167   0.78656   0.79760   0.81024
 Alpha virt. eigenvalues --    0.81353   0.81895   0.82258   0.82723   0.83087
 Alpha virt. eigenvalues --    0.83954   0.84109   0.84564   0.84877   0.85496
 Alpha virt. eigenvalues --    0.85829   0.86538   0.87183   0.87484   0.88628
 Alpha virt. eigenvalues --    0.89410   0.90255   0.90581   0.90800   0.91491
 Alpha virt. eigenvalues --    0.92536   0.92825   0.93727   0.94026   0.94882
 Alpha virt. eigenvalues --    0.95665   0.97147   0.98357   0.99255   0.99685
 Alpha virt. eigenvalues --    0.99937   1.00810   1.03011   1.03881   1.04849
 Alpha virt. eigenvalues --    1.06323   1.07653   1.08355   1.09152   1.10779
 Alpha virt. eigenvalues --    1.11048   1.11342   1.12373   1.12880   1.14349
 Alpha virt. eigenvalues --    1.15147   1.17235   1.17534   1.18567   1.19720
 Alpha virt. eigenvalues --    1.21653   1.22744   1.22889   1.25133   1.25582
 Alpha virt. eigenvalues --    1.26380   1.29668   1.31305   1.32820   1.35028
 Alpha virt. eigenvalues --    1.37617   1.39894   1.40819   1.41216   1.42242
 Alpha virt. eigenvalues --    1.43083   1.43780   1.45088   1.45777   1.46392
 Alpha virt. eigenvalues --    1.47021   1.48305   1.48449   1.49419   1.50709
 Alpha virt. eigenvalues --    1.51439   1.53790   1.57075   1.57448   1.64432
 Alpha virt. eigenvalues --    1.68397   1.69653   1.71818   1.74059   1.75460
 Alpha virt. eigenvalues --    1.76699   1.77369   1.78496   1.80358   1.80673
 Alpha virt. eigenvalues --    1.81713   1.82194   1.82977   1.83855   1.84692
 Alpha virt. eigenvalues --    1.85811   1.86227   1.86633   1.87250   1.88613
 Alpha virt. eigenvalues --    1.89551   1.90742   1.91917   1.93327   1.93913
 Alpha virt. eigenvalues --    1.95541   1.96229   1.97335   1.97738   1.98481
 Alpha virt. eigenvalues --    1.99252   2.00176   2.01500   2.02904   2.03768
 Alpha virt. eigenvalues --    2.05700   2.05924   2.07688   2.08554   2.09384
 Alpha virt. eigenvalues --    2.12143   2.12390   2.12803   2.13352   2.13653
 Alpha virt. eigenvalues --    2.14152   2.14928   2.15577   2.16177   2.19105
 Alpha virt. eigenvalues --    2.20286   2.21261   2.21996   2.25006   2.26792
 Alpha virt. eigenvalues --    2.27344   2.28122   2.29255   2.29934   2.30992
 Alpha virt. eigenvalues --    2.31489   2.32052   2.35491   2.38912   2.41318
 Alpha virt. eigenvalues --    2.42911   2.46794   2.50595   2.53722   2.54558
 Alpha virt. eigenvalues --    2.56984   2.57725   2.58054   2.62491   2.64775
 Alpha virt. eigenvalues --    2.66230   2.68365   2.69517   2.71599   2.71795
 Alpha virt. eigenvalues --    2.72527   2.72979   2.73770   2.74414   2.74609
 Alpha virt. eigenvalues --    2.74729   2.75800   2.76953   2.79472   2.83662
 Alpha virt. eigenvalues --    2.88809   2.94725   3.01447   3.04987   3.36197
 Alpha virt. eigenvalues --    3.41066   3.75851   3.83359   3.92461   3.99626
 Alpha virt. eigenvalues --    4.00562   4.06802   4.08692   4.09108   4.10290
 Alpha virt. eigenvalues --    4.11694   4.14599   4.15862   4.20958   4.23306
 Alpha virt. eigenvalues --    4.31111   4.33113   4.34187   4.34848   4.41365
 Alpha virt. eigenvalues --    4.52012   4.64314   4.70482   4.74016
          Condensed to atoms (all electrons):
               1          2          3          4          5          6
     1  O    8.221197   0.467042  -0.056621   0.001851  -0.000088  -0.000006
     2  S    0.467042  13.752980   0.079448   0.003581   0.001122   0.000501
     3  N   -0.056621   0.079448   7.452576   0.210008  -0.039903   0.001103
     4  C    0.001851   0.003581   0.210008   4.840903   0.314918  -0.064586
     5  C   -0.000088   0.001122  -0.039903   0.314918   5.731315   0.037922
     6  S   -0.000006   0.000501   0.001103  -0.064586   0.037922  14.962894
     7  O    0.000000   0.000001  -0.000037   0.000136  -0.037819   0.310007
     8  C   -0.000029  -0.005355  -0.064784   0.343341  -0.138554   0.051813
     9  C   -0.000113  -0.003891  -0.040763   0.342605  -0.040302   0.003647
    10  C    0.000000  -0.000304   0.003046  -0.029913  -0.006713   0.000220
    11  C    0.000000  -0.000049  -0.000101   0.003657   0.000073   0.000201
    12  C    0.000000  -0.000023   0.000000   0.000084  -0.000002  -0.000005
    13  C    0.000000   0.000000   0.000000   0.000002   0.000000   0.000000
    14  C    0.000000   0.000000   0.000000   0.000000   0.000000   0.000000
    15  C    0.000000   0.000000   0.000000   0.000002   0.000000   0.000000
    16  C    0.000000  -0.000001  -0.000002   0.000095  -0.000016  -0.000007
    17  C   -0.062417   0.167610  -0.046751  -0.006730  -0.000226   0.000008
    18  C   -0.000165  -0.021469   0.000010   0.000084  -0.000045  -0.000001
    19  C    0.000078   0.001990   0.000132  -0.000005  -0.000001   0.000000
    20  C   -0.000005  -0.000459   0.000010   0.000001   0.000000   0.000000
    21  C   -0.000056   0.003372  -0.000102   0.000007   0.000000   0.000000
    22  C   -0.001714  -0.035858   0.001488   0.000060  -0.000001   0.000000
    23  O   -0.044464   0.383132  -0.051477   0.007135   0.000110   0.000172
    24  H    0.006540  -0.013438   0.292501  -0.027288  -0.005918   0.000289
    25  H    0.000000   0.000045   0.002292  -0.024285   0.349927  -0.017526
    26  H   -0.000016   0.000002  -0.004921  -0.029732   0.325060  -0.009286
    27  H   -0.000001   0.000294   0.002839  -0.023223   0.008470  -0.019771
    28  H   -0.000232   0.000987  -0.004599  -0.026049   0.007256  -0.010296
    29  H    0.000035   0.013988  -0.004835  -0.030988   0.005681  -0.000463
    30  H    0.000004  -0.001099  -0.000174  -0.035667  -0.006498  -0.000222
    31  H    0.000000   0.000018  -0.000040  -0.004911   0.001328  -0.000546
    32  H    0.000000  -0.000039  -0.000044  -0.005549  -0.000555  -0.000164
    33  H    0.000000  -0.000005   0.000000  -0.000051   0.000000  -0.000002
    34  H    0.000000   0.000000   0.000000   0.000000   0.000000   0.000000
    35  H    0.000000   0.000000   0.000000   0.000000   0.000000   0.000000
    36  H    0.000000   0.000000   0.000000   0.000000   0.000000   0.000000
    37  H    0.000000   0.000000   0.000001  -0.000064  -0.000011  -0.000003
    38  H    0.000392  -0.003045   0.007371   0.000150  -0.000007   0.000000
    39  H    0.000001  -0.000061  -0.000001   0.000000   0.000000   0.000000
    40  H    0.000000   0.000008   0.000000   0.000000   0.000000   0.000000
    41  H    0.000000  -0.000076   0.000000   0.000000   0.000000   0.000000
    42  H   -0.000029  -0.007817   0.000247  -0.000011   0.000000   0.000000
               7          8          9         10         11         12
     1  O    0.000000  -0.000029  -0.000113   0.000000   0.000000   0.000000
     2  S    0.000001  -0.005355  -0.003891  -0.000304  -0.000049  -0.000023
     3  N   -0.000037  -0.064784  -0.040763   0.003046  -0.000101   0.000000
     4  C    0.000136   0.343341   0.342605  -0.029913   0.003657   0.000084
     5  C   -0.037819  -0.138554  -0.040302  -0.006713   0.000073  -0.000002
     6  S    0.310007   0.051813   0.003647   0.000220   0.000201  -0.000005
     7  O    8.371066  -0.036930  -0.000104  -0.000551   0.000324  -0.000002
     8  C   -0.036930   5.689873  -0.048995  -0.006016   0.000113  -0.000015
     9  C   -0.000104  -0.048995   5.159395   0.335991  -0.034792  -0.004264
    10  C   -0.000551  -0.006016   0.335991   5.238744   0.320658  -0.055486
    11  C    0.000324   0.000113  -0.034792   0.320658   4.657665   0.547569
    12  C   -0.000002  -0.000015  -0.004264  -0.055486   0.547569   4.958818
    13  C    0.000000   0.000000  -0.000079   0.006996  -0.018793   0.521679
    14  C    0.000000   0.000000   0.000024   0.000331  -0.034801  -0.035471
    15  C    0.000000   0.000000  -0.000059   0.006966  -0.018117  -0.047612
    16  C   -0.000004  -0.000002  -0.004324  -0.056765   0.545016  -0.036663
    17  C    0.000000  -0.000249   0.003837   0.000154   0.000007  -0.000001
    18  C    0.000000   0.000004  -0.000374   0.000015   0.000002   0.000000
    19  C    0.000000   0.000000  -0.000040   0.000000   0.000000   0.000000
    20  C    0.000000   0.000000   0.000000   0.000000   0.000000   0.000000
    21  C    0.000000   0.000000  -0.000051  -0.000001  -0.000002   0.000000
    22  C    0.000000   0.000005  -0.000589   0.000023   0.000005   0.000006
    23  O    0.000000   0.004096  -0.008587   0.000047  -0.000001  -0.000002
    24  H   -0.000001  -0.000334   0.005169  -0.000096   0.000001   0.000000
    25  H   -0.000433   0.008255  -0.007359   0.000094  -0.000158   0.000000
    26  H    0.001312   0.007772   0.002589   0.000247   0.000005   0.000000
    27  H   -0.000300   0.348514  -0.006065  -0.000621  -0.000059  -0.000003
    28  H    0.001282   0.330284   0.002821   0.000234   0.000005   0.000000
    29  H    0.000003  -0.005438   0.356443  -0.032843  -0.001598   0.003942
    30  H    0.000004   0.006098   0.361675  -0.037045  -0.001924  -0.000041
    31  H    0.006249  -0.000768  -0.039499   0.354270  -0.025963   0.003465
    32  H    0.003216   0.002052  -0.037440   0.356398  -0.026856  -0.004105
    33  H    0.000001  -0.000004   0.000185  -0.009570  -0.046303   0.355242
    34  H    0.000000   0.000000  -0.000001  -0.000183   0.003740  -0.039382
    35  H    0.000000   0.000000   0.000000   0.000006   0.000717   0.004685
    36  H    0.000000   0.000000  -0.000001  -0.000183   0.003742   0.000866
    37  H    0.000001   0.000001   0.000293  -0.009525  -0.047830   0.006240
    38  H    0.000000   0.000009  -0.000127   0.000001   0.000000   0.000000
    39  H    0.000000   0.000000  -0.000001   0.000000   0.000000   0.000000
    40  H    0.000000   0.000000   0.000000   0.000000   0.000000   0.000000
    41  H    0.000000   0.000000  -0.000001   0.000000   0.000000   0.000000
    42  H    0.000000  -0.000001  -0.000135   0.000000   0.000002   0.000006
              13         14         15         16         17         18
     1  O    0.000000   0.000000   0.000000   0.000000  -0.062417  -0.000165
     2  S    0.000000   0.000000   0.000000  -0.000001   0.167610  -0.021469
     3  N    0.000000   0.000000   0.000000  -0.000002  -0.046751   0.000010
     4  C    0.000002   0.000000   0.000002   0.000095  -0.006730   0.000084
     5  C    0.000000   0.000000   0.000000  -0.000016  -0.000226  -0.000045
     6  S    0.000000   0.000000   0.000000  -0.000007   0.000008  -0.000001
     7  O    0.000000   0.000000   0.000000  -0.000004   0.000000   0.000000
     8  C    0.000000   0.000000   0.000000  -0.000002  -0.000249   0.000004
     9  C   -0.000079   0.000024  -0.000059  -0.004324   0.003837  -0.000374
    10  C    0.006996   0.000331   0.006966  -0.056765   0.000154   0.000015
    11  C   -0.018793  -0.034801  -0.018117   0.545016   0.000007   0.000002
    12  C    0.521679  -0.035471  -0.047612  -0.036663  -0.000001   0.000000
    13  C    4.869584   0.550641  -0.025858  -0.047593   0.000000   0.000000
    14  C    0.550641   4.854031   0.549904  -0.035594   0.000000   0.000000
    15  C   -0.025858   0.549904   4.868533   0.523349   0.000000   0.000000
    16  C   -0.047593  -0.035594   0.523349   4.960097  -0.000001   0.000000
    17  C    0.000000   0.000000   0.000000  -0.000001   5.328756   0.468284
    18  C    0.000000   0.000000   0.000000   0.000000   0.468284   4.918986
    19  C    0.000000   0.000000   0.000000   0.000000  -0.023280   0.521617
    20  C    0.000000   0.000000   0.000000   0.000000  -0.039832  -0.029936
    21  C    0.000000   0.000000   0.000000   0.000000  -0.029875  -0.038304
    22  C    0.000000   0.000000   0.000000   0.000000   0.519893  -0.030750
    23  O    0.000000   0.000000   0.000000   0.000000  -0.057986   0.001676
    24  H    0.000000   0.000000   0.000000   0.000000   0.003093  -0.000098
    25  H    0.000000   0.000000   0.000000   0.000007   0.000002   0.000000
    26  H    0.000000   0.000000   0.000000   0.000000  -0.000008  -0.000002
    27  H    0.000000   0.000000   0.000000   0.000000   0.000006   0.000000
    28  H    0.000000   0.000000   0.000000   0.000000   0.000022   0.000000
    29  H   -0.000127  -0.000005  -0.000014  -0.000018  -0.003841  -0.000440
    30  H   -0.000012  -0.000004  -0.000150   0.003895   0.000441   0.001563
    31  H   -0.000209   0.000014   0.000095  -0.003896  -0.000002  -0.000001
    32  H    0.000102   0.000013  -0.000208   0.003668   0.000001   0.000000
    33  H   -0.045774   0.004843   0.000365   0.006168   0.000000   0.000000
    34  H    0.356374  -0.043486   0.004557   0.000877   0.000000   0.000000
    35  H   -0.043142   0.358680  -0.043177   0.004703   0.000000   0.000000
    36  H    0.004563  -0.043317   0.356122  -0.039661   0.000000   0.000000
    37  H    0.000356   0.004931  -0.046144   0.354253   0.000000   0.000000
    38  H    0.000000   0.000000   0.000000   0.000000  -0.048370   0.362444
    39  H    0.000000   0.000000   0.000000   0.000000   0.004833  -0.041944
    40  H    0.000000   0.000000   0.000000   0.000000   0.000482   0.004881
    41  H    0.000000   0.000000   0.000000   0.000000   0.005005   0.000730
    42  H    0.000000   0.000000   0.000000   0.000000  -0.041310   0.005187
              19         20         21         22         23         24
     1  O    0.000078  -0.000005  -0.000056  -0.001714  -0.044464   0.006540
     2  S    0.001990  -0.000459   0.003372  -0.035858   0.383132  -0.013438
     3  N    0.000132   0.000010  -0.000102   0.001488  -0.051477   0.292501
     4  C   -0.000005   0.000001   0.000007   0.000060   0.007135  -0.027288
     5  C   -0.000001   0.000000   0.000000  -0.000001   0.000110  -0.005918
     6  S    0.000000   0.000000   0.000000   0.000000   0.000172   0.000289
     7  O    0.000000   0.000000   0.000000   0.000000   0.000000  -0.000001
     8  C    0.000000   0.000000   0.000000   0.000005   0.004096  -0.000334
     9  C   -0.000040   0.000000  -0.000051  -0.000589  -0.008587   0.005169
    10  C    0.000000   0.000000  -0.000001   0.000023   0.000047  -0.000096
    11  C    0.000000   0.000000  -0.000002   0.000005  -0.000001   0.000001
    12  C    0.000000   0.000000   0.000000   0.000006  -0.000002   0.000000
    13  C    0.000000   0.000000   0.000000   0.000000   0.000000   0.000000
    14  C    0.000000   0.000000   0.000000   0.000000   0.000000   0.000000
    15  C    0.000000   0.000000   0.000000   0.000000   0.000000   0.000000
    16  C    0.000000   0.000000   0.000000   0.000000   0.000000   0.000000
    17  C   -0.023280  -0.039832  -0.029875   0.519893  -0.057986   0.003093
    18  C    0.521617  -0.029936  -0.038304  -0.030750   0.001676  -0.000098
    19  C    4.870612   0.541019  -0.028285  -0.040263  -0.000047   0.000003
    20  C    0.541019   4.842483   0.544846  -0.028141  -0.000005   0.000000
    21  C   -0.028285   0.544846   4.880817   0.501322   0.000614   0.000002
    22  C   -0.040263  -0.028141   0.501322   4.924366   0.002014  -0.000045
    23  O   -0.000047  -0.000005   0.000614   0.002014   8.296397  -0.000220
    24  H    0.000003   0.000000   0.000002  -0.000045  -0.000220   0.383063
    25  H    0.000000   0.000000   0.000000   0.000000   0.000001  -0.000122
    26  H    0.000000   0.000000   0.000000   0.000000   0.000004   0.004666
    27  H    0.000000   0.000000   0.000000  -0.000001  -0.000175  -0.000156
    28  H    0.000000   0.000000   0.000000   0.000000   0.001181   0.001633
    29  H   -0.000066   0.000008   0.000011   0.001304   0.007744  -0.000065
    30  H    0.000163   0.000016  -0.000071  -0.000141   0.000175  -0.000026
    31  H    0.000000   0.000000   0.000000   0.000000  -0.000002  -0.000003
    32  H    0.000000   0.000000   0.000000  -0.000001   0.000005   0.000001
    33  H    0.000000   0.000000   0.000000  -0.000001   0.000001   0.000000
    34  H    0.000000   0.000000   0.000000   0.000000   0.000000   0.000000
    35  H    0.000000   0.000000   0.000000   0.000000   0.000000   0.000000
    36  H    0.000000   0.000000   0.000000   0.000000   0.000000   0.000000
    37  H    0.000000   0.000000   0.000000   0.000000   0.000000   0.000000
    38  H   -0.038672   0.004394   0.000325   0.004813   0.000054  -0.000341
    39  H    0.362675  -0.041467   0.004427   0.000643   0.000000   0.000000
    40  H   -0.042272   0.361828  -0.042101   0.004859   0.000000   0.000000
    41  H    0.004345  -0.041861   0.363950  -0.042489   0.000003   0.000000
    42  H    0.000254   0.004177  -0.036514   0.358524   0.012879  -0.000004
              25         26         27         28         29         30
     1  O    0.000000  -0.000016  -0.000001  -0.000232   0.000035   0.000004
     2  S    0.000045   0.000002   0.000294   0.000987   0.013988  -0.001099
     3  N    0.002292  -0.004921   0.002839  -0.004599  -0.004835  -0.000174
     4  C   -0.024285  -0.029732  -0.023223  -0.026049  -0.030988  -0.035667
     5  C    0.349927   0.325060   0.008470   0.007256   0.005681  -0.006498
     6  S   -0.017526  -0.009286  -0.019771  -0.010296  -0.000463  -0.000222
     7  O   -0.000433   0.001312  -0.000300   0.001282   0.000003   0.000004
     8  C    0.008255   0.007772   0.348514   0.330284  -0.005438   0.006098
     9  C   -0.007359   0.002589  -0.006065   0.002821   0.356443   0.361675
    10  C    0.000094   0.000247  -0.000621   0.000234  -0.032843  -0.037045
    11  C   -0.000158   0.000005  -0.000059   0.000005  -0.001598  -0.001924
    12  C    0.000000   0.000000  -0.000003   0.000000   0.003942  -0.000041
    13  C    0.000000   0.000000   0.000000   0.000000  -0.000127  -0.000012
    14  C    0.000000   0.000000   0.000000   0.000000  -0.000005  -0.000004
    15  C    0.000000   0.000000   0.000000   0.000000  -0.000014  -0.000150
    16  C    0.000007   0.000000   0.000000   0.000000  -0.000018   0.003895
    17  C    0.000002  -0.000008   0.000006   0.000022  -0.003841   0.000441
    18  C    0.000000  -0.000002   0.000000   0.000000  -0.000440   0.001563
    19  C    0.000000   0.000000   0.000000   0.000000  -0.000066   0.000163
    20  C    0.000000   0.000000   0.000000   0.000000   0.000008   0.000016
    21  C    0.000000   0.000000   0.000000   0.000000   0.000011  -0.000071
    22  C    0.000000   0.000000  -0.000001   0.000000   0.001304  -0.000141
    23  O    0.000001   0.000004  -0.000175   0.001181   0.007744   0.000175
    24  H   -0.000122   0.004666  -0.000156   0.001633  -0.000065  -0.000026
    25  H    0.489944  -0.019082  -0.000371  -0.000307   0.000188   0.002607
    26  H   -0.019082   0.541815  -0.000319  -0.000453  -0.000129   0.000128
    27  H   -0.000371  -0.000319   0.486550  -0.016794   0.002052   0.000099
    28  H   -0.000307  -0.000453  -0.016794   0.514821   0.000011  -0.000114
    29  H    0.000188  -0.000129   0.002052   0.000011   0.539525  -0.032092
    30  H    0.002607   0.000128   0.000099  -0.000114  -0.032092   0.578051
    31  H    0.006164   0.000082   0.000185  -0.000017   0.005100  -0.004198
    32  H    0.000113  -0.000020   0.006159   0.000057  -0.004148   0.005427
    33  H    0.000000   0.000000   0.000070   0.000000   0.000773   0.000042
    34  H    0.000000   0.000000   0.000000   0.000000   0.000003   0.000000
    35  H    0.000000   0.000000   0.000000   0.000000   0.000000   0.000000
    36  H    0.000000   0.000000   0.000000   0.000000   0.000000   0.000003
    37  H    0.000163   0.000000   0.000000   0.000000   0.000044   0.000890
    38  H    0.000000   0.000012   0.000000   0.000000  -0.000014   0.000199
    39  H    0.000000   0.000000   0.000000   0.000000   0.000001   0.000000
    40  H    0.000000   0.000000   0.000000   0.000000   0.000000   0.000000
    41  H    0.000000   0.000000   0.000000   0.000000   0.000001   0.000000
    42  H    0.000000   0.000000   0.000001   0.000000   0.000448   0.000002
              31         32         33         34         35         36
     1  O    0.000000   0.000000   0.000000   0.000000   0.000000   0.000000
     2  S    0.000018  -0.000039  -0.000005   0.000000   0.000000   0.000000
     3  N   -0.000040  -0.000044   0.000000   0.000000   0.000000   0.000000
     4  C   -0.004911  -0.005549  -0.000051   0.000000   0.000000   0.000000
     5  C    0.001328  -0.000555   0.000000   0.000000   0.000000   0.000000
     6  S   -0.000546  -0.000164  -0.000002   0.000000   0.000000   0.000000
     7  O    0.006249   0.003216   0.000001   0.000000   0.000000   0.000000
     8  C   -0.000768   0.002052  -0.000004   0.000000   0.000000   0.000000
     9  C   -0.039499  -0.037440   0.000185  -0.000001   0.000000  -0.000001
    10  C    0.354270   0.356398  -0.009570  -0.000183   0.000006  -0.000183
    11  C   -0.025963  -0.026856  -0.046303   0.003740   0.000717   0.003742
    12  C    0.003465  -0.004105   0.355242  -0.039382   0.004685   0.000866
    13  C   -0.000209   0.000102  -0.045774   0.356374  -0.043142   0.004563
    14  C    0.000014   0.000013   0.004843  -0.043486   0.358680  -0.043317
    15  C    0.000095  -0.000208   0.000365   0.004557  -0.043177   0.356122
    16  C   -0.003896   0.003668   0.006168   0.000877   0.004703  -0.039661
    17  C   -0.000002   0.000001   0.000000   0.000000   0.000000   0.000000
    18  C   -0.000001   0.000000   0.000000   0.000000   0.000000   0.000000
    19  C    0.000000   0.000000   0.000000   0.000000   0.000000   0.000000
    20  C    0.000000   0.000000   0.000000   0.000000   0.000000   0.000000
    21  C    0.000000   0.000000   0.000000   0.000000   0.000000   0.000000
    22  C    0.000000  -0.000001  -0.000001   0.000000   0.000000   0.000000
    23  O   -0.000002   0.000005   0.000001   0.000000   0.000000   0.000000
    24  H   -0.000003   0.000001   0.000000   0.000000   0.000000   0.000000
    25  H    0.006164   0.000113   0.000000   0.000000   0.000000   0.000000
    26  H    0.000082  -0.000020   0.000000   0.000000   0.000000   0.000000
    27  H    0.000185   0.006159   0.000070   0.000000   0.000000   0.000000
    28  H   -0.000017   0.000057   0.000000   0.000000   0.000000   0.000000
    29  H    0.005100  -0.004148   0.000773   0.000003   0.000000   0.000000
    30  H   -0.004198   0.005427   0.000042   0.000000   0.000000   0.000003
    31  H    0.563714  -0.030583   0.000082   0.000003   0.000000  -0.000006
    32  H   -0.030583   0.563119   0.005463  -0.000007   0.000000   0.000003
    33  H    0.000082   0.005463   0.608277  -0.005623  -0.000182   0.000018
    34  H    0.000003  -0.000007  -0.005623   0.599331  -0.005554  -0.000192
    35  H    0.000000   0.000000  -0.000182  -0.005554   0.600792  -0.005546
    36  H   -0.000006   0.000003   0.000018  -0.000192  -0.005546   0.600994
    37  H    0.005150   0.000076  -0.000183   0.000018  -0.000185  -0.005733
    38  H    0.000000   0.000000   0.000000   0.000000   0.000000   0.000000
    39  H    0.000000   0.000000   0.000000   0.000000   0.000000   0.000000
    40  H    0.000000   0.000000   0.000000   0.000000   0.000000   0.000000
    41  H    0.000000   0.000000   0.000000   0.000000   0.000000   0.000000
    42  H    0.000000   0.000000   0.000003   0.000000   0.000000   0.000000
              37         38         39         40         41         42
     1  O    0.000000   0.000392   0.000001   0.000000   0.000000  -0.000029
     2  S    0.000000  -0.003045  -0.000061   0.000008  -0.000076  -0.007817
     3  N    0.000001   0.007371  -0.000001   0.000000   0.000000   0.000247
     4  C   -0.000064   0.000150   0.000000   0.000000   0.000000  -0.000011
     5  C   -0.000011  -0.000007   0.000000   0.000000   0.000000   0.000000
     6  S   -0.000003   0.000000   0.000000   0.000000   0.000000   0.000000
     7  O    0.000001   0.000000   0.000000   0.000000   0.000000   0.000000
     8  C    0.000001   0.000009   0.000000   0.000000   0.000000  -0.000001
     9  C    0.000293  -0.000127  -0.000001   0.000000  -0.000001  -0.000135
    10  C   -0.009525   0.000001   0.000000   0.000000   0.000000   0.000000
    11  C   -0.047830   0.000000   0.000000   0.000000   0.000000   0.000002
    12  C    0.006240   0.000000   0.000000   0.000000   0.000000   0.000006
    13  C    0.000356   0.000000   0.000000   0.000000   0.000000   0.000000
    14  C    0.004931   0.000000   0.000000   0.000000   0.000000   0.000000
    15  C   -0.046144   0.000000   0.000000   0.000000   0.000000   0.000000
    16  C    0.354253   0.000000   0.000000   0.000000   0.000000   0.000000
    17  C    0.000000  -0.048370   0.004833   0.000482   0.005005  -0.041310
    18  C    0.000000   0.362444  -0.041944   0.004881   0.000730   0.005187
    19  C    0.000000  -0.038672   0.362675  -0.042272   0.004345   0.000254
    20  C    0.000000   0.004394  -0.041467   0.361828  -0.041861   0.004177
    21  C    0.000000   0.000325   0.004427  -0.042101   0.363950  -0.036514
    22  C    0.000000   0.004813   0.000643   0.004859  -0.042489   0.358524
    23  O    0.000000   0.000054   0.000000   0.000000   0.000003   0.012879
    24  H    0.000000  -0.000341   0.000000   0.000000   0.000000  -0.000004
    25  H    0.000163   0.000000   0.000000   0.000000   0.000000   0.000000
    26  H    0.000000   0.000012   0.000000   0.000000   0.000000   0.000000
    27  H    0.000000   0.000000   0.000000   0.000000   0.000000   0.000001
    28  H    0.000000   0.000000   0.000000   0.000000   0.000000   0.000000
    29  H    0.000044  -0.000014   0.000001   0.000000   0.000001   0.000448
    30  H    0.000890   0.000199   0.000000   0.000000   0.000000   0.000002
    31  H    0.005150   0.000000   0.000000   0.000000   0.000000   0.000000
    32  H    0.000076   0.000000   0.000000   0.000000   0.000000   0.000000
    33  H   -0.000183   0.000000   0.000000   0.000000   0.000000   0.000003
    34  H    0.000018   0.000000   0.000000   0.000000   0.000000   0.000000
    35  H   -0.000185   0.000000   0.000000   0.000000   0.000000   0.000000
    36  H   -0.005733   0.000000   0.000000   0.000000   0.000000   0.000000
    37  H    0.618061   0.000000   0.000000   0.000000   0.000000   0.000000
    38  H    0.000000   0.551552  -0.005497  -0.000154   0.000015  -0.000143
    39  H    0.000000  -0.005497   0.575111  -0.005367  -0.000170   0.000014
    40  H    0.000000  -0.000154  -0.005367   0.576885  -0.005428  -0.000143
    41  H    0.000000   0.000015  -0.000170  -0.005428   0.571482  -0.004967
    42  H    0.000000  -0.000143   0.000014  -0.000143  -0.004967   0.525082
 Mulliken charges:
               1
     1  O   -0.531185
     2  S    1.216869
     3  N   -0.737918
     4  C    0.240431
     5  C   -0.506524
     6  S    0.754108
     7  O   -0.617422
     8  C   -0.484755
     9  C   -0.296718
    10  C   -0.378627
    11  C    0.173846
    12  C   -0.179523
    13  C   -0.128710
    14  C   -0.130733
    15  C   -0.128554
    16  C   -0.177581
    17  C   -0.141553
    18  C   -0.121955
    19  C   -0.129956
    20  C   -0.117077
    21  C   -0.124330
    22  C   -0.139330
    23  O   -0.554474
    24  H    0.351194
    25  H    0.209838
    26  H    0.180274
    27  H    0.212622
    28  H    0.198266
    29  H    0.179821
    30  H    0.157993
    31  H    0.164728
    32  H    0.163845
    33  H    0.126165
    34  H    0.129526
    35  H    0.128203
    36  H    0.128327
    37  H    0.119200
    38  H    0.164637
    39  H    0.146802
    40  H    0.146523
    41  H    0.149459
    42  H    0.184247
 Sum of Mulliken charges =   0.00000
 Mulliken charges with hydrogens summed into heavy atoms:
               1
     1  O   -0.531185
     2  S    1.216869
     3  N   -0.386724
     4  C    0.240431
     5  C   -0.116412
     6  S    0.754108
     7  O   -0.617422
     8  C   -0.073868
     9  C    0.041096
    10  C   -0.050054
    11  C    0.173846
    12  C   -0.053359
    13  C    0.000816
    14  C   -0.002530
    15  C   -0.000227
    16  C   -0.058381
    17  C   -0.141553
    18  C    0.042682
    19  C    0.016846
    20  C    0.029446
    21  C    0.025129
    22  C    0.044917
    23  O   -0.554474
 Electronic spatial extent (au):  <R**2>=           8901.9439
 Charge=              0.0000 electrons
 Dipole moment (field-independent basis, Debye):
    X=             -0.8351    Y=             -3.8410    Z=              3.0678  Tot=              4.9861
 Quadrupole moment (field-independent basis, Debye-Ang):
   XX=           -172.8131   YY=           -140.4710   ZZ=           -139.5715
   XY=             -7.8490   XZ=             -8.2456   YZ=              3.3217
 Traceless Quadrupole moment (field-independent basis, Debye-Ang):
[...]
    27  H    0.000000   0.000000   0.000000   0.000000   0.000006   0.000000
    28  H    0.000000   0.000000   0.000000   0.000000   0.000019   0.000000
    29  H   -0.000127  -0.000005  -0.000013  -0.000046  -0.003825  -0.000462
    30  H   -0.000010  -0.000003  -0.000145   0.003806   0.000442   0.001540
    31  H   -0.000212   0.000015   0.000087  -0.004289  -0.000003  -0.000001
    32  H    0.000104   0.000013  -0.000211   0.003825   0.000001   0.000000
    33  H   -0.044640   0.004773   0.000275   0.006041   0.000000   0.000000
    34  H    0.360451  -0.042373   0.004493   0.000768   0.000000   0.000000
    35  H   -0.042125   0.362805  -0.042142   0.004628   0.000000   0.000000
    36  H    0.004481  -0.042234   0.360396  -0.038557   0.000000   0.000000
    37  H    0.000276   0.004782  -0.044528   0.359453   0.000000   0.000000
    38  H    0.000000   0.000000   0.000000   0.000000  -0.050570   0.364914
    39  H    0.000000   0.000000   0.000000   0.000000   0.004756  -0.040359
    40  H    0.000000   0.000000   0.000000   0.000000   0.000441   0.004810
    41  H    0.000000   0.000000   0.000000   0.000000   0.004976   0.000644
    42  H    0.000000   0.000000   0.000000   0.000000  -0.046557   0.004960
              19         20         21         22         23         24
     1  O    0.000079  -0.000005  -0.000051  -0.001720  -0.043474   0.005170
     2  S    0.002008  -0.000453   0.003378  -0.035298   0.384806  -0.011546
     3  N    0.000154   0.000010  -0.000107   0.001576  -0.051951   0.294426
     4  C   -0.000004   0.000001   0.000008   0.000043   0.006420  -0.023530
     5  C   -0.000001   0.000000   0.000000  -0.000001   0.000089  -0.005169
     6  S    0.000000   0.000000   0.000000   0.000000   0.000173   0.000225
     7  O    0.000000   0.000000   0.000000   0.000000   0.000000  -0.000002
     8  C    0.000000   0.000000   0.000000   0.000006   0.004118  -0.000235
     9  C   -0.000041   0.000000  -0.000057  -0.000637  -0.008205   0.004495
    10  C    0.000000   0.000000  -0.000001   0.000024   0.000047  -0.000081
    11  C    0.000000   0.000000  -0.000002   0.000005  -0.000001   0.000001
    12  C    0.000000   0.000000   0.000000   0.000006  -0.000002   0.000000
    13  C    0.000000   0.000000   0.000000   0.000000   0.000000   0.000000
    14  C    0.000000   0.000000   0.000000   0.000000   0.000000   0.000000
    15  C    0.000000   0.000000   0.000000   0.000000   0.000000   0.000000
    16  C    0.000000   0.000000   0.000000   0.000000   0.000000   0.000000
    17  C   -0.025898  -0.039917  -0.029925   0.507935  -0.058365   0.002458
    18  C    0.522580  -0.031810  -0.038749  -0.028716   0.001608  -0.000094
    19  C    4.879195   0.536332  -0.029716  -0.039932  -0.000048   0.000002
    20  C    0.536332   4.860215   0.539838  -0.030291  -0.000004   0.000000
    21  C   -0.029716   0.539838   4.891044   0.504233   0.000584   0.000001
    22  C   -0.039932  -0.030291   0.504233   4.933288   0.001856  -0.000037
    23  O   -0.000048  -0.000004   0.000584   0.001856   8.324058  -0.000269
    24  H    0.000002   0.000000   0.000001  -0.000037  -0.000269   0.326485
    25  H    0.000000   0.000000   0.000000   0.000000   0.000001  -0.000090
    26  H    0.000000   0.000000   0.000000   0.000000   0.000004   0.003629
    27  H    0.000000   0.000000   0.000000  -0.000001  -0.000175  -0.000131
    28  H    0.000000   0.000000   0.000000   0.000000   0.001123   0.001269
    29  H   -0.000067   0.000009   0.000020   0.001396   0.007178  -0.000061
    30  H    0.000167   0.000017  -0.000067  -0.000156   0.000178  -0.000013
    31  H    0.000000   0.000000   0.000000   0.000000  -0.000002  -0.000003
    32  H    0.000000   0.000000   0.000000  -0.000001   0.000006   0.000000
    33  H    0.000000   0.000000   0.000000  -0.000001   0.000001   0.000000
    34  H    0.000000   0.000000   0.000000   0.000000   0.000000   0.000000
    35  H    0.000000   0.000000   0.000000   0.000000   0.000000   0.000000
    36  H    0.000000   0.000000   0.000000   0.000000   0.000000   0.000000
    37  H    0.000000   0.000000   0.000000   0.000000   0.000000   0.000000
    38  H   -0.034391   0.004285   0.000280   0.004477   0.000051  -0.000265
    39  H    0.366408  -0.039836   0.004268   0.000599   0.000000   0.000000
    40  H   -0.040695   0.365257  -0.040789   0.004802   0.000000   0.000000
    41  H    0.004229  -0.040262   0.367250  -0.041461   0.000002   0.000000
    42  H    0.000202   0.004275  -0.034038   0.361209   0.012446  -0.000003
              25         26         27         28         29         30
     1  O    0.000000  -0.000015  -0.000001  -0.000225   0.000030   0.000004
     2  S    0.000025   0.000044   0.000351   0.001352   0.013807  -0.001132
     3  N    0.002143  -0.003986   0.002817  -0.004442  -0.004912   0.000038
     4  C   -0.025968  -0.027642  -0.024657  -0.024946  -0.031380  -0.033849
     5  C    0.351446   0.336134   0.008268   0.006603   0.005654  -0.006342
     6  S   -0.018591  -0.010680  -0.019292  -0.010803  -0.000527  -0.000300
     7  O   -0.000642   0.001207  -0.000511   0.001215   0.000002   0.000003
     8  C    0.008041   0.007069   0.347113   0.336170  -0.005424   0.005970
     9  C   -0.006804   0.002437  -0.005903   0.002818   0.356238   0.364170
    10  C   -0.000453   0.000226  -0.000937   0.000220  -0.034223  -0.036557
    11  C   -0.000116   0.000005  -0.000053   0.000004  -0.001631  -0.001948
    12  C    0.000000   0.000000  -0.000002   0.000000   0.003944  -0.000060
    13  C    0.000000   0.000000   0.000000   0.000000  -0.000127  -0.000010
    14  C    0.000000   0.000000   0.000000   0.000000  -0.000005  -0.000003
    15  C   -0.000001   0.000000   0.000000   0.000000  -0.000013  -0.000145
    16  C    0.000006   0.000000   0.000000   0.000000  -0.000046   0.003806
    17  C    0.000002  -0.000008   0.000006   0.000019  -0.003825   0.000442
    18  C    0.000000  -0.000002   0.000000   0.000000  -0.000462   0.001540
    19  C    0.000000   0.000000   0.000000   0.000000  -0.000067   0.000167
    20  C    0.000000   0.000000   0.000000   0.000000   0.000009   0.000017
    21  C    0.000000   0.000000   0.000000   0.000000   0.000020  -0.000067
    22  C    0.000000   0.000000  -0.000001   0.000000   0.001396  -0.000156
    23  O    0.000001   0.000004  -0.000175   0.001123   0.007178   0.000178
    24  H   -0.000090   0.003629  -0.000131   0.001269  -0.000061  -0.000013
    25  H    0.477008  -0.016229  -0.000378  -0.000274   0.000176   0.002476
    26  H   -0.016229   0.491015  -0.000284  -0.000415  -0.000119   0.000112
    27  H   -0.000378  -0.000284   0.484881  -0.016367   0.002076   0.000088
    28  H   -0.000274  -0.000415  -0.016367   0.489998   0.000007  -0.000108
    29  H    0.000176  -0.000119   0.002076   0.000007   0.549634  -0.032660
    30  H    0.002476   0.000112   0.000088  -0.000108  -0.032660   0.563438
    31  H    0.005774   0.000071   0.000177  -0.000018   0.005192  -0.004283
    32  H    0.000119  -0.000019   0.005811   0.000053  -0.004386   0.005330
    33  H    0.000000   0.000000   0.000063   0.000000   0.000761   0.000037
    34  H    0.000000   0.000000   0.000000   0.000000   0.000003   0.000000
    35  H    0.000000   0.000000   0.000000   0.000000   0.000000   0.000000
    36  H    0.000000   0.000000   0.000000   0.000000   0.000000   0.000003
    37  H    0.000140   0.000000   0.000000   0.000000   0.000037   0.000818
    38  H    0.000000   0.000010   0.000000   0.000000  -0.000014   0.000187
    39  H    0.000000   0.000000   0.000000   0.000000   0.000000   0.000000
    40  H    0.000000   0.000000   0.000000   0.000000   0.000000   0.000000
    41  H    0.000000   0.000000   0.000000   0.000000   0.000001   0.000000
    42  H    0.000000   0.000000   0.000001   0.000000   0.000438   0.000001
              31         32         33         34         35         36
     1  O    0.000000   0.000000   0.000000   0.000000   0.000000   0.000000
     2  S    0.000022  -0.000040  -0.000004   0.000000   0.000000   0.000000
     3  N   -0.000039  -0.000044   0.000000   0.000000   0.000000   0.000000
     4  C   -0.004791  -0.005405  -0.000048   0.000000   0.000000   0.000000
     5  C    0.001888  -0.000508   0.000000   0.000000   0.000000   0.000000
     6  S   -0.000702  -0.000226  -0.000002   0.000000   0.000000   0.000000
     7  O    0.006395   0.003291   0.000001   0.000000   0.000000   0.000000
     8  C   -0.000719   0.002351  -0.000003   0.000000   0.000000   0.000000
     9  C   -0.037760  -0.036156   0.000209  -0.000001   0.000000  -0.000001
    10  C    0.352258   0.354739  -0.009305  -0.000174   0.000006  -0.000174
    11  C   -0.025053  -0.026482  -0.045420   0.003672   0.000621   0.003649
    12  C    0.003653  -0.004365   0.359403  -0.038563   0.004614   0.000770
    13  C   -0.000212   0.000104  -0.044640   0.360451  -0.042125   0.004481
    14  C    0.000015   0.000013   0.004773  -0.042373   0.362805  -0.042234
    15  C    0.000087  -0.000211   0.000275   0.004493  -0.042142   0.360396
    16  C   -0.004289   0.003825   0.006041   0.000768   0.004628  -0.038557
    17  C   -0.000003   0.000001   0.000000   0.000000   0.000000   0.000000
    18  C   -0.000001   0.000000   0.000000   0.000000   0.000000   0.000000
    19  C    0.000000   0.000000   0.000000   0.000000   0.000000   0.000000
    20  C    0.000000   0.000000   0.000000   0.000000   0.000000   0.000000
    21  C    0.000000   0.000000   0.000000   0.000000   0.000000   0.000000
    22  C    0.000000  -0.000001  -0.000001   0.000000   0.000000   0.000000
    23  O   -0.000002   0.000006   0.000001   0.000000   0.000000   0.000000
    24  H   -0.000003   0.000000   0.000000   0.000000   0.000000   0.000000
    25  H    0.005774   0.000119   0.000000   0.000000   0.000000   0.000000
    26  H    0.000071  -0.000019   0.000000   0.000000   0.000000   0.000000
    27  H    0.000177   0.005811   0.000063   0.000000   0.000000   0.000000
    28  H   -0.000018   0.000053   0.000000   0.000000   0.000000   0.000000
    29  H    0.005192  -0.004386   0.000761   0.000003   0.000000   0.000000
    30  H   -0.004283   0.005330   0.000037   0.000000   0.000000   0.000003
    31  H    0.566759  -0.032528   0.000086   0.000003   0.000000  -0.000006
    32  H   -0.032528   0.566734   0.005138  -0.000006   0.000000   0.000003
    33  H    0.000086   0.005138   0.584609  -0.005299  -0.000168   0.000017
    34  H    0.000003  -0.000006  -0.005299   0.573884  -0.005230  -0.000176
    35  H    0.000000   0.000000  -0.000168  -0.005230   0.574721  -0.005211
    36  H   -0.000006   0.000003   0.000017  -0.000176  -0.005211   0.573741
    37  H    0.004785   0.000080  -0.000167   0.000017  -0.000169  -0.005300
    38  H    0.000000   0.000000   0.000000   0.000000   0.000000   0.000000
    39  H    0.000000   0.000000   0.000000   0.000000   0.000000   0.000000
    40  H    0.000000   0.000000   0.000000   0.000000   0.000000   0.000000
    41  H    0.000000   0.000000   0.000000   0.000000   0.000000   0.000000
    42  H    0.000000   0.000000   0.000003   0.000000   0.000000   0.000000
              37         38         39         40         41         42
     1  O    0.000000   0.000271   0.000001   0.000000   0.000000  -0.000026
     2  S    0.000000  -0.002312  -0.000069   0.000007  -0.000080  -0.007247
     3  N    0.000001   0.007011  -0.000001   0.000000   0.000000   0.000230
     4  C   -0.000059   0.000114   0.000000   0.000000   0.000000  -0.000011
     5  C   -0.000007  -0.000007   0.000000   0.000000   0.000000   0.000000
     6  S   -0.000004   0.000000   0.000000   0.000000   0.000000   0.000000
     7  O    0.000001   0.000000   0.000000   0.000000   0.000000   0.000000
     8  C    0.000001   0.000009   0.000000   0.000000   0.000000  -0.000001
     9  C    0.000328  -0.000116  -0.000001   0.000000  -0.000001  -0.000139
    10  C   -0.009180   0.000001   0.000000   0.000000   0.000000   0.000000
    11  C   -0.045709   0.000000   0.000000   0.000000   0.000000   0.000002
    12  C    0.006028   0.000000   0.000000   0.000000   0.000000   0.000006
    13  C    0.000276   0.000000   0.000000   0.000000   0.000000   0.000000
    14  C    0.004782   0.000000   0.000000   0.000000   0.000000   0.000000
    15  C   -0.044528   0.000000   0.000000   0.000000   0.000000   0.000000
    16  C    0.359453   0.000000   0.000000   0.000000   0.000000   0.000000
    17  C    0.000000  -0.050570   0.004756   0.000441   0.004976  -0.046557
    18  C    0.000000   0.364914  -0.040359   0.004810   0.000644   0.004960
    19  C    0.000000  -0.034391   0.366408  -0.040695   0.004229   0.000202
    20  C    0.000000   0.004285  -0.039836   0.365257  -0.040262   0.004275
    21  C    0.000000   0.000280   0.004268  -0.040789   0.367250  -0.034038
    22  C    0.000000   0.004477   0.000599   0.004802  -0.041461   0.361209
    23  O    0.000000   0.000051   0.000000   0.000000   0.000002   0.012446
    24  H    0.000000  -0.000265   0.000000   0.000000   0.000000  -0.000003
    25  H    0.000140   0.000000   0.000000   0.000000   0.000000   0.000000
    26  H    0.000000   0.000010   0.000000   0.000000   0.000000   0.000000
    27  H    0.000000   0.000000   0.000000   0.000000   0.000000   0.000001
    28  H    0.000000   0.000000   0.000000   0.000000   0.000000   0.000000
    29  H    0.000037  -0.000014   0.000000   0.000000   0.000001   0.000438
    30  H    0.000818   0.000187   0.000000   0.000000   0.000000   0.000001
    31  H    0.004785   0.000000   0.000000   0.000000   0.000000   0.000000
    32  H    0.000080   0.000000   0.000000   0.000000   0.000000   0.000000
    33  H   -0.000167   0.000000   0.000000   0.000000   0.000000   0.000003
    34  H    0.000017   0.000000   0.000000   0.000000   0.000000   0.000000
    35  H   -0.000169   0.000000   0.000000   0.000000   0.000000   0.000000
    36  H   -0.005300   0.000000   0.000000   0.000000   0.000000   0.000000
    37  H    0.585276   0.000000   0.000000   0.000000   0.000000   0.000000
    38  H    0.000000   0.529400  -0.005238  -0.000142   0.000014  -0.000136
    39  H    0.000000  -0.005238   0.544585  -0.005025  -0.000156   0.000013
    40  H    0.000000  -0.000142  -0.005025   0.547726  -0.005101  -0.000136
    41  H    0.000000   0.000014  -0.000156  -0.005101   0.545222  -0.004985
    42  H    0.000000  -0.000136   0.000013  -0.000136  -0.004985   0.525253
 Mulliken charges:
               1
     1  O   -0.573710
     2  S    1.215743
     3  N   -0.747139
     4  C    0.236044
     5  C   -0.503669
     6  S    0.764913
     7  O   -0.688695
     8  C   -0.486682
     9  C   -0.297897
    10  C   -0.376317
    11  C    0.161503
    12  C   -0.195484
    13  C   -0.149534
    14  C   -0.151887
    15  C   -0.150366
    16  C   -0.196215
    17  C   -0.146158
    18  C   -0.134784
    19  C   -0.140565
    20  C   -0.127661
    21  C   -0.137402
    22  C   -0.143203
    23  O   -0.582252
    24  H    0.403368
    25  H    0.222191
    26  H    0.217436
    27  H    0.217038
    28  H    0.216747
    29  H    0.173279
    30  H    0.168807
    31  H    0.163244
    32  H    0.162777
    33  H    0.143639
    34  H    0.148534
    35  H    0.147650
    36  H    0.148599
    37  H    0.143099
    38  H    0.182164
    39  H    0.170054
    40  H    0.168845
    41  H    0.169708
    42  H    0.184238
 Sum of Mulliken charges =   0.00000
 Mulliken charges with hydrogens summed into heavy atoms:
               1
     1  O   -0.573710
     2  S    1.215743
     3  N   -0.343770
     4  C    0.236044
     5  C   -0.064043
     6  S    0.764913
     7  O   -0.688695
     8  C   -0.052896
     9  C    0.044190
    10  C   -0.050296
    11  C    0.161503
    12  C   -0.051845
    13  C   -0.001001
    14  C   -0.004237
    15  C   -0.001767
    16  C   -0.053116
    17  C   -0.146158
    18  C    0.047381
    19  C    0.029489
    20  C    0.041183
    21  C    0.032306
    22  C    0.041035
    23  O   -0.582252
 Electronic spatial extent (au):  <R**2>=           8902.3359
 Charge=              0.0000 electrons
 Dipole moment (field-independent basis, Debye):
    X=             -1.5740    Y=             -4.4554    Z=              4.3509  Tot=              6.4233
 Quadrupole moment (field-independent basis, Debye-Ang):
   XX=           -178.0873   YY=           -137.8701   ZZ=           -137.4255
   XY=            -10.6182   XZ=            -10.2977   YZ=              4.1695
 Traceless Quadrupole moment (field-independent basis, Debye-Ang):
   XX=            -26.9597   YY=             13.2576   ZZ=             13.7021
   XY=            -10.6182   XZ=            -10.2977   YZ=              4.1695
 Octapole moment (field-independent basis, Debye-Ang**2):
  XXX=             16.2571  YYY=            -86.7743  ZZZ=             17.8577  XYY=            -94.4568
  XXY=            -82.4715  XXZ=             33.8402  XZZ=              5.9874  YZZ=             -0.4799
  YYZ=              8.7992  XYZ=             -3.2905
 Hexadecapole moment (field-independent basis, Debye-Ang**3):
 XXXX=          -6282.0115 YYYY=          -5114.8062 ZZZZ=           -953.2610 XXXY=           -100.2001
 XXXZ=            -50.8940 YYYX=           -271.1895 YYYZ=             -6.3771 ZZZX=            -38.2968
 ZZZY=             13.1701 XXYY=          -1851.0397 XXZZ=          -1024.8422 YYZZ=           -918.8047
 XXYZ=             -7.8278 YYXZ=            -45.9125 ZZXY=             25.8894
 N-N= 2.283944441443D+03 E-N=-8.642535516455D+03  KE= 1.724256323332D+03
 No NMR shielding tensors so no spin-rotation constants.
 Leave Link  601 at Sat Aug  8 02:48:09 2020, MaxMem=    33554432 cpu:         0.4
 (Enter /prod/apps/gaussian/g09d1/l9999.exe)
 1\1\GINC-PIRINEUS7\SP\RB3LYP\6-31G(d)\C17H19N1O3S2\UBAFAR01\08-Aug-202
 0\0\\#p b3lyp/6-31G(d) scrf=(iefpcm,read,solvent=Water) geom=allcheck 
 guess=read\\SM36.n.9.pdb.xyz\\0,1\O,0,5.209,0.782,-0.283\S,0,4.754,0.2
 67,-1.587\N,0,3.202,-0.312,-1.296\C,0,2.635,-1.43,-2.079\C,0,1.253,-1.
 788,-1.474\S,0,1.705,-3.581,-1.2\O,0,1.079,-4.457,-2.279\C,0,3.292,-2.
 814,-1.812\C,0,2.566,-1.032,-3.562\C,0,1.931,-2.073,-4.501\C,0,1.872,-
 1.573,-5.928\C,0,2.925,-1.819,-6.819\C,0,2.883,-1.339,-8.129\C,0,1.782
 ,-0.604,-8.571\C,0,0.724,-0.354,-7.694\C,0,0.771,-0.835,-6.385\C,0,4.5
 19,1.647,-2.698\C,0,3.58,2.634,-2.386\C,0,3.467,3.74,-3.224\C,0,4.289,
 3.856,-4.35\C,0,5.228,2.865,-4.644\C,0,5.35,1.75,-3.813\O,0,5.585,-0.7
 31,-2.285\H,0,3.128,-0.458,-0.287\H,0,0.401,-1.695,-2.148\H,0,1.027,-1
 .303,-0.523\H,0,3.676,-3.347,-2.682\H,0,4.036,-2.815,-1.017\H,0,3.582,
 -0.824,-3.909\H,0,2.003,-0.095,-3.623\H,0,0.921,-2.318,-4.157\H,0,2.50
 6,-3.003,-4.466\H,0,3.782,-2.396,-6.483\H,0,3.708,-1.544,-8.804\H,0,1.
 745,-0.233,-9.591\H,0,-0.14,0.212,-8.03\H,0,-0.058,-0.642,-5.71\H,0,2.
 944,2.531,-1.516\H,0,2.737,4.51,-2.999\H,0,4.195,4.72,-4.999\H,0,5.863
 ,2.955,-5.518\H,0,6.066,0.965,-4.024\\Version=AM64L-G09RevD.01\State=1
 -A\HF=-1735.9364858\RMSD=6.132e-09\Dipole=-0.8463447,2.3429763,-0.4249
 297\Quadrupole=-4.4633836,-3.5776052,8.0409888,-12.3897945,-13.2342738
 ,-7.3856805\PG=C01 [X(C17H19N1O3S2)]\\@


 THE VALUE OF PHILOSOPHY IS, IN FACT, TO BE SOUGHT LARGELY IN ITS
 VERY UNCERTAINTY.  THE MAN WHO HAS NO TINCTURE OF PHILOSOPHY GOES
 THROUGH LIFE IMPRISONED IN THE PREJUDICES DERIVED FROM COMMON SENSE,
 FROM THE HABITUAL BELIEFS OF HIS AGE OR HIS NATION, AND FROM
 CONVICTIONS WHICH HAVE GROWN UP IN HIS MIND WITHOUT THE CO-OPERATION
 OR CONSENT OF HIS DELIBERATE REASON.  TO SUCH A MAN THE WORLD TENDS
 TO BE DEFINITE, FINITE, OBVIOUS; COMMON OBJECTS ROUSE NO QUESTIONS,
 AND UNFAMILIAR POSSIBILITIES ARE CONTEMPTUOUSLY REJECTED.

                             -- BERTRAND RUSSELL
 Job cpu time:       0 days  0 hours  6 minutes  5.9 seconds.
 File lengths (MBytes):  RWF=    577 Int=      0 D2E=      0 Chk=      8 Scr=      1
 Normal termination of Gaussian 09 at Sat Aug  8 02:48:09 2020.
