 Entering Gaussian System, Link 0=g09
 Initial command:
 /prod/apps/gaussian/g09d1/l1.exe "/tmp/ubafar01/1449165/Gau-109774.inp" -scrdir="/tmp/ubafar01/1449165/"
 Entering Link 1 = /prod/apps/gaussian/g09d1/l1.exe PID=    109776.
  
 Copyright (c) 1988,1990,1992,1993,1995,1998,2003,2009,2013,
            Gaussian, Inc.  All Rights Reserved.
  
 This is part of the Gaussian(R) 09 program.  It is based on
 the Gaussian(R) 03 system (copyright 2003, Gaussian, Inc.),
 the Gaussian(R) 98 system (copyright 1998, Gaussian, Inc.),
 the Gaussian(R) 94 system (copyright 1995, Gaussian, Inc.),
 the Gaussian 92(TM) system (copyright 1992, Gaussian, Inc.),
 the Gaussian 90(TM) system (copyright 1990, Gaussian, Inc.),
 the Gaussian 88(TM) system (copyright 1988, Gaussian, Inc.),
 the Gaussian 86(TM) system (copyright 1986, Carnegie Mellon
 University), and the Gaussian 82(TM) system (copyright 1983,
 Carnegie Mellon University). Gaussian is a federally registered
 trademark of Gaussian, Inc.
  
 This software contains proprietary and confidential information,
 including trade secrets, belonging to Gaussian, Inc.
  
 This software is provided under written license and may be
 used, copied, transmitted, or stored only in accord with that
 written license.
  
 The following legend is applicable only to US Government
 contracts under FAR:
  
                    RESTRICTED RIGHTS LEGEND
  
 Use, reproduction and disclosure by the US Government is
 subject to restrictions as set forth in subparagraphs (a)
 and (c) of the Commercial Computer Software - Restricted
 Rights clause in FAR 52.227-19.
  
 Gaussian, Inc.
 340 Quinnipiac St., Bldg. 40, Wallingford CT 06492
  
  
 ---------------------------------------------------------------
 Warning -- This program may not be used in any manner that
 competes with the business of Gaussian, Inc. or will provide
 assistance to any competitor of Gaussian, Inc.  The licensee
 of this program is prohibited from giving any competitor of
 Gaussian, Inc. access to this program.  By using this program,
 the user acknowledges that Gaussian, Inc. is engaged in the
 business of creating and licensing software in the field of
 computational chemistry and represents and warrants to the
 licensee that it is not a competitor of Gaussian, Inc. and that
 it will not use this program in any manner prohibited above.
 ---------------------------------------------------------------
  

 Cite this work as:
 Gaussian 09, Revision D.01,
 M. J. Frisch, G. W. Trucks, H. B. Schlegel, G. E. Scuseria, 
 M. A. Robb, J. R. Cheeseman, G. Scalmani, V. Barone, B. Mennucci, 
 G. A. Petersson, H. Nakatsuji, M. Caricato, X. Li, H. P. Hratchian, 
 A. F. Izmaylov, J. Bloino, G. Zheng, J. L. Sonnenberg, M. Hada, 
 M. Ehara, K. Toyota, R. Fukuda, J. Hasegawa, M. Ishida, T. Nakajima, 
 Y. Honda, O. Kitao, H. Nakai, T. Vreven, J. A. Montgomery, Jr., 
 J. E. Peralta, F. Ogliaro, M. Bearpark, J. J. Heyd, E. Brothers, 
 K. N. Kudin, V. N. Staroverov, T. Keith, R. Kobayashi, J. Normand, 
 K. Raghavachari, A. Rendell, J. C. Burant, S. S. Iyengar, J. Tomasi, 
 M. Cossi, N. Rega, J. M. Millam, M. Klene, J. E. Knox, J. B. Cross, 
 V. Bakken, C. Adamo, J. Jaramillo, R. Gomperts, R. E. Stratmann, 
 O. Yazyev, A. J. Austin, R. Cammi, C. Pomelli, J. W. Ochterski, 
 R. L. Martin, K. Morokuma, V. G. Zakrzewski, G. A. Voth, 
 P. Salvador, J. J. Dannenberg, S. Dapprich, A. D. Daniels, 
 O. Farkas, J. B. Foresman, J. V. Ortiz, J. Cioslowski, 
 and D. J. Fox, Gaussian, Inc., Wallingford CT, 2013.
 
 ******************************************
 Gaussian 09:  AM64L-G09RevD.01 24-Apr-2013
                 8-Aug-2020 
 ******************************************
 %nproc=1
 Will use up to    1 processors via shared memory.
 %Chk=SM36.n.7.pdb.xyz.mst.n.w.chk
 -----------------
 #p b3lyp/6-31G(d)
 -----------------
 1/38=1/1;
 2/12=2,17=6,18=5,40=1/2;
 3/5=1,6=6,7=1,11=2,16=1,25=1,30=1,74=-5/1,2,3;
 4//1;
 5/5=2,38=5/2;
 6/7=2,8=2,9=2,10=2,28=1/1;
 99/5=1,9=1/99;
 Leave Link    1 at Sat Aug  8 02:20:24 2020, MaxMem=           0 cpu:         0.0
 (Enter /prod/apps/gaussian/g09d1/l101.exe)
 ----------------
 SM36.n.7.pdb.xyz
 ----------------
 Symbolic Z-matrix:
 Charge =  0 Multiplicity = 1
 O                     3.375     1.108     0.82 
 S                     3.554    -0.288     0.383 
 N                     3.23     -0.271    -1.256 
 C                     2.723    -1.436    -2.001 
 C                     1.342    -2.007    -1.588 
 S                     1.91     -3.762    -1.87 
 O                     1.65     -4.161    -3.32 
 C                     3.487    -2.761    -1.765 
 C                     2.703    -1.053    -3.492 
 C                     4.068    -0.655    -4.073 
 C                     3.98     -0.314    -5.544 
 C                     3.755     1.005    -5.961 
 C                     3.644     1.321    -7.317 
 C                     3.759     0.317    -8.281 
 C                     3.985    -1.001    -7.879 
 C                     4.094    -1.311    -6.523 
 C                     5.288    -0.712     0.49 
 C                     6.22     -0.007    -0.275 
 C                     7.573    -0.302    -0.124 
 C                     7.981    -1.284     0.785 
 C                     7.038    -1.976     1.547 
 C                     5.679    -1.69      1.406 
 O                     2.803    -1.351     1.077 
 H                     2.755     0.602    -1.489 
 H                     0.481    -1.73     -2.197 
 H                     1.13     -1.892    -0.525 
 H                     4.236    -3.051    -2.502 
 H                     3.878    -2.877    -0.755 
 H                     1.99     -0.23     -3.627 
 H                     2.298    -1.913    -4.034 
 H                     4.776    -1.48     -3.93 
 H                     4.458     0.2      -3.514 
 H                     3.671     1.791    -5.216 
 H                     3.474     2.349    -7.619 
 H                     3.677     0.561    -9.336 
 H                     4.08     -1.787    -8.621 
 H                     4.274    -2.339    -6.218 
 H                     5.894     0.747    -0.981 
 H                     8.307     0.233    -0.717 
 H                     9.036    -1.51      0.896 
 H                     7.355    -2.737     2.251 
 H                     4.928    -2.215     1.984 
 
 NAtoms=     42 NQM=       42 NQMF=       0 NMMI=      0 NMMIF=      0
                NMic=       0 NMicF=      0.
                    Isotopes and Nuclear Properties:
 (Nuclear quadrupole moments (NQMom) in fm**2, nuclear magnetic moments (NMagM)
  in nuclear magnetons)

  Atom         1           2           3           4           5           6           7           8           9          10
 IAtWgt=          16          32          14          12          12          32          16          12          12          12
 AtmWgt=  15.9949146  31.9720718  14.0030740  12.0000000  12.0000000  31.9720718  15.9949146  12.0000000  12.0000000  12.0000000
 NucSpn=           0           0           2           0           0           0           0           0           0           0
 AtZEff=   0.0000000   0.0000000   0.0000000   0.0000000   0.0000000   0.0000000   0.0000000   0.0000000   0.0000000   0.0000000
 NQMom=    0.0000000   0.0000000   2.0440000   0.0000000   0.0000000   0.0000000   0.0000000   0.0000000   0.0000000   0.0000000
 NMagM=    0.0000000   0.0000000   0.4037610   0.0000000   0.0000000   0.0000000   0.0000000   0.0000000   0.0000000   0.0000000
 AtZNuc=   8.0000000  16.0000000   7.0000000   6.0000000   6.0000000  16.0000000   8.0000000   6.0000000   6.0000000   6.0000000

  Atom        11          12          13          14          15          16          17          18          19          20
 IAtWgt=          12          12          12          12          12          12          12          12          12          12
 AtmWgt=  12.0000000  12.0000000  12.0000000  12.0000000  12.0000000  12.0000000  12.0000000  12.0000000  12.0000000  12.0000000
 NucSpn=           0           0           0           0           0           0           0           0           0           0
 AtZEff=   0.0000000   0.0000000   0.0000000   0.0000000   0.0000000   0.0000000   0.0000000   0.0000000   0.0000000   0.0000000
 NQMom=    0.0000000   0.0000000   0.0000000   0.0000000   0.0000000   0.0000000   0.0000000   0.0000000   0.0000000   0.0000000
 NMagM=    0.0000000   0.0000000   0.0000000   0.0000000   0.0000000   0.0000000   0.0000000   0.0000000   0.0000000   0.0000000
 AtZNuc=   6.0000000   6.0000000   6.0000000   6.0000000   6.0000000   6.0000000   6.0000000   6.0000000   6.0000000   6.0000000

  Atom        21          22          23          24          25          26          27          28          29          30
 IAtWgt=          12          12          16           1           1           1           1           1           1           1
 AtmWgt=  12.0000000  12.0000000  15.9949146   1.0078250   1.0078250   1.0078250   1.0078250   1.0078250   1.0078250   1.0078250
 NucSpn=           0           0           0           1           1           1           1           1           1           1
 AtZEff=   0.0000000   0.0000000   0.0000000   0.0000000   0.0000000   0.0000000   0.0000000   0.0000000   0.0000000   0.0000000
 NQMom=    0.0000000   0.0000000   0.0000000   0.0000000   0.0000000   0.0000000   0.0000000   0.0000000   0.0000000   0.0000000
 NMagM=    0.0000000   0.0000000   0.0000000   2.7928460   2.7928460   2.7928460   2.7928460   2.7928460   2.7928460   2.7928460
 AtZNuc=   6.0000000   6.0000000   8.0000000   1.0000000   1.0000000   1.0000000   1.0000000   1.0000000   1.0000000   1.0000000

  Atom        31          32          33          34          35          36          37          38          39          40
 IAtWgt=           1           1           1           1           1           1           1           1           1           1
 AtmWgt=   1.0078250   1.0078250   1.0078250   1.0078250   1.0078250   1.0078250   1.0078250   1.0078250   1.0078250   1.0078250
 NucSpn=           1           1           1           1           1           1           1           1           1           1
 AtZEff=   0.0000000   0.0000000   0.0000000   0.0000000   0.0000000   0.0000000   0.0000000   0.0000000   0.0000000   0.0000000
 NQMom=    0.0000000   0.0000000   0.0000000   0.0000000   0.0000000   0.0000000   0.0000000   0.0000000   0.0000000   0.0000000
 NMagM=    2.7928460   2.7928460   2.7928460   2.7928460   2.7928460   2.7928460   2.7928460   2.7928460   2.7928460   2.7928460
 AtZNuc=   1.0000000   1.0000000   1.0000000   1.0000000   1.0000000   1.0000000   1.0000000   1.0000000   1.0000000   1.0000000

  Atom        41          42
 IAtWgt=           1           1
 AtmWgt=   1.0078250   1.0078250
 NucSpn=           1           1
 AtZEff=   0.0000000   0.0000000
 NQMom=    0.0000000   0.0000000
 NMagM=    2.7928460   2.7928460
 AtZNuc=   1.0000000   1.0000000
 Leave Link  101 at Sat Aug  8 02:20:24 2020, MaxMem=    33554432 cpu:         0.1
 (Enter /prod/apps/gaussian/g09d1/l202.exe)
                          Input orientation:                          
 ---------------------------------------------------------------------
 Center     Atomic      Atomic             Coordinates (Angstroms)
 Number     Number       Type             X           Y           Z
 ---------------------------------------------------------------------
      1          8           0        3.375000    1.108000    0.820000
      2         16           0        3.554000   -0.288000    0.383000
      3          7           0        3.230000   -0.271000   -1.256000
      4          6           0        2.723000   -1.436000   -2.001000
      5          6           0        1.342000   -2.007000   -1.588000
      6         16           0        1.910000   -3.762000   -1.870000
      7          8           0        1.650000   -4.161000   -3.320000
      8          6           0        3.487000   -2.761000   -1.765000
      9          6           0        2.703000   -1.053000   -3.492000
     10          6           0        4.068000   -0.655000   -4.073000
     11          6           0        3.980000   -0.314000   -5.544000
     12          6           0        3.755000    1.005000   -5.961000
     13          6           0        3.644000    1.321000   -7.317000
     14          6           0        3.759000    0.317000   -8.281000
     15          6           0        3.985000   -1.001000   -7.879000
     16          6           0        4.094000   -1.311000   -6.523000
     17          6           0        5.288000   -0.712000    0.490000
     18          6           0        6.220000   -0.007000   -0.275000
     19          6           0        7.573000   -0.302000   -0.124000
     20          6           0        7.981000   -1.284000    0.785000
     21          6           0        7.038000   -1.976000    1.547000
     22          6           0        5.679000   -1.690000    1.406000
     23          8           0        2.803000   -1.351000    1.077000
     24          1           0        2.755000    0.602000   -1.489000
     25          1           0        0.481000   -1.730000   -2.197000
     26          1           0        1.130000   -1.892000   -0.525000
     27          1           0        4.236000   -3.051000   -2.502000
     28          1           0        3.878000   -2.877000   -0.755000
     29          1           0        1.990000   -0.230000   -3.627000
     30          1           0        2.298000   -1.913000   -4.034000
     31          1           0        4.776000   -1.480000   -3.930000
     32          1           0        4.458000    0.200000   -3.514000
     33          1           0        3.671000    1.791000   -5.216000
     34          1           0        3.474000    2.349000   -7.619000
     35          1           0        3.677000    0.561000   -9.336000
     36          1           0        4.080000   -1.787000   -8.621000
     37          1           0        4.274000   -2.339000   -6.218000
     38          1           0        5.894000    0.747000   -0.981000
     39          1           0        8.307000    0.233000   -0.717000
     40          1           0        9.036000   -1.510000    0.896000
     41          1           0        7.355000   -2.737000    2.251000
     42          1           0        4.928000   -2.215000    1.984000
 ---------------------------------------------------------------------
                    Distance matrix (angstroms):
                    1          2          3          4          5
     1  O    0.000000
     2  S    1.473712   0.000000
     3  N    2.496486   1.670804   0.000000
     4  C    3.854229   2.773431   1.472854   0.000000
     5  C    4.431115   3.425310   2.586206   1.550410   0.000000
     6  S    5.753193   4.455044   3.782390   2.467470   1.866058
     7  O    6.919363   5.686612   4.678525   3.211964   2.781080
     8  C    4.654453   3.276297   2.554453   1.547584   2.280542
     9  C    4.869789   4.040427   2.426716   1.539536   2.527381
    10  C    5.246891   4.500536   2.963982   2.590786   3.928639
    11  C    6.548939   5.942346   4.353308   3.923236   5.047299
    12  C    6.792420   6.477545   4.903145   4.764987   5.832482
    13  C    8.144231   7.866828   6.280253   6.058807   7.014002
    14  C    9.143377   8.687517   7.069385   6.601871   7.485928
    15  C    8.971766   8.303901   6.705748   6.027666   6.897403
    16  C    7.764546   7.002211   5.437774   4.726918   5.693167
    17  C    2.660990   1.788290   2.734659   3.648079   4.643923
    18  C    3.245963   2.760341   3.157872   4.153327   5.433126
    19  C    4.527962   4.050877   4.488211   5.322742   6.623872
    20  C    5.190195   4.555431   5.269141   5.952433   7.087325
    21  C    4.843259   4.042585   5.026400   5.612408   6.501815
    22  C    3.671596   2.743676   3.885538   4.517754   5.279592
    23  O    2.537699   1.474994   2.606073   3.080212   3.109193
    24  H    2.443751   2.221460   1.020805   2.101574   2.968712
    25  H    5.052897   4.263695   3.251332   2.269673   1.090381
    26  H    3.981087   3.045169   2.751727   2.219045   1.090017
    27  H    5.392058   4.052471   3.208263   2.269007   3.209450
    28  H    4.314378   2.846567   2.731692   2.227784   2.807505
    29  H    4.846058   4.304598   2.675990   2.153045   2.781214
    30  H    5.817876   4.871145   3.358880   2.131019   2.627868
    31  H    5.587758   4.638547   3.316937   2.817408   4.189875
    32  H    4.558608   4.030133   2.613119   2.824162   4.276655
    33  H    6.081727   5.973670   4.486416   4.652790   5.745557
    34  H    8.530334   8.425685   6.885616   6.815581   7.739065
    35  H   10.175203   9.756787   8.135013   7.661615   8.489897
    36  H    9.900027   9.143068   7.567297   6.766761   7.550373
    37  H    7.888184   6.949691   5.476130   4.583023   5.490332
    38  H    3.117576   2.899538   2.865108   3.982603   5.354780
    39  H    5.239525   4.906368   5.130348   5.967853   7.368003
    40  H    6.237517   5.639927   6.314734   6.946370   8.100303
    41  H    5.715959   4.892303   5.949439   6.420867   7.171261
    42  H    3.848251   2.857342   4.142456   4.620508   5.065752
                    6          7          8          9         10
     6  S    0.000000
     7  O    1.526205   0.000000
     8  C    1.870817   2.784348   0.000000
     9  C    3.255521   3.286040   2.552342   0.000000
    10  C    4.377627   4.325017   3.177996   1.535965   0.000000
    11  C    5.447190   5.017418   4.528984   2.527361   1.512569
    12  C    6.547106   6.171990   5.644555   3.382016   2.533399
    13  C    7.649409   7.071377   6.892900   4.599128   3.822027
    14  C    7.820356   7.007987   7.211541   5.091813   4.329842
    15  C    6.930860   6.018497   6.381740   4.570776   3.822596
    16  C    5.694529   4.935063   5.010939   3.344907   2.536437
    17  C    5.126693   6.296566   3.539354   4.759709   4.723623
    18  C    5.934657   6.885684   4.156189   4.879805   4.413141
    19  C    6.862192   7.758107   5.043308   5.968612   5.291903
    20  C    7.074359   8.075253   5.374018   6.797306   6.269559
    21  C    6.415767   7.582378   4.918859   6.710862   6.492329
    22  C    5.406544   6.683843   4.000893   5.766520   5.803963
    23  O    3.910905   5.344073   3.245446   4.579800   5.348564
    24  H    4.461354   5.221088   3.452791   2.598795   3.159284
    25  H    2.505593   2.921892   3.207120   2.659443   4.188266
    26  H    2.431939   3.637415   2.801466   3.461407   4.769729
    27  H    2.513010   2.930635   1.090078   2.705955   2.870032
    28  H    2.428883   3.632061   1.089237   3.492674   3.997813
    29  H    3.945690   3.957602   3.480519   1.097234   2.167401
    30  H    2.872671   2.446059   2.698367   1.094253   2.171862
    31  H    4.202985   4.163140   2.826607   2.161366   1.096512
    32  H    4.989237   5.190455   3.573425   2.156506   1.093438
    33  H    6.718084   6.565483   5.715239   3.463746   2.728914
    34  H    8.534718   8.011771   7.770559   5.403719   4.685186
    35  H    8.806349   7.911907   8.269935   6.140522   5.415783
    36  H    7.361082   6.296140   6.950184   5.361112   4.686776
    37  H    5.149614   4.313173   4.541659   3.398958   2.734834
    38  H    6.082241   6.897168   4.326011   4.441577   3.854912
    39  H    7.629616   8.390381   5.770159   6.384296   5.479088
    40  H    7.968823   8.908168   6.279914   7.718179   7.078348
    41  H    6.905164   8.100052   5.575864   7.580172   7.425097
    42  H    5.133697   6.531816   4.053344   6.023906   6.313513
                   11         12         13         14         15
    11  C    0.000000
    12  C    1.401526   0.000000
    13  C    2.435087   1.396751   0.000000
    14  C    2.817476   2.419868   1.396616   0.000000
    15  C    2.433972   2.784899   2.413257   1.396354   0.000000
    16  C    1.401944   2.407202   2.785742   2.419333   1.395248
    17  C    6.186956   6.849349   8.233169   8.962540   8.474756
    18  C    5.733604   6.279408   7.615059   8.381977   7.987745
    19  C    6.502783   7.096192   8.355263   9.025874   8.573352
    20  C    7.550175   8.282941   9.551858  10.128220   9.545313
    21  C    7.899107   8.719777  10.047882  10.611281   9.955948
    22  C    7.285772   8.076973   9.449766  10.077322   9.463381
    23  O    6.804288   7.482679   8.849073   9.553446   9.040440
    24  H    4.333902   4.600130   5.939096   6.871718   6.701836
    25  H    5.044845   5.689200   6.747412   7.207673   6.715250
    26  H    5.983556   6.695770   7.923057   8.482149   7.938906
    27  H    4.100057   5.352306   6.530626   6.705803   5.760003
    28  H    5.432669   6.495190   7.793446   8.176581   7.367646
    29  H    2.764425   3.176162   4.330983   5.008821   4.759619
    30  H    2.768759   3.788258   4.800892   5.014422   4.296712
    31  H    2.144334   3.367882   4.538589   4.816088   4.055826
    32  H    2.147925   2.670214   4.047474   4.819396   4.551852
    33  H    2.152694   1.086221   2.153098   3.402153   3.871102
    34  H    3.413683   2.152733   1.084845   2.156036   3.398709
    35  H    3.903421   3.404974   2.157556   1.085949   2.158137
    36  H    3.412867   3.869947   3.398555   2.155332   1.085074
    37  H    2.154376   3.393780   3.873022   3.402283   2.152368
    38  H    5.060641   5.426075   6.748101   7.617948   7.367645
    39  H    6.505541   6.986861   8.153975   8.826407   8.455571
    40  H    8.274488   9.012915  10.224558  10.742532  10.137668
    41  H    8.833096   9.715941  11.035647  11.540414  10.816076
    42  H    7.821975   8.652592  10.032973  10.637096   9.982075
                   16         17         18         19         20
    16  C    0.000000
    17  C    7.139090   0.000000
    18  C    6.727391   1.396737   0.000000
    19  C    7.353144   2.401317   1.392995   0.000000
    20  C    8.277461   2.768837   2.419804   1.398953   0.000000
    21  C    8.615931   2.403632   2.804598   2.425024   1.395979
    22  C    8.094746   1.395859   2.439453   2.802620   2.418611
    23  O    7.708974   2.632131   3.912816   5.029483   5.186660
    24  H    5.549202   3.472625   3.721680   5.088572   6.003261
    25  H    5.651867   5.600316   6.292768   7.525488   8.083393
    26  H    6.715569   4.439774   5.433583   6.648395   7.001569
    27  H    4.383629   3.940773   4.261657   4.934314   5.286935
    28  H    5.980705   2.867987   3.735273   4.547726   4.663031
    29  H    3.739277   5.297057   5.401716   6.591364   7.514569
    30  H    3.127801   5.554195   5.757170   6.760847   7.477626
    31  H    2.686510   4.515348   4.196891   4.867908   5.704530
    32  H    3.386694   4.189589   3.693049   4.631126   5.752842
    33  H    3.392577   6.437246   5.843260   6.747942   8.002732
    34  H    3.870558   8.855292   8.186916   8.944531  10.204850
    35  H    3.404591  10.038233   9.428213  10.039150  11.151820
    36  H    2.151366   9.253389   8.797938   9.306196  10.195276
    37  H    1.087294   6.976574   6.674158   7.222853   7.993553
    38  H    6.179735   2.158647   1.083156   2.157288   3.405772
    39  H    7.337775   3.385888   2.146749   1.084726   2.159530
    40  H    8.916531   3.853459   3.400016   2.154074   1.084630
    41  H    9.468404   3.387364   3.888676   3.408427   2.156905
    42  H    8.595454   2.149569   3.412859   3.885776   3.409571
                   21         22         23         24         25
    21  C    0.000000
    22  C    1.395908   0.000000
    23  O    4.306594   2.914539   0.000000
    24  H    5.848715   4.709996   3.225038   0.000000
    25  H    7.554621   6.324746   4.031675   3.333251   0.000000
    26  H    6.261366   4.946005   2.378658   3.128891   1.800841
    27  H    5.039963   4.382583   4.213399   4.069882   3.992254
    28  H    4.012057   3.053275   2.615440   3.728716   3.864529
    29  H    7.436471   6.408698   4.903593   2.418366   2.563588
    30  H    7.322508   6.408938   5.166545   3.607090   2.590279
    31  H    5.946443   5.415940   5.383254   3.791787   4.638191
    32  H    6.083181   5.410115   5.120733   2.676273   4.612583
    33  H    8.441869   7.745987   7.087132   4.017873   5.629201
    34  H   10.743523  10.130458   9.474210   6.414505   7.415819
    35  H   11.669292  11.156414  10.623097   7.901087   8.150363
    36  H   10.591209  10.154159   9.791426   7.637301   7.363683
    37  H    8.250254   7.779499   7.507131   5.772372   5.561130
    38  H    3.887705   3.418035   4.265120   3.183145   6.075751
    39  H    3.408187   3.887344   6.001792   5.617548   8.203051
    40  H    2.152431   3.400287   6.237654   7.042708   9.099619
    41  H    1.084078   2.149235   4.901018   6.804155   8.249281
    42  H    2.167992   1.083379   2.466733   4.971835   6.123054
                   26         27         28         29         30
    26  H    0.000000
    27  H    3.859928   0.000000
    28  H    2.928247   1.791773   0.000000
    29  H    3.622740   3.777325   4.338149   0.000000
    30  H    3.698344   2.719910   3.765307   1.758693   0.000000
    31  H    5.005705   2.190622   3.583105   3.068567   2.517695
    32  H    4.938235   3.412100   4.173297   2.507727   3.066067
    33  H    6.482797   5.579425   6.460154   3.071665   4.123332
    34  H    8.590998   7.478257   8.636480   4.978912   5.692086
    35  H    9.494111   7.750005   9.246286   6.005359   6.011116
    36  H    8.617351   6.250135   7.943731   5.633151   4.922598
    37  H    6.518803   3.783787   5.503692   4.046952   2.975888
    38  H    5.465158   4.414432   4.153156   4.816333   5.415499
    39  H    7.487444   5.526656   5.411985   6.970435   7.191376
    40  H    8.041766   6.079563   5.585647   8.470068   8.358705
    41  H    6.868102   5.693660   4.598387   8.343810   8.108850
    42  H    4.563356   4.615404   3.007136   6.637423   6.574529
                   31         32         33         34         35
    31  H    0.000000
    32  H    1.759710   0.000000
    33  H    3.684327   2.459157   0.000000
    34  H    5.474045   4.736822   2.474789   0.000000
    35  H    5.882033   5.885233   4.299690   2.487216   0.000000
    36  H    4.752278   5.492950   4.956147   4.298574   2.487315
    37  H    2.494961   3.713757   4.292378   4.957837   4.299806
    38  H    3.860836   2.962667   4.895599   7.244712   8.646138
    39  H    5.072051   4.758056   6.645364   8.687517   9.789364
    40  H    6.437296   6.582574   8.777037  10.878095  11.734639
    41  H    6.814400   7.088992   9.477907  11.762077  12.596152
    42  H    5.961436   6.023382   8.334752  10.731348  11.722354
                   36         37         38         39         40
    36  H    0.000000
    37  H    2.473206   0.000000
    38  H    8.251142   6.290784   0.000000
    39  H    9.188098   7.289806   2.481222   0.000000
    40  H   10.733683   8.600749   4.299923   2.484202   0.000000
    41  H   11.394231   9.020805   4.971780   4.305372   2.483408
    42  H   10.647456   8.228967   4.300910   4.970488   4.307718
                   41         42
    41  H    0.000000
    42  H    2.496818   0.000000
 Stoichiometry    C17H19NO3S2
 Framework group  C1[X(C17H19NO3S2)]
 Deg. of freedom   120
 Full point group                 C1      NOp   1
 Largest Abelian subgroup         C1      NOp   1
 Largest concise Abelian subgroup C1      NOp   1
                         Standard orientation:                         
 ---------------------------------------------------------------------
 Center     Atomic      Atomic             Coordinates (Angstroms)
 Number     Number       Type             X           Y           Z
 ---------------------------------------------------------------------
      1          8           0       -2.630128   -0.518665    2.654510
      2         16           0       -2.363139    0.112116    1.349651
      3          7           0       -0.697533    0.156697    1.225734
      4          6           0        0.036574    1.158317    0.433810
      5          6           0       -0.116723    2.646984    0.838956
      6         16           0       -0.115026    3.200185   -0.943216
      7          8           0        1.317313    3.463827   -1.399506
      8          6           0       -0.471002    1.364893   -1.013501
      9          6           0        1.524097    0.762387    0.459935
     10          6           0        1.829448   -0.631836   -0.107597
     11          6           0        3.308561   -0.946278   -0.072708
     12          6           0        3.875634   -1.600686    1.029314
     13          6           0        5.245688   -1.867749    1.079714
     14          6           0        6.072689   -1.483707    0.021830
     15          6           0        5.520078   -0.832547   -1.082894
     16          6           0        4.150968   -0.567448   -1.127357
     17          6           0       -2.876922   -1.003273    0.049685
     18          6           0       -2.273048   -2.257675   -0.062954
     19          6           0       -2.736544   -3.140859   -1.035370
     20          6           0       -3.792764   -2.770833   -1.874744
     21          6           0       -4.390237   -1.515754   -1.746056
     22          6           0       -3.935948   -0.621221   -0.775494
     23          8           0       -2.967583    1.425858    1.059247
     24          1           0       -0.293820   -0.011599    2.148087
     25          1           0        0.684823    3.092512    1.428839
     26          1           0       -1.095286    2.879320    1.259160
     27          1           0        0.059815    0.849336   -1.813941
     28          1           0       -1.547637    1.247691   -1.129939
     29          1           0        1.879443    0.825281    1.496128
     30          1           0        2.064890    1.527225   -0.105710
     31          1           0        1.467225   -0.688574   -1.140996
     32          1           0        1.274919   -1.379667    0.465861
     33          1           0        3.236324   -1.907340    1.852189
     34          1           0        5.664124   -2.379195    1.940077
     35          1           0        7.137526   -1.693859    0.057089
     36          1           0        6.154101   -0.534275   -1.911407
     37          1           0        3.727461   -0.063589   -1.992792
     38          1           0       -1.451487   -2.532656    0.587162
     39          1           0       -2.271913   -4.115604   -1.138421
     40          1           0       -4.147271   -3.462716   -2.631080
     41          1           0       -5.208514   -1.229709   -2.397077
     42          1           0       -4.381470    0.359267   -0.657751
 ---------------------------------------------------------------------
 Rotational constants (GHZ):      0.2971015      0.1342864      0.1130144
 Leave Link  202 at Sat Aug  8 02:20:24 2020, MaxMem=    33554432 cpu:         0.0
 (Enter /prod/apps/gaussian/g09d1/l301.exe)
 Standard basis: 6-31G(d) (6D, 7F)
 Ernie: Thresh=  0.10000D-02 Tol=  0.10000D-05 Strict=F.
 There are   391 symmetry adapted cartesian basis functions of A   symmetry.
 There are   391 symmetry adapted basis functions of A   symmetry.
   391 basis functions,   768 primitive gaussians,   391 cartesian basis functions
    92 alpha electrons       92 beta electrons
       nuclear repulsion energy      2261.3845696944 Hartrees.
 IExCor=  402 DFT=T Ex+Corr=B3LYP ExCW=0 ScaHFX=  0.200000
 ScaDFX=  0.800000  0.720000  1.000000  0.810000 ScalE2=  1.000000  1.000000
 IRadAn=      0 IRanWt=     -1 IRanGd=            0 ICorTp=0 IEmpDi=  4
 NAtoms=   42 NActive=   42 NUniq=   42 SFac= 1.00D+00 NAtFMM=   60 NAOKFM=F Big=F
 Integral buffers will be    131072 words long.
 Raffenetti 2 integral format.
 Two-electron integral symmetry is turned on.
 Leave Link  301 at Sat Aug  8 02:20:24 2020, MaxMem=    33554432 cpu:         0.0
 (Enter /prod/apps/gaussian/g09d1/l302.exe)
 NPDir=0 NMtPBC=     1 NCelOv=     1 NCel=       1 NClECP=     1 NCelD=      1
         NCelK=      1 NCelE2=     1 NClLst=     1 CellRange=     0.0.
 One-electron integrals computed using PRISM.
 NBasis=   391 RedAO= T EigKep=  4.67D-04  NBF=   391
 NBsUse=   391 1.00D-06 EigRej= -1.00D+00 NBFU=   391
 Precomputing XC quadrature grid using
 IXCGrd= 4 IRadAn=           0 IRanWt=          -1 IRanGd=           0 AccXCQ= 0.00D+00.
 Generated NRdTot=       0 NPtTot=           0 NUsed=           0 NTot=          32
 NSgBfM=   385   385   385   385   385 MxSgAt=    42 MxSgA2=    42.
 Leave Link  302 at Sat Aug  8 02:20:25 2020, MaxMem=    33554432 cpu:         1.4
 (Enter /prod/apps/gaussian/g09d1/l303.exe)
 DipDrv:  MaxL=1.
 Leave Link  303 at Sat Aug  8 02:20:25 2020, MaxMem=    33554432 cpu:         0.0
 (Enter /prod/apps/gaussian/g09d1/l401.exe)
 ExpMin= 1.17D-01 ExpMax= 2.19D+04 ExpMxC= 3.30D+03 IAcc=1 IRadAn=         1 AccDes= 0.00D+00
 Harris functional with IExCor=  402 and IRadAn=       1 diagonalized for initial guess.
 HarFok:  IExCor=  402 AccDes= 0.00D+00 IRadAn=         1 IDoV= 1 UseB2=F ITyADJ=14
 ICtDFT=  3500011 ScaDFX=  1.000000  1.000000  1.000000  1.000000
 FoFCou: FMM=F IPFlag=           0 FMFlag=      100000 FMFlg1=           0
         NFxFlg=           0 DoJE=T BraDBF=F KetDBF=T FulRan=T
         wScrn=  0.000000 ICntrl=     500 IOpCl=  0 I1Cent=   200000004 NGrid=           0
         NMat0=    1 NMatS0=      1 NMatT0=    0 NMatD0=    1 NMtDS0=    0 NMtDT0=    0
 Petite list used in FoFCou.
 Harris En= -1735.99959632220    
 JPrj=0 DoOrth=F DoCkMO=F.
 Leave Link  401 at Sat Aug  8 02:20:31 2020, MaxMem=    33554432 cpu:         5.2
 (Enter /prod/apps/gaussian/g09d1/l502.exe)
 Closed shell SCF:
 Using DIIS extrapolation, IDIIS=  1040.
 Integral symmetry usage will be decided dynamically.
 IVT=      482492 IEndB=      482492 NGot=    33554432 MDV=    33241853
 LenX=    33241853 LenY=    33088531
 Requested convergence on RMS density matrix=1.00D-08 within 128 cycles.
 Requested convergence on MAX density matrix=1.00D-06.
 Requested convergence on             energy=1.00D-06.
 No special actions if energy rises.
 Fock matrices will be formed incrementally for  20 cycles.
 Integral accuracy reduced to 1.0D-05 until final iterations.

 Cycle   1  Pass 0  IDiag  1:
 FoFJK:  IHMeth= 1 ICntrl=       0 DoSepK=F KAlg= 0 I1Cent=   0 FoldK=F
 IRaf= 710000000 NMat=   1 IRICut=       1 DoRegI=T DoRafI=F ISym2E= 0.
 FoFCou: FMM=F IPFlag=           0 FMFlag=      100000 FMFlg1=           0
         NFxFlg=           0 DoJE=F BraDBF=F KetDBF=F FulRan=T
         wScrn=  0.000000 ICntrl=       0 IOpCl=  0 I1Cent=           0 NGrid=           0
         NMat0=    1 NMatS0=      1 NMatT0=    0 NMatD0=    1 NMtDS0=    0 NMtDT0=    0
 Symmetry not used in FoFCou.
 E= -1735.08674311287    
 DIIS: error= 2.80D-02 at cycle   1 NSaved=   1.
 NSaved= 1 IEnMin= 1 EnMin= -1735.08674311287     IErMin= 1 ErrMin= 2.80D-02
 ErrMax= 2.80D-02  0.00D+00 EMaxC= 1.00D-01 BMatC= 9.21D-01 BMatP= 9.21D-01
 IDIUse=3 WtCom= 7.20D-01 WtEn= 2.80D-01
 Coeff-Com:  0.100D+01
 Coeff-En:   0.100D+01
 Coeff:      0.100D+01
 Gap=     0.245 Goal=   None    Shift=    0.000
 GapD=    0.245 DampG=1.000 DampE=0.500 DampFc=0.5000 IDamp=-1.
 Damping current iteration by 5.00D-01
 RMSDP=7.27D-03 MaxDP=5.78D-01              OVMax= 3.67D-01

 Cycle   2  Pass 0  IDiag  1:
 RMSU=  3.64D-03    CP:  9.97D-01
 E= -1735.21006140792     Delta-E=       -0.123318295049 Rises=F Damp=T
 DIIS: error= 1.69D-02 at cycle   2 NSaved=   2.
 NSaved= 2 IEnMin= 2 EnMin= -1735.21006140792     IErMin= 2 ErrMin= 1.69D-02
 ErrMax= 1.69D-02  0.00D+00 EMaxC= 1.00D-01 BMatC= 2.04D-01 BMatP= 9.21D-01
 IDIUse=3 WtCom= 8.31D-01 WtEn= 1.69D-01
 Coeff-Com:  0.273D+00 0.727D+00
 Coeff-En:   0.430D+00 0.570D+00
 Coeff:      0.299D+00 0.701D+00
 Gap=     0.290 Goal=   None    Shift=    0.000
 RMSDP=2.76D-03 MaxDP=1.49D-01 DE=-1.23D-01 OVMax= 2.22D-01

 Cycle   3  Pass 0  IDiag  1:
 RMSU=  2.05D-03    CP:  9.83D-01  4.99D-01
 E= -1735.74740312253     Delta-E=       -0.537341714611 Rises=F Damp=F
 DIIS: error= 1.72D-02 at cycle   3 NSaved=   3.
 NSaved= 3 IEnMin= 3 EnMin= -1735.74740312253     IErMin= 2 ErrMin= 1.69D-02
 ErrMax= 1.72D-02  0.00D+00 EMaxC= 1.00D-01 BMatC= 1.77D-01 BMatP= 2.04D-01
 IDIUse=3 WtCom= 8.28D-01 WtEn= 1.72D-01
 Coeff-Com:  0.121D+00 0.470D+00 0.409D+00
 Coeff-En:   0.000D+00 0.000D+00 0.100D+01
 Coeff:      0.999D-01 0.389D+00 0.511D+00
 Gap=     0.196 Goal=   None    Shift=    0.000
 RMSDP=1.95D-03 MaxDP=9.23D-02 DE=-5.37D-01 OVMax= 1.95D-01

 Cycle   4  Pass 0  IDiag  1:
 RMSU=  9.89D-04    CP:  9.92D-01  6.93D-01  2.63D-01
 E= -1735.87012362228     Delta-E=       -0.122720499753 Rises=F Damp=F
 DIIS: error= 1.05D-02 at cycle   4 NSaved=   4.
 NSaved= 4 IEnMin= 4 EnMin= -1735.87012362228     IErMin= 4 ErrMin= 1.05D-02
 ErrMax= 1.05D-02  0.00D+00 EMaxC= 1.00D-01 BMatC= 5.08D-02 BMatP= 1.77D-01
 IDIUse=3 WtCom= 8.95D-01 WtEn= 1.05D-01
 Coeff-Com:  0.264D-01 0.101D+00 0.343D+00 0.530D+00
 Coeff-En:   0.000D+00 0.000D+00 0.261D+00 0.739D+00
 Coeff:      0.237D-01 0.903D-01 0.334D+00 0.552D+00
 Gap=     0.186 Goal=   None    Shift=    0.000
 RMSDP=8.40D-04 MaxDP=4.83D-02 DE=-1.23D-01 OVMax= 8.98D-02

 Cycle   5  Pass 0  IDiag  1:
 RMSU=  3.26D-04    CP:  9.90D-01  6.11D-01  5.38D-01  5.60D-01
 E= -1735.91265488660     Delta-E=       -0.042531264319 Rises=F Damp=F
 DIIS: error= 2.38D-03 at cycle   5 NSaved=   5.
 NSaved= 5 IEnMin= 5 EnMin= -1735.91265488660     IErMin= 5 ErrMin= 2.38D-03
 ErrMax= 2.38D-03  0.00D+00 EMaxC= 1.00D-01 BMatC= 3.80D-03 BMatP= 5.08D-02
 IDIUse=3 WtCom= 9.76D-01 WtEn= 2.38D-02
 Coeff-Com:  0.207D-02 0.805D-02 0.147D+00 0.338D+00 0.505D+00
 Coeff-En:   0.000D+00 0.000D+00 0.000D+00 0.287D-01 0.971D+00
 Coeff:      0.202D-02 0.786D-02 0.143D+00 0.330D+00 0.516D+00
 Gap=     0.180 Goal=   None    Shift=    0.000
 RMSDP=2.31D-04 MaxDP=1.10D-02 DE=-4.25D-02 OVMax= 1.98D-02

 Cycle   6  Pass 0  IDiag  1:
 RMSU=  1.25D-04    CP:  9.89D-01  6.26D-01  5.08D-01  6.37D-01  5.16D-01
 E= -1735.91551800090     Delta-E=       -0.002863114295 Rises=F Damp=F
 DIIS: error= 7.83D-04 at cycle   6 NSaved=   6.
 NSaved= 6 IEnMin= 6 EnMin= -1735.91551800090     IErMin= 6 ErrMin= 7.83D-04
 ErrMax= 7.83D-04  0.00D+00 EMaxC= 1.00D-01 BMatC= 5.49D-04 BMatP= 3.80D-03
 IDIUse=3 WtCom= 9.92D-01 WtEn= 7.83D-03
 Coeff-Com: -0.116D-02-0.465D-02 0.417D-01 0.122D+00 0.326D+00 0.516D+00
 Coeff-En:   0.000D+00 0.000D+00 0.000D+00 0.000D+00 0.110D+00 0.890D+00
 Coeff:     -0.115D-02-0.462D-02 0.413D-01 0.121D+00 0.324D+00 0.519D+00
 Gap=     0.180 Goal=   None    Shift=    0.000
 RMSDP=7.81D-05 MaxDP=3.98D-03 DE=-2.86D-03 OVMax= 4.30D-03

 Cycle   7  Pass 0  IDiag  1:
 RMSU=  4.23D-05    CP:  9.89D-01  6.24D-01  5.12D-01  6.44D-01  5.99D-01
                    CP:  5.31D-01
 E= -1735.91592064606     Delta-E=       -0.000402645162 Rises=F Damp=F
 DIIS: error= 3.58D-04 at cycle   7 NSaved=   7.
 NSaved= 7 IEnMin= 7 EnMin= -1735.91592064606     IErMin= 7 ErrMin= 3.58D-04
 ErrMax= 3.58D-04  0.00D+00 EMaxC= 1.00D-01 BMatC= 5.32D-05 BMatP= 5.49D-04
 IDIUse=3 WtCom= 9.96D-01 WtEn= 3.58D-03
 Coeff-Com: -0.590D-03-0.340D-02 0.700D-02 0.288D-01 0.131D+00 0.306D+00
 Coeff-Com:  0.532D+00
 Coeff-En:   0.000D+00 0.000D+00 0.000D+00 0.000D+00 0.000D+00 0.547D-01
 Coeff-En:   0.945D+00
 Coeff:     -0.588D-03-0.339D-02 0.697D-02 0.287D-01 0.130D+00 0.305D+00
 Coeff:      0.533D+00
 Gap=     0.180 Goal=   None    Shift=    0.000
 RMSDP=2.51D-05 MaxDP=1.01D-03 DE=-4.03D-04 OVMax= 2.20D-03

 Cycle   8  Pass 0  IDiag  1:
 RMSU=  1.20D-05    CP:  9.89D-01  6.24D-01  5.12D-01  6.39D-01  6.07D-01
                    CP:  6.08D-01  5.53D-01
 E= -1735.91597071548     Delta-E=       -0.000050069418 Rises=F Damp=F
 DIIS: error= 1.24D-04 at cycle   8 NSaved=   8.
 NSaved= 8 IEnMin= 8 EnMin= -1735.91597071548     IErMin= 8 ErrMin= 1.24D-04
 ErrMax= 1.24D-04  0.00D+00 EMaxC= 1.00D-01 BMatC= 2.97D-06 BMatP= 5.32D-05
 IDIUse=3 WtCom= 9.99D-01 WtEn= 1.24D-03
 Coeff-Com: -0.979D-04-0.116D-02-0.176D-03 0.313D-02 0.370D-01 0.105D+00
 Coeff-Com:  0.265D+00 0.591D+00
 Coeff-En:   0.000D+00 0.000D+00 0.000D+00 0.000D+00 0.000D+00 0.000D+00
 Coeff-En:   0.000D+00 0.100D+01
 Coeff:     -0.978D-04-0.116D-02-0.176D-03 0.313D-02 0.370D-01 0.105D+00
 Coeff:      0.265D+00 0.592D+00
 Gap=     0.180 Goal=   None    Shift=    0.000
 RMSDP=6.84D-06 MaxDP=2.34D-04 DE=-5.01D-05 OVMax= 7.99D-04

 Initial convergence to 1.0D-05 achieved.  Increase integral accuracy.
 Cycle   9  Pass 1  IDiag  1:
 E= -1735.91599334706     Delta-E=       -0.000022631580 Rises=F Damp=F
 DIIS: error= 5.84D-05 at cycle   1 NSaved=   1.
 NSaved= 1 IEnMin= 1 EnMin= -1735.91599334706     IErMin= 1 ErrMin= 5.84D-05
 ErrMax= 5.84D-05  0.00D+00 EMaxC= 1.00D-01 BMatC= 1.43D-06 BMatP= 1.43D-06
 IDIUse=1 WtCom= 1.00D+00 WtEn= 0.00D+00
 Coeff-Com:  0.100D+01
 Coeff:      0.100D+01
 Gap=     0.180 Goal=   None    Shift=    0.000
 RMSDP=6.84D-06 MaxDP=2.34D-04 DE=-2.26D-05 OVMax= 7.71D-04

 Cycle  10  Pass 1  IDiag  1:
 RMSU=  3.23D-05    CP:  1.00D+00
 E= -1735.91599276916     Delta-E=        0.000000577897 Rises=F Damp=F
 DIIS: error= 1.16D-04 at cycle   2 NSaved=   2.
 NSaved= 2 IEnMin= 1 EnMin= -1735.91599334706     IErMin= 1 ErrMin= 5.84D-05
 ErrMax= 1.16D-04  0.00D+00 EMaxC= 1.00D-01 BMatC= 2.00D-06 BMatP= 1.43D-06
 IDIUse=3 WtCom= 4.81D-01 WtEn= 5.19D-01
 Coeff-Com:  0.553D+00 0.447D+00
 Coeff-En:   0.594D+00 0.406D+00
 Coeff:      0.574D+00 0.426D+00
 Gap=     0.180 Goal=   None    Shift=    0.000
 RMSDP=5.08D-06 MaxDP=2.04D-04 DE= 5.78D-07 OVMax= 6.35D-04

 Cycle  11  Pass 1  IDiag  1:
 RMSU=  5.04D-06    CP:  1.00D+00  9.79D-01
 E= -1735.91599462263     Delta-E=       -0.000001853475 Rises=F Damp=F
 DIIS: error= 3.44D-05 at cycle   3 NSaved=   3.
 NSaved= 3 IEnMin= 3 EnMin= -1735.91599462263     IErMin= 3 ErrMin= 3.44D-05
 ErrMax= 3.44D-05  0.00D+00 EMaxC= 1.00D-01 BMatC= 2.28D-07 BMatP= 1.43D-06
 IDIUse=1 WtCom= 1.00D+00 WtEn= 0.00D+00
 Coeff-Com:  0.411D-01 0.249D+00 0.710D+00
 Coeff:      0.411D-01 0.249D+00 0.710D+00
 Gap=     0.180 Goal=   None    Shift=    0.000
 RMSDP=1.59D-06 MaxDP=8.43D-05 DE=-1.85D-06 OVMax= 1.25D-04

 Cycle  12  Pass 1  IDiag  1:
 RMSU=  1.01D-06    CP:  1.00D+00  9.91D-01  7.69D-01
 E= -1735.91599480440     Delta-E=       -0.000000181771 Rises=F Damp=F
 DIIS: error= 8.62D-06 at cycle   4 NSaved=   4.
 NSaved= 4 IEnMin= 4 EnMin= -1735.91599480440     IErMin= 4 ErrMin= 8.62D-06
 ErrMax= 8.62D-06  0.00D+00 EMaxC= 1.00D-01 BMatC= 4.61D-08 BMatP= 2.28D-07
 IDIUse=1 WtCom= 1.00D+00 WtEn= 0.00D+00
 Coeff-Com: -0.339D-02 0.139D+00 0.459D+00 0.405D+00
 Coeff:     -0.339D-02 0.139D+00 0.459D+00 0.405D+00
 Gap=     0.180 Goal=   None    Shift=    0.000
 RMSDP=6.15D-07 MaxDP=4.14D-05 DE=-1.82D-07 OVMax= 4.31D-05

 Cycle  13  Pass 1  IDiag  1:
 RMSU=  2.45D-07    CP:  1.00D+00  9.92D-01  7.76D-01  4.44D-01
 E= -1735.91599484182     Delta-E=       -0.000000037411 Rises=F Damp=F
 DIIS: error= 1.47D-06 at cycle   5 NSaved=   5.
 NSaved= 5 IEnMin= 5 EnMin= -1735.91599484182     IErMin= 5 ErrMin= 1.47D-06
 ErrMax= 1.47D-06  0.00D+00 EMaxC= 1.00D-01 BMatC= 1.49D-09 BMatP= 4.61D-08
 IDIUse=1 WtCom= 1.00D+00 WtEn= 0.00D+00
 Coeff-Com: -0.406D-02 0.678D-01 0.231D+00 0.235D+00 0.470D+00
 Coeff:     -0.406D-02 0.678D-01 0.231D+00 0.235D+00 0.470D+00
 Gap=     0.180 Goal=   None    Shift=    0.000
 RMSDP=1.15D-07 MaxDP=9.64D-06 DE=-3.74D-08 OVMax= 7.32D-06

 Cycle  14  Pass 1  IDiag  1:
 RMSU=  6.96D-08    CP:  1.00D+00  9.92D-01  7.76D-01  4.57D-01  6.35D-01
 E= -1735.91599484314     Delta-E=       -0.000000001327 Rises=F Damp=F
 DIIS: error= 2.00D-07 at cycle   6 NSaved=   6.
 NSaved= 6 IEnMin= 6 EnMin= -1735.91599484314     IErMin= 6 ErrMin= 2.00D-07
 ErrMax= 2.00D-07  0.00D+00 EMaxC= 1.00D-01 BMatC= 4.93D-11 BMatP= 1.49D-09
 IDIUse=1 WtCom= 1.00D+00 WtEn= 0.00D+00
 Coeff-Com: -0.161D-02 0.214D-01 0.738D-01 0.794D-01 0.217D+00 0.610D+00
 Coeff:     -0.161D-02 0.214D-01 0.738D-01 0.794D-01 0.217D+00 0.610D+00
 Gap=     0.180 Goal=   None    Shift=    0.000
 RMSDP=2.62D-08 MaxDP=1.18D-06 DE=-1.33D-09 OVMax= 1.87D-06

 Cycle  15  Pass 1  IDiag  1:
 RMSU=  2.31D-08    CP:  1.00D+00  9.92D-01  7.76D-01  4.57D-01  6.59D-01
                    CP:  8.46D-01
 E= -1735.91599484315     Delta-E=       -0.000000000004 Rises=F Damp=F
 DIIS: error= 9.47D-08 at cycle   7 NSaved=   7.
 NSaved= 7 IEnMin= 7 EnMin= -1735.91599484315     IErMin= 7 ErrMin= 9.47D-08
 ErrMax= 9.47D-08  0.00D+00 EMaxC= 1.00D-01 BMatC= 8.21D-12 BMatP= 4.93D-11
 IDIUse=1 WtCom= 1.00D+00 WtEn= 0.00D+00
 Coeff-Com: -0.359D-03 0.307D-02 0.108D-01 0.130D-01 0.570D-01 0.327D+00
 Coeff-Com:  0.589D+00
 Coeff:     -0.359D-03 0.307D-02 0.108D-01 0.130D-01 0.570D-01 0.327D+00
 Coeff:      0.589D+00
 Gap=     0.180 Goal=   None    Shift=    0.000
 RMSDP=1.13D-08 MaxDP=6.12D-07 DE=-4.09D-12 OVMax= 9.00D-07

 Cycle  16  Pass 1  IDiag  1:
 RMSU=  6.87D-09    CP:  1.00D+00  9.92D-01  7.76D-01  4.59D-01  6.72D-01
                    CP:  8.86D-01  6.71D-01
 E= -1735.91599484309     Delta-E=        0.000000000053 Rises=F Damp=F
 DIIS: error= 3.87D-08 at cycle   8 NSaved=   8.
 NSaved= 8 IEnMin= 7 EnMin= -1735.91599484315     IErMin= 8 ErrMin= 3.87D-08
 ErrMax= 3.87D-08  0.00D+00 EMaxC= 1.00D-01 BMatC= 1.50D-12 BMatP= 8.21D-12
 IDIUse=1 WtCom= 1.00D+00 WtEn= 0.00D+00
 Coeff-Com: -0.330D-04-0.589D-03-0.185D-02-0.122D-02 0.973D-02 0.129D+00
 Coeff-Com:  0.355D+00 0.510D+00
 Coeff:     -0.330D-04-0.589D-03-0.185D-02-0.122D-02 0.973D-02 0.129D+00
 Coeff:      0.355D+00 0.510D+00
 Gap=     0.180 Goal=   None    Shift=    0.000
 RMSDP=4.71D-09 MaxDP=2.13D-07 DE= 5.28D-11 OVMax= 3.80D-07

 SCF Done:  E(RB3LYP) =  -1735.91599484     A.U. after   16 cycles
            NFock= 16  Conv=0.47D-08     -V/T= 2.0068
 KE= 1.724223158434D+03 PE=-8.596884967192D+03 EE= 2.875361244221D+03
 Leave Link  502 at Sat Aug  8 02:28:27 2020, MaxMem=    33554432 cpu:       476.1
 (Enter /prod/apps/gaussian/g09d1/l601.exe)
 Copying SCF densities to generalized density rwf, IOpCl= 0 IROHF=0.

 **********************************************************************

            Population analysis using the SCF density.

 **********************************************************************

 Orbital symmetries:
       Occupied  (A) (A) (A) (A) (A) (A) (A) (A) (A) (A) (A) (A)
                 (A) (A) (A) (A) (A) (A) (A) (A) (A) (A) (A) (A)
                 (A) (A) (A) (A) (A) (A) (A) (A) (A) (A) (A) (A)
                 (A) (A) (A) (A) (A) (A) (A) (A) (A) (A) (A) (A)
                 (A) (A) (A) (A) (A) (A) (A) (A) (A) (A) (A) (A)
                 (A) (A) (A) (A) (A) (A) (A) (A) (A) (A) (A) (A)
                 (A) (A) (A) (A) (A) (A) (A) (A) (A) (A) (A) (A)
                 (A) (A) (A) (A) (A) (A) (A) (A)
       Virtual   (A) (A) (A) (A) (A) (A) (A) (A) (A) (A) (A) (A)
                 (A) (A) (A) (A) (A) (A) (A) (A) (A) (A) (A) (A)
                 (A) (A) (A) (A) (A) (A) (A) (A) (A) (A) (A) (A)
                 (A) (A) (A) (A) (A) (A) (A) (A) (A) (A) (A) (A)
                 (A) (A) (A) (A) (A) (A) (A) (A) (A) (A) (A) (A)
                 (A) (A) (A) (A) (A) (A) (A) (A) (A) (A) (A) (A)
                 (A) (A) (A) (A) (A) (A) (A) (A) (A) (A) (A) (A)
                 (A) (A) (A) (A) (A) (A) (A) (A) (A) (A) (A) (A)
                 (A) (A) (A) (A) (A) (A) (A) (A) (A) (A) (A) (A)
                 (A) (A) (A) (A) (A) (A) (A) (A) (A) (A) (A) (A)
                 (A) (A) (A) (A) (A) (A) (A) (A) (A) (A) (A) (A)
                 (A) (A) (A) (A) (A) (A) (A) (A) (A) (A) (A) (A)
                 (A) (A) (A) (A) (A) (A) (A) (A) (A) (A) (A) (A)
                 (A) (A) (A) (A) (A) (A) (A) (A) (A) (A) (A) (A)
                 (A) (A) (A) (A) (A) (A) (A) (A) (A) (A) (A) (A)
                 (A) (A) (A) (A) (A) (A) (A) (A) (A) (A) (A) (A)
                 (A) (A) (A) (A) (A) (A) (A) (A) (A) (A) (A) (A)
                 (A) (A) (A) (A) (A) (A) (A) (A) (A) (A) (A) (A)
                 (A) (A) (A) (A) (A) (A) (A) (A) (A) (A) (A) (A)
                 (A) (A) (A) (A) (A) (A) (A) (A) (A) (A) (A) (A)
                 (A) (A) (A) (A) (A) (A) (A) (A) (A) (A) (A) (A)
                 (A) (A) (A) (A) (A) (A) (A) (A) (A) (A) (A) (A)
                 (A) (A) (A) (A) (A) (A) (A) (A) (A) (A) (A) (A)
                 (A) (A) (A) (A) (A) (A) (A) (A) (A) (A) (A) (A)
                 (A) (A) (A) (A) (A) (A) (A) (A) (A) (A) (A)
 The electronic state is 1-A.
 Alpha  occ. eigenvalues --  -89.12441 -88.98537 -19.15307 -19.14800 -19.11164
 Alpha  occ. eigenvalues --  -14.38209 -10.26932 -10.24055 -10.22501 -10.22307
 Alpha  occ. eigenvalues --  -10.22268 -10.22036 -10.21899 -10.21835 -10.21512
 Alpha  occ. eigenvalues --  -10.20089 -10.19823 -10.19720 -10.19103 -10.19009
 Alpha  occ. eigenvalues --  -10.18992 -10.18911 -10.18835  -8.14930  -8.03330
 Alpha  occ. eigenvalues --   -6.11449  -6.11344  -6.11225  -5.99732  -5.99569
 Alpha  occ. eigenvalues --   -5.99108  -1.11788  -1.00512  -1.00049  -0.94836
 Alpha  occ. eigenvalues --   -0.88628  -0.85765  -0.84848  -0.79524  -0.78920
 Alpha  occ. eigenvalues --   -0.77564  -0.74358  -0.74125  -0.70807  -0.69317
 Alpha  occ. eigenvalues --   -0.66883  -0.63574  -0.62697  -0.61238  -0.60557
 Alpha  occ. eigenvalues --   -0.58129  -0.57404  -0.55672  -0.52687  -0.52260
 Alpha  occ. eigenvalues --   -0.51333  -0.49535  -0.48778  -0.48052  -0.47081
 Alpha  occ. eigenvalues --   -0.46683  -0.45964  -0.45197  -0.45055  -0.44445
 Alpha  occ. eigenvalues --   -0.43718  -0.42636  -0.42084  -0.41539  -0.40350
 Alpha  occ. eigenvalues --   -0.39654  -0.39435  -0.39204  -0.38578  -0.37645
 Alpha  occ. eigenvalues --   -0.37380  -0.35932  -0.35801  -0.35055  -0.34347
 Alpha  occ. eigenvalues --   -0.33779  -0.33335  -0.32654  -0.31772  -0.30806
 Alpha  occ. eigenvalues --   -0.29529  -0.27959  -0.27138  -0.25894  -0.24988
 Alpha  occ. eigenvalues --   -0.24327  -0.22788
 Alpha virt. eigenvalues --   -0.04800  -0.02946  -0.00167  -0.00145   0.00655
 Alpha virt. eigenvalues --    0.03161   0.04243   0.05891   0.06477   0.07447
 Alpha virt. eigenvalues --    0.08627   0.09347   0.09427   0.10232   0.10925
 Alpha virt. eigenvalues --    0.11201   0.12147   0.13291   0.13912   0.14233
 Alpha virt. eigenvalues --    0.14653   0.14967   0.15309   0.16125   0.16256
 Alpha virt. eigenvalues --    0.16755   0.17849   0.18224   0.18467   0.19461
 Alpha virt. eigenvalues --    0.20129   0.20307   0.21068   0.22697   0.24409
 Alpha virt. eigenvalues --    0.26037   0.26187   0.26797   0.27372   0.27950
 Alpha virt. eigenvalues --    0.29627   0.30547   0.30760   0.31880   0.33182
 Alpha virt. eigenvalues --    0.33644   0.34231   0.35123   0.36079   0.37022
 Alpha virt. eigenvalues --    0.39152   0.42265   0.43112   0.44244   0.45750
 Alpha virt. eigenvalues --    0.48348   0.48938   0.49531   0.50903   0.51554
 Alpha virt. eigenvalues --    0.52300   0.52925   0.53775   0.53997   0.54853
 Alpha virt. eigenvalues --    0.55153   0.55337   0.55626   0.56667   0.56985
 Alpha virt. eigenvalues --    0.58042   0.58343   0.58544   0.59086   0.59538
 Alpha virt. eigenvalues --    0.59863   0.60247   0.60508   0.60891   0.61670
 Alpha virt. eigenvalues --    0.61728   0.61808   0.62663   0.62794   0.64343
 Alpha virt. eigenvalues --    0.65448   0.66271   0.67492   0.68058   0.68944
 Alpha virt. eigenvalues --    0.70009   0.70547   0.73191   0.74157   0.76024
 Alpha virt. eigenvalues --    0.77604   0.77899   0.79211   0.80343   0.81076
 Alpha virt. eigenvalues --    0.82008   0.82474   0.82658   0.82973   0.83475
 Alpha virt. eigenvalues --    0.83785   0.84093   0.84931   0.85197   0.85843
 Alpha virt. eigenvalues --    0.85951   0.86625   0.87438   0.87531   0.89160
 Alpha virt. eigenvalues --    0.89398   0.89426   0.90658   0.91227   0.92286
 Alpha virt. eigenvalues --    0.92648   0.93372   0.93899   0.94585   0.94694
 Alpha virt. eigenvalues --    0.96252   0.97319   0.98097   0.99642   1.00366
 Alpha virt. eigenvalues --    1.00782   1.01274   1.02802   1.03194   1.04810
 Alpha virt. eigenvalues --    1.05537   1.06817   1.08363   1.08501   1.10374
 Alpha virt. eigenvalues --    1.11434   1.11980   1.12786   1.13406   1.14143
 Alpha virt. eigenvalues --    1.15610   1.16474   1.17538   1.18343   1.19154
 Alpha virt. eigenvalues --    1.20579   1.21197   1.23352   1.24557   1.25760
 Alpha virt. eigenvalues --    1.26333   1.28379   1.30771   1.33812   1.35406
 Alpha virt. eigenvalues --    1.36295   1.40343   1.40986   1.41638   1.42321
 Alpha virt. eigenvalues --    1.42955   1.43086   1.44706   1.46169   1.46423
 Alpha virt. eigenvalues --    1.47926   1.48349   1.49118   1.49815   1.50554
 Alpha virt. eigenvalues --    1.51429   1.52700   1.56730   1.60786   1.62409
 Alpha virt. eigenvalues --    1.68392   1.71239   1.72007   1.72765   1.74659
 Alpha virt. eigenvalues --    1.76059   1.76980   1.78367   1.79499   1.80377
 Alpha virt. eigenvalues --    1.81505   1.81828   1.82413   1.83251   1.84358
 Alpha virt. eigenvalues --    1.85548   1.85805   1.86878   1.88010   1.88860
 Alpha virt. eigenvalues --    1.90036   1.91074   1.92287   1.92871   1.93504
 Alpha virt. eigenvalues --    1.94593   1.95293   1.96049   1.97433   1.97768
 Alpha virt. eigenvalues --    1.98560   2.01542   2.02157   2.03235   2.04924
 Alpha virt. eigenvalues --    2.05740   2.07618   2.07926   2.08681   2.09573
 Alpha virt. eigenvalues --    2.11145   2.11565   2.12509   2.12609   2.13400
 Alpha virt. eigenvalues --    2.14040   2.14217   2.14955   2.15456   2.17967
 Alpha virt. eigenvalues --    2.18899   2.21515   2.23542   2.24156   2.26401
 Alpha virt. eigenvalues --    2.26626   2.27729   2.28287   2.29273   2.30285
 Alpha virt. eigenvalues --    2.30852   2.31623   2.34920   2.37894   2.40975
 Alpha virt. eigenvalues --    2.41265   2.45060   2.50577   2.51510   2.55524
 Alpha virt. eigenvalues --    2.56337   2.57857   2.59584   2.62105   2.64303
 Alpha virt. eigenvalues --    2.66160   2.68712   2.69254   2.70469   2.71827
 Alpha virt. eigenvalues --    2.72165   2.73203   2.73390   2.74366   2.74584
 Alpha virt. eigenvalues --    2.75167   2.76763   2.76964   2.79649   2.84028
 Alpha virt. eigenvalues --    2.85759   2.94445   3.01187   3.04888   3.35721
 Alpha virt. eigenvalues --    3.40867   3.75230   3.84256   3.93390   3.99709
 Alpha virt. eigenvalues --    4.00809   4.06360   4.08275   4.09003   4.09984
 Alpha virt. eigenvalues --    4.11542   4.14112   4.15188   4.21567   4.24777
 Alpha virt. eigenvalues --    4.31438   4.32800   4.33446   4.35374   4.40938
 Alpha virt. eigenvalues --    4.52022   4.63950   4.70057   4.71773
          Condensed to atoms (all electrons):
               1          2          3          4          5          6
     1  O    8.216620   0.468118  -0.056689   0.001753   0.000005  -0.000002
     2  S    0.468118  13.743524   0.094419   0.002273  -0.006027   0.000700
     3  N   -0.056689   0.094419   7.441811   0.209672  -0.053481   0.003449
     4  C    0.001753   0.002273   0.209672   4.862326   0.338994  -0.058773
     5  C    0.000005  -0.006027  -0.053481   0.338994   5.706170   0.050664
     6  S   -0.000002   0.000700   0.003449  -0.058773   0.050664  14.930614
     7  O    0.000000   0.000011  -0.000050  -0.000471  -0.039594   0.301517
     8  C   -0.000064  -0.004308  -0.038102   0.320797  -0.121650   0.051520
     9  C   -0.000093   0.000371  -0.056222   0.339877  -0.056770   0.005911
    10  C    0.000000  -0.000203  -0.006509  -0.032782   0.004661  -0.000508
    11  C    0.000000  -0.000006   0.000269   0.003260  -0.000085   0.000016
    12  C    0.000000   0.000000  -0.000007   0.000096  -0.000004   0.000001
    13  C    0.000000   0.000000   0.000000   0.000002   0.000000   0.000000
    14  C    0.000000   0.000000   0.000000   0.000000   0.000000   0.000000
    15  C    0.000000   0.000000   0.000000   0.000003   0.000000   0.000000
    16  C    0.000000   0.000000  -0.000004   0.000106  -0.000007  -0.000007
    17  C   -0.061736   0.171538  -0.049895  -0.004799  -0.000263   0.000046
    18  C   -0.000109  -0.021676   0.000333   0.000031   0.000006   0.000010
    19  C    0.000072   0.002123   0.000161  -0.000006   0.000000   0.000000
    20  C   -0.000005  -0.000477   0.000007   0.000001   0.000000   0.000000
    21  C   -0.000054   0.003289  -0.000103   0.000005   0.000000  -0.000003
    22  C   -0.001593  -0.036333   0.001460   0.000090   0.000013  -0.000015
    23  O   -0.044577   0.377541  -0.052251   0.006891  -0.007691   0.000488
    24  H    0.005297  -0.012116   0.291675  -0.024052  -0.000379  -0.000184
    25  H    0.000001   0.000294   0.001444  -0.030807   0.350960  -0.018073
    26  H   -0.000198   0.001281  -0.004376  -0.023804   0.321120  -0.004077
    27  H    0.000001   0.000159   0.001351  -0.028298   0.010305  -0.017908
    28  H    0.000028   0.010414  -0.006488  -0.025382   0.002610  -0.005060
    29  H   -0.000004  -0.000194  -0.007045  -0.032285  -0.005921  -0.000227
    30  H    0.000000   0.000063   0.003057  -0.030156  -0.005319   0.006079
    31  H    0.000000  -0.000067  -0.000048  -0.004801   0.000066  -0.000029
    32  H   -0.000004   0.000135   0.009318  -0.008276   0.000163  -0.000036
    33  H    0.000000   0.000000  -0.000005  -0.000059   0.000001   0.000000
    34  H    0.000000   0.000000   0.000000   0.000000   0.000000   0.000000
    35  H    0.000000   0.000000   0.000000   0.000000   0.000000   0.000000
    36  H    0.000000   0.000000   0.000000   0.000000   0.000000   0.000000
    37  H    0.000000   0.000000   0.000000  -0.000073   0.000002   0.000004
    38  H    0.000505  -0.002751   0.005825   0.000104   0.000007   0.000000
    39  H    0.000001  -0.000061   0.000001   0.000000   0.000000   0.000000
    40  H    0.000000   0.000007   0.000000   0.000000   0.000000   0.000000
    41  H    0.000000  -0.000072   0.000000   0.000000   0.000000   0.000000
    42  H   -0.000026  -0.008020   0.000251  -0.000010   0.000001   0.000012
               7          8          9         10         11         12
     1  O    0.000000  -0.000064  -0.000093   0.000000   0.000000   0.000000
     2  S    0.000011  -0.004308   0.000371  -0.000203  -0.000006   0.000000
     3  N   -0.000050  -0.038102  -0.056222  -0.006509   0.000269  -0.000007
     4  C   -0.000471   0.320797   0.339877  -0.032782   0.003260   0.000096
     5  C   -0.039594  -0.121650  -0.056770   0.004661  -0.000085  -0.000004
     6  S    0.301517   0.051520   0.005911  -0.000508   0.000016   0.000001
     7  O    8.378831  -0.039684  -0.007723   0.000061   0.000012   0.000000
     8  C   -0.039684   5.698997  -0.049992  -0.008413   0.000146  -0.000004
     9  C   -0.007723  -0.049992   5.221041   0.344169  -0.041293  -0.003821
    10  C    0.000061  -0.008413   0.344169   5.176591   0.348944  -0.056542
    11  C    0.000012   0.000146  -0.041293   0.348944   4.641087   0.548482
    12  C    0.000000  -0.000004  -0.003821  -0.056542   0.548482   4.964089
    13  C    0.000000   0.000000  -0.000061   0.006767  -0.019314   0.523315
    14  C    0.000000   0.000000   0.000014   0.000398  -0.034441  -0.035878
    15  C    0.000000   0.000000  -0.000014   0.006492  -0.019031  -0.046810
    16  C   -0.000029   0.000001  -0.003470  -0.057739   0.546249  -0.038169
    17  C    0.000000   0.002136  -0.000285  -0.000008   0.000000   0.000000
    18  C    0.000000   0.000300  -0.000046  -0.000068   0.000007   0.000000
    19  C    0.000000   0.000036   0.000000  -0.000008   0.000000   0.000000
    20  C    0.000000   0.000004   0.000000   0.000000   0.000000   0.000000
    21  C    0.000000  -0.000095   0.000000   0.000000   0.000000   0.000000
    22  C    0.000000  -0.001284  -0.000002   0.000001   0.000000   0.000000
    23  O    0.000000  -0.006396   0.000112  -0.000001   0.000000   0.000000
    24  H    0.000003   0.005118  -0.005263  -0.000087  -0.000081   0.000000
    25  H    0.000003   0.010391  -0.005214   0.000118  -0.000010   0.000000
    26  H    0.001189   0.003426   0.003930  -0.000111   0.000001   0.000000
    27  H    0.000333   0.349996  -0.007600   0.001864  -0.000060   0.000001
    28  H    0.001217   0.317524   0.004521   0.000030   0.000001   0.000000
    29  H    0.000253   0.006073   0.351863  -0.040265  -0.001141   0.003465
    30  H    0.025008  -0.008430   0.351869  -0.030409  -0.000977  -0.000074
    31  H    0.000049   0.003057  -0.042383   0.358519  -0.027575   0.003719
    32  H   -0.000003  -0.000344  -0.037353   0.359369  -0.030356  -0.004517
    33  H    0.000000   0.000001   0.000247  -0.009879  -0.048184   0.353549
    34  H    0.000000   0.000000  -0.000001  -0.000183   0.003759  -0.039803
    35  H    0.000000   0.000000   0.000000   0.000007   0.000732   0.004680
    36  H    0.000000   0.000000   0.000000  -0.000181   0.003669   0.000877
    37  H    0.000052  -0.000006   0.000215  -0.009224  -0.046291   0.006005
    38  H    0.000000  -0.000059  -0.000060   0.000140   0.000006  -0.000002
    39  H    0.000000   0.000000   0.000000   0.000000   0.000000   0.000000
    40  H    0.000000   0.000000   0.000000   0.000000   0.000000   0.000000
    41  H    0.000000  -0.000001   0.000000   0.000000   0.000000   0.000000
    42  H    0.000000  -0.000144   0.000000   0.000000   0.000000   0.000000
              13         14         15         16         17         18
     1  O    0.000000   0.000000   0.000000   0.000000  -0.061736  -0.000109
     2  S    0.000000   0.000000   0.000000   0.000000   0.171538  -0.021676
     3  N    0.000000   0.000000   0.000000  -0.000004  -0.049895   0.000333
     4  C    0.000002   0.000000   0.000003   0.000106  -0.004799   0.000031
     5  C    0.000000   0.000000   0.000000  -0.000007  -0.000263   0.000006
     6  S    0.000000   0.000000   0.000000  -0.000007   0.000046   0.000010
     7  O    0.000000   0.000000   0.000000  -0.000029   0.000000   0.000000
     8  C    0.000000   0.000000   0.000000   0.000001   0.002136   0.000300
     9  C   -0.000061   0.000014  -0.000014  -0.003470  -0.000285  -0.000046
    10  C    0.006767   0.000398   0.006492  -0.057739  -0.000008  -0.000068
    11  C   -0.019314  -0.034441  -0.019031   0.546249   0.000000   0.000007
    12  C    0.523315  -0.035878  -0.046810  -0.038169   0.000000   0.000000
    13  C    4.867351   0.550802  -0.026050  -0.047219   0.000000   0.000000
    14  C    0.550802   4.853623   0.549440  -0.035553   0.000000   0.000000
    15  C   -0.026050   0.549440   4.864468   0.524561   0.000000   0.000000
    16  C   -0.047219  -0.035553   0.524561   4.958127   0.000000   0.000000
    17  C    0.000000   0.000000   0.000000   0.000000   5.335279   0.468896
    18  C    0.000000   0.000000   0.000000   0.000000   0.468896   4.917947
    19  C    0.000000   0.000000   0.000000   0.000000  -0.023432   0.522329
    20  C    0.000000   0.000000   0.000000   0.000000  -0.039686  -0.029955
    21  C    0.000000   0.000000   0.000000   0.000000  -0.030899  -0.037889
    22  C    0.000000   0.000000   0.000000   0.000000   0.517074  -0.031502
    23  O    0.000000   0.000000   0.000000   0.000000  -0.059524   0.001693
    24  H    0.000000   0.000000   0.000000   0.000001   0.002821  -0.000126
    25  H    0.000000   0.000000   0.000000   0.000000   0.000003   0.000000
    26  H    0.000000   0.000000   0.000000   0.000000   0.000041  -0.000004
    27  H    0.000000   0.000000   0.000000  -0.000011  -0.000093   0.000010
    28  H    0.000000   0.000000   0.000000   0.000000  -0.001190  -0.000335
    29  H   -0.000127  -0.000005  -0.000016  -0.000041   0.000001   0.000001
    30  H   -0.000013  -0.000001  -0.000128   0.003313   0.000000   0.000000
    31  H   -0.000213   0.000013   0.000077  -0.004779   0.000009   0.000087
    32  H    0.000122   0.000010  -0.000197   0.003916  -0.000072   0.000078
    33  H   -0.046011   0.004940   0.000346   0.006294   0.000000   0.000000
    34  H    0.356505  -0.043109   0.004570   0.000844   0.000000   0.000000
    35  H   -0.043145   0.358899  -0.042840   0.004673   0.000000   0.000000
    36  H    0.004548  -0.043328   0.357034  -0.038939   0.000000   0.000000
    37  H    0.000378   0.004787  -0.044302   0.355824   0.000000   0.000000
    38  H    0.000000   0.000000   0.000000   0.000000  -0.048265   0.362598
    39  H    0.000000   0.000000   0.000000   0.000000   0.004836  -0.041602
    40  H    0.000000   0.000000   0.000000   0.000000   0.000472   0.004884
    41  H    0.000000   0.000000   0.000000   0.000000   0.004995   0.000708
    42  H    0.000000   0.000000   0.000000   0.000000  -0.041540   0.005182
              19         20         21         22         23         24
     1  O    0.000072  -0.000005  -0.000054  -0.001593  -0.044577   0.005297
     2  S    0.002123  -0.000477   0.003289  -0.036333   0.377541  -0.012116
     3  N    0.000161   0.000007  -0.000103   0.001460  -0.052251   0.291675
     4  C   -0.000006   0.000001   0.000005   0.000090   0.006891  -0.024052
     5  C    0.000000   0.000000   0.000000   0.000013  -0.007691  -0.000379
     6  S    0.000000   0.000000  -0.000003  -0.000015   0.000488  -0.000184
     7  O    0.000000   0.000000   0.000000   0.000000   0.000000   0.000003
     8  C    0.000036   0.000004  -0.000095  -0.001284  -0.006396   0.005118
     9  C    0.000000   0.000000   0.000000  -0.000002   0.000112  -0.005263
    10  C   -0.000008   0.000000   0.000000   0.000001  -0.000001  -0.000087
    11  C    0.000000   0.000000   0.000000   0.000000   0.000000  -0.000081
    12  C    0.000000   0.000000   0.000000   0.000000   0.000000   0.000000
    13  C    0.000000   0.000000   0.000000   0.000000   0.000000   0.000000
    14  C    0.000000   0.000000   0.000000   0.000000   0.000000   0.000000
    15  C    0.000000   0.000000   0.000000   0.000000   0.000000   0.000000
    16  C    0.000000   0.000000   0.000000   0.000000   0.000000   0.000001
    17  C   -0.023432  -0.039686  -0.030899   0.517074  -0.059524   0.002821
    18  C    0.522329  -0.029955  -0.037889  -0.031502   0.001693  -0.000126
    19  C    4.868973   0.540952  -0.028725  -0.039889  -0.000047   0.000003
    20  C    0.540952   4.843562   0.544804  -0.028702  -0.000005   0.000000
    21  C   -0.028725   0.544804   4.883839   0.501252   0.000626   0.000002
    22  C   -0.039889  -0.028702   0.501252   4.932565   0.001845  -0.000051
    23  O   -0.000047  -0.000005   0.000626   0.001845   8.307801   0.000031
    24  H    0.000003   0.000000   0.000002  -0.000051   0.000031   0.372276
    25  H    0.000000   0.000000   0.000000   0.000000   0.000163   0.000529
    26  H    0.000000   0.000000   0.000000  -0.000001   0.013885  -0.000047
    27  H    0.000002   0.000003   0.000002  -0.000023   0.000138  -0.000055
    28  H   -0.000100  -0.000002   0.000056   0.002821   0.006372  -0.000003
    29  H    0.000000   0.000000   0.000000   0.000000   0.000001   0.006322
    30  H    0.000000   0.000000   0.000000   0.000000   0.000001   0.000103
    31  H    0.000007   0.000000   0.000000  -0.000001   0.000000   0.000121
    32  H    0.000003   0.000001   0.000000   0.000000   0.000002   0.000161
    33  H    0.000000   0.000000   0.000000   0.000000   0.000000   0.000046
    34  H    0.000000   0.000000   0.000000   0.000000   0.000000   0.000000
    35  H    0.000000   0.000000   0.000000   0.000000   0.000000   0.000000
    36  H    0.000000   0.000000   0.000000   0.000000   0.000000   0.000000
    37  H    0.000000   0.000000   0.000000   0.000000   0.000000   0.000000
    38  H   -0.038021   0.004334   0.000351   0.004706   0.000050  -0.000335
    39  H    0.363071  -0.041263   0.004406   0.000642   0.000000   0.000000
    40  H   -0.042044   0.362169  -0.042143   0.004850   0.000000   0.000000
    41  H    0.004355  -0.041748   0.364141  -0.042594   0.000003   0.000000
    42  H    0.000247   0.004164  -0.036464   0.358877   0.013006  -0.000004
              25         26         27         28         29         30
     1  O    0.000001  -0.000198   0.000001   0.000028  -0.000004   0.000000
     2  S    0.000294   0.001281   0.000159   0.010414  -0.000194   0.000063
     3  N    0.001444  -0.004376   0.001351  -0.006488  -0.007045   0.003057
     4  C   -0.030807  -0.023804  -0.028298  -0.025382  -0.032285  -0.030156
     5  C    0.350960   0.321120   0.010305   0.002610  -0.005921  -0.005319
     6  S   -0.018073  -0.004077  -0.017908  -0.005060  -0.000227   0.006079
     7  O    0.000003   0.001189   0.000333   0.001217   0.000253   0.025008
     8  C    0.010391   0.003426   0.349996   0.317524   0.006073  -0.008430
     9  C   -0.005214   0.003930  -0.007600   0.004521   0.351863   0.351869
    10  C    0.000118  -0.000111   0.001864   0.000030  -0.040265  -0.030409
    11  C   -0.000010   0.000001  -0.000060   0.000001  -0.001141  -0.000977
    12  C    0.000000   0.000000   0.000001   0.000000   0.003465  -0.000074
    13  C    0.000000   0.000000   0.000000   0.000000  -0.000127  -0.000013
    14  C    0.000000   0.000000   0.000000   0.000000  -0.000005  -0.000001
    15  C    0.000000   0.000000   0.000000   0.000000  -0.000016  -0.000128
    16  C    0.000000   0.000000  -0.000011   0.000000  -0.000041   0.003313
    17  C    0.000003   0.000041  -0.000093  -0.001190   0.000001   0.000000
    18  C    0.000000  -0.000004   0.000010  -0.000335   0.000001   0.000000
    19  C    0.000000   0.000000   0.000002  -0.000100   0.000000   0.000000
    20  C    0.000000   0.000000   0.000003  -0.000002   0.000000   0.000000
    21  C    0.000000   0.000000   0.000002   0.000056   0.000000   0.000000
    22  C    0.000000  -0.000001  -0.000023   0.002821   0.000000   0.000000
    23  O    0.000163   0.013885   0.000138   0.006372   0.000001   0.000001
    24  H    0.000529  -0.000047  -0.000055  -0.000003   0.006322   0.000103
    25  H    0.511365  -0.018616  -0.000336  -0.000317   0.004391   0.000033
    26  H   -0.018616   0.482133  -0.000314  -0.000092   0.000019   0.000201
    27  H   -0.000336  -0.000314   0.505580  -0.019720   0.000147   0.000203
    28  H   -0.000317  -0.000092  -0.019720   0.509975  -0.000142   0.000081
    29  H    0.004391   0.000019   0.000147  -0.000142   0.598917  -0.025083
    30  H    0.000033   0.000201   0.000203   0.000081  -0.025083   0.506464
    31  H    0.000011   0.000000   0.006431  -0.000182   0.005769  -0.003549
    32  H   -0.000006   0.000002   0.000054  -0.000040  -0.004576   0.004759
    33  H    0.000000   0.000000   0.000000   0.000000   0.000639   0.000039
    34  H    0.000000   0.000000   0.000000   0.000000   0.000003   0.000000
    35  H    0.000000   0.000000   0.000000   0.000000   0.000000   0.000000
    36  H    0.000000   0.000000   0.000000   0.000000   0.000000   0.000003
    37  H    0.000000   0.000000   0.000148   0.000000   0.000043   0.000840
    38  H    0.000000   0.000000   0.000003  -0.000008  -0.000002   0.000001
    39  H    0.000000   0.000000   0.000000   0.000001   0.000000   0.000000
    40  H    0.000000   0.000000   0.000000   0.000000   0.000000   0.000000
    41  H    0.000000   0.000000   0.000000   0.000003   0.000000   0.000000
    42  H    0.000000   0.000001   0.000000   0.000536   0.000000   0.000000
              31         32         33         34         35         36
     1  O    0.000000  -0.000004   0.000000   0.000000   0.000000   0.000000
     2  S   -0.000067   0.000135   0.000000   0.000000   0.000000   0.000000
     3  N   -0.000048   0.009318  -0.000005   0.000000   0.000000   0.000000
     4  C   -0.004801  -0.008276  -0.000059   0.000000   0.000000   0.000000
     5  C    0.000066   0.000163   0.000001   0.000000   0.000000   0.000000
     6  S   -0.000029  -0.000036   0.000000   0.000000   0.000000   0.000000
     7  O    0.000049  -0.000003   0.000000   0.000000   0.000000   0.000000
     8  C    0.003057  -0.000344   0.000001   0.000000   0.000000   0.000000
     9  C   -0.042383  -0.037353   0.000247  -0.000001   0.000000   0.000000
    10  C    0.358519   0.359369  -0.009879  -0.000183   0.000007  -0.000181
    11  C   -0.027575  -0.030356  -0.048184   0.003759   0.000732   0.003669
    12  C    0.003719  -0.004517   0.353549  -0.039803   0.004680   0.000877
    13  C   -0.000213   0.000122  -0.046011   0.356505  -0.043145   0.004548
    14  C    0.000013   0.000010   0.004940  -0.043109   0.358899  -0.043328
    15  C    0.000077  -0.000197   0.000346   0.004570  -0.042840   0.357034
    16  C   -0.004779   0.003916   0.006294   0.000844   0.004673  -0.038939
    17  C    0.000009  -0.000072   0.000000   0.000000   0.000000   0.000000
    18  C    0.000087   0.000078   0.000000   0.000000   0.000000   0.000000
    19  C    0.000007   0.000003   0.000000   0.000000   0.000000   0.000000
    20  C    0.000000   0.000001   0.000000   0.000000   0.000000   0.000000
    21  C    0.000000   0.000000   0.000000   0.000000   0.000000   0.000000
    22  C   -0.000001   0.000000   0.000000   0.000000   0.000000   0.000000
    23  O    0.000000   0.000002   0.000000   0.000000   0.000000   0.000000
    24  H    0.000121   0.000161   0.000046   0.000000   0.000000   0.000000
    25  H    0.000011  -0.000006   0.000000   0.000000   0.000000   0.000000
    26  H    0.000000   0.000002   0.000000   0.000000   0.000000   0.000000
    27  H    0.006431   0.000054   0.000000   0.000000   0.000000   0.000000
    28  H   -0.000182  -0.000040   0.000000   0.000000   0.000000   0.000000
    29  H    0.005769  -0.004576   0.000639   0.000003   0.000000   0.000000
    30  H   -0.003549   0.004759   0.000039   0.000000   0.000000   0.000003
    31  H    0.588860  -0.033994   0.000076   0.000003   0.000000  -0.000006
    32  H   -0.033994   0.584512   0.005818  -0.000007   0.000000   0.000003
    33  H    0.000076   0.005818   0.621383  -0.005734  -0.000185   0.000018
    34  H    0.000003  -0.000007  -0.005734   0.599484  -0.005531  -0.000190
    35  H    0.000000   0.000000  -0.000185  -0.005531   0.598588  -0.005506
    36  H   -0.000006   0.000003   0.000018  -0.000190  -0.005506   0.595148
    37  H    0.004976   0.000054  -0.000182   0.000018  -0.000180  -0.005558
    38  H    0.000016   0.001365   0.000001   0.000000   0.000000   0.000000
    39  H    0.000000  -0.000002   0.000000   0.000000   0.000000   0.000000
    40  H    0.000000   0.000000   0.000000   0.000000   0.000000   0.000000
    41  H    0.000000   0.000000   0.000000   0.000000   0.000000   0.000000
    42  H    0.000000   0.000000   0.000000   0.000000   0.000000   0.000000
              37         38         39         40         41         42
     1  O    0.000000   0.000505   0.000001   0.000000   0.000000  -0.000026
     2  S    0.000000  -0.002751  -0.000061   0.000007  -0.000072  -0.008020
     3  N    0.000000   0.005825   0.000001   0.000000   0.000000   0.000251
     4  C   -0.000073   0.000104   0.000000   0.000000   0.000000  -0.000010
     5  C    0.000002   0.000007   0.000000   0.000000   0.000000   0.000001
     6  S    0.000004   0.000000   0.000000   0.000000   0.000000   0.000012
     7  O    0.000052   0.000000   0.000000   0.000000   0.000000   0.000000
     8  C   -0.000006  -0.000059   0.000000   0.000000  -0.000001  -0.000144
     9  C    0.000215  -0.000060   0.000000   0.000000   0.000000   0.000000
    10  C   -0.009224   0.000140   0.000000   0.000000   0.000000   0.000000
    11  C   -0.046291   0.000006   0.000000   0.000000   0.000000   0.000000
    12  C    0.006005  -0.000002   0.000000   0.000000   0.000000   0.000000
    13  C    0.000378   0.000000   0.000000   0.000000   0.000000   0.000000
    14  C    0.004787   0.000000   0.000000   0.000000   0.000000   0.000000
    15  C   -0.044302   0.000000   0.000000   0.000000   0.000000   0.000000
    16  C    0.355824   0.000000   0.000000   0.000000   0.000000   0.000000
    17  C    0.000000  -0.048265   0.004836   0.000472   0.004995  -0.041540
    18  C    0.000000   0.362598  -0.041602   0.004884   0.000708   0.005182
    19  C    0.000000  -0.038021   0.363071  -0.042044   0.004355   0.000247
    20  C    0.000000   0.004334  -0.041263   0.362169  -0.041748   0.004164
    21  C    0.000000   0.000351   0.004406  -0.042143   0.364141  -0.036464
    22  C    0.000000   0.004706   0.000642   0.004850  -0.042594   0.358877
    23  O    0.000000   0.000050   0.000000   0.000000   0.000003   0.013006
    24  H    0.000000  -0.000335   0.000000   0.000000   0.000000  -0.000004
    25  H    0.000000   0.000000   0.000000   0.000000   0.000000   0.000000
    26  H    0.000000   0.000000   0.000000   0.000000   0.000000   0.000001
    27  H    0.000148   0.000003   0.000000   0.000000   0.000000   0.000000
    28  H    0.000000  -0.000008   0.000001   0.000000   0.000003   0.000536
    29  H    0.000043  -0.000002   0.000000   0.000000   0.000000   0.000000
    30  H    0.000840   0.000001   0.000000   0.000000   0.000000   0.000000
    31  H    0.004976   0.000016   0.000000   0.000000   0.000000   0.000000
    32  H    0.000054   0.001365  -0.000002   0.000000   0.000000   0.000000
    33  H   -0.000182   0.000001   0.000000   0.000000   0.000000   0.000000
    34  H    0.000018   0.000000   0.000000   0.000000   0.000000   0.000000
    35  H   -0.000180   0.000000   0.000000   0.000000   0.000000   0.000000
    36  H   -0.005558   0.000000   0.000000   0.000000   0.000000   0.000000
    37  H    0.600874   0.000000   0.000000   0.000000   0.000000   0.000000
    38  H    0.000000   0.547783  -0.005408  -0.000153   0.000015  -0.000141
    39  H    0.000000  -0.005408   0.571196  -0.005322  -0.000168   0.000014
    40  H    0.000000  -0.000153  -0.005322   0.574550  -0.005415  -0.000142
    41  H    0.000000   0.000015  -0.000168  -0.005415   0.570200  -0.004949
    42  H    0.000000  -0.000141   0.000014  -0.000142  -0.004949   0.523793
 Mulliken charges:
               1
     1  O   -0.527248
     2  S    1.216050
     3  N   -0.733229
     4  C    0.218553
     5  C   -0.488558
     6  S    0.753869
     7  O   -0.620984
     8  C   -0.490548
     9  C   -0.306476
    10  C   -0.355011
    11  C    0.172204
    12  C   -0.182649
    13  C   -0.127638
    14  C   -0.130610
    15  C   -0.127603
    16  C   -0.177943
    17  C   -0.146461
    18  C   -0.121788
    19  C   -0.130061
    20  C   -0.118159
    21  C   -0.126397
    22  C   -0.144208
    23  O   -0.560158
    24  H    0.358276
    25  H    0.193673
    26  H    0.224411
    27  H    0.197689
    28  H    0.202874
    29  H    0.139165
    30  H    0.202022
    31  H    0.145758
    32  H    0.149936
    33  H    0.116841
    34  H    0.129371
    35  H    0.129808
    36  H    0.132409
    37  H    0.131597
    38  H    0.167396
    39  H    0.149661
    40  H    0.148286
    41  H    0.150526
    42  H    0.185354
 Sum of Mulliken charges =   0.00000
 Mulliken charges with hydrogens summed into heavy atoms:
               1
     1  O   -0.527248
     2  S    1.216050
     3  N   -0.374953
     4  C    0.218553
     5  C   -0.070474
     6  S    0.753869
     7  O   -0.620984
     8  C   -0.089984
     9  C    0.034711
    10  C   -0.059317
    11  C    0.172204
    12  C   -0.065809
    13  C    0.001733
    14  C   -0.000803
    15  C    0.004806
    16  C   -0.046346
    17  C   -0.146461
    18  C    0.045608
    19  C    0.019600
    20  C    0.030127
    21  C    0.024129
    22  C    0.041146
    23  O   -0.560158
 Electronic spatial extent (au):  <R**2>=           9833.0482
 Charge=              0.0000 electrons
 Dipole moment (field-independent basis, Debye):
    X=             -0.3399    Y=             -4.0056    Z=             -1.5978  Tot=              4.3259
 Quadrupole moment (field-independent basis, Debye-Ang):
   XX=           -147.0162   YY=           -153.6722   ZZ=           -149.2018
   XY=             -1.8361   XZ=             21.0056   YZ=              9.8207
 Traceless Quadrupole moment (field-independent basis, Debye-Ang):
[...]
    21  C    0.000000   0.000000   0.000000   0.000000  -0.030690  -0.038413
    22  C    0.000000   0.000000   0.000000   0.000000   0.505674  -0.029492
    23  O    0.000000   0.000000   0.000000   0.000000  -0.060065   0.001608
    24  H    0.000000   0.000000   0.000000   0.000001   0.002256  -0.000122
    25  H    0.000000   0.000000   0.000000   0.000000   0.000003   0.000000
    26  H    0.000000   0.000000   0.000000   0.000000   0.000039  -0.000003
    27  H    0.000000   0.000000   0.000000  -0.000008  -0.000096   0.000010
    28  H    0.000000   0.000000   0.000000   0.000000  -0.001169  -0.000360
    29  H   -0.000121  -0.000005  -0.000013  -0.000011   0.000001   0.000001
    30  H   -0.000012  -0.000002  -0.000139   0.003554   0.000000   0.000000
    31  H   -0.000212   0.000013   0.000101  -0.004529   0.000010   0.000087
    32  H    0.000133   0.000010  -0.000196   0.003902  -0.000073   0.000125
    33  H   -0.044801   0.004771   0.000270   0.006111   0.000000   0.000000
    34  H    0.360615  -0.042313   0.004500   0.000755   0.000000   0.000000
    35  H   -0.042161   0.362851  -0.042051   0.004609   0.000000   0.000000
    36  H    0.004509  -0.042355   0.360726  -0.038607   0.000000   0.000000
    37  H    0.000280   0.004781  -0.044392   0.359298   0.000000   0.000000
    38  H    0.000000   0.000000   0.000000   0.000000  -0.050127   0.365002
    39  H    0.000000   0.000000   0.000000   0.000000   0.004770  -0.040357
    40  H    0.000000   0.000000   0.000000   0.000000   0.000435   0.004823
    41  H    0.000000   0.000000   0.000000   0.000000   0.004978   0.000627
    42  H    0.000000   0.000000   0.000000   0.000000  -0.046751   0.004958
              19         20         21         22         23         24
     1  O    0.000075  -0.000004  -0.000049  -0.001606  -0.043551   0.004157
     2  S    0.002126  -0.000471   0.003323  -0.035831   0.380106  -0.010356
     3  N    0.000176   0.000007  -0.000108   0.001547  -0.052602   0.293600
     4  C   -0.000006   0.000001   0.000006   0.000070   0.006380  -0.020884
     5  C    0.000000   0.000000   0.000000   0.000015  -0.007607  -0.000394
     6  S    0.000000   0.000000  -0.000002  -0.000011   0.000485  -0.000239
     7  O    0.000000   0.000000   0.000000   0.000000   0.000000   0.000002
     8  C    0.000037   0.000004  -0.000096  -0.001281  -0.006208   0.004355
     9  C   -0.000001   0.000000   0.000000  -0.000002   0.000096  -0.004749
    10  C   -0.000007   0.000000   0.000000   0.000001  -0.000001  -0.000138
    11  C    0.000000   0.000000   0.000000   0.000000   0.000000  -0.000067
    12  C    0.000000   0.000000   0.000000   0.000000   0.000000   0.000001
    13  C    0.000000   0.000000   0.000000   0.000000   0.000000   0.000000
    14  C    0.000000   0.000000   0.000000   0.000000   0.000000   0.000000
    15  C    0.000000   0.000000   0.000000   0.000000   0.000000   0.000000
    16  C    0.000000   0.000000   0.000000   0.000000   0.000000   0.000001
    17  C   -0.026049  -0.039775  -0.030690   0.505674  -0.060065   0.002256
    18  C    0.523378  -0.031636  -0.038413  -0.029492   0.001608  -0.000122
    19  C    4.877011   0.536434  -0.029971  -0.039506  -0.000047   0.000003
    20  C    0.536434   4.859292   0.539955  -0.030587  -0.000004   0.000000
    21  C   -0.029971   0.539955   4.889831   0.505378   0.000590   0.000001
    22  C   -0.039506  -0.030587   0.505378   4.934914   0.001600  -0.000041
    23  O   -0.000047  -0.000004   0.000590   0.001600   8.331885  -0.000044
    24  H    0.000003   0.000000   0.000001  -0.000041  -0.000044   0.319454
    25  H    0.000000   0.000000   0.000000   0.000000   0.000149   0.000432
    26  H    0.000000   0.000000   0.000000  -0.000002   0.013625  -0.000040
    27  H    0.000002   0.000002   0.000002  -0.000021   0.000131  -0.000046
    28  H   -0.000097  -0.000001   0.000071   0.002787   0.005882  -0.000008
    29  H    0.000000   0.000000   0.000000   0.000000   0.000000   0.004937
    30  H    0.000000   0.000000   0.000000   0.000000   0.000001   0.000103
    31  H    0.000007   0.000000   0.000000  -0.000001   0.000000   0.000092
    32  H    0.000005   0.000001   0.000000  -0.000001   0.000002   0.000223
    33  H    0.000000   0.000000   0.000000   0.000000   0.000000   0.000034
    34  H    0.000000   0.000000   0.000000   0.000000   0.000000   0.000000
    35  H    0.000000   0.000000   0.000000   0.000000   0.000000   0.000000
    36  H    0.000000   0.000000   0.000000   0.000000   0.000000   0.000000
    37  H    0.000000   0.000000   0.000000   0.000000   0.000000   0.000000
    38  H   -0.034075   0.004217   0.000309   0.004356   0.000045  -0.000269
    39  H    0.366519  -0.039690   0.004257   0.000601   0.000000   0.000000
    40  H   -0.040680   0.365372  -0.040739   0.004800   0.000000   0.000000
    41  H    0.004245  -0.040225   0.367327  -0.041431   0.000002   0.000000
    42  H    0.000202   0.004268  -0.033696   0.361399   0.012490  -0.000003
              25         26         27         28         29         30
     1  O    0.000001  -0.000193   0.000001   0.000023  -0.000004   0.000000
     2  S    0.000274   0.001585   0.000083   0.010492  -0.000139   0.000050
     3  N    0.001346  -0.004606   0.001346  -0.006564  -0.006124   0.003233
     4  C   -0.029981  -0.024570  -0.028626  -0.026293  -0.029602  -0.030678
     5  C    0.352873   0.324709   0.009853   0.002505  -0.005679  -0.005220
     6  S   -0.018112  -0.006335  -0.017477  -0.006548  -0.000362   0.005208
     7  O   -0.000072   0.001204   0.000221   0.001187   0.000225   0.024449
     8  C    0.009849   0.003499   0.352390   0.323045   0.005734  -0.008428
     9  C   -0.004680   0.003880  -0.007167   0.004453   0.358299   0.349439
    10  C    0.000111  -0.000110   0.002008   0.000016  -0.038585  -0.032841
    11  C   -0.000010   0.000001  -0.000067   0.000001  -0.001311  -0.001112
    12  C    0.000000   0.000000   0.000001   0.000000   0.003337  -0.000070
    13  C    0.000000   0.000000   0.000000   0.000000  -0.000121  -0.000012
    14  C    0.000000   0.000000   0.000000   0.000000  -0.000005  -0.000002
    15  C    0.000000   0.000000   0.000000   0.000000  -0.000013  -0.000139
    16  C    0.000000   0.000000  -0.000008   0.000000  -0.000011   0.003554
    17  C    0.000003   0.000039  -0.000096  -0.001169   0.000001   0.000000
    18  C    0.000000  -0.000003   0.000010  -0.000360   0.000001   0.000000
    19  C    0.000000   0.000000   0.000002  -0.000097   0.000000   0.000000
    20  C    0.000000   0.000000   0.000002  -0.000001   0.000000   0.000000
    21  C    0.000000   0.000000   0.000002   0.000071   0.000000   0.000000
    22  C    0.000000  -0.000002  -0.000021   0.002787   0.000000   0.000000
    23  O    0.000149   0.013625   0.000131   0.005882   0.000000   0.000001
    24  H    0.000432  -0.000040  -0.000046  -0.000008   0.004937   0.000103
    25  H    0.490989  -0.016310  -0.000320  -0.000291   0.004035   0.000072
    26  H   -0.016310   0.481083  -0.000293  -0.000114   0.000017   0.000198
    27  H   -0.000320  -0.000293   0.482608  -0.017056   0.000139   0.000196
    28  H   -0.000291  -0.000114  -0.017056   0.493524  -0.000131   0.000071
    29  H    0.004035   0.000017   0.000139  -0.000131   0.567150  -0.026415
    30  H    0.000072   0.000198   0.000196   0.000071  -0.026415   0.539129
    31  H    0.000011   0.000000   0.006042  -0.000173   0.005400  -0.003730
    32  H   -0.000006   0.000002   0.000054  -0.000037  -0.004413   0.004862
    33  H    0.000000   0.000000   0.000000   0.000000   0.000566   0.000036
    34  H    0.000000   0.000000   0.000000   0.000000   0.000003   0.000000
    35  H    0.000000   0.000000   0.000000   0.000000   0.000000   0.000000
    36  H    0.000000   0.000000   0.000000   0.000000   0.000000   0.000003
    37  H    0.000000   0.000000   0.000141   0.000000   0.000041   0.000896
    38  H    0.000000   0.000000   0.000003  -0.000008  -0.000002   0.000001
    39  H    0.000000   0.000000   0.000000   0.000000   0.000000   0.000000
    40  H    0.000000   0.000000   0.000000   0.000000   0.000000   0.000000
    41  H    0.000000   0.000000   0.000000   0.000002   0.000000   0.000000
    42  H    0.000000   0.000001   0.000000   0.000489   0.000000   0.000000
              31         32         33         34         35         36
     1  O    0.000000  -0.000004   0.000000   0.000000   0.000000   0.000000
     2  S   -0.000068   0.000096   0.000000   0.000000   0.000000   0.000000
     3  N   -0.000073   0.008607  -0.000003   0.000000   0.000000   0.000000
     4  C   -0.004557  -0.008079  -0.000054   0.000000   0.000000   0.000000
     5  C    0.000066   0.000158   0.000001   0.000000   0.000000   0.000000
     6  S   -0.000076  -0.000034   0.000000   0.000000   0.000000   0.000000
     7  O    0.000041  -0.000003   0.000000   0.000000   0.000000   0.000000
     8  C    0.003154  -0.000293   0.000001   0.000000   0.000000   0.000000
     9  C   -0.041256  -0.035591   0.000269   0.000000   0.000000   0.000000
    10  C    0.360989   0.362585  -0.009168  -0.000173   0.000006  -0.000171
    11  C   -0.028239  -0.029365  -0.045013   0.003667   0.000631   0.003642
    12  C    0.003632  -0.004383   0.359112  -0.038566   0.004597   0.000756
    13  C   -0.000212   0.000133  -0.044801   0.360615  -0.042161   0.004509
    14  C    0.000013   0.000010   0.004771  -0.042313   0.362851  -0.042355
    15  C    0.000101  -0.000196   0.000270   0.004500  -0.042051   0.360726
    16  C   -0.004529   0.003902   0.006111   0.000755   0.004609  -0.038607
    17  C    0.000010  -0.000073   0.000000   0.000000   0.000000   0.000000
    18  C    0.000087   0.000125   0.000000   0.000000   0.000000   0.000000
    19  C    0.000007   0.000005   0.000000   0.000000   0.000000   0.000000
    20  C    0.000000   0.000001   0.000000   0.000000   0.000000   0.000000
    21  C    0.000000   0.000000   0.000000   0.000000   0.000000   0.000000
    22  C   -0.000001  -0.000001   0.000000   0.000000   0.000000   0.000000
    23  O    0.000000   0.000002   0.000000   0.000000   0.000000   0.000000
    24  H    0.000092   0.000223   0.000034   0.000000   0.000000   0.000000
    25  H    0.000011  -0.000006   0.000000   0.000000   0.000000   0.000000
    26  H    0.000000   0.000002   0.000000   0.000000   0.000000   0.000000
    27  H    0.006042   0.000054   0.000000   0.000000   0.000000   0.000000
    28  H   -0.000173  -0.000037   0.000000   0.000000   0.000000   0.000000
    29  H    0.005400  -0.004413   0.000566   0.000003   0.000000   0.000000
    30  H   -0.003730   0.004862   0.000036   0.000000   0.000000   0.000003
    31  H    0.573693  -0.032688   0.000076   0.000003   0.000000  -0.000005
    32  H   -0.032688   0.561174   0.005276  -0.000006   0.000000   0.000003
    33  H    0.000076   0.005276   0.585100  -0.005280  -0.000168   0.000017
    34  H    0.000003  -0.000006  -0.005280   0.573455  -0.005224  -0.000176
    35  H    0.000000   0.000000  -0.000168  -0.005224   0.574577  -0.005228
    36  H   -0.000005   0.000003   0.000017  -0.000176  -0.005228   0.573407
    37  H    0.004643   0.000059  -0.000167   0.000017  -0.000168  -0.005334
    38  H    0.000013   0.001238   0.000001   0.000000   0.000000   0.000000
    39  H    0.000000  -0.000002   0.000000   0.000000   0.000000   0.000000
    40  H    0.000000   0.000000   0.000000   0.000000   0.000000   0.000000
    41  H    0.000000   0.000000   0.000000   0.000000   0.000000   0.000000
    42  H    0.000000   0.000000   0.000000   0.000000   0.000000   0.000000
              37         38         39         40         41         42
     1  O    0.000000   0.000380   0.000001   0.000000   0.000000  -0.000025
     2  S    0.000000  -0.002164  -0.000070   0.000007  -0.000077  -0.007487
     3  N    0.000000   0.005369   0.000001   0.000000   0.000000   0.000233
     4  C   -0.000071   0.000077   0.000000   0.000000   0.000000  -0.000010
     5  C    0.000002   0.000007   0.000000   0.000000   0.000000   0.000001
     6  S    0.000002   0.000000   0.000000   0.000000   0.000000   0.000012
     7  O    0.000052   0.000000   0.000000   0.000000   0.000000   0.000000
     8  C   -0.000003  -0.000053   0.000000   0.000000  -0.000001  -0.000146
     9  C    0.000202  -0.000056   0.000000   0.000000   0.000000   0.000000
    10  C   -0.008744   0.000150   0.000000   0.000000   0.000000   0.000000
    11  C   -0.045881   0.000006   0.000000   0.000000   0.000000   0.000000
    12  C    0.005974  -0.000002   0.000000   0.000000   0.000000   0.000000
    13  C    0.000280   0.000000   0.000000   0.000000   0.000000   0.000000
    14  C    0.004781   0.000000   0.000000   0.000000   0.000000   0.000000
    15  C   -0.044392   0.000000   0.000000   0.000000   0.000000   0.000000
    16  C    0.359298   0.000000   0.000000   0.000000   0.000000   0.000000
    17  C    0.000000  -0.050127   0.004770   0.000435   0.004978  -0.046751
    18  C    0.000000   0.365002  -0.040357   0.004823   0.000627   0.004958
    19  C    0.000000  -0.034075   0.366519  -0.040680   0.004245   0.000202
    20  C    0.000000   0.004217  -0.039690   0.365372  -0.040225   0.004268
    21  C    0.000000   0.000309   0.004257  -0.040739   0.367327  -0.033696
    22  C    0.000000   0.004356   0.000601   0.004800  -0.041431   0.361399
    23  O    0.000000   0.000045   0.000000   0.000000   0.000002   0.012490
    24  H    0.000000  -0.000269   0.000000   0.000000   0.000000  -0.000003
    25  H    0.000000   0.000000   0.000000   0.000000   0.000000   0.000000
    26  H    0.000000   0.000000   0.000000   0.000000   0.000000   0.000001
    27  H    0.000141   0.000003   0.000000   0.000000   0.000000   0.000000
    28  H    0.000000  -0.000008   0.000000   0.000000   0.000002   0.000489
    29  H    0.000041  -0.000002   0.000000   0.000000   0.000000   0.000000
    30  H    0.000896   0.000001   0.000000   0.000000   0.000000   0.000000
    31  H    0.004643   0.000013   0.000000   0.000000   0.000000   0.000000
    32  H    0.000059   0.001238  -0.000002   0.000000   0.000000   0.000000
    33  H   -0.000167   0.000001   0.000000   0.000000   0.000000   0.000000
    34  H    0.000017   0.000000   0.000000   0.000000   0.000000   0.000000
    35  H   -0.000168   0.000000   0.000000   0.000000   0.000000   0.000000
    36  H   -0.005334   0.000000   0.000000   0.000000   0.000000   0.000000
    37  H    0.585210   0.000000   0.000000   0.000000   0.000000   0.000000
    38  H    0.000000   0.526598  -0.005169  -0.000142   0.000014  -0.000134
    39  H    0.000000  -0.005169   0.543475  -0.005014  -0.000155   0.000013
    40  H    0.000000  -0.000142  -0.005014   0.546771  -0.005107  -0.000135
    41  H    0.000000   0.000014  -0.000155  -0.005107   0.544455  -0.004994
    42  H    0.000000  -0.000134   0.000013  -0.000135  -0.004994   0.524140
 Mulliken charges:
               1
     1  O   -0.570516
     2  S    1.212679
     3  N   -0.738968
     4  C    0.218262
     5  C   -0.473975
     6  S    0.752157
     7  O   -0.685998
     8  C   -0.488813
     9  C   -0.304363
    10  C   -0.360078
    11  C    0.161079
    12  C   -0.199705
    13  C   -0.149455
    14  C   -0.152494
    15  C   -0.149490
    16  C   -0.197486
    17  C   -0.151863
    18  C   -0.135005
    19  C   -0.139781
    20  C   -0.127160
    21  C   -0.137285
    22  C   -0.143330
    23  O   -0.584950
    24  H    0.407752
    25  H    0.209637
    26  H    0.222734
    27  H    0.215946
    28  H    0.214303
    29  H    0.163030
    30  H    0.177145
    31  H    0.157535
    32  H    0.166662
    33  H    0.143013
    34  H    0.148723
    35  H    0.147729
    36  H    0.148814
    37  H    0.143161
    38  H    0.184414
    39  H    0.170819
    40  H    0.169608
    41  H    0.170337
    42  H    0.185176
 Sum of Mulliken charges =   0.00000
 Mulliken charges with hydrogens summed into heavy atoms:
               1
     1  O   -0.570516
     2  S    1.212679
     3  N   -0.331216
     4  C    0.218262
     5  C   -0.041604
     6  S    0.752157
     7  O   -0.685998
     8  C   -0.058564
     9  C    0.035812
    10  C   -0.035882
    11  C    0.161079
    12  C   -0.056691
    13  C   -0.000732
    14  C   -0.004766
    15  C   -0.000676
    16  C   -0.054325
    17  C   -0.151863
    18  C    0.049409
    19  C    0.031038
    20  C    0.042448
    21  C    0.033052
    22  C    0.041846
    23  O   -0.584950
 Electronic spatial extent (au):  <R**2>=           9835.1217
 Charge=              0.0000 electrons
 Dipole moment (field-independent basis, Debye):
    X=             -0.6776    Y=             -5.2818    Z=             -1.6086  Tot=              5.5627
 Quadrupole moment (field-independent basis, Debye-Ang):
   XX=           -149.4418   YY=           -154.7237   ZZ=           -148.5136
   XY=             -2.0899   XZ=             26.2140   YZ=             12.5165
 Traceless Quadrupole moment (field-independent basis, Debye-Ang):
   XX=              1.4512   YY=             -3.8306   ZZ=              2.3794
   XY=             -2.0899   XZ=             26.2140   YZ=             12.5165
 Octapole moment (field-independent basis, Debye-Ang**2):
  XXX=              6.1368  YYY=            -59.7982  ZZZ=            -14.9738  XYY=            -60.2684
  XXY=            -46.7097  XXZ=            -75.7150  XZZ=             15.1964  YZZ=             -8.3695
  YYZ=             30.4306  XYZ=            -16.2082
 Hexadecapole moment (field-independent basis, Debye-Ang**3):
 XXXX=          -8010.2874 YYYY=          -3223.9061 ZZZZ=          -1415.9600 XXXY=            -67.7501
 XXXZ=            247.0470 YYYX=             10.1551 YYYZ=            179.8001 ZZZX=            105.1893
 ZZZY=             32.1731 XXYY=          -2022.5664 XXZZ=          -1621.0861 YYZZ=           -755.9034
 XXYZ=             32.6542 YYXZ=            160.5871 ZZXY=              1.0062
 N-N= 2.261387270902D+03 E-N=-8.597080218206D+03  KE= 1.724243789432D+03
 No NMR shielding tensors so no spin-rotation constants.
 Leave Link  601 at Sat Aug  8 02:34:23 2020, MaxMem=    33554432 cpu:         0.4
 (Enter /prod/apps/gaussian/g09d1/l9999.exe)
 1\1\GINC-PIRINEUS17\SP\RB3LYP\6-31G(d)\C17H19N1O3S2\UBAFAR01\08-Aug-20
 20\0\\#p b3lyp/6-31G(d) scrf=(iefpcm,read,solvent=Water) geom=allcheck
  guess=read\\SM36.n.7.pdb.xyz\\0,1\O,0,3.375,1.108,0.82\S,0,3.554,-0.2
 88,0.383\N,0,3.23,-0.271,-1.256\C,0,2.723,-1.436,-2.001\C,0,1.342,-2.0
 07,-1.588\S,0,1.91,-3.762,-1.87\O,0,1.65,-4.161,-3.32\C,0,3.487,-2.761
 ,-1.765\C,0,2.703,-1.053,-3.492\C,0,4.068,-0.655,-4.073\C,0,3.98,-0.31
 4,-5.544\C,0,3.755,1.005,-5.961\C,0,3.644,1.321,-7.317\C,0,3.759,0.317
 ,-8.281\C,0,3.985,-1.001,-7.879\C,0,4.094,-1.311,-6.523\C,0,5.288,-0.7
 12,0.49\C,0,6.22,-0.007,-0.275\C,0,7.573,-0.302,-0.124\C,0,7.981,-1.28
 4,0.785\C,0,7.038,-1.976,1.547\C,0,5.679,-1.69,1.406\O,0,2.803,-1.351,
 1.077\H,0,2.755,0.602,-1.489\H,0,0.481,-1.73,-2.197\H,0,1.13,-1.892,-0
 .525\H,0,4.236,-3.051,-2.502\H,0,3.878,-2.877,-0.755\H,0,1.99,-0.23,-3
 .627\H,0,2.298,-1.913,-4.034\H,0,4.776,-1.48,-3.93\H,0,4.458,0.2,-3.51
 4\H,0,3.671,1.791,-5.216\H,0,3.474,2.349,-7.619\H,0,3.677,0.561,-9.336
 \H,0,4.08,-1.787,-8.621\H,0,4.274,-2.339,-6.218\H,0,5.894,0.747,-0.981
 \H,0,8.307,0.233,-0.717\H,0,9.036,-1.51,0.896\H,0,7.355,-2.737,2.251\H
 ,0,4.928,-2.215,1.984\\Version=AM64L-G09RevD.01\State=1-A\HF=-1735.939
 7868\RMSD=5.251e-09\Dipole=2.0693147,0.7019641,-0.1222129\Quadrupole=1
 1.4130231,-5.8606322,-5.5523909,-9.3725077,6.9548188,-15.5281093\PG=C0
 1 [X(C17H19N1O3S2)]\\@


  DISAPPOINTMENT IS THE NURSE OF WISDOM.               
                              SIR BOYLE ROCHE                 
 Job cpu time:       0 days  0 hours  5 minutes 55.5 seconds.
 File lengths (MBytes):  RWF=    291 Int=      0 D2E=      0 Chk=      8 Scr=      1
 Normal termination of Gaussian 09 at Sat Aug  8 02:34:23 2020.
