 Entering Gaussian System, Link 0=g09
 Initial command:
 /prod/apps/gaussian/g09d1/l1.exe "/tmp/ubafar01/1449159/Gau-87381.inp" -scrdir="/tmp/ubafar01/1449159/"
 Entering Link 1 = /prod/apps/gaussian/g09d1/l1.exe PID=     87382.
  
 Copyright (c) 1988,1990,1992,1993,1995,1998,2003,2009,2013,
            Gaussian, Inc.  All Rights Reserved.
  
 This is part of the Gaussian(R) 09 program.  It is based on
 the Gaussian(R) 03 system (copyright 2003, Gaussian, Inc.),
 the Gaussian(R) 98 system (copyright 1998, Gaussian, Inc.),
 the Gaussian(R) 94 system (copyright 1995, Gaussian, Inc.),
 the Gaussian 92(TM) system (copyright 1992, Gaussian, Inc.),
 the Gaussian 90(TM) system (copyright 1990, Gaussian, Inc.),
 the Gaussian 88(TM) system (copyright 1988, Gaussian, Inc.),
 the Gaussian 86(TM) system (copyright 1986, Carnegie Mellon
 University), and the Gaussian 82(TM) system (copyright 1983,
 Carnegie Mellon University). Gaussian is a federally registered
 trademark of Gaussian, Inc.
  
 This software contains proprietary and confidential information,
 including trade secrets, belonging to Gaussian, Inc.
  
 This software is provided under written license and may be
 used, copied, transmitted, or stored only in accord with that
 written license.
  
 The following legend is applicable only to US Government
 contracts under FAR:
  
                    RESTRICTED RIGHTS LEGEND
  
 Use, reproduction and disclosure by the US Government is
 subject to restrictions as set forth in subparagraphs (a)
 and (c) of the Commercial Computer Software - Restricted
 Rights clause in FAR 52.227-19.
  
 Gaussian, Inc.
 340 Quinnipiac St., Bldg. 40, Wallingford CT 06492
  
  
 ---------------------------------------------------------------
 Warning -- This program may not be used in any manner that
 competes with the business of Gaussian, Inc. or will provide
 assistance to any competitor of Gaussian, Inc.  The licensee
 of this program is prohibited from giving any competitor of
 Gaussian, Inc. access to this program.  By using this program,
 the user acknowledges that Gaussian, Inc. is engaged in the
 business of creating and licensing software in the field of
 computational chemistry and represents and warrants to the
 licensee that it is not a competitor of Gaussian, Inc. and that
 it will not use this program in any manner prohibited above.
 ---------------------------------------------------------------
  

 Cite this work as:
 Gaussian 09, Revision D.01,
 M. J. Frisch, G. W. Trucks, H. B. Schlegel, G. E. Scuseria, 
 M. A. Robb, J. R. Cheeseman, G. Scalmani, V. Barone, B. Mennucci, 
 G. A. Petersson, H. Nakatsuji, M. Caricato, X. Li, H. P. Hratchian, 
 A. F. Izmaylov, J. Bloino, G. Zheng, J. L. Sonnenberg, M. Hada, 
 M. Ehara, K. Toyota, R. Fukuda, J. Hasegawa, M. Ishida, T. Nakajima, 
 Y. Honda, O. Kitao, H. Nakai, T. Vreven, J. A. Montgomery, Jr., 
 J. E. Peralta, F. Ogliaro, M. Bearpark, J. J. Heyd, E. Brothers, 
 K. N. Kudin, V. N. Staroverov, T. Keith, R. Kobayashi, J. Normand, 
 K. Raghavachari, A. Rendell, J. C. Burant, S. S. Iyengar, J. Tomasi, 
 M. Cossi, N. Rega, J. M. Millam, M. Klene, J. E. Knox, J. B. Cross, 
 V. Bakken, C. Adamo, J. Jaramillo, R. Gomperts, R. E. Stratmann, 
 O. Yazyev, A. J. Austin, R. Cammi, C. Pomelli, J. W. Ochterski, 
 R. L. Martin, K. Morokuma, V. G. Zakrzewski, G. A. Voth, 
 P. Salvador, J. J. Dannenberg, S. Dapprich, A. D. Daniels, 
 O. Farkas, J. B. Foresman, J. V. Ortiz, J. Cioslowski, 
 and D. J. Fox, Gaussian, Inc., Wallingford CT, 2013.
 
 ******************************************
 Gaussian 09:  AM64L-G09RevD.01 24-Apr-2013
                 8-Aug-2020 
 ******************************************
 %nproc=1
 Will use up to    1 processors via shared memory.
 %Chk=SM36.n.1.pdb.xyz.mst.n.w.chk
 -----------------
 #p b3lyp/6-31G(d)
 -----------------
 1/38=1/1;
 2/12=2,17=6,18=5,40=1/2;
 3/5=1,6=6,7=1,11=2,16=1,25=1,30=1,74=-5/1,2,3;
 4//1;
 5/5=2,38=5/2;
 6/7=2,8=2,9=2,10=2,28=1/1;
 99/5=1,9=1/99;
 Leave Link    1 at Sat Aug  8 02:20:24 2020, MaxMem=           0 cpu:         0.0
 (Enter /prod/apps/gaussian/g09d1/l101.exe)
 ----------------
 SM36.n.1.pdb.xyz
 ----------------
 Symbolic Z-matrix:
 Charge =  0 Multiplicity = 1
 O                     3.452     0.617     1.186 
 S                     3.343    -0.753     0.657 
 N                     3.249    -0.565    -1.002 
 C                     2.576    -1.508    -1.906 
 C                     1.077    -1.823    -1.644 
 S                     1.31     -3.622    -2.083 
 O                     1.093    -3.819    -3.581 
 C                     3.04     -2.979    -1.776 
 C                     2.73     -0.996    -3.352 
 C                     4.164    -0.826    -3.885 
 C                     4.873     0.467    -3.529 
 C                     6.192     0.445    -3.058 
 C                     6.878     1.628    -2.774 
 C                     6.25      2.862    -2.957 
 C                     4.937     2.899    -3.431 
 C                     4.258     1.714    -3.716 
 C                     4.892    -1.602     0.939 
 C                     6.074    -1.071     0.414 
 C                     7.28     -1.706     0.701 
 C                     7.298    -2.85      1.507 
 C                     6.11     -3.364     2.029 
 C                     4.894    -2.738     1.749 
 O                     2.273    -1.631     1.165 
 H                     3.077     0.418    -1.215 
 H                     0.343    -1.32     -2.276 
 H                     0.801    -1.767    -0.592 
 H                     3.776    -3.342    -2.495 
 H                     3.322    -3.271    -0.765 
 H                     2.177    -0.054    -3.445 
 H                     2.202    -1.724    -3.975 
 H                     4.106    -0.894    -4.978 
 H                     4.783    -1.672    -3.567 
 H                     6.684    -0.513    -2.914 
 H                     7.899     1.585    -2.409 
 H                     6.779     3.784    -2.735 
 H                     4.441     3.853    -3.582 
 H                     3.24      1.76     -4.092 
 H                     6.051    -0.19     -0.215 
 H                     8.204    -1.309     0.296 
 H                     8.241    -3.34      1.725 
 H                     6.125    -4.251     2.654 
 H                     3.959    -3.117     2.143 
 
 NAtoms=     42 NQM=       42 NQMF=       0 NMMI=      0 NMMIF=      0
                NMic=       0 NMicF=      0.
                    Isotopes and Nuclear Properties:
 (Nuclear quadrupole moments (NQMom) in fm**2, nuclear magnetic moments (NMagM)
  in nuclear magnetons)

  Atom         1           2           3           4           5           6           7           8           9          10
 IAtWgt=          16          32          14          12          12          32          16          12          12          12
 AtmWgt=  15.9949146  31.9720718  14.0030740  12.0000000  12.0000000  31.9720718  15.9949146  12.0000000  12.0000000  12.0000000
 NucSpn=           0           0           2           0           0           0           0           0           0           0
 AtZEff=   0.0000000   0.0000000   0.0000000   0.0000000   0.0000000   0.0000000   0.0000000   0.0000000   0.0000000   0.0000000
 NQMom=    0.0000000   0.0000000   2.0440000   0.0000000   0.0000000   0.0000000   0.0000000   0.0000000   0.0000000   0.0000000
 NMagM=    0.0000000   0.0000000   0.4037610   0.0000000   0.0000000   0.0000000   0.0000000   0.0000000   0.0000000   0.0000000
 AtZNuc=   8.0000000  16.0000000   7.0000000   6.0000000   6.0000000  16.0000000   8.0000000   6.0000000   6.0000000   6.0000000

  Atom        11          12          13          14          15          16          17          18          19          20
 IAtWgt=          12          12          12          12          12          12          12          12          12          12
 AtmWgt=  12.0000000  12.0000000  12.0000000  12.0000000  12.0000000  12.0000000  12.0000000  12.0000000  12.0000000  12.0000000
 NucSpn=           0           0           0           0           0           0           0           0           0           0
 AtZEff=   0.0000000   0.0000000   0.0000000   0.0000000   0.0000000   0.0000000   0.0000000   0.0000000   0.0000000   0.0000000
 NQMom=    0.0000000   0.0000000   0.0000000   0.0000000   0.0000000   0.0000000   0.0000000   0.0000000   0.0000000   0.0000000
 NMagM=    0.0000000   0.0000000   0.0000000   0.0000000   0.0000000   0.0000000   0.0000000   0.0000000   0.0000000   0.0000000
 AtZNuc=   6.0000000   6.0000000   6.0000000   6.0000000   6.0000000   6.0000000   6.0000000   6.0000000   6.0000000   6.0000000

  Atom        21          22          23          24          25          26          27          28          29          30
 IAtWgt=          12          12          16           1           1           1           1           1           1           1
 AtmWgt=  12.0000000  12.0000000  15.9949146   1.0078250   1.0078250   1.0078250   1.0078250   1.0078250   1.0078250   1.0078250
 NucSpn=           0           0           0           1           1           1           1           1           1           1
 AtZEff=   0.0000000   0.0000000   0.0000000   0.0000000   0.0000000   0.0000000   0.0000000   0.0000000   0.0000000   0.0000000
 NQMom=    0.0000000   0.0000000   0.0000000   0.0000000   0.0000000   0.0000000   0.0000000   0.0000000   0.0000000   0.0000000
 NMagM=    0.0000000   0.0000000   0.0000000   2.7928460   2.7928460   2.7928460   2.7928460   2.7928460   2.7928460   2.7928460
 AtZNuc=   6.0000000   6.0000000   8.0000000   1.0000000   1.0000000   1.0000000   1.0000000   1.0000000   1.0000000   1.0000000

  Atom        31          32          33          34          35          36          37          38          39          40
 IAtWgt=           1           1           1           1           1           1           1           1           1           1
 AtmWgt=   1.0078250   1.0078250   1.0078250   1.0078250   1.0078250   1.0078250   1.0078250   1.0078250   1.0078250   1.0078250
 NucSpn=           1           1           1           1           1           1           1           1           1           1
 AtZEff=   0.0000000   0.0000000   0.0000000   0.0000000   0.0000000   0.0000000   0.0000000   0.0000000   0.0000000   0.0000000
 NQMom=    0.0000000   0.0000000   0.0000000   0.0000000   0.0000000   0.0000000   0.0000000   0.0000000   0.0000000   0.0000000
 NMagM=    2.7928460   2.7928460   2.7928460   2.7928460   2.7928460   2.7928460   2.7928460   2.7928460   2.7928460   2.7928460
 AtZNuc=   1.0000000   1.0000000   1.0000000   1.0000000   1.0000000   1.0000000   1.0000000   1.0000000   1.0000000   1.0000000

  Atom        41          42
 IAtWgt=           1           1
 AtmWgt=   1.0078250   1.0078250
 NucSpn=           1           1
 AtZEff=   0.0000000   0.0000000
 NQMom=    0.0000000   0.0000000
 NMagM=    2.7928460   2.7928460
 AtZNuc=   1.0000000   1.0000000
 Leave Link  101 at Sat Aug  8 02:20:24 2020, MaxMem=    33554432 cpu:         0.1
 (Enter /prod/apps/gaussian/g09d1/l202.exe)
                          Input orientation:                          
 ---------------------------------------------------------------------
 Center     Atomic      Atomic             Coordinates (Angstroms)
 Number     Number       Type             X           Y           Z
 ---------------------------------------------------------------------
      1          8           0        3.452000    0.617000    1.186000
      2         16           0        3.343000   -0.753000    0.657000
      3          7           0        3.249000   -0.565000   -1.002000
      4          6           0        2.576000   -1.508000   -1.906000
      5          6           0        1.077000   -1.823000   -1.644000
      6         16           0        1.310000   -3.622000   -2.083000
      7          8           0        1.093000   -3.819000   -3.581000
      8          6           0        3.040000   -2.979000   -1.776000
      9          6           0        2.730000   -0.996000   -3.352000
     10          6           0        4.164000   -0.826000   -3.885000
     11          6           0        4.873000    0.467000   -3.529000
     12          6           0        6.192000    0.445000   -3.058000
     13          6           0        6.878000    1.628000   -2.774000
     14          6           0        6.250000    2.862000   -2.957000
     15          6           0        4.937000    2.899000   -3.431000
     16          6           0        4.258000    1.714000   -3.716000
     17          6           0        4.892000   -1.602000    0.939000
     18          6           0        6.074000   -1.071000    0.414000
     19          6           0        7.280000   -1.706000    0.701000
     20          6           0        7.298000   -2.850000    1.507000
     21          6           0        6.110000   -3.364000    2.029000
     22          6           0        4.894000   -2.738000    1.749000
     23          8           0        2.273000   -1.631000    1.165000
     24          1           0        3.077000    0.418000   -1.215000
     25          1           0        0.343000   -1.320000   -2.276000
     26          1           0        0.801000   -1.767000   -0.592000
     27          1           0        3.776000   -3.342000   -2.495000
     28          1           0        3.322000   -3.271000   -0.765000
     29          1           0        2.177000   -0.054000   -3.445000
     30          1           0        2.202000   -1.724000   -3.975000
     31          1           0        4.106000   -0.894000   -4.978000
     32          1           0        4.783000   -1.672000   -3.567000
     33          1           0        6.684000   -0.513000   -2.914000
     34          1           0        7.899000    1.585000   -2.409000
     35          1           0        6.779000    3.784000   -2.735000
     36          1           0        4.441000    3.853000   -3.582000
     37          1           0        3.240000    1.760000   -4.092000
     38          1           0        6.051000   -0.190000   -0.215000
     39          1           0        8.204000   -1.309000    0.296000
     40          1           0        8.241000   -3.340000    1.725000
     41          1           0        6.125000   -4.251000    2.654000
     42          1           0        3.959000   -3.117000    2.143000
 ---------------------------------------------------------------------
                    Distance matrix (angstroms):
                    1          2          3          4          5
     1  O    0.000000
     2  S    1.472624   0.000000
     3  N    2.495131   1.672262   0.000000
     4  C    3.852722   2.779799   1.469488   0.000000
     5  C    4.427542   3.402096   2.590813   1.553985   0.000000
     6  S    5.765730   4.457785   3.778033   2.470441   1.866390
     7  O    6.925840   5.694164   4.678471   3.216463   2.781410
     8  C    4.677008   3.311552   2.543650   1.547914   2.281913
     9  C    4.869959   4.062868   2.444918   1.541680   2.516665
    10  C    5.320172   4.616182   3.035957   2.627415   3.942798
    11  C    4.926760   4.620811   3.176182   3.436708   4.817358
    12  C    5.054574   4.832518   3.729408   4.268111   5.771174
    13  C    5.333029   5.471485   4.595528   5.393990   6.843822
    14  C    5.480263   5.880465   4.957051   5.805151   7.101628
    15  C    5.359985   5.708738   4.555072   5.227006   6.355333
    16  C    5.087499   5.103572   3.684796   4.060358   5.188672
    17  C    2.656797   1.788778   2.746325   3.669703   4.612478
    18  C    3.212509   2.760169   3.200268   4.220115   5.456270
    19  C    4.503903   4.050940   4.522284   5.381753   6.632490
    20  C    5.187952   4.556527   5.283058   5.978864   7.048714
    21  C    4.860450   4.044254   5.020626   5.605187   6.418465
    22  C    3.694910   2.745595   3.872461   4.499450   5.188368
    23  O    2.538501   1.474398   2.604769   3.088362   3.059046
    24  H    2.438243   2.224046   1.020413   2.106646   3.034159
    25  H    5.040168   4.233672   3.261585   2.271240   1.091416
    26  H    3.984036   3.008315   2.757827   2.223579   1.089044
    27  H    5.415572   4.101892   3.196640   2.269466   3.211878
    28  H    4.351993   2.891859   2.717340   2.228579   2.812360
    29  H    4.849951   4.321407   2.716349   2.154493   2.753718
    30  H    5.803335   4.868280   3.358306   2.113597   2.590171
    31  H    6.380104   5.688170   4.080596   3.486414   4.599287
    32  H    5.440780   4.556351   3.187135   2.767068   4.177938
    33  H    5.341603   4.896113   3.931625   4.345314   5.896393
    34  H    5.799729   5.968562   5.312688   6.176891   7.664162
    35  H    6.039293   6.625415   5.863275   6.808650   8.071031
    36  H    5.846678   6.355310   5.253188   5.918405   6.876723
    37  H    5.404505   5.373898   3.867015   3.987395   4.848625
    38  H    3.060858   2.900106   2.934484   4.083164   5.426731
    39  H    5.204141   4.905994   5.175941   6.046717   7.404183
    40  H    6.235615   5.641241   6.329077   6.973708   8.060667
    41  H    5.744334   4.895257   5.935007   6.396331   7.060474
    42  H    3.887886   2.859396   4.111913   4.571211   4.931706
                    6          7          8          9         10
     6  S    0.000000
     7  O    1.526402   0.000000
     8  C    1.870989   2.784678   0.000000
     9  C    3.243861   3.271321   2.551894   0.000000
    10  C    4.382937   4.299012   3.216623   1.539268   0.000000
    11  C    5.613003   5.714972   4.278763   2.600797   1.516992
    12  C    6.428455   6.667460   4.827256   3.761431   2.532223
    13  C    7.683919   7.986694   6.078708   4.942202   3.823903
    14  C    8.198154   8.462847   6.768762   5.237422   4.337502
    15  C    7.582590   7.741470   6.394413   4.477512   3.831354
    16  C    6.311124   6.375699   5.222200   3.132312   2.547351
    17  C    5.103294   6.306972   3.563321   4.842950   4.939953
    18  C    5.953008   6.951395   4.200205   5.036935   4.710576
    19  C    6.860220   7.815322   5.072835   6.134607   5.613845
    20  C    7.024260   8.082619   5.378224   6.921981   6.556843
    21  C    6.325750   7.539855   4.904197   6.781370   6.723374
    22  C    5.320783   6.635138   3.990116   5.808413   5.994214
    23  O    3.929498   5.357636   3.324887   4.584252   5.452193
    24  H    4.494142   5.242746   3.443211   2.585841   3.139746
    25  H    2.504305   2.917281   3.205634   2.638280   4.175279
    26  H    2.433760   3.637319   2.807832   3.454429   4.799906
    27  H    2.515810   2.933499   1.091066   2.707818   2.900500
    28  H    2.430734   3.632988   1.089454   3.495520   4.052331
    29  H    3.916294   3.920303   3.476486   1.096276   2.176638
    30  H    2.824488   2.402944   2.666996   1.094028   2.159618
    31  H    4.862163   4.425540   3.966911   2.132523   1.096648
    32  H    4.250469   4.269181   2.820280   2.172098   1.095446
    33  H    6.263890   6.529457   4.544770   4.007399   2.718678
    34  H    8.404406   8.769175   6.696317   5.854005   4.684199
    35  H    9.229513   9.531627   7.787039   6.294719   5.423359
    36  H    8.241710   8.370704   7.204211   5.147157   4.696976
    37  H    6.060273   5.999664   5.278445   2.898834   2.753910
    38  H    6.143706   7.005809   4.391055   4.638906   4.175424
    39  H    7.650938   8.479242   5.809387   6.585632   5.834008
    40  H    7.913226   8.914986   6.279946   7.851203   7.376600
    41  H    6.783733   8.023894   5.546180   7.628439   7.637713
    42  H    5.013113   6.439793   4.027675   6.016985   6.451937
                   11         12         13         14         15
    11  C    0.000000
    12  C    1.400745   0.000000
    13  C    2.436795   1.396689   0.000000
    14  C    2.821230   2.419805   1.396649   0.000000
    15  C    2.434815   2.781415   2.411342   1.396429   0.000000
    16  C    1.402927   2.404928   2.785527   2.421167   1.395167
    17  C    4.923834   4.675063   5.306926   6.078674   6.273590
    18  C    4.399442   3.790378   4.253747   5.182963   5.642490
    19  C    5.329960   4.465493   4.832472   5.942095   6.615822
    20  C    6.499570   5.737551   6.209335   7.324790   7.937831
    21  C    6.862805   6.355531   6.969842   7.977648   8.391227
    22  C    6.174929   5.909614   6.592097   7.439434   7.655718
    23  O    5.761531   6.123893   6.880612   7.279730   6.981476
    24  H    2.929610   3.619476   4.282777   4.367566   3.811249
    25  H    5.028347   6.159347   7.186441   7.269493   6.343408
    26  H    5.495262   6.327478   7.295004   7.530768   6.851129
    27  H    4.096468   4.527184   5.865249   6.695053   6.416705
    28  H    4.900810   5.225266   6.378199   7.140850   6.912646
    29  H    2.747165   4.064357   5.037734   5.032944   4.042030
    30  H    3.483337   4.633093   5.877353   6.201131   5.398916
    31  H    2.130777   3.135397   4.347653   4.773753   4.179787
    32  H    2.141230   2.593463   3.988468   4.804305   4.575615
    33  H    2.149034   1.086538   2.154325   3.403062   3.867951
    34  H    3.414821   2.152824   1.085134   2.156440   3.397723
    35  H    3.907142   3.405557   2.158624   1.085914   2.158843
    36  H    3.413858   3.867175   3.397419   2.155270   1.085787
    37  H    2.157662   3.393035   3.871639   3.400401   2.148034
    38  H    3.577978   2.916463   3.246157   4.107660   4.596256
    39  H    5.374045   4.286488   4.450747   5.638915   6.501621
    40  H    7.310348   6.434416   6.839576   8.021846   8.742189
    41  H    7.877596   7.394853   8.036967   9.060558   9.463671
    42  H    6.771413   6.687640   7.430510   8.185788   8.259432
                   16         17         18         19         20
    16  C    0.000000
    17  C    5.750377   0.000000
    18  C    5.301979   1.398109   0.000000
    19  C    6.351281   2.402083   1.392850   0.000000
    20  C    7.573072   2.769289   2.420262   1.399534   0.000000
    21  C    7.888030   2.403387   2.804883   2.425170   1.395716
    22  C    7.077501   1.395206   2.439982   2.802913   2.418744
    23  O    6.241267   2.628893   3.914742   5.029013   5.182041
    24  H    3.054403   3.466171   3.721931   5.084058   5.992157
    25  H    5.158099   5.577558   6.335808   7.558670   8.063747
    26  H    5.816149   4.371209   5.413038   6.607043   6.913009
    27  H    5.223629   4.008168   4.347474   5.016864   5.353742
    28  H    5.868111   2.855534   3.715312   4.501571   4.598674
    29  H    2.744053   5.383956   5.577883   6.779309   7.652749
    30  H    4.014232   5.603426   5.889152   6.902998   7.568977
    31  H    2.901278   6.010819   5.742649   6.556269   7.487992
    32  H    3.429697   4.507862   4.228031   4.944895   5.784322
    33  H    3.389426   4.386661   3.429147   3.853140   5.038234
    34  H    3.870629   5.514356   4.284191   4.570114   5.946888
    35  H    3.406274   6.787344   5.829601   6.495937   7.891380
    36  H    2.150992   7.099286   6.548319   7.570105   8.887664
    37  H    1.086193   6.272409   6.029109   7.162933   8.310732
    38  H    4.370019   2.160727   1.082742   2.155865   3.405274
    39  H    6.387925   3.386538   2.146501   1.084163   2.159175
    40  H    8.426843   3.854120   3.400437   2.154542   1.084838
    41  H    8.924338   3.388025   3.890064   3.409583   2.157392
    42  H    7.599727   2.148332   3.413031   3.885785   3.409502
                   21         22         23         24         25
    21  C    0.000000
    22  C    1.396042   0.000000
    23  O    4.297948   2.904504   0.000000
    24  H    5.833194   4.695436   3.241792   0.000000
    25  H    7.481260   6.238826   3.957537   3.408977   0.000000
    26  H    6.132335   4.814122   2.296155   3.215980   1.801507
    27  H    5.090640   4.430155   4.310699   4.032939   3.990230
    28  H    3.948168   3.012552   2.741332   3.724412   3.868328
    29  H    7.509279   6.446982   4.873217   2.450650   2.516520
    30  H    7.349155   6.406187   5.141332   3.601581   2.550627
    31  H    7.695126   7.019531   6.452868   4.115866   4.652145
    32  H    5.994915   5.422963   5.356641   3.579168   4.637261
    33  H    5.735061   5.467933   6.111063   4.094363   6.423906
    34  H    6.883964   6.708749   7.400541   5.102863   8.096286
    35  H    8.616099   8.136090   8.052097   5.229260   8.227004
    36  H    9.292684   8.489173   7.570237   4.388896   6.727494
    37  H    8.482860   7.555462   6.330088   3.178783   4.601833
    38  H    3.887582   3.418808   4.272489   3.195988   6.172996
    39  H    3.407514   3.887075   6.002966   5.617097   8.271072
    40  H    2.152708   3.400792   6.233082   7.030865   9.081124
    41  H    1.085182   2.150245   4.890749   6.786680   8.144150
    42  H    2.168134   1.083098   2.450975   4.954827   5.986003
                   26         27         28         29         30
    26  H    0.000000
    27  H    3.866867   0.000000
    28  H    2.940644   1.789988   0.000000
    29  H    3.601021   3.777598   4.340796   0.000000
    30  H    3.661876   2.699222   3.735199   1.752263   0.000000
    31  H    5.560769   3.502412   4.900424   2.603215   2.306540
    32  H    4.971516   2.225339   3.541543   3.069861   2.613566
    33  H    6.447782   4.078635   4.850547   4.561326   4.762412
    34  H    8.057233   6.425096   6.872583   6.041598   6.771827
    35  H    8.434603   7.736633   8.099677   6.034298   7.268053
    36  H    7.333083   7.306971   7.742030   4.517645   6.022499
    37  H    5.535201   5.372905   6.032132   2.199812   3.637223
    38  H    5.494685   4.506565   4.152409   5.045718   5.595137
    39  H    7.470122   5.615154   5.367410   7.203807   7.378189
    40  H    7.949617   6.143666   5.513748   8.619675   8.459963
    41  H    6.712060   5.732040   4.528440   8.390430   8.106744
    42  H    4.390409   4.647059   2.980931   6.616890   6.515936
                   31         32         33         34         35
    31  H    0.000000
    32  H    1.747723   0.000000
    33  H    3.324356   2.320235   0.000000
    34  H    5.208844   4.653866   2.476460   0.000000
    35  H    5.836066   5.868916   4.301776   2.489232   0.000000
    36  H    4.959340   5.535595   4.953709   4.298548   2.487652
    37  H    2.928936   3.799355   4.291311   4.956752   4.296806
    38  H    5.192765   3.878151   2.790989   3.373331   4.761624
    39  H    6.691854   5.172792   3.639796   3.973070   6.095591
    40  H    8.246899   6.537985   5.651239   6.439142   8.531144
    41  H    8.578650   6.866808   6.729617   7.927165   9.696920
    42  H    7.461366   5.947361   6.307114   7.638921   8.909045
                   36         37         38         39         40
    36  H    0.000000
    37  H    2.466404   0.000000
    38  H    5.502239   5.170624   0.000000
    39  H    7.472971   7.301685   2.479655   0.000000
    40  H    9.713058   9.211813   4.299093   2.483621   0.000000
    41  H   10.363318   9.484928   4.972762   4.305551   2.484033
    42  H    9.032655   7.948416   4.301623   4.969939   4.308129
                   41         42
    41  H    0.000000
    42  H    2.497726   0.000000
 Stoichiometry    C17H19NO3S2
 Framework group  C1[X(C17H19NO3S2)]
 Deg. of freedom   120
 Full point group                 C1      NOp   1
 Largest Abelian subgroup         C1      NOp   1
 Largest concise Abelian subgroup C1      NOp   1
                         Standard orientation:                         
 ---------------------------------------------------------------------
 Center     Atomic      Atomic             Coordinates (Angstroms)
 Number     Number       Type             X           Y           Z
 ---------------------------------------------------------------------
      1          8           0        0.023198    1.396223    2.624808
      2         16           0        0.889349    0.925522    1.530804
      3          7           0        0.068044   -0.368017    0.860971
      4          6           0        0.715008   -1.493457    0.172338
      5          6           0        1.786376   -2.304835    0.952535
      6         16           0        2.855236   -2.481108   -0.567293
      7          8           0        2.456460   -3.739017   -1.334461
      8          6           0        1.671244   -1.091416   -0.976581
      9          6           0       -0.379135   -2.461509   -0.320108
     10          6           0       -1.426949   -1.895353   -1.295247
     11          6           0       -2.596784   -1.151195   -0.679632
     12          6           0       -3.005696    0.082299   -1.202479
     13          6           0       -4.112036    0.757202   -0.681654
     14          6           0       -4.832223    0.205037    0.379983
     15          6           0       -4.438925   -1.026607    0.907604
     16          6           0       -3.334844   -1.697568    0.381003
     17          6           0        0.918590    2.169852    0.246081
     18          6           0       -0.280435    2.574380   -0.348400
     19          6           0       -0.248105    3.593324   -1.297472
     20          6           0        0.966732    4.199347   -1.637479
     21          6           0        2.154358    3.788634   -1.030121
     22          6           0        2.136723    2.768150   -0.077633
     23          8           0        2.291955    0.582163    1.828544
     24          1           0       -0.691969   -0.637751    1.486164
     25          1           0        1.478572   -3.263964    1.372675
     26          1           0        2.334125   -1.708865    1.681100
     27          1           0        1.282634   -1.133079   -1.995243
     28          1           0        2.199539   -0.153173   -0.810706
     29          1           0       -0.873349   -2.897690    0.555861
     30          1           0        0.156998   -3.280429   -0.808808
     31          1           0       -1.823650   -2.745649   -1.862929
     32          1           0       -0.939452   -1.247599   -2.031972
     33          1           0       -2.447880    0.515387   -2.028215
     34          1           0       -4.408583    1.712225   -1.102969
     35          1           0       -5.691487    0.727739    0.789443
     36          1           0       -4.994828   -1.467586    1.729457
     37          1           0       -3.046813   -2.658732    0.796956
     38          1           0       -1.215230    2.095398   -0.085598
     39          1           0       -1.169260    3.913499   -1.771150
     40          1           0        0.984245    4.991349   -2.378626
     41          1           0        3.095811    4.259264   -1.294303
     42          1           0        3.044623    2.432504    0.408332
 ---------------------------------------------------------------------
 Rotational constants (GHZ):      0.2350212      0.2137900      0.1422593
 Leave Link  202 at Sat Aug  8 02:20:24 2020, MaxMem=    33554432 cpu:         0.0
 (Enter /prod/apps/gaussian/g09d1/l301.exe)
 Standard basis: 6-31G(d) (6D, 7F)
 Ernie: Thresh=  0.10000D-02 Tol=  0.10000D-05 Strict=F.
 There are   391 symmetry adapted cartesian basis functions of A   symmetry.
 There are   391 symmetry adapted basis functions of A   symmetry.
   391 basis functions,   768 primitive gaussians,   391 cartesian basis functions
    92 alpha electrons       92 beta electrons
       nuclear repulsion energy      2340.7810031833 Hartrees.
 IExCor=  402 DFT=T Ex+Corr=B3LYP ExCW=0 ScaHFX=  0.200000
 ScaDFX=  0.800000  0.720000  1.000000  0.810000 ScalE2=  1.000000  1.000000
 IRadAn=      0 IRanWt=     -1 IRanGd=            0 ICorTp=0 IEmpDi=  4
 NAtoms=   42 NActive=   42 NUniq=   42 SFac= 1.00D+00 NAtFMM=   60 NAOKFM=F Big=F
 Integral buffers will be    131072 words long.
 Raffenetti 2 integral format.
 Two-electron integral symmetry is turned on.
 Leave Link  301 at Sat Aug  8 02:20:24 2020, MaxMem=    33554432 cpu:         0.0
 (Enter /prod/apps/gaussian/g09d1/l302.exe)
 NPDir=0 NMtPBC=     1 NCelOv=     1 NCel=       1 NClECP=     1 NCelD=      1
         NCelK=      1 NCelE2=     1 NClLst=     1 CellRange=     0.0.
 One-electron integrals computed using PRISM.
 NBasis=   391 RedAO= T EigKep=  4.67D-04  NBF=   391
 NBsUse=   391 1.00D-06 EigRej= -1.00D+00 NBFU=   391
 Precomputing XC quadrature grid using
 IXCGrd= 4 IRadAn=           0 IRanWt=          -1 IRanGd=           0 AccXCQ= 0.00D+00.
 Generated NRdTot=       0 NPtTot=           0 NUsed=           0 NTot=          32
 NSgBfM=   387   387   387   387   387 MxSgAt=    42 MxSgA2=    42.
 Leave Link  302 at Sat Aug  8 02:20:25 2020, MaxMem=    33554432 cpu:         1.5
 (Enter /prod/apps/gaussian/g09d1/l303.exe)
 DipDrv:  MaxL=1.
 Leave Link  303 at Sat Aug  8 02:20:25 2020, MaxMem=    33554432 cpu:         0.0
 (Enter /prod/apps/gaussian/g09d1/l401.exe)
 ExpMin= 1.17D-01 ExpMax= 2.19D+04 ExpMxC= 3.30D+03 IAcc=1 IRadAn=         1 AccDes= 0.00D+00
 Harris functional with IExCor=  402 and IRadAn=       1 diagonalized for initial guess.
 HarFok:  IExCor=  402 AccDes= 0.00D+00 IRadAn=         1 IDoV= 1 UseB2=F ITyADJ=14
 ICtDFT=  3500011 ScaDFX=  1.000000  1.000000  1.000000  1.000000
 FoFCou: FMM=F IPFlag=           0 FMFlag=      100000 FMFlg1=           0
         NFxFlg=           0 DoJE=T BraDBF=F KetDBF=T FulRan=T
         wScrn=  0.000000 ICntrl=     500 IOpCl=  0 I1Cent=   200000004 NGrid=           0
         NMat0=    1 NMatS0=      1 NMatT0=    0 NMatD0=    1 NMtDS0=    0 NMtDT0=    0
 Petite list used in FoFCou.
 Harris En= -1735.99399059437    
 JPrj=0 DoOrth=F DoCkMO=F.
 Leave Link  401 at Sat Aug  8 02:20:31 2020, MaxMem=    33554432 cpu:         5.9
 (Enter /prod/apps/gaussian/g09d1/l502.exe)
 Closed shell SCF:
 Using DIIS extrapolation, IDIIS=  1040.
 Integral symmetry usage will be decided dynamically.
 IVT=      482492 IEndB=      482492 NGot=    33554432 MDV=    33241853
 LenX=    33241853 LenY=    33088531
 Requested convergence on RMS density matrix=1.00D-08 within 128 cycles.
 Requested convergence on MAX density matrix=1.00D-06.
 Requested convergence on             energy=1.00D-06.
 No special actions if energy rises.
 Fock matrices will be formed incrementally for  20 cycles.
 Integral accuracy reduced to 1.0D-05 until final iterations.

 Cycle   1  Pass 0  IDiag  1:
 FoFJK:  IHMeth= 1 ICntrl=       0 DoSepK=F KAlg= 0 I1Cent=   0 FoldK=F
 IRaf= 770000000 NMat=   1 IRICut=       1 DoRegI=T DoRafI=F ISym2E= 0.
 FoFCou: FMM=F IPFlag=           0 FMFlag=      100000 FMFlg1=           0
         NFxFlg=           0 DoJE=F BraDBF=F KetDBF=F FulRan=T
         wScrn=  0.000000 ICntrl=       0 IOpCl=  0 I1Cent=           0 NGrid=           0
         NMat0=    1 NMatS0=      1 NMatT0=    0 NMatD0=    1 NMtDS0=    0 NMtDT0=    0
 Symmetry not used in FoFCou.
 E= -1735.09066086736    
 DIIS: error= 3.12D-02 at cycle   1 NSaved=   1.
 NSaved= 1 IEnMin= 1 EnMin= -1735.09066086736     IErMin= 1 ErrMin= 3.12D-02
 ErrMax= 3.12D-02  0.00D+00 EMaxC= 1.00D-01 BMatC= 9.16D-01 BMatP= 9.16D-01
 IDIUse=3 WtCom= 6.88D-01 WtEn= 3.12D-01
 Coeff-Com:  0.100D+01
 Coeff-En:   0.100D+01
 Coeff:      0.100D+01
 Gap=     0.258 Goal=   None    Shift=    0.000
 GapD=    0.258 DampG=1.000 DampE=0.500 DampFc=0.5000 IDamp=-1.
 Damping current iteration by 5.00D-01
 RMSDP=7.14D-03 MaxDP=5.77D-01              OVMax= 3.39D-01

 Cycle   2  Pass 0  IDiag  1:
 RMSU=  3.57D-03    CP:  9.97D-01
 E= -1735.22409503718     Delta-E=       -0.133434169821 Rises=F Damp=T
 DIIS: error= 2.30D-02 at cycle   2 NSaved=   2.
 NSaved= 2 IEnMin= 2 EnMin= -1735.22409503718     IErMin= 2 ErrMin= 2.30D-02
 ErrMax= 2.30D-02  0.00D+00 EMaxC= 1.00D-01 BMatC= 1.95D-01 BMatP= 9.16D-01
 IDIUse=3 WtCom= 7.70D-01 WtEn= 2.30D-01
 Coeff-Com:  0.268D+00 0.732D+00
 Coeff-En:   0.422D+00 0.578D+00
 Coeff:      0.303D+00 0.697D+00
 Gap=     0.284 Goal=   None    Shift=    0.000
 RMSDP=2.63D-03 MaxDP=1.42D-01 DE=-1.33D-01 OVMax= 2.18D-01

 Cycle   3  Pass 0  IDiag  1:
 RMSU=  2.00D-03    CP:  9.82D-01  5.29D-01
 E= -1735.75907884537     Delta-E=       -0.534983808187 Rises=F Damp=F
 DIIS: error= 2.14D-02 at cycle   3 NSaved=   3.
 NSaved= 3 IEnMin= 3 EnMin= -1735.75907884537     IErMin= 3 ErrMin= 2.14D-02
 ErrMax= 2.14D-02  0.00D+00 EMaxC= 1.00D-01 BMatC= 1.61D-01 BMatP= 1.95D-01
 IDIUse=3 WtCom= 7.86D-01 WtEn= 2.14D-01
 Coeff-Com:  0.123D+00 0.463D+00 0.415D+00
 Coeff-En:   0.000D+00 0.000D+00 0.100D+01
 Coeff:      0.963D-01 0.364D+00 0.540D+00
 Gap=     0.208 Goal=   None    Shift=    0.000
 RMSDP=2.01D-03 MaxDP=9.21D-02 DE=-5.35D-01 OVMax= 1.99D-01

 Cycle   4  Pass 0  IDiag  1:
 RMSU=  1.05D-03    CP:  9.92D-01  7.20D-01  2.18D-01
 E= -1735.85251576119     Delta-E=       -0.093436915822 Rises=F Damp=F
 DIIS: error= 1.51D-02 at cycle   4 NSaved=   4.
 NSaved= 4 IEnMin= 4 EnMin= -1735.85251576119     IErMin= 4 ErrMin= 1.51D-02
 ErrMax= 1.51D-02  0.00D+00 EMaxC= 1.00D-01 BMatC= 6.80D-02 BMatP= 1.61D-01
 IDIUse=3 WtCom= 8.49D-01 WtEn= 1.51D-01
 Coeff-Com:  0.332D-01 0.964D-01 0.378D+00 0.493D+00
 Coeff-En:   0.000D+00 0.000D+00 0.328D+00 0.672D+00
 Coeff:      0.282D-01 0.818D-01 0.370D+00 0.520D+00
 Gap=     0.188 Goal=   None    Shift=    0.000
 RMSDP=9.57D-04 MaxDP=5.29D-02 DE=-9.34D-02 OVMax= 9.33D-02

 Cycle   5  Pass 0  IDiag  1:
 RMSU=  3.28D-04    CP:  9.89D-01  6.22D-01  5.43D-01  5.11D-01
 E= -1735.91048797185     Delta-E=       -0.057972210662 Rises=F Damp=F
 DIIS: error= 3.16D-03 at cycle   5 NSaved=   5.
 NSaved= 5 IEnMin= 5 EnMin= -1735.91048797185     IErMin= 5 ErrMin= 3.16D-03
 ErrMax= 3.16D-03  0.00D+00 EMaxC= 1.00D-01 BMatC= 4.04D-03 BMatP= 6.80D-02
 IDIUse=3 WtCom= 9.68D-01 WtEn= 3.16D-02
 Coeff-Com:  0.476D-02 0.497D-02 0.169D+00 0.319D+00 0.503D+00
 Coeff-En:   0.000D+00 0.000D+00 0.000D+00 0.295D-02 0.997D+00
 Coeff:      0.461D-02 0.481D-02 0.163D+00 0.309D+00 0.518D+00
 Gap=     0.182 Goal=   None    Shift=    0.000
 RMSDP=2.39D-04 MaxDP=1.17D-02 DE=-5.80D-02 OVMax= 1.96D-02

 Cycle   6  Pass 0  IDiag  1:
 RMSU=  1.28D-04    CP:  9.89D-01  6.39D-01  5.11D-01  5.90D-01  5.08D-01
 E= -1735.91352669388     Delta-E=       -0.003038722027 Rises=F Damp=F
 DIIS: error= 1.07D-03 at cycle   6 NSaved=   6.
 NSaved= 6 IEnMin= 6 EnMin= -1735.91352669388     IErMin= 6 ErrMin= 1.07D-03
 ErrMax= 1.07D-03  0.00D+00 EMaxC= 1.00D-01 BMatC= 5.93D-04 BMatP= 4.04D-03
 IDIUse=3 WtCom= 9.89D-01 WtEn= 1.07D-02
 Coeff-Com: -0.685D-03-0.600D-02 0.450D-01 0.107D+00 0.324D+00 0.530D+00
 Coeff-En:   0.000D+00 0.000D+00 0.000D+00 0.000D+00 0.118D+00 0.882D+00
 Coeff:     -0.677D-03-0.593D-02 0.445D-01 0.106D+00 0.322D+00 0.534D+00
 Gap=     0.182 Goal=   None    Shift=    0.000
 RMSDP=8.08D-05 MaxDP=4.10D-03 DE=-3.04D-03 OVMax= 4.52D-03

 Cycle   7  Pass 0  IDiag  1:
 RMSU=  4.32D-05    CP:  9.89D-01  6.37D-01  5.16D-01  5.96D-01  6.03D-01
                    CP:  5.38D-01
 E= -1735.91395488958     Delta-E=       -0.000428195704 Rises=F Damp=F
 DIIS: error= 4.16D-04 at cycle   7 NSaved=   7.
 NSaved= 7 IEnMin= 7 EnMin= -1735.91395488958     IErMin= 7 ErrMin= 4.16D-04
 ErrMax= 4.16D-04  0.00D+00 EMaxC= 1.00D-01 BMatC= 6.30D-05 BMatP= 5.93D-04
 IDIUse=3 WtCom= 9.96D-01 WtEn= 4.16D-03
 Coeff-Com: -0.598D-03-0.356D-02 0.711D-02 0.234D-01 0.133D+00 0.321D+00
 Coeff-Com:  0.520D+00
 Coeff-En:   0.000D+00 0.000D+00 0.000D+00 0.000D+00 0.000D+00 0.669D-01
 Coeff-En:   0.933D+00
 Coeff:     -0.596D-03-0.354D-02 0.708D-02 0.233D-01 0.132D+00 0.320D+00
 Coeff:      0.522D+00
 Gap=     0.182 Goal=   None    Shift=    0.000
 RMSDP=2.61D-05 MaxDP=9.78D-04 DE=-4.28D-04 OVMax= 2.34D-03

 Cycle   8  Pass 0  IDiag  1:
 RMSU=  1.21D-05    CP:  9.89D-01  6.36D-01  5.17D-01  5.91D-01  6.09D-01
                    CP:  6.23D-01  5.48D-01
 E= -1735.91401366986     Delta-E=       -0.000058780281 Rises=F Damp=F
 DIIS: error= 1.05D-04 at cycle   8 NSaved=   8.
 NSaved= 8 IEnMin= 8 EnMin= -1735.91401366986     IErMin= 8 ErrMin= 1.05D-04
 ErrMax= 1.05D-04  0.00D+00 EMaxC= 1.00D-01 BMatC= 3.58D-06 BMatP= 6.30D-05
 IDIUse=3 WtCom= 9.99D-01 WtEn= 1.05D-03
 Coeff-Com: -0.159D-03-0.113D-02-0.217D-03 0.229D-02 0.406D-01 0.118D+00
 Coeff-Com:  0.268D+00 0.573D+00
 Coeff-En:   0.000D+00 0.000D+00 0.000D+00 0.000D+00 0.000D+00 0.000D+00
 Coeff-En:   0.000D+00 0.100D+01
 Coeff:     -0.159D-03-0.113D-02-0.217D-03 0.229D-02 0.406D-01 0.118D+00
 Coeff:      0.268D+00 0.573D+00
 Gap=     0.182 Goal=   None    Shift=    0.000
 RMSDP=7.43D-06 MaxDP=2.47D-04 DE=-5.88D-05 OVMax= 7.64D-04

 Initial convergence to 1.0D-05 achieved.  Increase integral accuracy.
 Cycle   9  Pass 1  IDiag  1:
 E= -1735.91412486558     Delta-E=       -0.000111195715 Rises=F Damp=F
 DIIS: error= 6.74D-05 at cycle   1 NSaved=   1.
 NSaved= 1 IEnMin= 1 EnMin= -1735.91412486558     IErMin= 1 ErrMin= 6.74D-05
 ErrMax= 6.74D-05  0.00D+00 EMaxC= 1.00D-01 BMatC= 1.55D-06 BMatP= 1.55D-06
 IDIUse=1 WtCom= 1.00D+00 WtEn= 0.00D+00
 Coeff-Com:  0.100D+01
 Coeff:      0.100D+01
 Gap=     0.182 Goal=   None    Shift=    0.000
 RMSDP=7.43D-06 MaxDP=2.47D-04 DE=-1.11D-04 OVMax= 6.68D-04

 Cycle  10  Pass 1  IDiag  1:
 RMSU=  3.20D-05    CP:  1.00D+00
 E= -1735.91412383679     Delta-E=        0.000001028788 Rises=F Damp=F
 DIIS: error= 8.80D-05 at cycle   2 NSaved=   2.
 NSaved= 2 IEnMin= 1 EnMin= -1735.91412486558     IErMin= 1 ErrMin= 6.74D-05
 ErrMax= 8.80D-05  0.00D+00 EMaxC= 1.00D-01 BMatC= 2.46D-06 BMatP= 1.55D-06
 IDIUse=1 WtCom= 1.00D+00 WtEn= 0.00D+00
 Coeff-Com:  0.571D+00 0.429D+00
 Coeff:      0.571D+00 0.429D+00
 Gap=     0.182 Goal=   None    Shift=    0.000
 RMSDP=5.88D-06 MaxDP=1.75D-04 DE= 1.03D-06 OVMax= 5.91D-04

 Cycle  11  Pass 1  IDiag  1:
 RMSU=  5.78D-06    CP:  1.00D+00  9.67D-01
 E= -1735.91412623557     Delta-E=       -0.000002398781 Rises=F Damp=F
 DIIS: error= 2.84D-05 at cycle   3 NSaved=   3.
 NSaved= 3 IEnMin= 3 EnMin= -1735.91412623557     IErMin= 3 ErrMin= 2.84D-05
 ErrMax= 2.84D-05  0.00D+00 EMaxC= 1.00D-01 BMatC= 2.86D-07 BMatP= 1.55D-06
 IDIUse=1 WtCom= 1.00D+00 WtEn= 0.00D+00
 Coeff-Com:  0.412D-01 0.253D+00 0.706D+00
 Coeff:      0.412D-01 0.253D+00 0.706D+00
 Gap=     0.182 Goal=   None    Shift=    0.000
 RMSDP=1.77D-06 MaxDP=8.20D-05 DE=-2.40D-06 OVMax= 1.36D-04

 Cycle  12  Pass 1  IDiag  1:
 RMSU=  1.01D-06    CP:  1.00D+00  9.83D-01  7.65D-01
 E= -1735.91412649340     Delta-E=       -0.000000257828 Rises=F Damp=F
 DIIS: error= 7.79D-06 at cycle   4 NSaved=   4.
 NSaved= 4 IEnMin= 4 EnMin= -1735.91412649340     IErMin= 4 ErrMin= 7.79D-06
 ErrMax= 7.79D-06  0.00D+00 EMaxC= 1.00D-01 BMatC= 4.74D-08 BMatP= 2.86D-07
 IDIUse=1 WtCom= 1.00D+00 WtEn= 0.00D+00
 Coeff-Com: -0.277D-02 0.143D+00 0.459D+00 0.400D+00
 Coeff:     -0.277D-02 0.143D+00 0.459D+00 0.400D+00
 Gap=     0.182 Goal=   None    Shift=    0.000
 RMSDP=6.27D-07 MaxDP=4.05D-05 DE=-2.58D-07 OVMax= 4.07D-05

 Cycle  13  Pass 1  IDiag  1:
 RMSU=  2.37D-07    CP:  1.00D+00  9.84D-01  7.71D-01  4.29D-01
 E= -1735.91412653219     Delta-E=       -0.000000038787 Rises=F Damp=F
 DIIS: error= 1.32D-06 at cycle   5 NSaved=   5.
 NSaved= 5 IEnMin= 5 EnMin= -1735.91412653219     IErMin= 5 ErrMin= 1.32D-06
 ErrMax= 1.32D-06  0.00D+00 EMaxC= 1.00D-01 BMatC= 1.54D-09 BMatP= 4.74D-08
 IDIUse=1 WtCom= 1.00D+00 WtEn= 0.00D+00
 Coeff-Com: -0.376D-02 0.704D-01 0.230D+00 0.234D+00 0.469D+00
 Coeff:     -0.376D-02 0.704D-01 0.230D+00 0.234D+00 0.469D+00
 Gap=     0.182 Goal=   None    Shift=    0.000
 RMSDP=1.20D-07 MaxDP=8.95D-06 DE=-3.88D-08 OVMax= 7.78D-06

 Cycle  14  Pass 1  IDiag  1:
 RMSU=  7.72D-08    CP:  1.00D+00  9.84D-01  7.71D-01  4.50D-01  6.29D-01
 E= -1735.91412653340     Delta-E=       -0.000000001215 Rises=F Damp=F
 DIIS: error= 3.53D-07 at cycle   6 NSaved=   6.
 NSaved= 6 IEnMin= 6 EnMin= -1735.91412653340     IErMin= 6 ErrMin= 3.53D-07
 ErrMax= 3.53D-07  0.00D+00 EMaxC= 1.00D-01 BMatC= 5.61D-11 BMatP= 1.54D-09
 IDIUse=1 WtCom= 1.00D+00 WtEn= 0.00D+00
 Coeff-Com: -0.162D-02 0.244D-01 0.803D-01 0.867D-01 0.228D+00 0.582D+00
 Coeff:     -0.162D-02 0.244D-01 0.803D-01 0.867D-01 0.228D+00 0.582D+00
 Gap=     0.182 Goal=   None    Shift=    0.000
 RMSDP=2.88D-08 MaxDP=1.39D-06 DE=-1.21D-09 OVMax= 2.26D-06

 Cycle  15  Pass 1  IDiag  1:
 RMSU=  2.52D-08    CP:  1.00D+00  9.84D-01  7.70D-01  4.53D-01  6.51D-01
                    CP:  8.42D-01
 E= -1735.91412653342     Delta-E=       -0.000000000020 Rises=F Damp=F
 DIIS: error= 1.30D-07 at cycle   7 NSaved=   7.
 NSaved= 7 IEnMin= 7 EnMin= -1735.91412653342     IErMin= 7 ErrMin= 1.30D-07
 ErrMax= 1.30D-07  0.00D+00 EMaxC= 1.00D-01 BMatC= 9.16D-12 BMatP= 5.61D-11
 IDIUse=1 WtCom= 1.00D+00 WtEn= 0.00D+00
 Coeff-Com: -0.372D-03 0.390D-02 0.130D-01 0.159D-01 0.617D-01 0.321D+00
 Coeff-Com:  0.585D+00
 Coeff:     -0.372D-03 0.390D-02 0.130D-01 0.159D-01 0.617D-01 0.321D+00
 Coeff:      0.585D+00
 Gap=     0.182 Goal=   None    Shift=    0.000
 RMSDP=1.16D-08 MaxDP=5.16D-07 DE=-2.05D-11 OVMax= 9.55D-07

 Cycle  16  Pass 1  IDiag  1:
 RMSU=  7.37D-09    CP:  1.00D+00  9.84D-01  7.71D-01  4.54D-01  6.62D-01
                    CP:  8.80D-01  6.92D-01
 E= -1735.91412653353     Delta-E=       -0.000000000105 Rises=F Damp=F
 DIIS: error= 4.29D-08 at cycle   8 NSaved=   8.
 NSaved= 8 IEnMin= 8 EnMin= -1735.91412653353     IErMin= 8 ErrMin= 4.29D-08
 ErrMax= 4.29D-08  0.00D+00 EMaxC= 1.00D-01 BMatC= 1.53D-12 BMatP= 9.16D-12
 IDIUse=1 WtCom= 1.00D+00 WtEn= 0.00D+00
 Coeff-Com: -0.230D-04-0.725D-03-0.231D-02-0.141D-02 0.828D-02 0.121D+00
 Coeff-Com:  0.349D+00 0.526D+00
 Coeff:     -0.230D-04-0.725D-03-0.231D-02-0.141D-02 0.828D-02 0.121D+00
 Coeff:      0.349D+00 0.526D+00
 Gap=     0.182 Goal=   None    Shift=    0.000
 RMSDP=4.24D-09 MaxDP=2.49D-07 DE=-1.05D-10 OVMax= 2.78D-07

 SCF Done:  E(RB3LYP) =  -1735.91412653     A.U. after   16 cycles
            NFock= 16  Conv=0.42D-08     -V/T= 2.0068
 KE= 1.724208752251D+03 PE=-8.755683223906D+03 EE= 2.954779341938D+03
 Leave Link  502 at Sat Aug  8 02:28:52 2020, MaxMem=    33554432 cpu:       500.6
 (Enter /prod/apps/gaussian/g09d1/l601.exe)
 Copying SCF densities to generalized density rwf, IOpCl= 0 IROHF=0.

 **********************************************************************

            Population analysis using the SCF density.

 **********************************************************************

 Orbital symmetries:
       Occupied  (A) (A) (A) (A) (A) (A) (A) (A) (A) (A) (A) (A)
                 (A) (A) (A) (A) (A) (A) (A) (A) (A) (A) (A) (A)
                 (A) (A) (A) (A) (A) (A) (A) (A) (A) (A) (A) (A)
                 (A) (A) (A) (A) (A) (A) (A) (A) (A) (A) (A) (A)
                 (A) (A) (A) (A) (A) (A) (A) (A) (A) (A) (A) (A)
                 (A) (A) (A) (A) (A) (A) (A) (A) (A) (A) (A) (A)
                 (A) (A) (A) (A) (A) (A) (A) (A) (A) (A) (A) (A)
                 (A) (A) (A) (A) (A) (A) (A) (A)
       Virtual   (A) (A) (A) (A) (A) (A) (A) (A) (A) (A) (A) (A)
                 (A) (A) (A) (A) (A) (A) (A) (A) (A) (A) (A) (A)
                 (A) (A) (A) (A) (A) (A) (A) (A) (A) (A) (A) (A)
                 (A) (A) (A) (A) (A) (A) (A) (A) (A) (A) (A) (A)
                 (A) (A) (A) (A) (A) (A) (A) (A) (A) (A) (A) (A)
                 (A) (A) (A) (A) (A) (A) (A) (A) (A) (A) (A) (A)
                 (A) (A) (A) (A) (A) (A) (A) (A) (A) (A) (A) (A)
                 (A) (A) (A) (A) (A) (A) (A) (A) (A) (A) (A) (A)
                 (A) (A) (A) (A) (A) (A) (A) (A) (A) (A) (A) (A)
                 (A) (A) (A) (A) (A) (A) (A) (A) (A) (A) (A) (A)
                 (A) (A) (A) (A) (A) (A) (A) (A) (A) (A) (A) (A)
                 (A) (A) (A) (A) (A) (A) (A) (A) (A) (A) (A) (A)
                 (A) (A) (A) (A) (A) (A) (A) (A) (A) (A) (A) (A)
                 (A) (A) (A) (A) (A) (A) (A) (A) (A) (A) (A) (A)
                 (A) (A) (A) (A) (A) (A) (A) (A) (A) (A) (A) (A)
                 (A) (A) (A) (A) (A) (A) (A) (A) (A) (A) (A) (A)
                 (A) (A) (A) (A) (A) (A) (A) (A) (A) (A) (A) (A)
                 (A) (A) (A) (A) (A) (A) (A) (A) (A) (A) (A) (A)
                 (A) (A) (A) (A) (A) (A) (A) (A) (A) (A) (A) (A)
                 (A) (A) (A) (A) (A) (A) (A) (A) (A) (A) (A) (A)
                 (A) (A) (A) (A) (A) (A) (A) (A) (A) (A) (A) (A)
                 (A) (A) (A) (A) (A) (A) (A) (A) (A) (A) (A) (A)
                 (A) (A) (A) (A) (A) (A) (A) (A) (A) (A) (A) (A)
                 (A) (A) (A) (A) (A) (A) (A) (A) (A) (A) (A) (A)
                 (A) (A) (A) (A) (A) (A) (A) (A) (A) (A) (A)
 The electronic state is 1-A.
 Alpha  occ. eigenvalues --  -89.12060 -88.98390 -19.14968 -19.14388 -19.11054
 Alpha  occ. eigenvalues --  -14.37628 -10.26811 -10.23698 -10.22146 -10.22019
 Alpha  occ. eigenvalues --  -10.22003 -10.21781 -10.21611 -10.21573 -10.21265
 Alpha  occ. eigenvalues --  -10.20589 -10.20283 -10.20177 -10.19872 -10.19841
 Alpha  occ. eigenvalues --  -10.19638 -10.19599 -10.19591  -8.14541  -8.03187
 Alpha  occ. eigenvalues --   -6.11059  -6.10958  -6.10837  -5.99590  -5.99424
 Alpha  occ. eigenvalues --   -5.98965  -1.11423  -1.00191  -0.99935  -0.94344
 Alpha  occ. eigenvalues --   -0.88295  -0.86356  -0.84710  -0.79716  -0.78621
 Alpha  occ. eigenvalues --   -0.77246  -0.75177  -0.74402  -0.70641  -0.69428
 Alpha  occ. eigenvalues --   -0.66814  -0.63363  -0.63038  -0.61184  -0.60892
 Alpha  occ. eigenvalues --   -0.58670  -0.57074  -0.55345  -0.52435  -0.52142
 Alpha  occ. eigenvalues --   -0.51844  -0.49224  -0.48781  -0.47726  -0.46690
 Alpha  occ. eigenvalues --   -0.46646  -0.45823  -0.45540  -0.44774  -0.44393
 Alpha  occ. eigenvalues --   -0.44063  -0.43598  -0.42800  -0.41587  -0.40164
 Alpha  occ. eigenvalues --   -0.39346  -0.39083  -0.38843  -0.38589  -0.38124
 Alpha  occ. eigenvalues --   -0.37173  -0.36386  -0.36100  -0.35146  -0.34529
 Alpha  occ. eigenvalues --   -0.34306  -0.33384  -0.32241  -0.31350  -0.30451
 Alpha  occ. eigenvalues --   -0.29266  -0.27686  -0.26792  -0.25854  -0.25764
 Alpha  occ. eigenvalues --   -0.24728  -0.22709
 Alpha virt. eigenvalues --   -0.04528  -0.02664  -0.01176  -0.00769   0.00826
 Alpha virt. eigenvalues --    0.03321   0.05091   0.06170   0.06752   0.07909
 Alpha virt. eigenvalues --    0.08418   0.09262   0.09576   0.10326   0.10901
 Alpha virt. eigenvalues --    0.11640   0.12217   0.13038   0.13537   0.14139
 Alpha virt. eigenvalues --    0.14625   0.14692   0.15368   0.15892   0.16355
 Alpha virt. eigenvalues --    0.17036   0.17563   0.17688   0.18753   0.19312
 Alpha virt. eigenvalues --    0.20208   0.20471   0.21252   0.22800   0.23869
 Alpha virt. eigenvalues --    0.25590   0.25937   0.27430   0.27725   0.28105
 Alpha virt. eigenvalues --    0.29691   0.30009   0.30846   0.32145   0.33387
 Alpha virt. eigenvalues --    0.34049   0.34880   0.35180   0.36225   0.36624
 Alpha virt. eigenvalues --    0.39522   0.42574   0.43434   0.44498   0.46258
 Alpha virt. eigenvalues --    0.48126   0.49095   0.49487   0.50327   0.51354
 Alpha virt. eigenvalues --    0.52702   0.52951   0.53388   0.53682   0.54328
 Alpha virt. eigenvalues --    0.54670   0.55353   0.56647   0.56869   0.57044
 Alpha virt. eigenvalues --    0.57855   0.58436   0.58574   0.58694   0.59153
 Alpha virt. eigenvalues --    0.59697   0.60170   0.60406   0.60725   0.61183
 Alpha virt. eigenvalues --    0.61505   0.62332   0.62614   0.63183   0.63917
 Alpha virt. eigenvalues --    0.65733   0.66519   0.67913   0.69013   0.69586
 Alpha virt. eigenvalues --    0.70639   0.72507   0.74334   0.75130   0.75994
 Alpha virt. eigenvalues --    0.77358   0.78101   0.79249   0.80682   0.81015
 Alpha virt. eigenvalues --    0.81559   0.81610   0.82363   0.82718   0.83528
 Alpha virt. eigenvalues --    0.84076   0.84226   0.84655   0.85216   0.85932
 Alpha virt. eigenvalues --    0.86691   0.87463   0.88000   0.88492   0.89290
 Alpha virt. eigenvalues --    0.90562   0.90887   0.91171   0.92295   0.92870
 Alpha virt. eigenvalues --    0.93271   0.93746   0.94508   0.94911   0.95505
 Alpha virt. eigenvalues --    0.95943   0.97872   0.99263   0.99832   1.01191
 Alpha virt. eigenvalues --    1.01502   1.02355   1.02963   1.04728   1.05575
 Alpha virt. eigenvalues --    1.06464   1.06809   1.08366   1.08773   1.10508
 Alpha virt. eigenvalues --    1.11550   1.12122   1.13185   1.14025   1.14541
 Alpha virt. eigenvalues --    1.15626   1.16437   1.16839   1.18523   1.19090
 Alpha virt. eigenvalues --    1.20562   1.21325   1.21801   1.24660   1.25649
 Alpha virt. eigenvalues --    1.26351   1.28869   1.29791   1.33054   1.34043
 Alpha virt. eigenvalues --    1.35673   1.40514   1.40846   1.41553   1.42590
 Alpha virt. eigenvalues --    1.42896   1.43333   1.44765   1.45291   1.46568
 Alpha virt. eigenvalues --    1.47325   1.48152   1.48696   1.48883   1.50707
 Alpha virt. eigenvalues --    1.51305   1.53504   1.57770   1.60912   1.62843
 Alpha virt. eigenvalues --    1.68742   1.71361   1.72988   1.73742   1.74689
 Alpha virt. eigenvalues --    1.75872   1.77197   1.77579   1.78837   1.79840
 Alpha virt. eigenvalues --    1.81661   1.82173   1.82704   1.84656   1.84968
 Alpha virt. eigenvalues --    1.85393   1.86412   1.87513   1.87827   1.88594
 Alpha virt. eigenvalues --    1.90285   1.91033   1.91329   1.93064   1.93441
 Alpha virt. eigenvalues --    1.93625   1.94913   1.96716   1.98188   1.98556
 Alpha virt. eigenvalues --    1.99389   2.00539   2.02245   2.03308   2.04925
 Alpha virt. eigenvalues --    2.07847   2.08002   2.09021   2.09738   2.10304
 Alpha virt. eigenvalues --    2.11646   2.12174   2.12243   2.12914   2.13542
 Alpha virt. eigenvalues --    2.13918   2.14421   2.14624   2.15964   2.18677
 Alpha virt. eigenvalues --    2.19584   2.20569   2.22846   2.24706   2.26856
 Alpha virt. eigenvalues --    2.27815   2.28405   2.29296   2.29759   2.30203
 Alpha virt. eigenvalues --    2.31001   2.32244   2.33986   2.37275   2.37825
 Alpha virt. eigenvalues --    2.41995   2.47232   2.50246   2.51702   2.56521
 Alpha virt. eigenvalues --    2.57579   2.57952   2.59321   2.62392   2.63666
 Alpha virt. eigenvalues --    2.64770   2.68374   2.69546   2.70316   2.71848
 Alpha virt. eigenvalues --    2.72415   2.73225   2.73330   2.74015   2.74997
 Alpha virt. eigenvalues --    2.76167   2.77015   2.77828   2.79421   2.83802
 Alpha virt. eigenvalues --    2.86862   2.88939   3.01736   3.05565   3.36049
 Alpha virt. eigenvalues --    3.40130   3.75566   3.84429   3.93471   4.00319
 Alpha virt. eigenvalues --    4.00728   4.06510   4.08161   4.09091   4.09964
 Alpha virt. eigenvalues --    4.13746   4.14769   4.15717   4.21548   4.25414
 Alpha virt. eigenvalues --    4.31583   4.32325   4.33845   4.35373   4.41603
 Alpha virt. eigenvalues --    4.52176   4.64280   4.69464   4.73621
          Condensed to atoms (all electrons):
               1          2          3          4          5          6
     1  O    8.220614   0.465111  -0.056260   0.001814  -0.000007  -0.000002
     2  S    0.465111  13.730973   0.102436   0.001329  -0.006931   0.000697
     3  N   -0.056260   0.102436   7.429511   0.220462  -0.054343   0.003451
     4  C    0.001814   0.001329   0.220462   4.815327   0.337599  -0.059401
     5  C   -0.000007  -0.006931  -0.054343   0.337599   5.718739   0.056230
     6  S   -0.000002   0.000697   0.003451  -0.059401   0.056230  14.929520
     7  O    0.000000   0.000009  -0.000052  -0.000778  -0.039463   0.297988
     8  C   -0.000063  -0.004791  -0.041195   0.323616  -0.126948   0.055407
     9  C   -0.000091   0.000488  -0.054218   0.373065  -0.059783   0.004961
    10  C    0.000001  -0.000097  -0.001321  -0.031913   0.004954  -0.000353
    11  C   -0.000007   0.000286   0.001165  -0.004783  -0.000031  -0.000029
    12  C   -0.000002   0.000003   0.000581   0.000532  -0.000004  -0.000001
    13  C    0.000000  -0.000024  -0.000034   0.000000   0.000000   0.000000
    14  C    0.000000   0.000000   0.000039   0.000002   0.000000   0.000000
    15  C    0.000000  -0.000002  -0.000152  -0.000025   0.000000   0.000000
    16  C   -0.000002   0.000055  -0.001252  -0.001001  -0.000023   0.000003
    17  C   -0.062039   0.172407  -0.051088  -0.004644  -0.000376   0.000023
    18  C    0.000324  -0.019504   0.001035  -0.000006   0.000007   0.000009
    19  C    0.000104   0.002356   0.000117  -0.000005   0.000000   0.000000
    20  C   -0.000005  -0.000511   0.000006   0.000001   0.000000   0.000000
    21  C   -0.000052   0.003368  -0.000100   0.000005   0.000000  -0.000003
    22  C   -0.001283  -0.036013   0.001155   0.000129   0.000012  -0.000022
    23  O   -0.044199   0.383268  -0.052627   0.006416  -0.009207   0.000537
    24  H    0.005154  -0.010399   0.289814  -0.024548  -0.000466  -0.000205
    25  H    0.000001   0.000348   0.001534  -0.031286   0.350025  -0.018404
    26  H   -0.000165   0.001002  -0.004579  -0.023186   0.321344  -0.004602
    27  H    0.000001   0.000120   0.001426  -0.026801   0.010513  -0.017704
    28  H    0.000019   0.009396  -0.006496  -0.025429   0.002307  -0.005502
    29  H   -0.000005  -0.000197  -0.006150  -0.033244  -0.006337  -0.000216
    30  H    0.000000   0.000068   0.003084  -0.032722  -0.006730   0.006457
    31  H    0.000000   0.000009   0.000119   0.004206  -0.000155   0.000015
    32  H    0.000000  -0.000106  -0.000038  -0.007704   0.000197   0.000017
    33  H    0.000000  -0.000016  -0.000010  -0.000018   0.000000   0.000000
    34  H    0.000000  -0.000001  -0.000001   0.000000   0.000000   0.000000
    35  H    0.000000   0.000000   0.000000   0.000000   0.000000   0.000000
    36  H    0.000000   0.000000  -0.000001   0.000000   0.000000   0.000000
    37  H    0.000000   0.000000  -0.000043   0.000186   0.000001   0.000000
    38  H    0.000815  -0.002441   0.004004   0.000181   0.000004   0.000000
    39  H    0.000001  -0.000057   0.000001   0.000000   0.000000   0.000000
    40  H    0.000000   0.000007   0.000000   0.000000   0.000000   0.000000
    41  H    0.000000  -0.000067   0.000000   0.000000   0.000000   0.000000
    42  H   -0.000002  -0.008046   0.000255  -0.000008  -0.000001   0.000026
               7          8          9         10         11         12
     1  O    0.000000  -0.000063  -0.000091   0.000001  -0.000007  -0.000002
     2  S    0.000009  -0.004791   0.000488  -0.000097   0.000286   0.000003
     3  N   -0.000052  -0.041195  -0.054218  -0.001321   0.001165   0.000581
     4  C   -0.000778   0.323616   0.373065  -0.031913  -0.004783   0.000532
     5  C   -0.039463  -0.126948  -0.059783   0.004954  -0.000031  -0.000004
     6  S    0.297988   0.055407   0.004961  -0.000353  -0.000029  -0.000001
     7  O    8.381858  -0.039223  -0.009007   0.000076  -0.000004   0.000000
     8  C   -0.039223   5.697848  -0.050571  -0.008757  -0.000284   0.000001
     9  C   -0.009007  -0.050571   5.208015   0.328264  -0.028531   0.001391
    10  C    0.000076  -0.008757   0.328264   5.170500   0.352110  -0.048750
    11  C   -0.000004  -0.000284  -0.028531   0.352110   4.626347   0.550889
    12  C    0.000000   0.000001   0.001391  -0.048750   0.550889   4.979955
    13  C    0.000000   0.000000  -0.000177   0.007103  -0.019997   0.512851
    14  C    0.000000   0.000000  -0.000003   0.000337  -0.034263  -0.035362
    15  C    0.000000   0.000000   0.000271   0.006227  -0.018344  -0.046315
    16  C    0.000000   0.000003  -0.004439  -0.068333   0.538215  -0.041846
    17  C    0.000000   0.001810  -0.000234   0.000012  -0.000095   0.000051
    18  C    0.000000   0.000263  -0.000029   0.000011  -0.000183  -0.002739
    19  C    0.000000   0.000042  -0.000001  -0.000003   0.000005  -0.000138
    20  C    0.000000   0.000006   0.000000   0.000000   0.000000   0.000002
    21  C    0.000000  -0.000097   0.000000   0.000000   0.000000   0.000000
    22  C    0.000000  -0.001585  -0.000001   0.000000  -0.000001   0.000001
    23  O    0.000000  -0.004707   0.000094   0.000000   0.000000   0.000000
    24  H    0.000002   0.004871  -0.005678  -0.001413   0.002533   0.000064
    25  H    0.000037   0.010467  -0.005698   0.000159  -0.000007   0.000000
    26  H    0.001170   0.003701   0.004001  -0.000109   0.000000   0.000000
    27  H    0.000300   0.349368  -0.007906   0.001531   0.000155  -0.000038
    28  H    0.001241   0.318551   0.004652   0.000020  -0.000013   0.000000
    29  H    0.000291   0.006096   0.352569  -0.040833  -0.009040   0.000208
    30  H    0.028514  -0.009571   0.345221  -0.021748   0.002777  -0.000089
    31  H   -0.000004   0.000148  -0.035118   0.362436  -0.031080   0.000122
    32  H    0.000049   0.003348  -0.040363   0.360427  -0.034819  -0.005482
    33  H    0.000000   0.000005   0.000175  -0.011813  -0.041799   0.352287
    34  H    0.000000   0.000000   0.000002  -0.000177   0.003809  -0.040906
    35  H    0.000000   0.000000   0.000000   0.000007   0.000711   0.004589
    36  H    0.000000   0.000000   0.000003  -0.000182   0.003498   0.000874
    37  H    0.000000   0.000000   0.000539  -0.009142  -0.047469   0.006030
    38  H    0.000000  -0.000055  -0.000042   0.000023   0.000430   0.006756
    39  H    0.000000   0.000000   0.000000   0.000000   0.000003   0.000019
    40  H    0.000000   0.000000   0.000000   0.000000   0.000000   0.000000
    41  H    0.000000  -0.000001   0.000000   0.000000   0.000000   0.000000
    42  H    0.000000  -0.000152   0.000000   0.000000   0.000000   0.000000
              13         14         15         16         17         18
     1  O    0.000000   0.000000   0.000000  -0.000002  -0.062039   0.000324
     2  S   -0.000024   0.000000  -0.000002   0.000055   0.172407  -0.019504
     3  N   -0.000034   0.000039  -0.000152  -0.001252  -0.051088   0.001035
     4  C    0.000000   0.000002  -0.000025  -0.001001  -0.004644  -0.000006
     5  C    0.000000   0.000000   0.000000  -0.000023  -0.000376   0.000007
     6  S    0.000000   0.000000   0.000000   0.000003   0.000023   0.000009
     7  O    0.000000   0.000000   0.000000   0.000000   0.000000   0.000000
     8  C    0.000000   0.000000   0.000000   0.000003   0.001810   0.000263
     9  C   -0.000177  -0.000003   0.000271  -0.004439  -0.000234  -0.000029
    10  C    0.007103   0.000337   0.006227  -0.068333   0.000012   0.000011
    11  C   -0.019997  -0.034263  -0.018344   0.538215  -0.000095  -0.000183
    12  C    0.512851  -0.035362  -0.046315  -0.041846   0.000051  -0.002739
    13  C    4.880068   0.550170  -0.026165  -0.047638   0.000021  -0.001244
    14  C    0.550170   4.848607   0.550693  -0.035641   0.000001  -0.000030
    15  C   -0.026165   0.550693   4.858468   0.522999   0.000000   0.000008
    16  C   -0.047638  -0.035641   0.522999   5.006627  -0.000007   0.000039
    17  C    0.000021   0.000001   0.000000  -0.000007   5.335791   0.467609
    18  C   -0.001244  -0.000030   0.000008   0.000039   0.467609   4.938912
    19  C   -0.000018   0.000000   0.000000   0.000000  -0.023910   0.520571
    20  C    0.000001   0.000000   0.000000   0.000000  -0.039743  -0.029063
    21  C    0.000000   0.000000   0.000000   0.000000  -0.030968  -0.038178
    22  C    0.000000   0.000000   0.000000   0.000000   0.518363  -0.032162
    23  O    0.000000   0.000000   0.000000   0.000000  -0.060262   0.001721
    24  H   -0.000162  -0.000036   0.000363   0.005399   0.002475   0.000030
    25  H    0.000000   0.000000   0.000000  -0.000005   0.000003   0.000000
    26  H    0.000000   0.000000   0.000000   0.000001   0.000054  -0.000004
    27  H    0.000000   0.000000   0.000000   0.000003  -0.000046   0.000011
    28  H    0.000000   0.000000   0.000000   0.000000  -0.000278  -0.000368
    29  H    0.000002  -0.000003  -0.000043   0.003508   0.000002   0.000001
    30  H    0.000002   0.000000   0.000000   0.000247   0.000000   0.000000
    31  H   -0.000245   0.000042  -0.000097  -0.004369   0.000000   0.000000
    32  H    0.000229  -0.000001  -0.000156   0.004802   0.000012   0.000064
    33  H   -0.048703   0.004818   0.000324   0.006644   0.000027   0.001010
    34  H    0.356755  -0.042484   0.004647   0.000806   0.000002  -0.000011
    35  H   -0.042896   0.359801  -0.042114   0.004727   0.000000   0.000000
    36  H    0.004595  -0.042034   0.357711  -0.040224   0.000000   0.000000
    37  H    0.000411   0.004676  -0.043660   0.354059   0.000000   0.000000
    38  H    0.003930   0.000095  -0.000060  -0.000140  -0.045098   0.353235
    39  H    0.000013   0.000000   0.000000   0.000000   0.004868  -0.042195
    40  H    0.000000   0.000000   0.000000   0.000000   0.000459   0.004937
    41  H    0.000000   0.000000   0.000000   0.000000   0.004962   0.000683
    42  H    0.000000   0.000000   0.000000   0.000000  -0.041324   0.005210
              19         20         21         22         23         24
     1  O    0.000104  -0.000005  -0.000052  -0.001283  -0.044199   0.005154
     2  S    0.002356  -0.000511   0.003368  -0.036013   0.383268  -0.010399
     3  N    0.000117   0.000006  -0.000100   0.001155  -0.052627   0.289814
     4  C   -0.000005   0.000001   0.000005   0.000129   0.006416  -0.024548
     5  C    0.000000   0.000000   0.000000   0.000012  -0.009207  -0.000466
     6  S    0.000000   0.000000  -0.000003  -0.000022   0.000537  -0.000205
     7  O    0.000000   0.000000   0.000000   0.000000   0.000000   0.000002
     8  C    0.000042   0.000006  -0.000097  -0.001585  -0.004707   0.004871
     9  C   -0.000001   0.000000   0.000000  -0.000001   0.000094  -0.005678
    10  C   -0.000003   0.000000   0.000000   0.000000   0.000000  -0.001413
    11  C    0.000005   0.000000   0.000000  -0.000001   0.000000   0.002533
    12  C   -0.000138   0.000002   0.000000   0.000001   0.000000   0.000064
    13  C   -0.000018   0.000001   0.000000   0.000000   0.000000  -0.000162
    14  C    0.000000   0.000000   0.000000   0.000000   0.000000  -0.000036
    15  C    0.000000   0.000000   0.000000   0.000000   0.000000   0.000363
    16  C    0.000000   0.000000   0.000000   0.000000   0.000000   0.005399
    17  C   -0.023910  -0.039743  -0.030968   0.518363  -0.060262   0.002475
    18  C    0.520571  -0.029063  -0.038178  -0.032162   0.001721   0.000030
    19  C    4.877830   0.539184  -0.028554  -0.040125  -0.000046   0.000005
    20  C    0.539184   4.845277   0.545172  -0.028573  -0.000006   0.000000
    21  C   -0.028554   0.545172   4.886735   0.499567   0.000649   0.000002
    22  C   -0.040125  -0.028573   0.499567   4.934288   0.001816  -0.000052
    23  O   -0.000046  -0.000006   0.000649   0.001816   8.302661  -0.000038
    24  H    0.000005   0.000000   0.000002  -0.000052  -0.000038   0.361799
    25  H    0.000000   0.000000   0.000000   0.000000   0.000203   0.000377
    26  H    0.000000   0.000000   0.000000  -0.000003   0.015671   0.000010
    27  H    0.000001   0.000002   0.000002  -0.000019   0.000093  -0.000063
    28  H   -0.000118  -0.000006   0.000078   0.003669   0.004116   0.000021
    29  H    0.000000   0.000000   0.000000   0.000000  -0.000001   0.005179
    30  H    0.000000   0.000000   0.000000   0.000000   0.000001   0.000206
    31  H    0.000000   0.000000   0.000000   0.000000   0.000000   0.000022
    32  H    0.000003   0.000000   0.000000   0.000000   0.000001   0.000132
    33  H    0.000430   0.000000  -0.000001  -0.000003   0.000000   0.000015
    34  H   -0.000005   0.000000   0.000000   0.000000   0.000000   0.000000
    35  H    0.000000   0.000000   0.000000   0.000000   0.000000   0.000000
    36  H    0.000000   0.000000   0.000000   0.000000   0.000000   0.000003
    37  H    0.000000   0.000000   0.000000   0.000000   0.000000   0.000117
    38  H   -0.038235   0.004290   0.000323   0.004593   0.000046  -0.000472
    39  H    0.362741  -0.041888   0.004450   0.000637   0.000000   0.000000
    40  H   -0.042476   0.361967  -0.042253   0.004859   0.000000   0.000000
    41  H    0.004380  -0.041933   0.363910  -0.042620   0.000003   0.000000
    42  H    0.000229   0.004189  -0.037058   0.358803   0.013202  -0.000004
              25         26         27         28         29         30
     1  O    0.000001  -0.000165   0.000001   0.000019  -0.000005   0.000000
     2  S    0.000348   0.001002   0.000120   0.009396  -0.000197   0.000068
     3  N    0.001534  -0.004579   0.001426  -0.006496  -0.006150   0.003084
     4  C   -0.031286  -0.023186  -0.026801  -0.025429  -0.033244  -0.032722
     5  C    0.350025   0.321344   0.010513   0.002307  -0.006337  -0.006730
     6  S   -0.018404  -0.004602  -0.017704  -0.005502  -0.000216   0.006457
     7  O    0.000037   0.001170   0.000300   0.001241   0.000291   0.028514
     8  C    0.010467   0.003701   0.349368   0.318551   0.006096  -0.009571
     9  C   -0.005698   0.004001  -0.007906   0.004652   0.352569   0.345221
    10  C    0.000159  -0.000109   0.001531   0.000020  -0.040833  -0.021748
    11  C   -0.000007   0.000000   0.000155  -0.000013  -0.009040   0.002777
    12  C    0.000000   0.000000  -0.000038   0.000000   0.000208  -0.000089
    13  C    0.000000   0.000000   0.000000   0.000000   0.000002   0.000002
    14  C    0.000000   0.000000   0.000000   0.000000  -0.000003   0.000000
    15  C    0.000000   0.000000   0.000000   0.000000  -0.000043   0.000000
    16  C   -0.000005   0.000001   0.000003   0.000000   0.003508   0.000247
    17  C    0.000003   0.000054  -0.000046  -0.000278   0.000002   0.000000
    18  C    0.000000  -0.000004   0.000011  -0.000368   0.000001   0.000000
    19  C    0.000000   0.000000   0.000001  -0.000118   0.000000   0.000000
    20  C    0.000000   0.000000   0.000002  -0.000006   0.000000   0.000000
    21  C    0.000000   0.000000   0.000002   0.000078   0.000000   0.000000
    22  C    0.000000  -0.000003  -0.000019   0.003669   0.000000   0.000000
    23  O    0.000203   0.015671   0.000093   0.004116  -0.000001   0.000001
    24  H    0.000377   0.000010  -0.000063   0.000021   0.005179   0.000206
    25  H    0.515460  -0.018148  -0.000341  -0.000311   0.004814  -0.000075
    26  H   -0.018148   0.473604  -0.000311  -0.000079   0.000038   0.000235
    27  H   -0.000341  -0.000311   0.506106  -0.020340   0.000130   0.000131
    28  H   -0.000311  -0.000079  -0.020340   0.515511  -0.000141   0.000128
    29  H    0.004814   0.000038   0.000130  -0.000141   0.595312  -0.025183
    30  H   -0.000075   0.000235   0.000131   0.000128  -0.025183   0.515611
    31  H   -0.000015   0.000002  -0.000277   0.000003  -0.000136  -0.005545
    32  H    0.000012  -0.000001   0.006461  -0.000219   0.005031   0.000086
    33  H    0.000000   0.000000   0.000011  -0.000002   0.000009  -0.000007
    34  H    0.000000   0.000000   0.000000   0.000000   0.000000   0.000000
    35  H    0.000000   0.000000   0.000000   0.000000   0.000000   0.000000
    36  H    0.000000   0.000000   0.000000   0.000000   0.000009   0.000000
    37  H   -0.000002   0.000000   0.000000   0.000000   0.005579  -0.000141
    38  H    0.000000   0.000000   0.000001  -0.000003  -0.000001   0.000000
    39  H    0.000000   0.000000   0.000000   0.000001   0.000000   0.000000
    40  H    0.000000   0.000000   0.000000   0.000000   0.000000   0.000000
    41  H    0.000000   0.000000   0.000000   0.000003   0.000000   0.000000
    42  H    0.000000   0.000003   0.000000   0.000560   0.000000   0.000000
              31         32         33         34         35         36
     1  O    0.000000   0.000000   0.000000   0.000000   0.000000   0.000000
     2  S    0.000009  -0.000106  -0.000016  -0.000001   0.000000   0.000000
     3  N    0.000119  -0.000038  -0.000010  -0.000001   0.000000  -0.000001
     4  C    0.004206  -0.007704  -0.000018   0.000000   0.000000   0.000000
     5  C   -0.000155   0.000197   0.000000   0.000000   0.000000   0.000000
     6  S    0.000015   0.000017   0.000000   0.000000   0.000000   0.000000
     7  O   -0.000004   0.000049   0.000000   0.000000   0.000000   0.000000
     8  C    0.000148   0.003348   0.000005   0.000000   0.000000   0.000000
     9  C   -0.035118  -0.040363   0.000175   0.000002   0.000000   0.000003
    10  C    0.362436   0.360427  -0.011813  -0.000177   0.000007  -0.000182
    11  C   -0.031080  -0.034819  -0.041799   0.003809   0.000711   0.003498
    12  C    0.000122  -0.005482   0.352287  -0.040906   0.004589   0.000874
    13  C   -0.000245   0.000229  -0.048703   0.356755  -0.042896   0.004595
    14  C    0.000042  -0.000001   0.004818  -0.042484   0.359801  -0.042034
    15  C   -0.000097  -0.000156   0.000324   0.004647  -0.042114   0.357711
    16  C   -0.004369   0.004802   0.006644   0.000806   0.004727  -0.040224
    17  C    0.000000   0.000012   0.000027   0.000002   0.000000   0.000000
    18  C    0.000000   0.000064   0.001010  -0.000011   0.000000   0.000000
    19  C    0.000000   0.000003   0.000430  -0.000005   0.000000   0.000000
    20  C    0.000000   0.000000   0.000000   0.000000   0.000000   0.000000
    21  C    0.000000   0.000000  -0.000001   0.000000   0.000000   0.000000
    22  C    0.000000   0.000000  -0.000003   0.000000   0.000000   0.000000
    23  O    0.000000   0.000001   0.000000   0.000000   0.000000   0.000000
    24  H    0.000022   0.000132   0.000015   0.000000   0.000000   0.000003
    25  H   -0.000015   0.000012   0.000000   0.000000   0.000000   0.000000
    26  H    0.000002  -0.000001   0.000000   0.000000   0.000000   0.000000
    27  H   -0.000277   0.006461   0.000011   0.000000   0.000000   0.000000
    28  H    0.000003  -0.000219  -0.000002   0.000000   0.000000   0.000000
    29  H   -0.000136   0.005031   0.000009   0.000000   0.000000   0.000009
    30  H   -0.005545   0.000086  -0.000007   0.000000   0.000000   0.000000
    31  H    0.573714  -0.033331   0.000199   0.000004   0.000000   0.000000
    32  H   -0.033331   0.586660   0.008036  -0.000011   0.000000   0.000003
    33  H    0.000199   0.008036   0.609136  -0.005601  -0.000176   0.000017
    34  H    0.000004  -0.000011  -0.005601   0.598533  -0.005513  -0.000189
    35  H    0.000000   0.000000  -0.000176  -0.005513   0.592415  -0.005426
    36  H    0.000000   0.000003   0.000017  -0.000189  -0.005426   0.591960
    37  H    0.001254   0.000015  -0.000183   0.000018  -0.000181  -0.005468
    38  H    0.000002   0.000025  -0.000232   0.000120   0.000001   0.000000
    39  H    0.000000   0.000000   0.000123   0.000060   0.000000   0.000000
    40  H    0.000000   0.000000   0.000000   0.000000   0.000000   0.000000
    41  H    0.000000   0.000000   0.000000   0.000000   0.000000   0.000000
    42  H    0.000000   0.000000   0.000000   0.000000   0.000000   0.000000
              37         38         39         40         41         42
     1  O    0.000000   0.000815   0.000001   0.000000   0.000000  -0.000002
     2  S    0.000000  -0.002441  -0.000057   0.000007  -0.000067  -0.008046
     3  N   -0.000043   0.004004   0.000001   0.000000   0.000000   0.000255
     4  C    0.000186   0.000181   0.000000   0.000000   0.000000  -0.000008
     5  C    0.000001   0.000004   0.000000   0.000000   0.000000  -0.000001
     6  S    0.000000   0.000000   0.000000   0.000000   0.000000   0.000026
     7  O    0.000000   0.000000   0.000000   0.000000   0.000000   0.000000
     8  C    0.000000  -0.000055   0.000000   0.000000  -0.000001  -0.000152
     9  C    0.000539  -0.000042   0.000000   0.000000   0.000000   0.000000
    10  C   -0.009142   0.000023   0.000000   0.000000   0.000000   0.000000
    11  C   -0.047469   0.000430   0.000003   0.000000   0.000000   0.000000
    12  C    0.006030   0.006756   0.000019   0.000000   0.000000   0.000000
    13  C    0.000411   0.003930   0.000013   0.000000   0.000000   0.000000
    14  C    0.004676   0.000095   0.000000   0.000000   0.000000   0.000000
    15  C   -0.043660  -0.000060   0.000000   0.000000   0.000000   0.000000
    16  C    0.354059  -0.000140   0.000000   0.000000   0.000000   0.000000
    17  C    0.000000  -0.045098   0.004868   0.000459   0.004962  -0.041324
    18  C    0.000000   0.353235  -0.042195   0.004937   0.000683   0.005210
    19  C    0.000000  -0.038235   0.362741  -0.042476   0.004380   0.000229
    20  C    0.000000   0.004290  -0.041888   0.361967  -0.041933   0.004189
    21  C    0.000000   0.000323   0.004450  -0.042253   0.363910  -0.037058
    22  C    0.000000   0.004593   0.000637   0.004859  -0.042620   0.358803
    23  O    0.000000   0.000046   0.000000   0.000000   0.000003   0.013202
    24  H    0.000117  -0.000472   0.000000   0.000000   0.000000  -0.000004
    25  H   -0.000002   0.000000   0.000000   0.000000   0.000000   0.000000
    26  H    0.000000   0.000000   0.000000   0.000000   0.000000   0.000003
    27  H    0.000000   0.000001   0.000000   0.000000   0.000000   0.000000
    28  H    0.000000  -0.000003   0.000001   0.000000   0.000003   0.000560
    29  H    0.005579  -0.000001   0.000000   0.000000   0.000000   0.000000
    30  H   -0.000141   0.000000   0.000000   0.000000   0.000000   0.000000
    31  H    0.001254   0.000002   0.000000   0.000000   0.000000   0.000000
    32  H    0.000015   0.000025   0.000000   0.000000   0.000000   0.000000
    33  H   -0.000183  -0.000232   0.000123   0.000000   0.000000   0.000000
    34  H    0.000018   0.000120   0.000060   0.000000   0.000000   0.000000
    35  H   -0.000181   0.000001   0.000000   0.000000   0.000000   0.000000
    36  H   -0.005468   0.000000   0.000000   0.000000   0.000000   0.000000
    37  H    0.604091   0.000000   0.000000   0.000000   0.000000   0.000000
    38  H    0.000000   0.530720  -0.005199  -0.000147   0.000014  -0.000134
    39  H    0.000000  -0.005199   0.576436  -0.005361  -0.000170   0.000014
    40  H    0.000000  -0.000147  -0.005361   0.577379  -0.005454  -0.000142
    41  H    0.000000   0.000014  -0.000170  -0.005454   0.572338  -0.004975
    42  H    0.000000  -0.000134   0.000014  -0.000142  -0.004975   0.524758
 Mulliken charges:
               1
     1  O   -0.529776
     2  S    1.215467
     3  N   -0.730237
     4  C    0.222632
     5  C   -0.491127
     6  S    0.751100
     7  O   -0.623003
     8  C   -0.487550
     9  C   -0.321825
    10  C   -0.349256
    11  C    0.187843
    12  C   -0.195535
    13  C   -0.128849
    14  C   -0.129423
    15  C   -0.124577
    16  C   -0.203218
    17  C   -0.148838
    18  C   -0.129974
    19  C   -0.134366
    20  C   -0.118368
    21  C   -0.126995
    22  C   -0.145432
    23  O   -0.559405
    24  H    0.364945
    25  H    0.190853
    26  H    0.230350
    27  H    0.197482
    28  H    0.199028
    29  H    0.142752
    30  H    0.199042
    31  H    0.168074
    32  H    0.146622
    33  H    0.125296
    34  H    0.130145
    35  H    0.134055
    36  H    0.134851
    37  H    0.129314
    38  H    0.182651
    39  H    0.145503
    40  H    0.146224
    41  H    0.148927
    42  H    0.184597
 Sum of Mulliken charges =   0.00000
 Mulliken charges with hydrogens summed into heavy atoms:
               1
     1  O   -0.529776
     2  S    1.215467
     3  N   -0.365292
     4  C    0.222632
     5  C   -0.069924
     6  S    0.751100
     7  O   -0.623003
     8  C   -0.091040
     9  C    0.019969
    10  C   -0.034560
    11  C    0.187843
    12  C   -0.070238
    13  C    0.001297
    14  C    0.004632
    15  C    0.010274
    16  C   -0.073904
    17  C   -0.148838
    18  C    0.052677
    19  C    0.011137
    20  C    0.027856
    21  C    0.021932
    22  C    0.039165
    23  O   -0.559405
 Electronic spatial extent (au):  <R**2>=           8071.0867
 Charge=              0.0000 electrons
 Dipole moment (field-independent basis, Debye):
    X=             -2.5444    Y=              2.8201    Z=             -2.3754  Tot=              4.4799
 Quadrupole moment (field-independent basis, Debye-Ang):
   XX=           -145.9912   YY=           -149.8719   ZZ=           -155.8439
   XY=             11.4668   XZ=             -2.1704   YZ=            -22.7991
 Traceless Quadrupole moment (field-independent basis, Debye-Ang):
   XX=              4.5778   YY=              0.6971   ZZ=             -5.2749
[...]
    20  C    0.000001   0.000000   0.000000   0.000000  -0.040000  -0.030733
    21  C    0.000000   0.000000   0.000000   0.000000  -0.030845  -0.038522
    22  C    0.000000   0.000000   0.000000   0.000000   0.508096  -0.030126
    23  O    0.000000   0.000000   0.000000   0.000000  -0.060674   0.001656
    24  H   -0.000144  -0.000033   0.000359   0.004833   0.002069   0.000008
    25  H    0.000000   0.000000   0.000000  -0.000004   0.000003   0.000000
    26  H    0.000000   0.000000   0.000000   0.000001   0.000049  -0.000004
    27  H    0.000000   0.000000   0.000000   0.000003  -0.000047   0.000011
    28  H    0.000000   0.000000   0.000000   0.000000  -0.000353  -0.000401
    29  H    0.000002  -0.000003  -0.000028   0.003573   0.000002   0.000001
    30  H    0.000002   0.000000   0.000001   0.000252   0.000000   0.000000
    31  H   -0.000244   0.000042  -0.000093  -0.004347   0.000000   0.000000
    32  H    0.000250  -0.000002  -0.000152   0.004720   0.000011   0.000064
    33  H   -0.046880   0.004720   0.000268   0.006417   0.000027   0.000963
    34  H    0.360602  -0.042088   0.004550   0.000721   0.000002  -0.000013
    35  H   -0.042262   0.362894  -0.041880   0.004671   0.000000   0.000000
    36  H    0.004538  -0.042038   0.360932  -0.039225   0.000000   0.000000
    37  H    0.000329   0.004616  -0.042243   0.357761   0.000000   0.000000
    38  H    0.003967   0.000102  -0.000061  -0.000137  -0.048774   0.354513
    39  H    0.000012   0.000000   0.000000   0.000000   0.004795  -0.041176
    40  H    0.000000   0.000000   0.000000   0.000000   0.000442   0.004827
    41  H    0.000000   0.000000   0.000000   0.000000   0.004926   0.000623
    42  H    0.000000   0.000000   0.000000   0.000000  -0.046330   0.004964
              19         20         21         22         23         24
     1  O    0.000106  -0.000005  -0.000048  -0.001307  -0.043270   0.004350
     2  S    0.002351  -0.000505   0.003412  -0.035801   0.386585  -0.009355
     3  N    0.000133   0.000006  -0.000103   0.001225  -0.053007   0.290613
     4  C   -0.000005   0.000001   0.000005   0.000104   0.006243  -0.021974
     5  C    0.000000   0.000000   0.000000   0.000013  -0.009209  -0.000457
     6  S    0.000000   0.000000  -0.000002  -0.000016   0.000532  -0.000251
     7  O    0.000000   0.000000   0.000000   0.000000   0.000000   0.000002
     8  C    0.000042   0.000005  -0.000098  -0.001553  -0.004627   0.004332
     9  C   -0.000001   0.000000   0.000000  -0.000001   0.000084  -0.005000
    10  C   -0.000003   0.000000   0.000000   0.000000   0.000000  -0.001351
    11  C    0.000006   0.000000   0.000000  -0.000001   0.000000   0.002476
    12  C   -0.000124   0.000002   0.000000   0.000001   0.000000   0.000059
    13  C   -0.000015   0.000001   0.000000   0.000000   0.000000  -0.000144
    14  C    0.000000   0.000000   0.000000   0.000000   0.000000  -0.000033
    15  C    0.000000   0.000000   0.000000   0.000000   0.000000   0.000359
    16  C    0.000000   0.000000   0.000000   0.000000   0.000000   0.004833
    17  C   -0.025337  -0.040000  -0.030845   0.508096  -0.060674   0.002069
    18  C    0.521878  -0.030733  -0.038522  -0.030126   0.001656   0.000008
    19  C    4.883578   0.535272  -0.029913  -0.039941  -0.000046   0.000004
    20  C    0.535272   4.858523   0.540349  -0.030273  -0.000005   0.000000
    21  C   -0.029913   0.540349   4.891197   0.504111   0.000608   0.000002
    22  C   -0.039941  -0.030273   0.504111   4.934776   0.001452  -0.000046
    23  O   -0.000046  -0.000005   0.000608   0.001452   8.323526  -0.000058
    24  H    0.000004   0.000000   0.000002  -0.000046  -0.000058   0.326681
    25  H    0.000000   0.000000   0.000000   0.000000   0.000183   0.000325
    26  H    0.000000   0.000000   0.000000  -0.000004   0.015163   0.000020
    27  H    0.000001   0.000002   0.000002  -0.000017   0.000088  -0.000054
    28  H   -0.000112  -0.000004   0.000094   0.003529   0.003697   0.000007
    29  H    0.000000   0.000000   0.000000   0.000000  -0.000001   0.004381
    30  H    0.000000   0.000000   0.000000   0.000000   0.000001   0.000196
    31  H    0.000000   0.000000   0.000000   0.000000   0.000000   0.000019
    32  H    0.000003   0.000000   0.000000  -0.000001   0.000001   0.000116
    33  H    0.000398   0.000000  -0.000001  -0.000002   0.000000   0.000013
    34  H   -0.000003   0.000000   0.000000   0.000000   0.000000   0.000000
    35  H    0.000000   0.000000   0.000000   0.000000   0.000000   0.000000
    36  H    0.000000   0.000000   0.000000   0.000000   0.000000   0.000003
    37  H    0.000000   0.000000   0.000000   0.000000   0.000000   0.000100
    38  H   -0.035710   0.004331   0.000277   0.004395   0.000044  -0.000412
    39  H    0.366385  -0.039222   0.004269   0.000594   0.000000   0.000000
    40  H   -0.040677   0.365308  -0.040634   0.004773   0.000000   0.000000
    41  H    0.004261  -0.040186   0.367191  -0.041308   0.000003   0.000000
    42  H    0.000196   0.004266  -0.033981   0.361400   0.012569  -0.000003
              25         26         27         28         29         30
     1  O    0.000001  -0.000161   0.000001   0.000014  -0.000004   0.000000
     2  S    0.000310   0.001308   0.000041   0.009664  -0.000171   0.000053
     3  N    0.001430  -0.004814   0.001384  -0.006591  -0.005653   0.003268
     4  C   -0.030541  -0.024103  -0.027353  -0.026253  -0.032172  -0.034343
     5  C    0.352434   0.324611   0.010007   0.002267  -0.006025  -0.006771
     6  S   -0.018286  -0.006732  -0.017249  -0.007103  -0.000373   0.005795
     7  O   -0.000054   0.001187   0.000199   0.001206   0.000259   0.027625
     8  C    0.009889   0.003797   0.351994   0.324260   0.005787  -0.009574
     9  C   -0.004965   0.003964  -0.007326   0.004488   0.359357   0.344839
    10  C    0.000150  -0.000109   0.001802   0.000008  -0.039005  -0.022450
    11  C   -0.000007   0.000000   0.000135  -0.000011  -0.008456   0.002811
    12  C    0.000000   0.000000  -0.000034   0.000000   0.000211  -0.000095
    13  C    0.000000   0.000000   0.000000   0.000000   0.000002   0.000002
    14  C    0.000000   0.000000   0.000000   0.000000  -0.000003   0.000000
    15  C    0.000000   0.000000   0.000000   0.000000  -0.000028   0.000001
    16  C   -0.000004   0.000001   0.000003   0.000000   0.003573   0.000252
    17  C    0.000003   0.000049  -0.000047  -0.000353   0.000002   0.000000
    18  C    0.000000  -0.000004   0.000011  -0.000401   0.000001   0.000000
    19  C    0.000000   0.000000   0.000001  -0.000112   0.000000   0.000000
    20  C    0.000000   0.000000   0.000002  -0.000004   0.000000   0.000000
    21  C    0.000000   0.000000   0.000002   0.000094   0.000000   0.000000
    22  C    0.000000  -0.000004  -0.000017   0.003529   0.000000   0.000000
    23  O    0.000183   0.015163   0.000088   0.003697  -0.000001   0.000001
    24  H    0.000325   0.000020  -0.000054   0.000007   0.004381   0.000196
    25  H    0.492972  -0.016061  -0.000321  -0.000287   0.004405  -0.000052
    26  H   -0.016061   0.475177  -0.000293  -0.000103   0.000036   0.000230
    27  H   -0.000321  -0.000293   0.482166  -0.017510   0.000128   0.000089
    28  H   -0.000287  -0.000103  -0.017510   0.497661  -0.000131   0.000116
    29  H    0.004405   0.000036   0.000128  -0.000131   0.562218  -0.025342
    30  H   -0.000052   0.000230   0.000089   0.000116  -0.025342   0.541675
    31  H   -0.000015   0.000002  -0.000270   0.000003  -0.000168  -0.006038
    32  H    0.000012  -0.000001   0.006132  -0.000209   0.004679   0.000082
    33  H    0.000000   0.000000   0.000011  -0.000002   0.000009  -0.000008
    34  H    0.000000   0.000000   0.000000   0.000000   0.000000   0.000000
    35  H    0.000000   0.000000   0.000000   0.000000   0.000000   0.000000
    36  H    0.000000   0.000000   0.000000   0.000000   0.000009   0.000000
    37  H   -0.000002   0.000000   0.000000   0.000000   0.005256  -0.000148
    38  H    0.000000   0.000000   0.000001  -0.000004  -0.000001   0.000000
    39  H    0.000000   0.000000   0.000000   0.000001   0.000000   0.000000
    40  H    0.000000   0.000000   0.000000   0.000000   0.000000   0.000000
    41  H    0.000000   0.000000   0.000000   0.000003   0.000000   0.000000
    42  H    0.000000   0.000003   0.000000   0.000497   0.000000   0.000000
              31         32         33         34         35         36
     1  O    0.000000   0.000000   0.000000   0.000000   0.000000   0.000000
     2  S    0.000009  -0.000111  -0.000018  -0.000001   0.000000   0.000000
     3  N    0.000111  -0.000079  -0.000011  -0.000001   0.000000  -0.000001
     4  C    0.004235  -0.007442  -0.000013   0.000000   0.000000   0.000000
     5  C   -0.000151   0.000190   0.000000   0.000000   0.000000   0.000000
     6  S    0.000015  -0.000029   0.000000   0.000000   0.000000   0.000000
     7  O   -0.000006   0.000042   0.000000   0.000000   0.000000   0.000000
     8  C    0.000135   0.003334   0.000005   0.000000   0.000000   0.000000
     9  C   -0.033707  -0.040246   0.000174   0.000002   0.000000   0.000003
    10  C    0.362767   0.363480  -0.011151  -0.000168   0.000007  -0.000175
    11  C   -0.030244  -0.034940  -0.041412   0.003706   0.000635   0.003466
    12  C    0.000179  -0.004930   0.356640  -0.039094   0.004542   0.000781
    13  C   -0.000244   0.000250  -0.046880   0.360602  -0.042262   0.004538
    14  C    0.000042  -0.000002   0.004720  -0.042088   0.362894  -0.042038
    15  C   -0.000093  -0.000152   0.000268   0.004550  -0.041880   0.360932
    16  C   -0.004347   0.004720   0.006417   0.000721   0.004671  -0.039225
    17  C    0.000000   0.000011   0.000027   0.000002   0.000000   0.000000
    18  C    0.000000   0.000064   0.000963  -0.000013   0.000000   0.000000
    19  C    0.000000   0.000003   0.000398  -0.000003   0.000000   0.000000
    20  C    0.000000   0.000000   0.000000   0.000000   0.000000   0.000000
    21  C    0.000000   0.000000  -0.000001   0.000000   0.000000   0.000000
    22  C    0.000000  -0.000001  -0.000002   0.000000   0.000000   0.000000
    23  O    0.000000   0.000001   0.000000   0.000000   0.000000   0.000000
    24  H    0.000019   0.000116   0.000013   0.000000   0.000000   0.000003
    25  H   -0.000015   0.000012   0.000000   0.000000   0.000000   0.000000
    26  H    0.000002  -0.000001   0.000000   0.000000   0.000000   0.000000
    27  H   -0.000270   0.006132   0.000011   0.000000   0.000000   0.000000
    28  H    0.000003  -0.000209  -0.000002   0.000000   0.000000   0.000000
    29  H   -0.000168   0.004679   0.000009   0.000000   0.000000   0.000009
    30  H   -0.006038   0.000082  -0.000008   0.000000   0.000000   0.000000
    31  H    0.565420  -0.032151   0.000208   0.000003   0.000000   0.000000
    32  H   -0.032151   0.571327   0.007489  -0.000010   0.000000   0.000003
    33  H    0.000208   0.007489   0.584359  -0.005271  -0.000164   0.000016
    34  H    0.000003  -0.000010  -0.005271   0.573362  -0.005218  -0.000176
    35  H    0.000000   0.000000  -0.000164  -0.005218   0.574109  -0.005186
    36  H    0.000000   0.000003   0.000016  -0.000176  -0.005186   0.573086
    37  H    0.001201   0.000018  -0.000169   0.000017  -0.000169  -0.005191
    38  H    0.000002   0.000024  -0.000206   0.000118   0.000001   0.000000
    39  H    0.000000   0.000000   0.000114   0.000053   0.000000   0.000000
    40  H    0.000000   0.000000   0.000000   0.000000   0.000000   0.000000
    41  H    0.000000   0.000000   0.000000   0.000000   0.000000   0.000000
    42  H    0.000000   0.000000   0.000000   0.000000   0.000000   0.000000
              37         38         39         40         41         42
     1  O    0.000000   0.000711   0.000001   0.000000   0.000000  -0.000003
     2  S    0.000000  -0.001980  -0.000065   0.000007  -0.000074  -0.007593
     3  N   -0.000041   0.003807   0.000001   0.000000   0.000000   0.000235
     4  C    0.000181   0.000163   0.000000   0.000000   0.000000  -0.000009
     5  C    0.000002   0.000004   0.000000   0.000000   0.000000  -0.000001
     6  S    0.000000   0.000000   0.000000   0.000000   0.000000   0.000024
     7  O    0.000000   0.000000   0.000000   0.000000   0.000000   0.000000
     8  C    0.000000  -0.000052   0.000000   0.000000  -0.000001  -0.000151
     9  C    0.000785  -0.000041   0.000000   0.000000   0.000000   0.000000
    10  C   -0.008860   0.000021   0.000000   0.000000   0.000000   0.000000
    11  C   -0.045938   0.000428   0.000003   0.000000   0.000000   0.000000
    12  C    0.005892   0.006705   0.000018   0.000000   0.000000   0.000000
    13  C    0.000329   0.003967   0.000012   0.000000   0.000000   0.000000
    14  C    0.004616   0.000102   0.000000   0.000000   0.000000   0.000000
    15  C   -0.042243  -0.000061   0.000000   0.000000   0.000000   0.000000
    16  C    0.357761  -0.000137   0.000000   0.000000   0.000000   0.000000
    17  C    0.000000  -0.048774   0.004795   0.000442   0.004926  -0.046330
    18  C    0.000000   0.354513  -0.041176   0.004827   0.000623   0.004964
    19  C    0.000000  -0.035710   0.366385  -0.040677   0.004261   0.000196
    20  C    0.000000   0.004331  -0.039222   0.365308  -0.040186   0.004266
    21  C    0.000000   0.000277   0.004269  -0.040634   0.367191  -0.033981
    22  C    0.000000   0.004395   0.000594   0.004773  -0.041308   0.361400
    23  O    0.000000   0.000044   0.000000   0.000000   0.000003   0.012569
    24  H    0.000100  -0.000412   0.000000   0.000000   0.000000  -0.000003
    25  H   -0.000002   0.000000   0.000000   0.000000   0.000000   0.000000
    26  H    0.000000   0.000000   0.000000   0.000000   0.000000   0.000003
    27  H    0.000000   0.000001   0.000000   0.000000   0.000000   0.000000
    28  H    0.000000  -0.000004   0.000001   0.000000   0.000003   0.000497
    29  H    0.005256  -0.000001   0.000000   0.000000   0.000000   0.000000
    30  H   -0.000148   0.000000   0.000000   0.000000   0.000000   0.000000
    31  H    0.001201   0.000002   0.000000   0.000000   0.000000   0.000000
    32  H    0.000018   0.000024   0.000000   0.000000   0.000000   0.000000
    33  H   -0.000169  -0.000206   0.000114   0.000000   0.000000   0.000000
    34  H    0.000017   0.000118   0.000053   0.000000   0.000000   0.000000
    35  H   -0.000169   0.000001   0.000000   0.000000   0.000000   0.000000
    36  H   -0.005191   0.000000   0.000000   0.000000   0.000000   0.000000
    37  H    0.578807   0.000000   0.000000   0.000000   0.000000   0.000000
    38  H    0.000000   0.529747  -0.005126  -0.000140   0.000013  -0.000131
    39  H    0.000000  -0.005126   0.545036  -0.004988  -0.000156   0.000013
    40  H    0.000000  -0.000140  -0.004988   0.546720  -0.005103  -0.000135
    41  H    0.000000   0.000013  -0.000156  -0.005103   0.544491  -0.004987
    42  H    0.000000  -0.000131   0.000013  -0.000135  -0.004987   0.523431
 Mulliken charges:
               1
     1  O   -0.573303
     2  S    1.211669
     3  N   -0.735301
     4  C    0.222295
     5  C   -0.477654
     6  S    0.751121
     7  O   -0.687909
     8  C   -0.485623
     9  C   -0.318520
    10  C   -0.351927
    11  C    0.177794
    12  C   -0.208515
    13  C   -0.146421
    14  C   -0.153178
    15  C   -0.146980
    16  C   -0.209162
    17  C   -0.152216
    18  C   -0.136902
    19  C   -0.142728
    20  C   -0.127133
    21  C   -0.137369
    22  C   -0.144075
    23  O   -0.581536
    24  H    0.398169
    25  H    0.208480
    26  H    0.226836
    27  H    0.216279
    28  H    0.211559
    29  H    0.167220
    30  H    0.177785
    31  H    0.173086
    32  H    0.158325
    33  H    0.143477
    34  H    0.148908
    35  H    0.148021
    36  H    0.149157
    37  H    0.147798
    38  H    0.183403
    39  H    0.169441
    40  H    0.169600
    41  H    0.170303
    42  H    0.185728
 Sum of Mulliken charges =   0.00000
 Mulliken charges with hydrogens summed into heavy atoms:
               1
     1  O   -0.573303
     2  S    1.211669
     3  N   -0.337132
     4  C    0.222295
     5  C   -0.042338
     6  S    0.751121
     7  O   -0.687909
     8  C   -0.057785
     9  C    0.026484
    10  C   -0.020517
    11  C    0.177794
    12  C   -0.065038
    13  C    0.002487
    14  C   -0.005157
    15  C    0.002177
    16  C   -0.061364
    17  C   -0.152216
    18  C    0.046501
    19  C    0.026713
    20  C    0.042467
    21  C    0.032934
    22  C    0.041653
    23  O   -0.581536
 Electronic spatial extent (au):  <R**2>=           8072.4935
 Charge=              0.0000 electrons
 Dipole moment (field-independent basis, Debye):
    X=             -2.9394    Y=              3.6648    Z=             -3.0348  Tot=              5.5929
 Quadrupole moment (field-independent basis, Debye-Ang):
   XX=           -147.3165   YY=           -149.7927   ZZ=           -156.4899
   XY=             14.4969   XZ=             -2.3139   YZ=            -28.4394
 Traceless Quadrupole moment (field-independent basis, Debye-Ang):
   XX=              3.8832   YY=              1.4070   ZZ=             -5.2902
   XY=             14.4969   XZ=             -2.3139   YZ=            -28.4394
 Octapole moment (field-independent basis, Debye-Ang**2):
  XXX=             -0.6532  YYY=            121.5121  ZZZ=            -24.4000  XYY=            -36.8489
  XXY=             59.8072  XXZ=             24.6275  XZZ=             -9.7173  YZZ=             -4.5230
  YYZ=              7.5683  XYZ=            -25.5348
 Hexadecapole moment (field-independent basis, Debye-Ang**3):
 XXXX=          -4910.2013 YYYY=          -4532.9333 ZZZZ=          -1416.2319 XXXY=              4.6094
 XXXZ=           -135.7437 YYYX=            296.5968 YYYZ=           -364.2012 ZZZX=            -15.7806
 ZZZY=            -76.1845 XXYY=          -1587.2926 XXZZ=          -1074.0318 YYZZ=           -946.3258
 XXYZ=           -133.9921 YYXZ=             83.2333 ZZXY=             23.0684
 N-N= 2.340783651970D+03 E-N=-8.755869234051D+03  KE= 1.724226480438D+03
 No NMR shielding tensors so no spin-rotation constants.
 Leave Link  601 at Sat Aug  8 02:35:02 2020, MaxMem=    33554432 cpu:         0.4
 (Enter /prod/apps/gaussian/g09d1/l9999.exe)
 1\1\GINC-PIRINEUS25\SP\RB3LYP\6-31G(d)\C17H19N1O3S2\UBAFAR01\08-Aug-20
 20\0\\#p b3lyp/6-31G(d) scrf=(iefpcm,read,solvent=Water) geom=allcheck
  guess=read\\SM36.n.1.pdb.xyz\\0,1\O,0,3.452,0.617,1.186\S,0,3.343,-0.
 753,0.657\N,0,3.249,-0.565,-1.002\C,0,2.576,-1.508,-1.906\C,0,1.077,-1
 .823,-1.644\S,0,1.31,-3.622,-2.083\O,0,1.093,-3.819,-3.581\C,0,3.04,-2
 .979,-1.776\C,0,2.73,-0.996,-3.352\C,0,4.164,-0.826,-3.885\C,0,4.873,0
 .467,-3.529\C,0,6.192,0.445,-3.058\C,0,6.878,1.628,-2.774\C,0,6.25,2.8
 62,-2.957\C,0,4.937,2.899,-3.431\C,0,4.258,1.714,-3.716\C,0,4.892,-1.6
 02,0.939\C,0,6.074,-1.071,0.414\C,0,7.28,-1.706,0.701\C,0,7.298,-2.85,
 1.507\C,0,6.11,-3.364,2.029\C,0,4.894,-2.738,1.749\O,0,2.273,-1.631,1.
 165\H,0,3.077,0.418,-1.215\H,0,0.343,-1.32,-2.276\H,0,0.801,-1.767,-0.
 592\H,0,3.776,-3.342,-2.495\H,0,3.322,-3.271,-0.765\H,0,2.177,-0.054,-
 3.445\H,0,2.202,-1.724,-3.975\H,0,4.106,-0.894,-4.978\H,0,4.783,-1.672
 ,-3.567\H,0,6.684,-0.513,-2.914\H,0,7.899,1.585,-2.409\H,0,6.779,3.784
 ,-2.735\H,0,4.441,3.853,-3.582\H,0,3.24,1.76,-4.092\H,0,6.051,-0.19,-0
 .215\H,0,8.204,-1.309,0.296\H,0,8.241,-3.34,1.725\H,0,6.125,-4.251,2.6
 54\H,0,3.959,-3.117,2.143\\Version=AM64L-G09RevD.01\State=1-A\HF=-1735
 .9358982\RMSD=5.859e-09\Dipole=2.1970576,0.1144502,-0.0418984\Quadrupo
 le=8.1021099,1.5674747,-9.6695846,-12.3640769,2.9090708,-18.3442018\PG
 =C01 [X(C17H19N1O3S2)]\\@


 "PERFECTION IS NOT AN ACCIDENT"
         --  EAGLE ELECTRIC MANUFACTURING CO.,INC. NY
 Job cpu time:       0 days  0 hours  6 minutes  9.1 seconds.
 File lengths (MBytes):  RWF=    283 Int=      0 D2E=      0 Chk=      8 Scr=      1
 Normal termination of Gaussian 09 at Sat Aug  8 02:35:02 2020.
