 Entering Gaussian System, Link 0=g09
 Initial command:
 /prod/apps/gaussian/g09d1/l1.exe "/tmp/ubafar01/1449168/Gau-112539.inp" -scrdir="/tmp/ubafar01/1449168/"
 Entering Link 1 = /prod/apps/gaussian/g09d1/l1.exe PID=    112540.
  
 Copyright (c) 1988,1990,1992,1993,1995,1998,2003,2009,2013,
            Gaussian, Inc.  All Rights Reserved.
  
 This is part of the Gaussian(R) 09 program.  It is based on
 the Gaussian(R) 03 system (copyright 2003, Gaussian, Inc.),
 the Gaussian(R) 98 system (copyright 1998, Gaussian, Inc.),
 the Gaussian(R) 94 system (copyright 1995, Gaussian, Inc.),
 the Gaussian 92(TM) system (copyright 1992, Gaussian, Inc.),
 the Gaussian 90(TM) system (copyright 1990, Gaussian, Inc.),
 the Gaussian 88(TM) system (copyright 1988, Gaussian, Inc.),
 the Gaussian 86(TM) system (copyright 1986, Carnegie Mellon
 University), and the Gaussian 82(TM) system (copyright 1983,
 Carnegie Mellon University). Gaussian is a federally registered
 trademark of Gaussian, Inc.
  
 This software contains proprietary and confidential information,
 including trade secrets, belonging to Gaussian, Inc.
  
 This software is provided under written license and may be
 used, copied, transmitted, or stored only in accord with that
 written license.
  
 The following legend is applicable only to US Government
 contracts under FAR:
  
                    RESTRICTED RIGHTS LEGEND
  
 Use, reproduction and disclosure by the US Government is
 subject to restrictions as set forth in subparagraphs (a)
 and (c) of the Commercial Computer Software - Restricted
 Rights clause in FAR 52.227-19.
  
 Gaussian, Inc.
 340 Quinnipiac St., Bldg. 40, Wallingford CT 06492
  
  
 ---------------------------------------------------------------
 Warning -- This program may not be used in any manner that
 competes with the business of Gaussian, Inc. or will provide
 assistance to any competitor of Gaussian, Inc.  The licensee
 of this program is prohibited from giving any competitor of
 Gaussian, Inc. access to this program.  By using this program,
 the user acknowledges that Gaussian, Inc. is engaged in the
 business of creating and licensing software in the field of
 computational chemistry and represents and warrants to the
 licensee that it is not a competitor of Gaussian, Inc. and that
 it will not use this program in any manner prohibited above.
 ---------------------------------------------------------------
  

 Cite this work as:
 Gaussian 09, Revision D.01,
 M. J. Frisch, G. W. Trucks, H. B. Schlegel, G. E. Scuseria, 
 M. A. Robb, J. R. Cheeseman, G. Scalmani, V. Barone, B. Mennucci, 
 G. A. Petersson, H. Nakatsuji, M. Caricato, X. Li, H. P. Hratchian, 
 A. F. Izmaylov, J. Bloino, G. Zheng, J. L. Sonnenberg, M. Hada, 
 M. Ehara, K. Toyota, R. Fukuda, J. Hasegawa, M. Ishida, T. Nakajima, 
 Y. Honda, O. Kitao, H. Nakai, T. Vreven, J. A. Montgomery, Jr., 
 J. E. Peralta, F. Ogliaro, M. Bearpark, J. J. Heyd, E. Brothers, 
 K. N. Kudin, V. N. Staroverov, T. Keith, R. Kobayashi, J. Normand, 
 K. Raghavachari, A. Rendell, J. C. Burant, S. S. Iyengar, J. Tomasi, 
 M. Cossi, N. Rega, J. M. Millam, M. Klene, J. E. Knox, J. B. Cross, 
 V. Bakken, C. Adamo, J. Jaramillo, R. Gomperts, R. E. Stratmann, 
 O. Yazyev, A. J. Austin, R. Cammi, C. Pomelli, J. W. Ochterski, 
 R. L. Martin, K. Morokuma, V. G. Zakrzewski, G. A. Voth, 
 P. Salvador, J. J. Dannenberg, S. Dapprich, A. D. Daniels, 
 O. Farkas, J. B. Foresman, J. V. Ortiz, J. Cioslowski, 
 and D. J. Fox, Gaussian, Inc., Wallingford CT, 2013.
 
 ******************************************
 Gaussian 09:  AM64L-G09RevD.01 24-Apr-2013
                 8-Aug-2020 
 ******************************************
 %nproc=1
 Will use up to    1 processors via shared memory.
 %Chk=SM37.n.10.pdb.xyz.mst.n.w.chk
 -----------------
 #p b3lyp/6-31G(d)
 -----------------
 1/38=1/1;
 2/12=2,17=6,18=5,40=1/2;
 3/5=1,6=6,7=1,11=2,16=1,25=1,30=1,74=-5/1,2,3;
 4//1;
 5/5=2,38=5/2;
 6/7=2,8=2,9=2,10=2,28=1/1;
 99/5=1,9=1/99;
 Leave Link    1 at Sat Aug  8 02:34:29 2020, MaxMem=           0 cpu:         0.0
 (Enter /prod/apps/gaussian/g09d1/l101.exe)
 -----------------
 SM37.n.10.pdb.xyz
 -----------------
 Symbolic Z-matrix:
 Charge =  0 Multiplicity = 1
 O                     4.355     1.222    -0.817 
 S                     4.164    -0.019    -1.583 
 N                     2.827    -0.727    -0.91 
 C                     2.255    -2.042    -1.287 
 C                     1.3      -2.469    -0.141 
 S                     2.233    -4.044     0.218 
 O                     1.481    -5.234    -0.375 
 C                     3.267    -3.199    -1.085 
 C                     1.555    -2.004    -2.656 
 C                     0.969    -3.348    -3.15 
 C                     1.895    -4.171    -4.027 
 C                     2.315    -5.448    -3.63 
 C                     3.143    -6.218    -4.451 
 C                     3.565    -5.723    -5.685 
 C                     3.152    -4.451    -6.092 
 C                     2.325    -3.686    -5.271 
 N                     3.803     0.321    -3.203 
 C                     2.842     1.42     -3.367 
 C                     4.996     0.479    -4.057 
 O                     5.243    -1.012    -1.617 
 H                     2.131    -0.029    -0.659 
 H                     0.275    -2.691    -0.441 
 H                     1.31     -1.811     0.729 
 H                     3.42     -3.849    -1.944 
 H                     4.222    -2.889    -0.665 
 H                     2.257    -1.608    -3.393 
 H                     0.746    -1.269    -2.568 
 H                     0.064    -3.12     -3.724 
 H                     0.652    -3.961    -2.3 
 H                     1.995    -5.822    -2.661 
 H                     3.458    -7.204    -4.124 
 H                     4.208    -6.319    -6.324 
 H                     3.471    -4.057    -7.053 
 H                     2.004    -2.702    -5.602 
 H                     1.953     1.242    -2.76 
 H                     2.537     1.436    -4.416 
 H                     3.27      2.394    -3.103 
 H                     5.652    -0.379    -3.926 
 H                     5.548     1.403    -3.842 
 H                     4.647     0.511    -5.091 
 
 NAtoms=     40 NQM=       40 NQMF=       0 NMMI=      0 NMMIF=      0
                NMic=       0 NMicF=      0.
                    Isotopes and Nuclear Properties:
 (Nuclear quadrupole moments (NQMom) in fm**2, nuclear magnetic moments (NMagM)
  in nuclear magnetons)

  Atom         1           2           3           4           5           6           7           8           9          10
 IAtWgt=          16          32          14          12          12          32          16          12          12          12
 AtmWgt=  15.9949146  31.9720718  14.0030740  12.0000000  12.0000000  31.9720718  15.9949146  12.0000000  12.0000000  12.0000000
 NucSpn=           0           0           2           0           0           0           0           0           0           0
 AtZEff=   0.0000000   0.0000000   0.0000000   0.0000000   0.0000000   0.0000000   0.0000000   0.0000000   0.0000000   0.0000000
 NQMom=    0.0000000   0.0000000   2.0440000   0.0000000   0.0000000   0.0000000   0.0000000   0.0000000   0.0000000   0.0000000
 NMagM=    0.0000000   0.0000000   0.4037610   0.0000000   0.0000000   0.0000000   0.0000000   0.0000000   0.0000000   0.0000000
 AtZNuc=   8.0000000  16.0000000   7.0000000   6.0000000   6.0000000  16.0000000   8.0000000   6.0000000   6.0000000   6.0000000

  Atom        11          12          13          14          15          16          17          18          19          20
 IAtWgt=          12          12          12          12          12          12          14          12          12          16
 AtmWgt=  12.0000000  12.0000000  12.0000000  12.0000000  12.0000000  12.0000000  14.0030740  12.0000000  12.0000000  15.9949146
 NucSpn=           0           0           0           0           0           0           2           0           0           0
 AtZEff=   0.0000000   0.0000000   0.0000000   0.0000000   0.0000000   0.0000000   0.0000000   0.0000000   0.0000000   0.0000000
 NQMom=    0.0000000   0.0000000   0.0000000   0.0000000   0.0000000   0.0000000   2.0440000   0.0000000   0.0000000   0.0000000
 NMagM=    0.0000000   0.0000000   0.0000000   0.0000000   0.0000000   0.0000000   0.4037610   0.0000000   0.0000000   0.0000000
 AtZNuc=   6.0000000   6.0000000   6.0000000   6.0000000   6.0000000   6.0000000   7.0000000   6.0000000   6.0000000   8.0000000

  Atom        21          22          23          24          25          26          27          28          29          30
 IAtWgt=           1           1           1           1           1           1           1           1           1           1
 AtmWgt=   1.0078250   1.0078250   1.0078250   1.0078250   1.0078250   1.0078250   1.0078250   1.0078250   1.0078250   1.0078250
 NucSpn=           1           1           1           1           1           1           1           1           1           1
 AtZEff=   0.0000000   0.0000000   0.0000000   0.0000000   0.0000000   0.0000000   0.0000000   0.0000000   0.0000000   0.0000000
 NQMom=    0.0000000   0.0000000   0.0000000   0.0000000   0.0000000   0.0000000   0.0000000   0.0000000   0.0000000   0.0000000
 NMagM=    2.7928460   2.7928460   2.7928460   2.7928460   2.7928460   2.7928460   2.7928460   2.7928460   2.7928460   2.7928460
 AtZNuc=   1.0000000   1.0000000   1.0000000   1.0000000   1.0000000   1.0000000   1.0000000   1.0000000   1.0000000   1.0000000

  Atom        31          32          33          34          35          36          37          38          39          40
 IAtWgt=           1           1           1           1           1           1           1           1           1           1
 AtmWgt=   1.0078250   1.0078250   1.0078250   1.0078250   1.0078250   1.0078250   1.0078250   1.0078250   1.0078250   1.0078250
 NucSpn=           1           1           1           1           1           1           1           1           1           1
 AtZEff=   0.0000000   0.0000000   0.0000000   0.0000000   0.0000000   0.0000000   0.0000000   0.0000000   0.0000000   0.0000000
 NQMom=    0.0000000   0.0000000   0.0000000   0.0000000   0.0000000   0.0000000   0.0000000   0.0000000   0.0000000   0.0000000
 NMagM=    2.7928460   2.7928460   2.7928460   2.7928460   2.7928460   2.7928460   2.7928460   2.7928460   2.7928460   2.7928460
 AtZNuc=   1.0000000   1.0000000   1.0000000   1.0000000   1.0000000   1.0000000   1.0000000   1.0000000   1.0000000   1.0000000
 Leave Link  101 at Sat Aug  8 02:34:29 2020, MaxMem=    33554432 cpu:         0.1
 (Enter /prod/apps/gaussian/g09d1/l202.exe)
                          Input orientation:                          
 ---------------------------------------------------------------------
 Center     Atomic      Atomic             Coordinates (Angstroms)
 Number     Number       Type             X           Y           Z
 ---------------------------------------------------------------------
      1          8           0        4.355000    1.222000   -0.817000
      2         16           0        4.164000   -0.019000   -1.583000
      3          7           0        2.827000   -0.727000   -0.910000
      4          6           0        2.255000   -2.042000   -1.287000
      5          6           0        1.300000   -2.469000   -0.141000
      6         16           0        2.233000   -4.044000    0.218000
      7          8           0        1.481000   -5.234000   -0.375000
      8          6           0        3.267000   -3.199000   -1.085000
      9          6           0        1.555000   -2.004000   -2.656000
     10          6           0        0.969000   -3.348000   -3.150000
     11          6           0        1.895000   -4.171000   -4.027000
     12          6           0        2.315000   -5.448000   -3.630000
     13          6           0        3.143000   -6.218000   -4.451000
     14          6           0        3.565000   -5.723000   -5.685000
     15          6           0        3.152000   -4.451000   -6.092000
     16          6           0        2.325000   -3.686000   -5.271000
     17          7           0        3.803000    0.321000   -3.203000
     18          6           0        2.842000    1.420000   -3.367000
     19          6           0        4.996000    0.479000   -4.057000
     20          8           0        5.243000   -1.012000   -1.617000
     21          1           0        2.131000   -0.029000   -0.659000
     22          1           0        0.275000   -2.691000   -0.441000
     23          1           0        1.310000   -1.811000    0.729000
     24          1           0        3.420000   -3.849000   -1.944000
     25          1           0        4.222000   -2.889000   -0.665000
     26          1           0        2.257000   -1.608000   -3.393000
     27          1           0        0.746000   -1.269000   -2.568000
     28          1           0        0.064000   -3.120000   -3.724000
     29          1           0        0.652000   -3.961000   -2.300000
     30          1           0        1.995000   -5.822000   -2.661000
     31          1           0        3.458000   -7.204000   -4.124000
     32          1           0        4.208000   -6.319000   -6.324000
     33          1           0        3.471000   -4.057000   -7.053000
     34          1           0        2.004000   -2.702000   -5.602000
     35          1           0        1.953000    1.242000   -2.760000
     36          1           0        2.537000    1.436000   -4.416000
     37          1           0        3.270000    2.394000   -3.103000
     38          1           0        5.652000   -0.379000   -3.926000
     39          1           0        5.548000    1.403000   -3.842000
     40          1           0        4.647000    0.511000   -5.091000
 ---------------------------------------------------------------------
                    Distance matrix (angstroms):
                    1          2          3          4          5
     1  O    0.000000
     2  S    1.470822   0.000000
     3  N    2.478313   1.655827   0.000000
     4  C    3.909552   2.797218   1.482747   0.000000
     5  C    4.838748   4.035388   2.440831   1.551667   0.000000
     6  S    5.771037   4.813833   3.553549   2.504698   1.865474
     7  O    7.080620   5.987819   4.734025   3.408766   2.780781
     8  C    4.560790   3.341409   2.516944   1.550354   2.300679
     9  C    4.650699   3.449411   2.509428   1.538052   2.570306
    10  C    6.147584   4.872962   3.916555   2.613465   3.152187
    11  C    6.740931   5.325467   4.737663   3.488530   4.283903
    12  C    7.520869   6.089585   5.472512   4.134499   4.698701
    13  C    8.368303   6.906190   6.541377   5.313983   6.002312
    14  C    8.517896   7.051299   6.950200   5.882879   6.815767
    15  C    7.839373   6.402956   6.389595   5.449396   6.540079
    16  C    6.931629   5.516353   5.293959   4.310440   5.371091
    17  N    2.609502   1.694202   2.703466   3.413375   4.839933
    18  C    2.971678   2.645952   3.262926   4.081227   5.282912
    19  C    3.385340   2.657236   4.007818   4.641274   6.138907
    20  O    2.533634   1.466781   2.533403   3.177726   4.455185
    21  H    2.556588   2.233151   1.017163   2.112328   2.629161
    22  H    5.665628   4.854696   3.254222   2.248848   1.090830
    23  H    4.567410   4.086799   2.482472   2.238446   1.090855
    24  H    5.278200   3.918259   3.341809   2.248138   3.106382
    25  H    4.115958   3.013800   2.584626   2.230108   2.998176
    26  H    4.364204   3.072079   2.695617   2.150255   3.497524
    27  H    4.721860   3.770338   2.715380   2.124987   2.763557
    28  H    6.761383   5.568670   4.612940   3.449860   3.845697
    29  H    6.540259   5.328001   4.137811   2.697840   2.703192
    30  H    7.654271   6.288200   5.451353   4.030369   4.251592
    31  H    9.096061   7.653714   7.258064   6.011824   6.552975
    32  H    9.338915   7.884733   7.905000   6.890450   7.842732
    33  H    8.218089   6.834222   7.017128   6.227812   7.416922
    34  H    6.619758   5.293057   5.156822   4.372394   5.511118
    35  H    3.089539   2.804277   2.839602   3.611868   4.588801
    36  H    4.037787   3.576317   4.129734   4.686859   5.920711
    37  H    2.788656   2.988679   3.840070   4.899610   6.025206
    38  H    3.729784   2.798820   4.147045   4.611887   6.134674
    39  H    3.256783   3.006763   4.531817   5.407393   6.836321
    40  H    4.342564   3.580538   4.725019   5.168161   6.677223
                    6          7          8          9         10
     6  S    0.000000
     7  O    1.527499   0.000000
     8  C    1.865741   2.799129   0.000000
     9  C    3.589033   3.954913   2.612855   0.000000
    10  C    3.664087   3.394078   3.093094   1.547181   0.000000
    11  C    4.260328   3.826025   3.388588   2.586722   1.517872
    12  C    4.096955   3.366954   3.527227   3.658881   2.540102
    13  C    5.230099   4.510463   4.523239   4.847841   3.828286
    14  C    6.280022   5.725232   5.255414   5.200567   4.336596
    15  C    6.389547   6.007447   5.162439   4.510467   3.825894
    16  C    5.501432   5.203792   4.318232   3.203162   2.540004
    17  N    5.763798   6.651864   4.142900   3.279991   4.636370
    18  C    6.563414   7.421597   5.169459   3.726348   5.127284
    19  C    6.809356   7.651844   5.034869   4.468621   5.628970
    20  O    4.649769   5.789688   2.995091   3.957895   5.106277
    21  H    4.110932   5.253112   3.394241   2.867126   4.309418
    22  H    2.469545   2.815251   3.102396   2.648885   2.872624
    23  H    2.469684   3.600692   3.007821   3.399338   4.186322
    24  H    2.474114   2.853017   1.088021   2.718307   2.777200
    25  H    2.463704   3.618868   1.088359   3.443863   4.119213
    26  H    4.355915   4.781043   2.979638   1.092149   2.178438
    27  H    4.203997   4.590283   3.504230   1.096563   2.170413
    28  H    4.593223   4.206267   4.150876   2.146896   1.095666
    29  H    2.974353   2.452222   2.982464   2.184489   1.094878
    30  H    3.392133   2.415727   3.313893   3.843273   2.722586
    31  H    5.508102   4.673803   5.031106   5.728563   4.691752
    32  H    7.202362   6.633578   6.169846   6.253947   5.421461
    33  H    7.375653   7.066903   6.032811   5.217229   4.689999
    34  H    5.977107   5.831473   4.716510   3.060673   2.738767
    35  H    6.073605   6.917339   4.924906   3.271962   4.710462
    36  H    7.183089   7.869798   5.754275   3.986919   5.191150
    37  H    7.317941   8.296318   5.945921   4.741670   6.186063
    38  H    6.503424   7.319690   4.659604   4.586822   5.598895
    39  H    7.559275   8.521171   5.829444   5.381291   6.634614
    40  H    7.400061   8.078938   5.631744   4.670644   5.673363
                   11         12         13         14         15
    11  C    0.000000
    12  C    1.401691   0.000000
    13  C    2.434644   1.397328   0.000000
    14  C    2.818966   2.420981   1.394943   0.000000
    15  C    2.433654   2.784964   2.411483   1.397928   0.000000
    16  C    1.402733   2.407826   2.784340   2.420406   1.393985
    17  N    4.949495   5.973092   6.689666   6.538112   5.616236
    18  C    5.708913   6.893208   7.720408   7.544422   6.479997
    19  C    5.589240   6.519158   6.959788   6.569852   5.643267
    20  O    5.195814   5.683612   6.288401   6.446536   6.018690
    21  H    5.343714   6.182739   7.328515   7.729079   7.079125
    22  H    4.204069   4.683201   6.061786   6.893233   6.580922
    23  H    5.341476   5.765299   7.043716   7.843989   7.542454
    24  H    2.601576   2.573018   3.460338   4.186643   4.200016
    25  H    4.285032   4.356186   5.155606   5.802035   5.747789
    26  H    2.664952   3.847744   4.812116   4.888492   4.020979
    27  H    3.445357   4.588425   5.812392   6.123771   5.322832
    28  H    2.132832   3.239664   4.427909   4.783109   4.112752
    29  H    2.138148   2.597237   3.990731   4.800879   4.568300
    30  H    2.145171   1.086847   2.163058   3.408706   3.871699
    31  H    3.413425   2.152678   1.085518   2.154421   3.397892
    32  H    3.903855   3.405837   2.156978   1.084890   2.158329
    33  H    3.413715   3.871453   3.398221   2.157734   1.086516
    34  H    2.156494   3.394999   3.870966   3.401478   2.148722
    35  H    5.559606   6.756038   7.741265   7.724338   6.704482
    36  H    5.657025   6.932282   7.678032   7.342917   6.151745
    37  H    6.770792   7.917494   8.717785   8.522877   7.470078
    38  H    5.338962   6.076014   6.376882   6.000665   5.246212
    39  H    6.666942   7.578485   8.014646   7.622914   6.713615
    40  H    5.534142   6.563720   6.924670   6.355023   5.278112
                   16         17         18         19         20
    16  C    0.000000
    17  N    4.745225   0.000000
    18  C    5.473915   1.469087   0.000000
    19  C    5.094631   1.475645   2.449754   0.000000
    20  O    5.386717   2.523071   3.839521   2.870138   0.000000
    21  H    5.889128   3.064314   3.152521   4.473555   3.401264
    22  H    5.340545   5.398849   5.661386   6.738857   5.374294
    23  H    6.367562   5.120654   5.437242   6.460379   4.648721
    24  H    3.506355   4.372719   5.488294   5.067557   3.388042
    25  H    5.044706   4.113527   5.269980   4.842330   2.339204
    26  H    2.801712   2.479366   3.084102   3.506934   3.524995
    27  H    3.954913   3.503794   3.501762   4.830644   4.603635
    28  H    2.797443   5.108037   5.334448   6.114598   5.975379
    29  H    3.420730   5.392563   5.906755   6.455307   5.499125
    30  H    3.388731   6.426436   7.325463   7.117402   5.897079
    31  H    3.869835   7.588998   8.679048   7.835715   6.914632
    32  H    3.403996   7.348079   8.396543   7.209233   7.168774
    33  H    2.150926   5.839487   6.631724   5.645966   6.477816
    34  H    1.086673   4.257949   4.763229   4.632262   5.406241
    35  H    5.543346   2.113525   1.091079   3.394735   4.148622
    36  H    5.197197   2.077823   1.092558   2.662970   4.598863
    37  H    6.523776   2.142759   1.096155   2.748894   4.207346
    38  H    4.879980   2.105120   3.383043   1.087962   2.428879
    39  H    6.190936   2.150365   2.747426   1.097591   3.297859
    40  H    4.799885   2.076772   2.656404   1.091779   3.839716
                   21         22         23         24         25
    21  H    0.000000
    22  H    3.252461   0.000000
    23  H    2.403354   1.792910   0.000000
    24  H    4.231447   3.673009   3.968687   0.000000
    25  H    3.542868   3.958306   3.403684   1.789035   0.000000
    26  H    3.159727   3.716923   4.234253   2.911057   3.597801
    27  H    2.664602   2.601548   3.388520   3.767765   4.281166
    28  H    4.818817   3.317627   4.805747   3.868149   5.167186
    29  H    4.510094   2.282742   3.772308   2.793046   4.070296
    30  H    6.130689   4.205944   5.296173   2.537212   4.188799
    31  H    8.077610   6.638008   7.566370   4.001233   5.582795
    32  H    8.716092   7.952393   8.858063   5.089818   6.617354
    33  H    7.674869   7.469867   8.382957   5.113487   6.537184
    34  H    5.620881   5.442930   6.430947   4.086763   5.415576
    35  H    2.461976   4.864353   4.680532   5.360618   5.157766
    36  H    4.052914   6.160308   6.206413   5.900991   5.967818
    37  H    3.625105   6.474063   6.017296   6.351443   5.895781
    38  H    4.815935   6.811953   6.524769   4.577231   4.356503
    39  H    4.884465   7.492140   7.013165   5.976144   5.502079
    40  H    5.124888   7.140706   7.099271   5.515318   5.597330
                   26         27         28         29         30
    26  H    0.000000
    27  H    1.754613   0.000000
    28  H    2.684205   2.286408   0.000000
    29  H    3.050784   2.706940   1.755221   0.000000
    30  H    4.285121   4.722124   3.487052   2.323207   0.000000
    31  H    5.769920   6.708227   5.325250   4.660221   2.488104
    32  H    5.881384   7.182999   5.845198   5.864970   4.308358
    33  H    4.568041   5.942541   4.854674   5.526933   4.958172
    34  H    2.478008   3.583463   2.732253   3.783674   4.287652
    35  H    2.935235   2.792639   4.850223   5.382881   7.064819
    36  H    3.223486   3.733605   5.229888   6.095760   7.486812
    37  H    4.138390   4.480443   6.408453   6.919881   8.326082
    38  H    3.649734   5.167698   6.227329   6.361965   6.678332
    39  H    4.483124   5.641087   7.109551   7.424357   8.137518
    40  H    3.617384   4.975111   6.004726   6.614264   7.283193
                   31         32         33         34         35
    31  H    0.000000
    32  H    2.487112   0.000000
    33  H    4.299165   2.488223   0.000000
    34  H    4.956471   4.296695   2.468505   0.000000
    35  H    8.686797   8.657704   6.986671   4.861553   0.000000
    36  H    8.693854   8.159211   6.164347   4.337480   1.766643
    37  H    9.653983   9.336544   7.566922   5.815236   1.783043
    38  H    7.171713   6.566517   5.297412   4.638233   4.203546
    39  H    8.861607   8.221022   6.666037   5.701628   3.757748
    40  H    7.865751   6.954273   5.108722   4.191651   3.636696
                   36         37         38         39         40
    36  H    0.000000
    37  H    1.782981   0.000000
    38  H    3.638344   3.747103   0.000000
    39  H    3.065401   2.591811   1.787008   0.000000
    40  H    2.400698   3.064957   1.777456   1.779738   0.000000
 Stoichiometry    C13H20N2O3S2
 Framework group  C1[X(C13H20N2O3S2)]
 Deg. of freedom   114
 Full point group                 C1      NOp   1
 Largest Abelian subgroup         C1      NOp   1
 Largest concise Abelian subgroup C1      NOp   1
                         Standard orientation:                         
 ---------------------------------------------------------------------
 Center     Atomic      Atomic             Coordinates (Angstroms)
 Number     Number       Type             X           Y           Z
 ---------------------------------------------------------------------
      1          8           0       -4.110211    0.375638   -0.525367
      2         16           0       -2.700630   -0.041584   -0.573588
      3          7           0       -1.886993    1.127285    0.271103
      4          6           0       -0.418174    1.202528    0.459371
      5          6           0       -0.092894    2.643243    0.934980
      6         16           0        1.028786    3.001545   -0.511896
      7          8           0        2.487299    2.905297   -0.068352
      8          6           0        0.339089    1.309525   -0.889222
      9          6           0        0.102461    0.128525    1.429454
     10          6           0        1.633916    0.104388    1.648159
     11          6           0        2.400427   -0.834540    0.734480
     12          6           0        3.366976   -0.343580   -0.154047
     13          6           0        4.094088   -1.210906   -0.973545
     14          6           0        3.866583   -2.586032   -0.917558
     15          6           0        2.905624   -3.087473   -0.034768
     16          6           0        2.182889   -2.219481    0.782201
     17          7           0       -2.477699   -1.510677    0.240284
     18          6           0       -3.204735   -1.586371    1.514611
     19          6           0       -2.694994   -2.698595   -0.607751
     20          8           0       -2.047612   -0.206859   -1.876545
     21          1           0       -2.424468    1.436606    1.077368
     22          1           0        0.457995    2.715577    1.873701
     23          1           0       -0.944444    3.325020    0.937609
     24          1           0        1.138430    0.587264   -1.041481
     25          1           0       -0.308406    1.353311   -1.762925
     26          1           0       -0.241728   -0.848016    1.082050
     27          1           0       -0.395518    0.312636    2.388917
     28          1           0        1.812401   -0.202373    2.684752
     29          1           0        2.049456    1.112192    1.546102
     30          1           0        3.529087    0.729961   -0.203721
     31          1           0        4.837134   -0.809914   -1.655775
     32          1           0        4.429817   -3.261291   -1.552994
     33          1           0        2.723036   -4.157114    0.020428
     34          1           0        1.444334   -2.622009    1.470216
     35          1           0       -2.978888   -0.716925    2.133894
     36          1           0       -2.852935   -2.476636    2.041248
     37          1           0       -4.289585   -1.657634    1.374696
     38          1           0       -2.104049   -2.608278   -1.516755
     39          1           0       -3.751814   -2.843354   -0.866366
     40          1           0       -2.350870   -3.564671   -0.039006
 ---------------------------------------------------------------------
 Rotational constants (GHZ):      0.3688343      0.2249069      0.1648408
 Leave Link  202 at Sat Aug  8 02:34:29 2020, MaxMem=    33554432 cpu:         0.0
 (Enter /prod/apps/gaussian/g09d1/l301.exe)
 Standard basis: 6-31G(d) (6D, 7F)
 Ernie: Thresh=  0.10000D-02 Tol=  0.10000D-05 Strict=F.
 There are   348 symmetry adapted cartesian basis functions of A   symmetry.
 There are   348 symmetry adapted basis functions of A   symmetry.
   348 basis functions,   688 primitive gaussians,   348 cartesian basis functions
    84 alpha electrons       84 beta electrons
       nuclear repulsion energy      2029.3292328851 Hartrees.
 IExCor=  402 DFT=T Ex+Corr=B3LYP ExCW=0 ScaHFX=  0.200000
 ScaDFX=  0.800000  0.720000  1.000000  0.810000 ScalE2=  1.000000  1.000000
 IRadAn=      0 IRanWt=     -1 IRanGd=            0 ICorTp=0 IEmpDi=  4
 NAtoms=   40 NActive=   40 NUniq=   40 SFac= 1.00D+00 NAtFMM=   60 NAOKFM=F Big=F
 Integral buffers will be    131072 words long.
 Raffenetti 2 integral format.
 Two-electron integral symmetry is turned on.
 Leave Link  301 at Sat Aug  8 02:34:29 2020, MaxMem=    33554432 cpu:         0.0
 (Enter /prod/apps/gaussian/g09d1/l302.exe)
 NPDir=0 NMtPBC=     1 NCelOv=     1 NCel=       1 NClECP=     1 NCelD=      1
         NCelK=      1 NCelE2=     1 NClLst=     1 CellRange=     0.0.
 One-electron integrals computed using PRISM.
 NBasis=   348 RedAO= T EigKep=  4.58D-04  NBF=   348
 NBsUse=   348 1.00D-06 EigRej= -1.00D+00 NBFU=   348
 Precomputing XC quadrature grid using
 IXCGrd= 4 IRadAn=           0 IRanWt=          -1 IRanGd=           0 AccXCQ= 0.00D+00.
 Generated NRdTot=       0 NPtTot=           0 NUsed=           0 NTot=          32
 NSgBfM=   345   345   345   345   345 MxSgAt=    40 MxSgA2=    40.
 Leave Link  302 at Sat Aug  8 02:34:30 2020, MaxMem=    33554432 cpu:         1.3
 (Enter /prod/apps/gaussian/g09d1/l303.exe)
 DipDrv:  MaxL=1.
 Leave Link  303 at Sat Aug  8 02:34:30 2020, MaxMem=    33554432 cpu:         0.0
 (Enter /prod/apps/gaussian/g09d1/l401.exe)
 ExpMin= 1.17D-01 ExpMax= 2.19D+04 ExpMxC= 3.30D+03 IAcc=1 IRadAn=         1 AccDes= 0.00D+00
 Harris functional with IExCor=  402 and IRadAn=       1 diagonalized for initial guess.
 HarFok:  IExCor=  402 AccDes= 0.00D+00 IRadAn=         1 IDoV= 1 UseB2=F ITyADJ=14
 ICtDFT=  3500011 ScaDFX=  1.000000  1.000000  1.000000  1.000000
 FoFCou: FMM=F IPFlag=           0 FMFlag=      100000 FMFlg1=           0
         NFxFlg=           0 DoJE=T BraDBF=F KetDBF=T FulRan=T
         wScrn=  0.000000 ICntrl=     500 IOpCl=  0 I1Cent=   200000004 NGrid=           0
         NMat0=    1 NMatS0=      1 NMatT0=    0 NMatD0=    1 NMtDS0=    0 NMtDT0=    0
 Petite list used in FoFCou.
 Harris En= -1638.91018010404    
 JPrj=0 DoOrth=F DoCkMO=F.
 Leave Link  401 at Sat Aug  8 02:34:35 2020, MaxMem=    33554432 cpu:         5.1
 (Enter /prod/apps/gaussian/g09d1/l502.exe)
 Closed shell SCF:
 Using DIIS extrapolation, IDIIS=  1040.
 Integral symmetry usage will be decided dynamically.
 IVT=      386588 IEndB=      386588 NGot=    33554432 MDV=    33305937
 LenX=    33305937 LenY=    33184392
 Requested convergence on RMS density matrix=1.00D-08 within 128 cycles.
 Requested convergence on MAX density matrix=1.00D-06.
 Requested convergence on             energy=1.00D-06.
 No special actions if energy rises.
 Fock matrices will be formed incrementally for  20 cycles.
 Integral accuracy reduced to 1.0D-05 until final iterations.

 Cycle   1  Pass 0  IDiag  1:
 FoFJK:  IHMeth= 1 ICntrl=       0 DoSepK=F KAlg= 0 I1Cent=   0 FoldK=F
 IRaf= 800000000 NMat=   1 IRICut=       1 DoRegI=T DoRafI=F ISym2E= 0.
 FoFCou: FMM=F IPFlag=           0 FMFlag=      100000 FMFlg1=           0
         NFxFlg=           0 DoJE=F BraDBF=F KetDBF=F FulRan=T
         wScrn=  0.000000 ICntrl=       0 IOpCl=  0 I1Cent=           0 NGrid=           0
         NMat0=    1 NMatS0=      1 NMatT0=    0 NMatD0=    1 NMtDS0=    0 NMtDT0=    0
 Symmetry not used in FoFCou.
 E= -1638.04198144654    
 DIIS: error= 2.88D-02 at cycle   1 NSaved=   1.
 NSaved= 1 IEnMin= 1 EnMin= -1638.04198144654     IErMin= 1 ErrMin= 2.88D-02
 ErrMax= 2.88D-02  0.00D+00 EMaxC= 1.00D-01 BMatC= 8.89D-01 BMatP= 8.89D-01
 IDIUse=3 WtCom= 7.12D-01 WtEn= 2.88D-01
 Coeff-Com:  0.100D+01
 Coeff-En:   0.100D+01
 Coeff:      0.100D+01
 Gap=     0.348 Goal=   None    Shift=    0.000
 GapD=    0.348 DampG=1.000 DampE=0.500 DampFc=0.5000 IDamp=-1.
 Damping current iteration by 5.00D-01
 RMSDP=7.76D-03 MaxDP=6.10D-01              OVMax= 3.40D-01

 Cycle   2  Pass 0  IDiag  1:
 RMSU=  3.88D-03    CP:  9.99D-01
 E= -1638.16706395862     Delta-E=       -0.125082512072 Rises=F Damp=T
 DIIS: error= 2.31D-02 at cycle   2 NSaved=   2.
 NSaved= 2 IEnMin= 2 EnMin= -1638.16706395862     IErMin= 2 ErrMin= 2.31D-02
 ErrMax= 2.31D-02  0.00D+00 EMaxC= 1.00D-01 BMatC= 1.85D-01 BMatP= 8.89D-01
 IDIUse=3 WtCom= 7.69D-01 WtEn= 2.31D-01
 Coeff-Com:  0.269D+00 0.731D+00
 Coeff-En:   0.425D+00 0.575D+00
 Coeff:      0.305D+00 0.695D+00
 Gap=     0.315 Goal=   None    Shift=    0.000
 RMSDP=2.74D-03 MaxDP=1.35D-01 DE=-1.25D-01 OVMax= 2.10D-01

 Cycle   3  Pass 0  IDiag  1:
 RMSU=  2.06D-03    CP:  9.86D-01  5.39D-01
 E= -1638.69518053835     Delta-E=       -0.528116579731 Rises=F Damp=F
 DIIS: error= 1.75D-02 at cycle   3 NSaved=   3.
 NSaved= 3 IEnMin= 3 EnMin= -1638.69518053835     IErMin= 3 ErrMin= 1.75D-02
 ErrMax= 1.75D-02  0.00D+00 EMaxC= 1.00D-01 BMatC= 1.39D-01 BMatP= 1.85D-01
 IDIUse=3 WtCom= 8.25D-01 WtEn= 1.75D-01
 Coeff-Com:  0.126D+00 0.455D+00 0.418D+00
 Coeff-En:   0.000D+00 0.000D+00 0.100D+01
 Coeff:      0.104D+00 0.376D+00 0.520D+00
 Gap=     0.245 Goal=   None    Shift=    0.000
 RMSDP=1.93D-03 MaxDP=8.00D-02 DE=-5.28D-01 OVMax= 1.66D-01

 Cycle   4  Pass 0  IDiag  1:
 RMSU=  1.03D-03    CP:  9.95D-01  6.92D-01  2.67D-01
 E= -1638.78788262222     Delta-E=       -0.092702083872 Rises=F Damp=F
 DIIS: error= 1.02D-02 at cycle   4 NSaved=   4.
 NSaved= 4 IEnMin= 4 EnMin= -1638.78788262222     IErMin= 4 ErrMin= 1.02D-02
 ErrMax= 1.02D-02  0.00D+00 EMaxC= 1.00D-01 BMatC= 4.32D-02 BMatP= 1.39D-01
 IDIUse=3 WtCom= 8.98D-01 WtEn= 1.02D-01
 Coeff-Com:  0.304D-01 0.107D+00 0.349D+00 0.513D+00
 Coeff-En:   0.000D+00 0.000D+00 0.271D+00 0.729D+00
 Coeff:      0.273D-01 0.962D-01 0.341D+00 0.535D+00
 Gap=     0.236 Goal=   None    Shift=    0.000
 RMSDP=8.79D-04 MaxDP=4.16D-02 DE=-9.27D-02 OVMax= 8.65D-02

 Cycle   5  Pass 0  IDiag  1:
 RMSU=  3.52D-04    CP:  9.93D-01  6.24D-01  5.47D-01  5.21D-01
 E= -1638.82295314698     Delta-E=       -0.035070524762 Rises=F Damp=F
 DIIS: error= 2.96D-03 at cycle   5 NSaved=   5.
 NSaved= 5 IEnMin= 5 EnMin= -1638.82295314698     IErMin= 5 ErrMin= 2.96D-03
 ErrMax= 2.96D-03  0.00D+00 EMaxC= 1.00D-01 BMatC= 4.36D-03 BMatP= 4.32D-02
 IDIUse=3 WtCom= 9.70D-01 WtEn= 2.96D-02
 Coeff-Com:  0.343D-02 0.147D-01 0.165D+00 0.352D+00 0.465D+00
 Coeff-En:   0.000D+00 0.000D+00 0.000D+00 0.610D-01 0.939D+00
 Coeff:      0.333D-02 0.143D-01 0.160D+00 0.343D+00 0.479D+00
 Gap=     0.229 Goal=   None    Shift=    0.000
 RMSDP=2.51D-04 MaxDP=1.16D-02 DE=-3.51D-02 OVMax= 1.98D-02

 Cycle   6  Pass 0  IDiag  1:
 RMSU=  1.17D-04    CP:  9.93D-01  6.38D-01  5.15D-01  6.13D-01  4.85D-01
 E= -1638.82633300464     Delta-E=       -0.003379857658 Rises=F Damp=F
 DIIS: error= 9.20D-04 at cycle   6 NSaved=   6.
 NSaved= 6 IEnMin= 6 EnMin= -1638.82633300464     IErMin= 6 ErrMin= 9.20D-04
 ErrMax= 9.20D-04  0.00D+00 EMaxC= 1.00D-01 BMatC= 4.10D-04 BMatP= 4.36D-03
 IDIUse=3 WtCom= 9.91D-01 WtEn= 9.20D-03
 Coeff-Com: -0.108D-02-0.237D-02 0.474D-01 0.126D+00 0.287D+00 0.544D+00
 Coeff-En:   0.000D+00 0.000D+00 0.000D+00 0.000D+00 0.553D-01 0.945D+00
 Coeff:     -0.107D-02-0.235D-02 0.469D-01 0.124D+00 0.285D+00 0.548D+00
 Gap=     0.229 Goal=   None    Shift=    0.000
 RMSDP=7.00D-05 MaxDP=3.56D-03 DE=-3.38D-03 OVMax= 3.67D-03

 Cycle   7  Pass 0  IDiag  1:
 RMSU=  3.77D-05    CP:  9.92D-01  6.36D-01  5.19D-01  6.17D-01  5.69D-01
                    CP:  5.75D-01
 E= -1638.82663854601     Delta-E=       -0.000305541370 Rises=F Damp=F
 DIIS: error= 1.46D-04 at cycle   7 NSaved=   7.
 NSaved= 7 IEnMin= 7 EnMin= -1638.82663854601     IErMin= 7 ErrMin= 1.46D-04
 ErrMax= 1.46D-04  0.00D+00 EMaxC= 1.00D-01 BMatC= 3.09D-05 BMatP= 4.10D-04
 IDIUse=3 WtCom= 9.99D-01 WtEn= 1.46D-03
 Coeff-Com: -0.699D-03-0.248D-02 0.682D-02 0.254D-01 0.989D-01 0.293D+00
 Coeff-Com:  0.579D+00
 Coeff-En:   0.000D+00 0.000D+00 0.000D+00 0.000D+00 0.000D+00 0.437D-02
 Coeff-En:   0.996D+00
 Coeff:     -0.698D-03-0.248D-02 0.681D-02 0.253D-01 0.988D-01 0.293D+00
 Coeff:      0.580D+00
 Gap=     0.228 Goal=   None    Shift=    0.000
 RMSDP=1.86D-05 MaxDP=7.09D-04 DE=-3.06D-04 OVMax= 7.15D-04

 Cycle   8  Pass 0  IDiag  1:
 RMSU=  1.00D-05    CP:  9.92D-01  6.36D-01  5.19D-01  6.15D-01  5.72D-01
                    CP:  6.41D-01  6.47D-01
 E= -1638.82666646189     Delta-E=       -0.000027915880 Rises=F Damp=F
 DIIS: error= 2.95D-05 at cycle   8 NSaved=   8.
 NSaved= 8 IEnMin= 8 EnMin= -1638.82666646189     IErMin= 8 ErrMin= 2.95D-05
 ErrMax= 2.95D-05  0.00D+00 EMaxC= 1.00D-01 BMatC= 1.04D-06 BMatP= 3.09D-05
 IDIUse=1 WtCom= 1.00D+00 WtEn= 0.00D+00
 Coeff-Com: -0.128D-03-0.696D-03-0.483D-03 0.113D-02 0.197D-01 0.802D-01
 Coeff-Com:  0.233D+00 0.667D+00
 Coeff:     -0.128D-03-0.696D-03-0.483D-03 0.113D-02 0.197D-01 0.802D-01
 Coeff:      0.233D+00 0.667D+00
 Gap=     0.229 Goal=   None    Shift=    0.000
 RMSDP=4.43D-06 MaxDP=1.88D-04 DE=-2.79D-05 OVMax= 3.44D-04

 Initial convergence to 1.0D-05 achieved.  Increase integral accuracy.
 Cycle   9  Pass 1  IDiag  1:
 E= -1638.82683730651     Delta-E=       -0.000170844618 Rises=F Damp=F
 DIIS: error= 6.22D-05 at cycle   1 NSaved=   1.
 NSaved= 1 IEnMin= 1 EnMin= -1638.82683730651     IErMin= 1 ErrMin= 6.22D-05
 ErrMax= 6.22D-05  0.00D+00 EMaxC= 1.00D-01 BMatC= 8.69D-07 BMatP= 8.69D-07
 IDIUse=1 WtCom= 1.00D+00 WtEn= 0.00D+00
 Coeff-Com:  0.100D+01
 Coeff:      0.100D+01
 Gap=     0.229 Goal=   None    Shift=    0.000
 RMSDP=4.43D-06 MaxDP=1.88D-04 DE=-1.71D-04 OVMax= 4.71D-04

 Cycle  10  Pass 1  IDiag  1:
 RMSU=  3.05D-05    CP:  1.00D+00
 E= -1638.82683762189     Delta-E=       -0.000000315382 Rises=F Damp=F
 DIIS: error= 4.45D-05 at cycle   2 NSaved=   2.
 NSaved= 2 IEnMin= 2 EnMin= -1638.82683762189     IErMin= 2 ErrMin= 4.45D-05
 ErrMax= 4.45D-05  0.00D+00 EMaxC= 1.00D-01 BMatC= 5.76D-07 BMatP= 8.69D-07
 IDIUse=1 WtCom= 1.00D+00 WtEn= 0.00D+00
 Coeff-Com:  0.428D+00 0.572D+00
 Coeff:      0.428D+00 0.572D+00
 Gap=     0.229 Goal=   None    Shift=    0.000
 RMSDP=4.06D-06 MaxDP=1.41D-04 DE=-3.15D-07 OVMax= 5.19D-04

 Cycle  11  Pass 1  IDiag  1:
 RMSU=  4.05D-06    CP:  1.00D+00  9.91D-01
 E= -1638.82683796514     Delta-E=       -0.000000343252 Rises=F Damp=F
 DIIS: error= 3.25D-05 at cycle   3 NSaved=   3.
 NSaved= 3 IEnMin= 3 EnMin= -1638.82683796514     IErMin= 3 ErrMin= 3.25D-05
 ErrMax= 3.25D-05  0.00D+00 EMaxC= 1.00D-01 BMatC= 2.68D-07 BMatP= 5.76D-07
 IDIUse=1 WtCom= 1.00D+00 WtEn= 0.00D+00
 Coeff-Com:  0.115D-01 0.403D+00 0.586D+00
 Coeff:      0.115D-01 0.403D+00 0.586D+00
 Gap=     0.229 Goal=   None    Shift=    0.000
 RMSDP=1.82D-06 MaxDP=6.33D-05 DE=-3.43D-07 OVMax= 2.40D-04

 Cycle  12  Pass 1  IDiag  1:
 RMSU=  6.58D-07    CP:  1.00D+00  1.00D+00  5.91D-01
 E= -1638.82683826157     Delta-E=       -0.000000296431 Rises=F Damp=F
 DIIS: error= 3.81D-06 at cycle   4 NSaved=   4.
 NSaved= 4 IEnMin= 4 EnMin= -1638.82683826157     IErMin= 4 ErrMin= 3.81D-06
 ErrMax= 3.81D-06  0.00D+00 EMaxC= 1.00D-01 BMatC= 9.98D-09 BMatP= 2.68D-07
 IDIUse=1 WtCom= 1.00D+00 WtEn= 0.00D+00
 Coeff-Com: -0.746D-02 0.210D+00 0.333D+00 0.465D+00
 Coeff:     -0.746D-02 0.210D+00 0.333D+00 0.465D+00
 Gap=     0.229 Goal=   None    Shift=    0.000
 RMSDP=3.42D-07 MaxDP=1.41D-05 DE=-2.96D-07 OVMax= 2.15D-05

 Cycle  13  Pass 1  IDiag  1:
 RMSU=  1.50D-07    CP:  1.00D+00  1.00D+00  6.03D-01  5.40D-01
 E= -1638.82683827089     Delta-E=       -0.000000009320 Rises=F Damp=F
 DIIS: error= 1.07D-06 at cycle   5 NSaved=   5.
 NSaved= 5 IEnMin= 5 EnMin= -1638.82683827089     IErMin= 5 ErrMin= 1.07D-06
 ErrMax= 1.07D-06  0.00D+00 EMaxC= 1.00D-01 BMatC= 3.96D-10 BMatP= 9.98D-09
 IDIUse=1 WtCom= 1.00D+00 WtEn= 0.00D+00
 Coeff-Com: -0.458D-02 0.105D+00 0.169D+00 0.264D+00 0.466D+00
 Coeff:     -0.458D-02 0.105D+00 0.169D+00 0.264D+00 0.466D+00
 Gap=     0.229 Goal=   None    Shift=    0.000
 RMSDP=7.46D-08 MaxDP=3.64D-06 DE=-9.32D-09 OVMax= 4.45D-06

 Cycle  14  Pass 1  IDiag  1:
 RMSU=  6.38D-08    CP:  1.00D+00  1.00D+00  6.03D-01  5.43D-01  7.47D-01
 E= -1638.82683827114     Delta-E=       -0.000000000244 Rises=F Damp=F
 DIIS: error= 4.31D-07 at cycle   6 NSaved=   6.
 NSaved= 6 IEnMin= 6 EnMin= -1638.82683827114     IErMin= 6 ErrMin= 4.31D-07
 ErrMax= 4.31D-07  0.00D+00 EMaxC= 1.00D-01 BMatC= 4.87D-11 BMatP= 3.96D-10
 IDIUse=1 WtCom= 1.00D+00 WtEn= 0.00D+00
 Coeff-Com: -0.145D-02 0.269D-01 0.442D-01 0.765D-01 0.276D+00 0.578D+00
 Coeff:     -0.145D-02 0.269D-01 0.442D-01 0.765D-01 0.276D+00 0.578D+00
 Gap=     0.229 Goal=   None    Shift=    0.000
 RMSDP=2.71D-08 MaxDP=1.17D-06 DE=-2.44D-10 OVMax= 1.62D-06

 Cycle  15  Pass 1  IDiag  1:
 RMSU=  2.00D-08    CP:  1.00D+00  1.00D+00  6.03D-01  5.43D-01  7.99D-01
                    CP:  7.44D-01
 E= -1638.82683827121     Delta-E=       -0.000000000079 Rises=F Damp=F
 DIIS: error= 1.05D-07 at cycle   7 NSaved=   7.
 NSaved= 7 IEnMin= 7 EnMin= -1638.82683827121     IErMin= 7 ErrMin= 1.05D-07
 ErrMax= 1.05D-07  0.00D+00 EMaxC= 1.00D-01 BMatC= 7.43D-12 BMatP= 4.87D-11
 IDIUse=1 WtCom= 1.00D+00 WtEn= 0.00D+00
 Coeff-Com: -0.133D-03-0.475D-03-0.165D-03 0.420D-02 0.918D-01 0.343D+00
 Coeff-Com:  0.562D+00
 Coeff:     -0.133D-03-0.475D-03-0.165D-03 0.420D-02 0.918D-01 0.343D+00
 Coeff:      0.562D+00
 Gap=     0.229 Goal=   None    Shift=    0.000
 RMSDP=1.08D-08 MaxDP=4.58D-07 DE=-7.87D-11 OVMax= 7.25D-07

 Cycle  16  Pass 1  IDiag  1:
 RMSU=  7.23D-09    CP:  1.00D+00  1.00D+00  6.03D-01  5.45D-01  8.12D-01
                    CP:  7.96D-01  6.57D-01
 E= -1638.82683827121     Delta-E=        0.000000000008 Rises=F Damp=F
 DIIS: error= 4.44D-08 at cycle   8 NSaved=   8.
 NSaved= 8 IEnMin= 7 EnMin= -1638.82683827121     IErMin= 8 ErrMin= 4.44D-08
 ErrMax= 4.44D-08  0.00D+00 EMaxC= 1.00D-01 BMatC= 9.55D-13 BMatP= 7.43D-12
 IDIUse=1 WtCom= 1.00D+00 WtEn= 0.00D+00
 Coeff-Com: -0.129D-05-0.197D-02-0.288D-02-0.217D-02 0.390D-01 0.178D+00
 Coeff-Com:  0.358D+00 0.432D+00
 Coeff:     -0.129D-05-0.197D-02-0.288D-02-0.217D-02 0.390D-01 0.178D+00
 Coeff:      0.358D+00 0.432D+00
 Gap=     0.229 Goal=   None    Shift=    0.000
 RMSDP=4.12D-09 MaxDP=1.69D-07 DE= 8.19D-12 OVMax= 3.27D-07

 SCF Done:  E(RB3LYP) =  -1638.82683827     A.U. after   16 cycles
            NFock= 16  Conv=0.41D-08     -V/T= 2.0066
 KE= 1.628098880024D+03 PE=-7.908955310620D+03 EE= 2.612700359439D+03
 Leave Link  502 at Sat Aug  8 02:41:27 2020, MaxMem=    33554432 cpu:       411.5
 (Enter /prod/apps/gaussian/g09d1/l601.exe)
 Copying SCF densities to generalized density rwf, IOpCl= 0 IROHF=0.

 **********************************************************************

            Population analysis using the SCF density.

 **********************************************************************

 Orbital symmetries:
       Occupied  (A) (A) (A) (A) (A) (A) (A) (A) (A) (A) (A) (A)
                 (A) (A) (A) (A) (A) (A) (A) (A) (A) (A) (A) (A)
                 (A) (A) (A) (A) (A) (A) (A) (A) (A) (A) (A) (A)
                 (A) (A) (A) (A) (A) (A) (A) (A) (A) (A) (A) (A)
                 (A) (A) (A) (A) (A) (A) (A) (A) (A) (A) (A) (A)
                 (A) (A) (A) (A) (A) (A) (A) (A) (A) (A) (A) (A)
                 (A) (A) (A) (A) (A) (A) (A) (A) (A) (A) (A) (A)
       Virtual   (A) (A) (A) (A) (A) (A) (A) (A) (A) (A) (A) (A)
                 (A) (A) (A) (A) (A) (A) (A) (A) (A) (A) (A) (A)
                 (A) (A) (A) (A) (A) (A) (A) (A) (A) (A) (A) (A)
                 (A) (A) (A) (A) (A) (A) (A) (A) (A) (A) (A) (A)
                 (A) (A) (A) (A) (A) (A) (A) (A) (A) (A) (A) (A)
                 (A) (A) (A) (A) (A) (A) (A) (A) (A) (A) (A) (A)
                 (A) (A) (A) (A) (A) (A) (A) (A) (A) (A) (A) (A)
                 (A) (A) (A) (A) (A) (A) (A) (A) (A) (A) (A) (A)
                 (A) (A) (A) (A) (A) (A) (A) (A) (A) (A) (A) (A)
                 (A) (A) (A) (A) (A) (A) (A) (A) (A) (A) (A) (A)
                 (A) (A) (A) (A) (A) (A) (A) (A) (A) (A) (A) (A)
                 (A) (A) (A) (A) (A) (A) (A) (A) (A) (A) (A) (A)
                 (A) (A) (A) (A) (A) (A) (A) (A) (A) (A) (A) (A)
                 (A) (A) (A) (A) (A) (A) (A) (A) (A) (A) (A) (A)
                 (A) (A) (A) (A) (A) (A) (A) (A) (A) (A) (A) (A)
                 (A) (A) (A) (A) (A) (A) (A) (A) (A) (A) (A) (A)
                 (A) (A) (A) (A) (A) (A) (A) (A) (A) (A) (A) (A)
                 (A) (A) (A) (A) (A) (A) (A) (A) (A) (A) (A) (A)
                 (A) (A) (A) (A) (A) (A) (A) (A) (A) (A) (A) (A)
                 (A) (A) (A) (A) (A) (A) (A) (A) (A) (A) (A) (A)
                 (A) (A) (A) (A) (A) (A) (A) (A) (A) (A) (A) (A)
                 (A) (A) (A) (A) (A) (A) (A) (A) (A) (A) (A) (A)
 The electronic state is 1-A.
 Alpha  occ. eigenvalues --  -89.13541 -88.98705 -19.14867 -19.14660 -19.11731
 Alpha  occ. eigenvalues --  -14.38618 -14.38276 -10.27106 -10.23843 -10.22950
 Alpha  occ. eigenvalues --  -10.22715 -10.21311 -10.20027 -10.19271 -10.19157
 Alpha  occ. eigenvalues --  -10.18737 -10.18544 -10.18498 -10.18416 -10.17761
 Alpha  occ. eigenvalues --   -8.15752  -8.03524  -6.12243  -6.12182  -6.12138
 Alpha  occ. eigenvalues --   -5.99933  -5.99762  -5.99291  -1.12571  -1.00502
 Alpha  occ. eigenvalues --   -1.00397  -0.95316  -0.94455  -0.85473  -0.84563
 Alpha  occ. eigenvalues --   -0.78895  -0.73967  -0.73802  -0.73730  -0.71767
 Alpha  occ. eigenvalues --   -0.70889  -0.67790  -0.63136  -0.61122  -0.59884
 Alpha  occ. eigenvalues --   -0.57935  -0.56627  -0.55711  -0.52926  -0.50958
 Alpha  occ. eigenvalues --   -0.50653  -0.48833  -0.48450  -0.47482  -0.46921
 Alpha  occ. eigenvalues --   -0.45031  -0.44657  -0.44384  -0.43584  -0.43204
 Alpha  occ. eigenvalues --   -0.42156  -0.41985  -0.41528  -0.41427  -0.40766
 Alpha  occ. eigenvalues --   -0.39879  -0.39731  -0.38694  -0.37109  -0.36001
 Alpha  occ. eigenvalues --   -0.35044  -0.34687  -0.34474  -0.33543  -0.32867
 Alpha  occ. eigenvalues --   -0.32473  -0.31944  -0.30665  -0.29733  -0.26614
 Alpha  occ. eigenvalues --   -0.26082  -0.24497  -0.23897  -0.22989
 Alpha virt. eigenvalues --   -0.00129   0.00244   0.00357   0.02107   0.03210
 Alpha virt. eigenvalues --    0.05220   0.06498   0.07210   0.07956   0.09554
 Alpha virt. eigenvalues --    0.10124   0.10590   0.11462   0.11748   0.12319
 Alpha virt. eigenvalues --    0.13462   0.14147   0.14626   0.15148   0.15660
 Alpha virt. eigenvalues --    0.16222   0.16662   0.16845   0.17108   0.17533
 Alpha virt. eigenvalues --    0.17994   0.18376   0.19051   0.19709   0.20554
 Alpha virt. eigenvalues --    0.21041   0.21823   0.22394   0.22727   0.23762
 Alpha virt. eigenvalues --    0.26664   0.27315   0.29742   0.31135   0.32565
 Alpha virt. eigenvalues --    0.33073   0.33803   0.35370   0.35704   0.36268
 Alpha virt. eigenvalues --    0.38822   0.41960   0.42423   0.43560   0.45543
 Alpha virt. eigenvalues --    0.46405   0.48303   0.49318   0.51112   0.51890
 Alpha virt. eigenvalues --    0.52511   0.53820   0.54104   0.54471   0.55760
 Alpha virt. eigenvalues --    0.56437   0.57128   0.57867   0.58127   0.59805
 Alpha virt. eigenvalues --    0.59978   0.60155   0.60879   0.61446   0.61883
 Alpha virt. eigenvalues --    0.62106   0.62708   0.64735   0.65266   0.65783
 Alpha virt. eigenvalues --    0.67551   0.68375   0.69095   0.69859   0.71755
 Alpha virt. eigenvalues --    0.73111   0.74487   0.75113   0.75906   0.76421
 Alpha virt. eigenvalues --    0.78486   0.78856   0.79706   0.80996   0.81631
 Alpha virt. eigenvalues --    0.82350   0.82793   0.83861   0.84236   0.84551
 Alpha virt. eigenvalues --    0.84990   0.85869   0.86409   0.87115   0.87652
 Alpha virt. eigenvalues --    0.87903   0.88604   0.89803   0.90295   0.90828
 Alpha virt. eigenvalues --    0.91115   0.92432   0.92934   0.93850   0.94718
 Alpha virt. eigenvalues --    0.94997   0.95902   0.96490   0.97341   0.98178
 Alpha virt. eigenvalues --    0.99103   1.00438   1.00930   1.03315   1.04075
 Alpha virt. eigenvalues --    1.05599   1.05991   1.07238   1.09274   1.10535
 Alpha virt. eigenvalues --    1.11269   1.11629   1.12194   1.13911   1.14708
 Alpha virt. eigenvalues --    1.15340   1.17216   1.17314   1.19366   1.21443
 Alpha virt. eigenvalues --    1.22182   1.24008   1.24666   1.26896   1.28366
 Alpha virt. eigenvalues --    1.30933   1.32730   1.33904   1.34870   1.37597
 Alpha virt. eigenvalues --    1.40280   1.42886   1.44184   1.44815   1.45293
 Alpha virt. eigenvalues --    1.48435   1.48888   1.50972   1.51644   1.52162
 Alpha virt. eigenvalues --    1.53376   1.57677   1.58847   1.60282   1.64453
 Alpha virt. eigenvalues --    1.67882   1.69631   1.73015   1.73898   1.76088
 Alpha virt. eigenvalues --    1.79057   1.80282   1.80411   1.81188   1.82352
 Alpha virt. eigenvalues --    1.82525   1.83443   1.83990   1.84481   1.85575
 Alpha virt. eigenvalues --    1.87139   1.87980   1.90159   1.90395   1.91005
 Alpha virt. eigenvalues --    1.92235   1.92878   1.93233   1.95092   1.95354
 Alpha virt. eigenvalues --    1.97497   1.98212   1.98916   1.99563   2.01003
 Alpha virt. eigenvalues --    2.02892   2.04928   2.05547   2.05825   2.07418
 Alpha virt. eigenvalues --    2.08743   2.10907   2.11112   2.11902   2.13343
 Alpha virt. eigenvalues --    2.14431   2.15149   2.15700   2.17160   2.18765
 Alpha virt. eigenvalues --    2.19497   2.21430   2.22400   2.24103   2.24750
 Alpha virt. eigenvalues --    2.27481   2.30681   2.31329   2.31629   2.31938
 Alpha virt. eigenvalues --    2.33720   2.34511   2.39739   2.41333   2.42161
 Alpha virt. eigenvalues --    2.45088   2.47952   2.49019   2.50714   2.56200
 Alpha virt. eigenvalues --    2.58365   2.59165   2.60596   2.64656   2.67392
 Alpha virt. eigenvalues --    2.70591   2.72325   2.72786   2.73966   2.74798
 Alpha virt. eigenvalues --    2.75654   2.76919   2.78332   2.79696   2.81699
 Alpha virt. eigenvalues --    2.89709   2.92612   3.06376   3.41333   3.79191
 Alpha virt. eigenvalues --    3.85979   3.92595   3.94154   4.00172   4.01929
 Alpha virt. eigenvalues --    4.05333   4.09748   4.13154   4.18253   4.19364
 Alpha virt. eigenvalues --    4.23215   4.24147   4.31446   4.34928   4.36548
 Alpha virt. eigenvalues --    4.44545   4.53431   4.69771   4.76904
          Condensed to atoms (all electrons):
               1          2          3          4          5          6
     1  O    8.233975   0.448110  -0.060429   0.002208  -0.000087   0.000002
     2  S    0.448110  13.573402   0.158520   0.002301   0.000554   0.000522
     3  N   -0.060429   0.158520   7.388453   0.183182  -0.041886   0.002451
     4  C    0.002208   0.002301   0.183182   4.819834   0.330090  -0.070856
     5  C   -0.000087   0.000554  -0.041886   0.330090   5.707899   0.057383
     6  S    0.000002   0.000522   0.002451  -0.070856   0.057383  14.921726
     7  O    0.000000  -0.000001  -0.000035   0.000884  -0.037660   0.285376
     8  C   -0.000050  -0.002923  -0.046455   0.341981  -0.127235   0.085335
     9  C   -0.000103  -0.008897  -0.053088   0.394496  -0.052430   0.007199
    10  C    0.000000   0.000167   0.004240  -0.029311  -0.003252   0.000503
    11  C    0.000000  -0.000006  -0.000037  -0.002503  -0.000162  -0.000872
    12  C    0.000000   0.000000  -0.000008   0.000499  -0.000102   0.001957
    13  C    0.000000   0.000000   0.000000  -0.000004  -0.000002   0.000034
    14  C    0.000000   0.000000   0.000000   0.000002   0.000000  -0.000004
    15  C    0.000000  -0.000001   0.000000  -0.000013   0.000000   0.000002
    16  C    0.000000  -0.000016   0.000000  -0.000150  -0.000009  -0.000042
    17  N   -0.057624   0.126382  -0.051848   0.000321  -0.000049   0.000000
    18  C    0.002820  -0.006674  -0.005259   0.000268  -0.000021   0.000001
    19  C   -0.002673  -0.020901   0.002087  -0.000118   0.000001  -0.000001
    20  O   -0.045745   0.434007  -0.052539  -0.001345  -0.000044   0.000202
    21  H    0.001679  -0.005339   0.285547  -0.023173  -0.007031   0.000253
    22  H    0.000000  -0.000055   0.001985  -0.026122   0.345770  -0.017559
    23  H   -0.000021   0.000066  -0.001678  -0.030562   0.329085  -0.008664
    24  H    0.000000  -0.000064   0.001694  -0.025715   0.007565  -0.021303
    25  H   -0.000150  -0.001565  -0.002943  -0.024994   0.006858  -0.010053
    26  H    0.000007   0.003389  -0.005683  -0.027628   0.005321  -0.000455
    27  H   -0.000001  -0.000695  -0.001126  -0.039094  -0.008365  -0.000196
    28  H    0.000000  -0.000005  -0.000149   0.003902   0.000105   0.000086
    29  H    0.000000   0.000005   0.000033  -0.005774  -0.002082  -0.000882
    30  H    0.000000   0.000000  -0.000001   0.000042   0.000133  -0.001610
    31  H    0.000000   0.000000   0.000000   0.000001   0.000000   0.000003
    32  H    0.000000   0.000000   0.000000   0.000000   0.000000   0.000000
    33  H    0.000000   0.000000   0.000000   0.000000   0.000000   0.000000
    34  H    0.000000   0.000001   0.000003   0.000119   0.000001  -0.000002
    35  H   -0.002293   0.000634   0.007386  -0.000843   0.000019  -0.000002
    36  H    0.000115   0.002590  -0.000127   0.000014   0.000000   0.000000
    37  H    0.006933  -0.008113  -0.000202  -0.000018   0.000000   0.000000
    38  H   -0.000140  -0.003573   0.000101   0.000007   0.000000   0.000000
    39  H    0.002931  -0.003379  -0.000092  -0.000001   0.000000   0.000000
    40  H   -0.000118   0.001788  -0.000073   0.000009   0.000000   0.000000
               7          8          9         10         11         12
     1  O    0.000000  -0.000050  -0.000103   0.000000   0.000000   0.000000
     2  S   -0.000001  -0.002923  -0.008897   0.000167  -0.000006   0.000000
     3  N   -0.000035  -0.046455  -0.053088   0.004240  -0.000037  -0.000008
     4  C    0.000884   0.341981   0.394496  -0.029311  -0.002503   0.000499
     5  C   -0.037660  -0.127235  -0.052430  -0.003252  -0.000162  -0.000102
     6  S    0.285376   0.085335   0.007199   0.000503  -0.000872   0.001957
     7  O    8.375397  -0.034420   0.000020  -0.008177  -0.001264  -0.007146
     8  C   -0.034420   5.665110  -0.049846  -0.003752  -0.003058  -0.006693
     9  C    0.000020  -0.049846   5.146407   0.312934  -0.032294   0.000931
    10  C   -0.008177  -0.003752   0.312934   5.265129   0.350964  -0.050555
    11  C   -0.001264  -0.003058  -0.032294   0.350964   4.648042   0.548884
    12  C   -0.007146  -0.006693   0.000931  -0.050555   0.548884   5.021493
    13  C    0.000170  -0.000314  -0.000179   0.007429  -0.023758   0.504615
    14  C    0.000000   0.000026   0.000009   0.000349  -0.034317  -0.034245
    15  C    0.000000   0.000051   0.000123   0.006248  -0.016204  -0.047893
    16  C   -0.000010   0.000046  -0.006804  -0.067514   0.542623  -0.040433
    17  N    0.000000  -0.000978  -0.006491   0.000254  -0.000015  -0.000001
    18  C    0.000000   0.000001   0.000101  -0.000027   0.000002   0.000000
    19  C    0.000000   0.000013   0.000148   0.000001   0.000000   0.000000
    20  O    0.000000  -0.001872  -0.000887  -0.000009   0.000001   0.000000
    21  H    0.000002   0.005089  -0.001029  -0.000084   0.000002   0.000000
    22  H   -0.000484   0.007811  -0.006677  -0.000108   0.000270  -0.000022
    23  H    0.001233   0.007201   0.003552   0.000074  -0.000010   0.000002
    24  H   -0.001358   0.343687  -0.006323  -0.002973   0.008471   0.012248
    25  H    0.001127   0.330309   0.002916   0.000083  -0.000013   0.000101
    26  H    0.000005  -0.003735   0.365451  -0.039231  -0.004169   0.000376
    27  H    0.000014   0.006506   0.347629  -0.028711   0.003366  -0.000112
    28  H    0.000139  -0.000081  -0.031951   0.351875  -0.029593   0.002058
    29  H    0.024363  -0.001716  -0.041324   0.345710  -0.032218  -0.003773
    30  H    0.022331  -0.001702   0.000348  -0.012263  -0.037868   0.342169
    31  H   -0.000002  -0.000008   0.000001  -0.000185   0.003621  -0.038536
    32  H    0.000000   0.000000   0.000000   0.000007   0.000661   0.004688
    33  H    0.000000   0.000000   0.000000  -0.000190   0.003812   0.000760
    34  H    0.000000  -0.000011   0.001184  -0.009588  -0.048520   0.006482
    35  H    0.000000   0.000029   0.000973   0.000012   0.000000   0.000000
    36  H    0.000000   0.000001   0.000204  -0.000008   0.000001   0.000000
    37  H    0.000000  -0.000001  -0.000019   0.000000   0.000000   0.000000
    38  H    0.000000   0.000017   0.000019  -0.000001   0.000001   0.000000
    39  H    0.000000  -0.000001  -0.000011   0.000000   0.000000   0.000000
    40  H    0.000000  -0.000001   0.000056  -0.000003   0.000001   0.000000
              13         14         15         16         17         18
     1  O    0.000000   0.000000   0.000000   0.000000  -0.057624   0.002820
     2  S    0.000000   0.000000  -0.000001  -0.000016   0.126382  -0.006674
     3  N    0.000000   0.000000   0.000000   0.000000  -0.051848  -0.005259
     4  C   -0.000004   0.000002  -0.000013  -0.000150   0.000321   0.000268
     5  C   -0.000002   0.000000   0.000000  -0.000009  -0.000049  -0.000021
     6  S    0.000034  -0.000004   0.000002  -0.000042   0.000000   0.000001
     7  O    0.000170   0.000000   0.000000  -0.000010   0.000000   0.000000
     8  C   -0.000314   0.000026   0.000051   0.000046  -0.000978   0.000001
     9  C   -0.000179   0.000009   0.000123  -0.006804  -0.006491   0.000101
    10  C    0.007429   0.000349   0.006248  -0.067514   0.000254  -0.000027
    11  C   -0.023758  -0.034317  -0.016204   0.542623  -0.000015   0.000002
    12  C    0.504615  -0.034245  -0.047893  -0.040433  -0.000001   0.000000
    13  C    4.888997   0.548993  -0.025408  -0.048382   0.000000   0.000000
    14  C    0.548993   4.856870   0.547044  -0.035114   0.000000   0.000000
    15  C   -0.025408   0.547044   4.866170   0.528466  -0.000002   0.000000
    16  C   -0.048382  -0.035114   0.528466   4.976387  -0.000037  -0.000002
    17  N    0.000000   0.000000  -0.000002  -0.000037   7.221626   0.269163
    18  C    0.000000   0.000000   0.000000  -0.000002   0.269163   4.993307
    19  C    0.000000   0.000000   0.000000   0.000009   0.288163  -0.052251
    20  O    0.000000   0.000000   0.000000  -0.000001  -0.054390   0.001876
    21  H    0.000000   0.000000   0.000000   0.000000  -0.000129  -0.000157
    22  H    0.000000   0.000000   0.000000   0.000003   0.000002   0.000001
    23  H    0.000000   0.000000   0.000000   0.000000   0.000004   0.000000
    24  H    0.000403  -0.000065  -0.000269   0.000270   0.000012   0.000001
    25  H    0.000004  -0.000001   0.000000  -0.000007   0.000076  -0.000004
    26  H   -0.000023  -0.000004  -0.000173   0.004766   0.012461  -0.001571
    27  H    0.000003   0.000000   0.000005   0.000350   0.000035  -0.000244
    28  H   -0.000235   0.000033  -0.000051  -0.005385   0.000000   0.000002
    29  H    0.000336  -0.000012  -0.000154   0.004084  -0.000004   0.000000
    30  H   -0.041192   0.004167   0.000295   0.005903   0.000000   0.000000
    31  H    0.357279  -0.044041   0.004572   0.000892   0.000000   0.000000
    32  H   -0.043332   0.359174  -0.043588   0.004816   0.000000   0.000000
    33  H    0.004696  -0.043330   0.356224  -0.041424   0.000000   0.000000
    34  H    0.000305   0.004978  -0.046533   0.352385   0.000011   0.000005
    35  H    0.000000   0.000000   0.000000   0.000001  -0.037356   0.370804
    36  H    0.000000   0.000000   0.000000  -0.000001  -0.034964   0.374570
    37  H    0.000000   0.000000   0.000000   0.000000  -0.043812   0.372917
    38  H    0.000000   0.000000   0.000002   0.000008  -0.030774   0.004653
    39  H    0.000000   0.000000   0.000000   0.000000  -0.046858  -0.003282
    40  H    0.000000   0.000000   0.000001   0.000007  -0.039011  -0.003000
              19         20         21         22         23         24
     1  O   -0.002673  -0.045745   0.001679   0.000000  -0.000021   0.000000
     2  S   -0.020901   0.434007  -0.005339  -0.000055   0.000066  -0.000064
     3  N    0.002087  -0.052539   0.285547   0.001985  -0.001678   0.001694
     4  C   -0.000118  -0.001345  -0.023173  -0.026122  -0.030562  -0.025715
     5  C    0.000001  -0.000044  -0.007031   0.345770   0.329085   0.007565
     6  S   -0.000001   0.000202   0.000253  -0.017559  -0.008664  -0.021303
     7  O    0.000000   0.000000   0.000002  -0.000484   0.001233  -0.001358
     8  C    0.000013  -0.001872   0.005089   0.007811   0.007201   0.343687
     9  C    0.000148  -0.000887  -0.001029  -0.006677   0.003552  -0.006323
    10  C    0.000001  -0.000009  -0.000084  -0.000108   0.000074  -0.002973
    11  C    0.000000   0.000001   0.000002   0.000270  -0.000010   0.008471
    12  C    0.000000   0.000000   0.000000  -0.000022   0.000002   0.012248
    13  C    0.000000   0.000000   0.000000   0.000000   0.000000   0.000403
    14  C    0.000000   0.000000   0.000000   0.000000   0.000000  -0.000065
    15  C    0.000000   0.000000   0.000000   0.000000   0.000000  -0.000269
    16  C    0.000009  -0.000001   0.000000   0.000003   0.000000   0.000270
    17  N    0.288163  -0.054390  -0.000129   0.000002   0.000004   0.000012
    18  C   -0.052251   0.001876  -0.000157   0.000001   0.000000   0.000001
    19  C    4.989537  -0.003088  -0.000022   0.000000   0.000000  -0.000001
    20  O   -0.003088   8.251959   0.001739   0.000000  -0.000005  -0.000177
    21  H   -0.000022   0.001739   0.381709   0.000379   0.002807  -0.000100
    22  H    0.000000   0.000000   0.000379   0.501961  -0.020287  -0.000349
    23  H    0.000000  -0.000005   0.002807  -0.020287   0.524679  -0.000268
    24  H   -0.000001  -0.000177  -0.000100  -0.000349  -0.000268   0.469564
    25  H    0.000005   0.009894   0.000050  -0.000272  -0.000355  -0.013877
    26  H   -0.000083  -0.000122  -0.000289   0.000201  -0.000119   0.001455
    27  H    0.000005   0.000011   0.003429   0.003141   0.000120   0.000121
    28  H    0.000000   0.000000   0.000001  -0.000160   0.000004   0.000190
    29  H    0.000000   0.000000   0.000011   0.004000   0.000124  -0.000098
    30  H    0.000000   0.000000   0.000000   0.000014  -0.000003   0.001222
    31  H    0.000000   0.000000   0.000000   0.000000   0.000000   0.000022
    32  H    0.000000   0.000000   0.000000   0.000000   0.000000   0.000000
    33  H    0.000000   0.000000   0.000000   0.000000   0.000000  -0.000001
    34  H    0.000013   0.000000   0.000000   0.000001   0.000000   0.000042
    35  H    0.005198  -0.000005   0.002142  -0.000003  -0.000009  -0.000001
    36  H   -0.004091  -0.000050   0.000006   0.000000   0.000000   0.000000
    37  H   -0.002540  -0.000043   0.000017   0.000000   0.000000   0.000000
    38  H    0.378937   0.011042  -0.000007   0.000000   0.000000   0.000002
    39  H    0.369489  -0.000665   0.000002   0.000000   0.000000   0.000000
    40  H    0.375458   0.000289  -0.000002   0.000000   0.000000   0.000000
              25         26         27         28         29         30
     1  O   -0.000150   0.000007  -0.000001   0.000000   0.000000   0.000000
     2  S   -0.001565   0.003389  -0.000695  -0.000005   0.000005   0.000000
     3  N   -0.002943  -0.005683  -0.001126  -0.000149   0.000033  -0.000001
     4  C   -0.024994  -0.027628  -0.039094   0.003902  -0.005774   0.000042
     5  C    0.006858   0.005321  -0.008365   0.000105  -0.002082   0.000133
     6  S   -0.010053  -0.000455  -0.000196   0.000086  -0.000882  -0.001610
     7  O    0.001127   0.000005   0.000014   0.000139   0.024363   0.022331
     8  C    0.330309  -0.003735   0.006506  -0.000081  -0.001716  -0.001702
     9  C    0.002916   0.365451   0.347629  -0.031951  -0.041324   0.000348
    10  C    0.000083  -0.039231  -0.028711   0.351875   0.345710  -0.012263
    11  C   -0.000013  -0.004169   0.003366  -0.029593  -0.032218  -0.037868
    12  C    0.000101   0.000376  -0.000112   0.002058  -0.003773   0.342169
    13  C    0.000004  -0.000023   0.000003  -0.000235   0.000336  -0.041192
    14  C   -0.000001  -0.000004   0.000000   0.000033  -0.000012   0.004167
    15  C    0.000000  -0.000173   0.000005  -0.000051  -0.000154   0.000295
    16  C   -0.000007   0.004766   0.000350  -0.005385   0.004084   0.005903
    17  N    0.000076   0.012461   0.000035   0.000000  -0.000004   0.000000
    18  C   -0.000004  -0.001571  -0.000244   0.000002   0.000000   0.000000
    19  C    0.000005  -0.000083   0.000005   0.000000   0.000000   0.000000
    20  O    0.009894  -0.000122   0.000011   0.000000   0.000000   0.000000
    21  H    0.000050  -0.000289   0.003429   0.000001   0.000011   0.000000
    22  H   -0.000272   0.000201   0.003141  -0.000160   0.004000   0.000014
    23  H   -0.000355  -0.000119   0.000120   0.000004   0.000124  -0.000003
    24  H   -0.013877   0.001455   0.000121   0.000190  -0.000098   0.001222
    25  H    0.469399   0.000075  -0.000129   0.000002  -0.000002   0.000027
    26  H    0.000075   0.524916  -0.033286   0.001474   0.003927   0.000024
    27  H   -0.000129  -0.033286   0.632721  -0.008819   0.001449  -0.000008
    28  H    0.000002   0.001474  -0.008819   0.589652  -0.027889   0.000185
    29  H   -0.000002   0.003927   0.001449  -0.027889   0.541689   0.006091
    30  H    0.000027   0.000024  -0.000008   0.000185   0.006091   0.533738
    31  H    0.000000   0.000000   0.000000   0.000004  -0.000006  -0.004574
    32  H    0.000000   0.000000   0.000000   0.000000   0.000000  -0.000150
    33  H    0.000000   0.000010   0.000000  -0.000003   0.000003   0.000014
    34  H    0.000000   0.003379  -0.000232   0.002646   0.000057  -0.000163
    35  H   -0.000001  -0.000691   0.001957  -0.000006   0.000001   0.000000
    36  H    0.000000  -0.000329   0.000021   0.000000   0.000000   0.000000
    37  H    0.000000   0.000184   0.000007   0.000000   0.000000   0.000000
    38  H    0.000001  -0.000055  -0.000001   0.000000   0.000000   0.000000
    39  H    0.000000   0.000060   0.000000   0.000000   0.000000   0.000000
    40  H    0.000000  -0.000228  -0.000002   0.000000   0.000000   0.000000
              31         32         33         34         35         36
     1  O    0.000000   0.000000   0.000000   0.000000  -0.002293   0.000115
     2  S    0.000000   0.000000   0.000000   0.000001   0.000634   0.002590
     3  N    0.000000   0.000000   0.000000   0.000003   0.007386  -0.000127
     4  C    0.000001   0.000000   0.000000   0.000119  -0.000843   0.000014
     5  C    0.000000   0.000000   0.000000   0.000001   0.000019   0.000000
     6  S    0.000003   0.000000   0.000000  -0.000002  -0.000002   0.000000
     7  O   -0.000002   0.000000   0.000000   0.000000   0.000000   0.000000
     8  C   -0.000008   0.000000   0.000000  -0.000011   0.000029   0.000001
     9  C    0.000001   0.000000   0.000000   0.001184   0.000973   0.000204
    10  C   -0.000185   0.000007  -0.000190  -0.009588   0.000012  -0.000008
    11  C    0.003621   0.000661   0.003812  -0.048520   0.000000   0.000001
    12  C   -0.038536   0.004688   0.000760   0.006482   0.000000   0.000000
    13  C    0.357279  -0.043332   0.004696   0.000305   0.000000   0.000000
    14  C   -0.044041   0.359174  -0.043330   0.004978   0.000000   0.000000
    15  C    0.004572  -0.043588   0.356224  -0.046533   0.000000   0.000000
    16  C    0.000892   0.004816  -0.041424   0.352385   0.000001  -0.000001
    17  N    0.000000   0.000000   0.000000   0.000011  -0.037356  -0.034964
    18  C    0.000000   0.000000   0.000000   0.000005   0.370804   0.374570
    19  C    0.000000   0.000000   0.000000   0.000013   0.005198  -0.004091
    20  O    0.000000   0.000000   0.000000   0.000000  -0.000005  -0.000050
    21  H    0.000000   0.000000   0.000000   0.000000   0.002142   0.000006
    22  H    0.000000   0.000000   0.000000   0.000001  -0.000003   0.000000
    23  H    0.000000   0.000000   0.000000   0.000000  -0.000009   0.000000
    24  H    0.000022   0.000000  -0.000001   0.000042  -0.000001   0.000000
    25  H    0.000000   0.000000   0.000000   0.000000  -0.000001   0.000000
    26  H    0.000000   0.000000   0.000010   0.003379  -0.000691  -0.000329
    27  H    0.000000   0.000000   0.000000  -0.000232   0.001957   0.000021
    28  H    0.000004   0.000000  -0.000003   0.002646  -0.000006   0.000000
    29  H   -0.000006   0.000000   0.000003   0.000057   0.000001   0.000000
    30  H   -0.004574  -0.000150   0.000014  -0.000163   0.000000   0.000000
    31  H    0.594030  -0.005601  -0.000191   0.000018   0.000000   0.000000
    32  H   -0.005601   0.601476  -0.005583  -0.000185   0.000000   0.000000
    33  H   -0.000191  -0.005583   0.606554  -0.005930   0.000000   0.000000
    34  H    0.000018  -0.000185  -0.005930   0.625098  -0.000001   0.000019
    35  H    0.000000   0.000000   0.000000  -0.000001   0.558056  -0.026118
    36  H    0.000000   0.000000   0.000000   0.000019  -0.026118   0.549950
    37  H    0.000000   0.000000   0.000000   0.000000  -0.033826  -0.035836
    38  H    0.000000   0.000000   0.000000  -0.000001  -0.000192   0.000015
    39  H    0.000000   0.000000   0.000000   0.000000  -0.000259  -0.001446
    40  H    0.000000   0.000000   0.000000   0.000024   0.000063   0.005463
              37         38         39         40
     1  O    0.006933  -0.000140   0.002931  -0.000118
     2  S   -0.008113  -0.003573  -0.003379   0.001788
     3  N   -0.000202   0.000101  -0.000092  -0.000073
     4  C   -0.000018   0.000007  -0.000001   0.000009
     5  C    0.000000   0.000000   0.000000   0.000000
     6  S    0.000000   0.000000   0.000000   0.000000
     7  O    0.000000   0.000000   0.000000   0.000000
     8  C   -0.000001   0.000017  -0.000001  -0.000001
     9  C   -0.000019   0.000019  -0.000011   0.000056
    10  C    0.000000  -0.000001   0.000000  -0.000003
    11  C    0.000000   0.000001   0.000000   0.000001
    12  C    0.000000   0.000000   0.000000   0.000000
    13  C    0.000000   0.000000   0.000000   0.000000
    14  C    0.000000   0.000000   0.000000   0.000000
    15  C    0.000000   0.000002   0.000000   0.000001
    16  C    0.000000   0.000008   0.000000   0.000007
    17  N   -0.043812  -0.030774  -0.046858  -0.039011
    18  C    0.372917   0.004653  -0.003282  -0.003000
    19  C   -0.002540   0.378937   0.369489   0.375458
    20  O   -0.000043   0.011042  -0.000665   0.000289
    21  H    0.000017  -0.000007   0.000002  -0.000002
    22  H    0.000000   0.000000   0.000000   0.000000
    23  H    0.000000   0.000000   0.000000   0.000000
    24  H    0.000000   0.000002   0.000000   0.000000
    25  H    0.000000   0.000001   0.000000   0.000000
    26  H    0.000184  -0.000055   0.000060  -0.000228
    27  H    0.000007  -0.000001   0.000000  -0.000002
    28  H    0.000000   0.000000   0.000000   0.000000
    29  H    0.000000   0.000000   0.000000   0.000000
    30  H    0.000000   0.000000   0.000000   0.000000
    31  H    0.000000   0.000000   0.000000   0.000000
    32  H    0.000000   0.000000   0.000000   0.000000
    33  H    0.000000   0.000000   0.000000   0.000000
    34  H    0.000000  -0.000001   0.000000   0.000024
    35  H   -0.033826  -0.000192  -0.000259   0.000063
    36  H   -0.035836   0.000015  -0.001446   0.005463
    37  H    0.557950  -0.000198   0.009266  -0.001752
    38  H   -0.000198   0.480485  -0.030053  -0.020799
    39  H    0.009266  -0.030053   0.581785  -0.041589
    40  H   -0.001752  -0.020799  -0.041589   0.559300
 Mulliken charges:
               1
     1  O   -0.529346
     2  S    1.309767
     3  N   -0.712023
     4  C    0.228064
     5  C   -0.510368
     6  S    0.769465
     7  O   -0.620503
     8  C   -0.508360
     9  C   -0.286349
    10  C   -0.390036
    11  C    0.156163
    12  C   -0.217741
    13  C   -0.130434
    14  C   -0.130510
    15  C   -0.128912
    16  C   -0.175686
    17  N   -0.514168
    18  C   -0.317999
    19  C   -0.323298
    20  O   -0.550035
    21  H    0.352501
    22  H    0.206560
    23  H    0.193029
    24  H    0.225974
    25  H    0.233438
    26  H    0.190392
    27  H    0.120130
    28  H    0.151971
    29  H    0.184053
    30  H    0.182832
    31  H    0.132702
    32  H    0.127617
    33  H    0.124580
    34  H    0.114393
    35  H    0.154330
    36  H    0.170001
    37  H    0.179086
    38  H    0.210502
    39  H    0.164103
    40  H    0.164117
 Sum of Mulliken charges =   0.00000
 Mulliken charges with hydrogens summed into heavy atoms:
               1
     1  O   -0.529346
     2  S    1.309767
     3  N   -0.359522
     4  C    0.228064
     5  C   -0.110779
     6  S    0.769465
     7  O   -0.620503
     8  C   -0.048948
     9  C    0.024173
    10  C   -0.054013
    11  C    0.156163
    12  C   -0.034909
    13  C    0.002268
    14  C   -0.002892
    15  C   -0.004332
    16  C   -0.061293
    17  N   -0.514168
    18  C    0.185417
    19  C    0.215424
    20  O   -0.550035
 Electronic spatial extent (au):  <R**2>=           6777.3847
 Charge=              0.0000 electrons
 Dipole moment (field-independent basis, Debye):
    X=             -1.8301    Y=             -2.6703    Z=              3.9920  Tot=              5.1397
 Quadrupole moment (field-independent basis, Debye-Ang):
   XX=           -150.8884   YY=           -125.7094   ZZ=           -130.0843
   XY=             -2.0004   XZ=            -14.4378   YZ=              3.1598
 Traceless Quadrupole moment (field-independent basis, Debye-Ang):
   XX=            -15.3277   YY=              9.8513   ZZ=              5.4764
   XY=             -2.0004   XZ=            -14.4378   YZ=              3.1598
 Octapole moment (field-independent basis, Debye-Ang**2):
  XXX=             -1.6555  YYY=            -27.4339  ZZZ=              5.9398  XYY=            -57.0774
  XXY=            -52.2372  XXZ=              7.6907  XZZ=             -5.5723  YZZ=             10.2805
  YYZ=              2.8024  XYZ=              2.7312
 Hexadecapole moment (field-independent basis, Debye-Ang**3):
 XXXX=          -5425.6428 YYYY=          -2837.8573 ZZZZ=           -882.1231 XXXY=             82.0185
 XXXZ=           -195.8941 YYYX=            -54.6652 YYYZ=             38.8823 ZZZX=            -19.2724
 ZZZY=             -3.7105 XXYY=          -1350.5772 XXZZ=           -971.2802 YYZZ=           -610.1161
 XXYZ=             52.2355 YYXZ=            -23.7972 ZZXY=             20.8593
 N-N= 2.029329232885D+03 E-N=-7.908955306753D+03  KE= 1.628098880024D+03
 No NMR shielding tensors so no spin-rotation constants.
 Leave Link  601 at Sat Aug  8 02:41:27 2020, MaxMem=    33554432 cpu:         0.3
 (Enter /prod/apps/gaussian/g09d1/l9999.exe)
 1\1\GINC-PIRINEUS17\SP\RB3LYP\6-31G(d)\C13H20N2O3S2\UBAFAR01\08-Aug-20
 20\0\\#p b3lyp/6-31G(d)\\SM37.n.10.pdb.xyz\\0,1\O,0,4.355,1.222,-0.817
 \S,0,4.164,-0.019,-1.583\N,0,2.827,-0.727,-0.91\C,0,2.255,-2.042,-1.28
 7\C,0,1.3,-2.469,-0.141\S,0,2.233,-4.044,0.218\O,0,1.481,-5.234,-0.375
 \C,0,3.267,-3.199,-1.085\C,0,1.555,-2.004,-2.656\C,0,0.969,-3.348,-3.1
 5\C,0,1.895,-4.171,-4.027\C,0,2.315,-5.448,-3.63\C,0,3.143,-6.218,-4.4
 51\C,0,3.565,-5.723,-5.685\C,0,3.152,-4.451,-6.092\C,0,2.325,-3.686,-5
 .271\N,0,3.803,0.321,-3.203\C,0,2.842,1.42,-3.367\C,0,4.996,0.479,-4.0
 57\O,0,5.243,-1.012,-1.617\H,0,2.131,-0.029,-0.659\H,0,0.275,-2.691,-0
 .441\H,0,1.31,-1.811,0.729\H,0,3.42,-3.849,-1.944\H,0,4.222,-2.889,-0.
 665\H,0,2.257,-1.608,-3.393\H,0,0.746,-1.269,-2.568\H,0,0.064,-3.12,-3
 .724\H,0,0.652,-3.961,-2.3\H,0,1.995,-5.822,-2.661\H,0,3.458,-7.204,-4
 .124\H,0,4.208,-6.319,-6.324\H,0,3.471,-4.057,-7.053\H,0,2.004,-2.702,
 -5.602\H,0,1.953,1.242,-2.76\H,0,2.537,1.436,-4.416\H,0,3.27,2.394,-3.
 103\H,0,5.652,-0.379,-3.926\H,0,5.548,1.403,-3.842\H,0,4.647,0.511,-5.
 091\\Version=AM64L-G09RevD.01\State=1-A\HF=-1638.8268383\RMSD=4.123e-0
 9\Dipole=-0.9405499,1.376636,-1.1441637\Quadrupole=-0.6273832,-3.50449
 54,4.1318786,-12.0313197,-6.9683821,-3.8484279\PG=C01 [X(C13H20N2O3S2)
 ]\\@


 NO MATTER HOW THIN YOU SLICE IT, IT'S STILL BALONEY

                                   -- ALFRED E. SMITH
 Job cpu time:       0 days  0 hours  6 minutes 58.6 seconds.
 File lengths (MBytes):  RWF=     67 Int=      0 D2E=      0 Chk=      5 Scr=      1
 Normal termination of Gaussian 09 at Sat Aug  8 02:41:27 2020.
 Initial command:
 /prod/apps/gaussian/g09d1/l1.exe "/tmp/ubafar01/1449168/Gau-112539.inp" -scrdir="/tmp/ubafar01/1449168/"
 Entering Link 1 = /prod/apps/gaussian/g09d1/l1.exe PID=    114089.
  
 Copyright (c) 1988,1990,1992,1993,1995,1998,2003,2009,2013,
            Gaussian, Inc.  All Rights Reserved.
  
 This is part of the Gaussian(R) 09 program.  It is based on
 the Gaussian(R) 03 system (copyright 2003, Gaussian, Inc.),
 the Gaussian(R) 98 system (copyright 1998, Gaussian, Inc.),
 the Gaussian(R) 94 system (copyright 1995, Gaussian, Inc.),
 the Gaussian 92(TM) system (copyright 1992, Gaussian, Inc.),
 the Gaussian 90(TM) system (copyright 1990, Gaussian, Inc.),
 the Gaussian 88(TM) system (copyright 1988, Gaussian, Inc.),
 the Gaussian 86(TM) system (copyright 1986, Carnegie Mellon
 University), and the Gaussian 82(TM) system (copyright 1983,
 Carnegie Mellon University). Gaussian is a federally registered
 trademark of Gaussian, Inc.
  
 This software contains proprietary and confidential information,
 including trade secrets, belonging to Gaussian, Inc.
  
 This software is provided under written license and may be
 used, copied, transmitted, or stored only in accord with that
 written license.
  
 The following legend is applicable only to US Government
 contracts under FAR:
  
                    RESTRICTED RIGHTS LEGEND
  
 Use, reproduction and disclosure by the US Government is
 subject to restrictions as set forth in subparagraphs (a)
 and (c) of the Commercial Computer Software - Restricted
 Rights clause in FAR 52.227-19.
  
 Gaussian, Inc.
 340 Quinnipiac St., Bldg. 40, Wallingford CT 06492
  
  
 ---------------------------------------------------------------
 Warning -- This program may not be used in any manner that
 competes with the business of Gaussian, Inc. or will provide
 assistance to any competitor of Gaussian, Inc.  The licensee
 of this program is prohibited from giving any competitor of
 Gaussian, Inc. access to this program.  By using this program,
 the user acknowledges that Gaussian, Inc. is engaged in the
 business of creating and licensing software in the field of
[...]
    37  H    0.000000  -0.000001  -0.000022   0.000000   0.000000   0.000000
    38  H    0.000000   0.000017   0.000020  -0.000001   0.000001   0.000000
    39  H    0.000000  -0.000001  -0.000011   0.000000   0.000000   0.000000
    40  H    0.000000  -0.000001   0.000052  -0.000003   0.000001   0.000000
              13         14         15         16         17         18
     1  O    0.000000   0.000000   0.000000   0.000000  -0.058497   0.002570
     2  S    0.000000   0.000000  -0.000001  -0.000013   0.148002  -0.009404
     3  N    0.000000   0.000000   0.000000   0.000000  -0.054764  -0.004927
     4  C   -0.000004   0.000002  -0.000012  -0.000162   0.000415   0.000161
     5  C   -0.000002   0.000000   0.000000  -0.000006  -0.000051  -0.000022
     6  S    0.000022  -0.000003   0.000001  -0.000037   0.000003   0.000001
     7  O    0.000162   0.000000   0.000000  -0.000008   0.000000   0.000000
     8  C   -0.000310   0.000027   0.000047   0.000035  -0.001008   0.000003
     9  C   -0.000186   0.000010   0.000121  -0.006693  -0.006534   0.000220
    10  C    0.007377   0.000286   0.006086  -0.066531   0.000245  -0.000024
    11  C   -0.023484  -0.034811  -0.018726   0.538913  -0.000015   0.000002
    12  C    0.500261  -0.036581  -0.047183  -0.042438  -0.000001   0.000000
    13  C    4.921133   0.544441  -0.028521  -0.048757   0.000000   0.000000
    14  C    0.544441   4.888180   0.541769  -0.037286   0.000000   0.000000
    15  C   -0.028521   0.541769   4.895368   0.523361  -0.000002   0.000000
    16  C   -0.048757  -0.037286   0.523361   4.997330  -0.000034  -0.000002
    17  N    0.000000   0.000000  -0.000002  -0.000034   7.215302   0.265627
    18  C    0.000000   0.000000   0.000000  -0.000002   0.265627   5.002640
    19  C    0.000000   0.000000   0.000000   0.000009   0.279919  -0.051737
    20  O    0.000000   0.000000   0.000000  -0.000001  -0.055557   0.001725
    21  H    0.000000   0.000000   0.000000   0.000000  -0.000174  -0.000059
    22  H    0.000000   0.000000   0.000000   0.000003   0.000002   0.000000
    23  H    0.000000   0.000000   0.000000   0.000000   0.000004   0.000000
    24  H    0.000384  -0.000063  -0.000254   0.000282   0.000014   0.000001
    25  H    0.000004  -0.000001   0.000000  -0.000006   0.000071  -0.000003
    26  H   -0.000020  -0.000004  -0.000168   0.004838   0.011998  -0.001711
    27  H    0.000003   0.000000   0.000004   0.000321   0.000031  -0.000105
    28  H   -0.000232   0.000031  -0.000038  -0.005703   0.000000   0.000002
    29  H    0.000358  -0.000010  -0.000170   0.004354  -0.000004   0.000000
    30  H   -0.044373   0.004499   0.000161   0.006355   0.000000   0.000000
    31  H    0.360506  -0.042649   0.004559   0.000754   0.000000   0.000000
    32  H   -0.042463   0.363169  -0.042174   0.004685   0.000000   0.000000
    33  H    0.004594  -0.042340   0.360697  -0.039479   0.000000   0.000000
    34  H    0.000272   0.004750  -0.044414   0.358082   0.000010   0.000006
    35  H    0.000000   0.000000   0.000000   0.000001  -0.036056   0.373886
    36  H    0.000000   0.000000   0.000000  -0.000001  -0.033068   0.377923
    37  H    0.000000   0.000000   0.000000   0.000000  -0.044425   0.373767
    38  H    0.000000   0.000000   0.000002   0.000008  -0.032544   0.004637
    39  H    0.000000   0.000000   0.000000   0.000000  -0.046644  -0.002763
    40  H    0.000000   0.000000   0.000001   0.000007  -0.036817  -0.002654
              19         20         21         22         23         24
     1  O   -0.002519  -0.044748   0.001090   0.000000  -0.000021   0.000000
     2  S   -0.019307   0.436675  -0.004847  -0.000053   0.000172  -0.000030
     3  N    0.001995  -0.054460   0.289143   0.001853  -0.001210   0.001814
     4  C   -0.000118  -0.000976  -0.019029  -0.026569  -0.029119  -0.026454
     5  C    0.000001  -0.000057  -0.006444   0.348916   0.337102   0.007553
     6  S   -0.000001   0.000200   0.000096  -0.018889  -0.010550  -0.020879
     7  O    0.000000   0.000000   0.000001  -0.000602   0.001168  -0.001498
     8  C    0.000013  -0.002107   0.004252   0.007664   0.006809   0.342809
     9  C    0.000155  -0.000898  -0.000580  -0.005924   0.003250  -0.006185
    10  C    0.000000  -0.000008  -0.000062  -0.000544   0.000063  -0.003046
    11  C    0.000000   0.000001   0.000001   0.000263  -0.000010   0.007747
    12  C    0.000000   0.000000   0.000000  -0.000021   0.000002   0.011753
    13  C    0.000000   0.000000   0.000000   0.000000   0.000000   0.000384
    14  C    0.000000   0.000000   0.000000   0.000000   0.000000  -0.000063
    15  C    0.000000   0.000000   0.000000   0.000000   0.000000  -0.000254
    16  C    0.000009  -0.000001   0.000000   0.000003   0.000000   0.000282
    17  N    0.279919  -0.055557  -0.000174   0.000002   0.000004   0.000014
    18  C   -0.051737   0.001725  -0.000059   0.000000   0.000000   0.000001
    19  C    4.994816  -0.003699  -0.000013   0.000000   0.000000  -0.000001
    20  O   -0.003699   8.284500   0.001378   0.000000  -0.000004  -0.000184
    21  H   -0.000013   0.001378   0.314798   0.000326   0.002170  -0.000083
    22  H    0.000000   0.000000   0.000326   0.482396  -0.016357  -0.000361
    23  H    0.000000  -0.000004   0.002170  -0.016357   0.487166  -0.000252
    24  H   -0.000001  -0.000184  -0.000083  -0.000361  -0.000252   0.478101
    25  H    0.000005   0.009904   0.000057  -0.000257  -0.000346  -0.014446
    26  H   -0.000116  -0.000137  -0.000262   0.000187  -0.000107   0.001488
    27  H    0.000004   0.000011   0.002565   0.002806   0.000108   0.000108
    28  H    0.000000   0.000000   0.000001  -0.000143   0.000004   0.000172
    29  H    0.000000   0.000000   0.000006   0.004033   0.000104  -0.000093
    30  H    0.000000   0.000000   0.000000   0.000007  -0.000003   0.001255
    31  H    0.000000   0.000000   0.000000   0.000000   0.000000   0.000021
    32  H    0.000000   0.000000   0.000000   0.000000   0.000000   0.000000
    33  H    0.000000   0.000000   0.000000   0.000000   0.000000  -0.000001
    34  H    0.000014   0.000000   0.000000   0.000001   0.000000   0.000040
    35  H    0.004900  -0.000002   0.001620  -0.000002  -0.000006   0.000000
    36  H   -0.004141  -0.000050   0.000001   0.000000   0.000000   0.000000
    37  H   -0.002716  -0.000043   0.000022   0.000000   0.000000   0.000000
    38  H    0.377465   0.010688  -0.000005   0.000000   0.000000   0.000002
    39  H    0.370138  -0.000621   0.000002   0.000000   0.000000   0.000000
    40  H    0.379239   0.000266  -0.000002   0.000000   0.000000   0.000000
              25         26         27         28         29         30
     1  O   -0.000153   0.000007  -0.000001   0.000000   0.000000   0.000000
     2  S   -0.000789   0.003611  -0.000601  -0.000005   0.000009   0.000000
     3  N   -0.003150  -0.006001  -0.000936  -0.000139   0.000033  -0.000001
     4  C   -0.025214  -0.029051  -0.036830   0.003717  -0.006005   0.000041
     5  C    0.006517   0.005248  -0.007874   0.000099  -0.001282   0.000145
     6  S   -0.010231  -0.000524  -0.000274   0.000074  -0.002263  -0.001366
     7  O    0.001123   0.000005   0.000010   0.000132   0.024088   0.024044
     8  C    0.331726  -0.003663   0.006092  -0.000079  -0.001491  -0.001850
     9  C    0.003012   0.366098   0.359198  -0.029425  -0.040858   0.000354
    10  C    0.000082  -0.040346  -0.027808   0.356984   0.343475  -0.012852
    11  C   -0.000015  -0.004863   0.003273  -0.029548  -0.034461  -0.039833
    12  C    0.000096   0.000364  -0.000106   0.002204  -0.004549   0.340546
    13  C    0.000004  -0.000020   0.000003  -0.000232   0.000358  -0.044373
    14  C   -0.000001  -0.000004   0.000000   0.000031  -0.000010   0.004499
    15  C    0.000000  -0.000168   0.000004  -0.000038  -0.000170   0.000161
    16  C   -0.000006   0.004838   0.000321  -0.005703   0.004354   0.006355
    17  N    0.000071   0.011998   0.000031   0.000000  -0.000004   0.000000
    18  C   -0.000003  -0.001711  -0.000105   0.000002   0.000000   0.000000
    19  C    0.000005  -0.000116   0.000004   0.000000   0.000000   0.000000
    20  O    0.009904  -0.000137   0.000011   0.000000   0.000000   0.000000
    21  H    0.000057  -0.000262   0.002565   0.000001   0.000006   0.000000
    22  H   -0.000257   0.000187   0.002806  -0.000143   0.004033   0.000007
    23  H   -0.000346  -0.000107   0.000108   0.000004   0.000104  -0.000003
    24  H   -0.014446   0.001488   0.000108   0.000172  -0.000093   0.001255
    25  H    0.472767   0.000064  -0.000122   0.000002  -0.000011   0.000030
    26  H    0.000064   0.528811  -0.030884   0.001342   0.004133   0.000024
    27  H   -0.000122  -0.030884   0.581955  -0.008383   0.001325  -0.000007
    28  H    0.000002   0.001342  -0.008383   0.568791  -0.028408   0.000174
    29  H   -0.000011   0.004133   0.001325  -0.028408   0.562280   0.006309
    30  H    0.000030   0.000024  -0.000007   0.000174   0.006309   0.557736
    31  H    0.000000   0.000000   0.000000   0.000003  -0.000006  -0.004795
    32  H    0.000000   0.000000   0.000000   0.000000   0.000000  -0.000146
    33  H    0.000000   0.000009   0.000000  -0.000002   0.000002   0.000014
    34  H    0.000000   0.003167  -0.000203   0.002378   0.000063  -0.000156
    35  H    0.000000  -0.000657   0.001629  -0.000005   0.000001   0.000000
    36  H    0.000000  -0.000307   0.000014   0.000000   0.000000   0.000000
    37  H    0.000000   0.000178   0.000006   0.000000   0.000000   0.000000
    38  H    0.000001  -0.000057   0.000000   0.000000   0.000000   0.000000
    39  H    0.000000   0.000058   0.000000   0.000000   0.000000   0.000000
    40  H    0.000000  -0.000210  -0.000002   0.000000   0.000000   0.000000
              31         32         33         34         35         36
     1  O    0.000000   0.000000   0.000000   0.000000  -0.002229   0.000100
     2  S    0.000000   0.000000   0.000000   0.000002   0.001532   0.002541
     3  N    0.000000   0.000000   0.000000   0.000003   0.006778  -0.000117
     4  C    0.000001   0.000000   0.000000   0.000097  -0.000817   0.000015
     5  C    0.000000   0.000000   0.000000   0.000001   0.000018   0.000000
     6  S    0.000003   0.000000   0.000000  -0.000002  -0.000002   0.000000
     7  O   -0.000004   0.000000   0.000000   0.000000   0.000000   0.000000
     8  C   -0.000008   0.000000   0.000000  -0.000009   0.000024   0.000001
     9  C    0.000001   0.000000   0.000000   0.001125   0.001032   0.000185
    10  C   -0.000172   0.000007  -0.000175  -0.008678   0.000011  -0.000007
    11  C    0.003664   0.000590   0.003668  -0.045556   0.000000   0.000001
    12  C   -0.038957   0.004562   0.000703   0.006177   0.000000   0.000000
    13  C    0.360506  -0.042463   0.004594   0.000272   0.000000   0.000000
    14  C   -0.042649   0.363169  -0.042340   0.004750   0.000000   0.000000
    15  C    0.004559  -0.042174   0.360697  -0.044414   0.000000   0.000000
    16  C    0.000754   0.004685  -0.039479   0.358082   0.000001  -0.000001
    17  N    0.000000   0.000000   0.000000   0.000010  -0.036056  -0.033068
    18  C    0.000000   0.000000   0.000000   0.000006   0.373886   0.377923
    19  C    0.000000   0.000000   0.000000   0.000014   0.004900  -0.004141
    20  O    0.000000   0.000000   0.000000   0.000000  -0.000002  -0.000050
    21  H    0.000000   0.000000   0.000000   0.000000   0.001620   0.000001
    22  H    0.000000   0.000000   0.000000   0.000001  -0.000002   0.000000
    23  H    0.000000   0.000000   0.000000   0.000000  -0.000006   0.000000
    24  H    0.000021   0.000000  -0.000001   0.000040   0.000000   0.000000
    25  H    0.000000   0.000000   0.000000   0.000000   0.000000   0.000000
    26  H    0.000000   0.000000   0.000009   0.003167  -0.000657  -0.000307
    27  H    0.000000   0.000000   0.000000  -0.000203   0.001629   0.000014
    28  H    0.000003   0.000000  -0.000002   0.002378  -0.000005   0.000000
    29  H   -0.000006   0.000000   0.000002   0.000063   0.000001   0.000000
    30  H   -0.004795  -0.000146   0.000014  -0.000156   0.000000   0.000000
    31  H    0.575910  -0.005317  -0.000177   0.000017   0.000000   0.000000
    32  H   -0.005317   0.575892  -0.005208  -0.000169   0.000000   0.000000
    33  H   -0.000177  -0.005208   0.576024  -0.005398   0.000000   0.000000
    34  H    0.000017  -0.000169  -0.005398   0.586127   0.000000   0.000017
    35  H    0.000000   0.000000   0.000000   0.000000   0.524462  -0.023764
    36  H    0.000000   0.000000   0.000000   0.000017  -0.023764   0.521460
    37  H    0.000000   0.000000   0.000000   0.000000  -0.032455  -0.033464
    38  H    0.000000   0.000000   0.000000  -0.000001  -0.000191   0.000026
    39  H    0.000000   0.000000   0.000000   0.000000  -0.000231  -0.001338
    40  H    0.000000   0.000000   0.000000   0.000021   0.000054   0.005008
              37         38         39         40
     1  O    0.006896  -0.000130   0.002889  -0.000115
     2  S   -0.009335  -0.003690  -0.003915   0.001741
     3  N   -0.000222   0.000106  -0.000092  -0.000076
     4  C   -0.000012   0.000002  -0.000001   0.000008
     5  C    0.000000   0.000000   0.000000   0.000000
     6  S    0.000000   0.000000   0.000000   0.000000
     7  O    0.000000   0.000000   0.000000   0.000000
     8  C   -0.000001   0.000017  -0.000001  -0.000001
     9  C   -0.000022   0.000020  -0.000011   0.000052
    10  C    0.000000  -0.000001   0.000000  -0.000003
    11  C    0.000000   0.000001   0.000000   0.000001
    12  C    0.000000   0.000000   0.000000   0.000000
    13  C    0.000000   0.000000   0.000000   0.000000
    14  C    0.000000   0.000000   0.000000   0.000000
    15  C    0.000000   0.000002   0.000000   0.000001
    16  C    0.000000   0.000008   0.000000   0.000007
    17  N   -0.044425  -0.032544  -0.046644  -0.036817
    18  C    0.373767   0.004637  -0.002763  -0.002654
    19  C   -0.002716   0.377465   0.370138   0.379239
    20  O   -0.000043   0.010688  -0.000621   0.000266
    21  H    0.000022  -0.000005   0.000002  -0.000002
    22  H    0.000000   0.000000   0.000000   0.000000
    23  H    0.000000   0.000000   0.000000   0.000000
    24  H    0.000000   0.000002   0.000000   0.000000
    25  H    0.000000   0.000001   0.000000   0.000000
    26  H    0.000178  -0.000057   0.000058  -0.000210
    27  H    0.000006   0.000000   0.000000  -0.000002
    28  H    0.000000   0.000000   0.000000   0.000000
    29  H    0.000000   0.000000   0.000000   0.000000
    30  H    0.000000   0.000000   0.000000   0.000000
    31  H    0.000000   0.000000   0.000000   0.000000
    32  H    0.000000   0.000000   0.000000   0.000000
    33  H    0.000000   0.000000   0.000000   0.000000
    34  H    0.000000  -0.000001   0.000000   0.000021
    35  H   -0.032455  -0.000191  -0.000231   0.000054
    36  H   -0.033464   0.000026  -0.001338   0.005008
    37  H    0.560058  -0.000186   0.008943  -0.001639
    38  H   -0.000186   0.499609  -0.031265  -0.020542
    39  H    0.008943  -0.031265   0.575483  -0.038117
    40  H   -0.001639  -0.020542  -0.038117   0.528503
 Mulliken charges:
               1
     1  O   -0.568868
     2  S    1.302098
     3  N   -0.731357
     4  C    0.227060
     5  C   -0.497347
     6  S    0.769168
     7  O   -0.677223
     8  C   -0.500313
     9  C   -0.292329
    10  C   -0.382502
    11  C    0.149340
    12  C   -0.220116
    13  C   -0.151163
    14  C   -0.153416
    15  C   -0.150516
    16  C   -0.192180
    17  N   -0.515449
    18  C   -0.329760
    19  C   -0.324306
    20  O   -0.581795
    21  H    0.414029
    22  H    0.221266
    23  H    0.219866
    24  H    0.220290
    25  H    0.229282
    26  H    0.187461
    27  H    0.154673
    28  H    0.165999
    29  H    0.169038
    30  H    0.163690
    31  H    0.146645
    32  H    0.146573
    33  H    0.147069
    34  H    0.142215
    35  H    0.180472
    36  H    0.188968
    37  H    0.174650
    38  H    0.196026
    39  H    0.167486
    40  H    0.185276
 Sum of Mulliken charges =   0.00000
 Mulliken charges with hydrogens summed into heavy atoms:
               1
     1  O   -0.568868
     2  S    1.302098
     3  N   -0.317328
     4  C    0.227060
     5  C   -0.056216
     6  S    0.769168
     7  O   -0.677223
     8  C   -0.050741
     9  C    0.049805
    10  C   -0.047465
    11  C    0.149340
    12  C   -0.056426
    13  C   -0.004518
    14  C   -0.006843
    15  C   -0.003446
    16  C   -0.049964
    17  N   -0.515449
    18  C    0.214330
    19  C    0.224483
    20  O   -0.581795
 Electronic spatial extent (au):  <R**2>=           6778.4159
 Charge=              0.0000 electrons
 Dipole moment (field-independent basis, Debye):
    X=             -2.9738    Y=             -3.1593    Z=              5.8784  Tot=              7.3062
 Quadrupole moment (field-independent basis, Debye-Ang):
   XX=           -156.1747   YY=           -123.3712   ZZ=           -128.5233
   XY=             -4.0962   XZ=            -17.7404   YZ=              3.7348
 Traceless Quadrupole moment (field-independent basis, Debye-Ang):
   XX=            -20.1516   YY=             12.6519   ZZ=              7.4997
   XY=             -4.0962   XZ=            -17.7404   YZ=              3.7348
 Octapole moment (field-independent basis, Debye-Ang**2):
  XXX=             -4.4655  YYY=            -37.7787  ZZZ=             15.7206  XYY=            -67.8513
  XXY=            -62.3359  XXZ=             16.4845  XZZ=             -5.6805  YZZ=             10.4223
  YYZ=              8.5769  XYZ=              3.3697
 Hexadecapole moment (field-independent basis, Debye-Ang**3):
 XXXX=          -5519.3019 YYYY=          -2795.8944 ZZZZ=           -869.2222 XXXY=             73.1435
 XXXZ=           -235.3273 YYYX=            -83.7085 YYYZ=             45.6527 ZZZX=            -33.0361
 ZZZY=             -3.0503 XXYY=          -1351.9908 XXZZ=           -967.3749 YYZZ=           -601.0905
 XXYZ=             55.9444 YYXZ=            -31.6709 ZZXY=             18.7167
 N-N= 2.029332341675D+03 E-N=-7.909247930143D+03  KE= 1.628105665896D+03
 No NMR shielding tensors so no spin-rotation constants.
 Leave Link  601 at Sat Aug  8 02:46:46 2020, MaxMem=    33554432 cpu:         0.3
 (Enter /prod/apps/gaussian/g09d1/l9999.exe)
 1\1\GINC-PIRINEUS17\SP\RB3LYP\6-31G(d)\C13H20N2O3S2\UBAFAR01\08-Aug-20
 20\0\\#p b3lyp/6-31G(d) scrf=(iefpcm,read,solvent=Water) geom=allcheck
  guess=read\\SM37.n.10.pdb.xyz\\0,1\O,0,4.355,1.222,-0.817\S,0,4.164,-
 0.019,-1.583\N,0,2.827,-0.727,-0.91\C,0,2.255,-2.042,-1.287\C,0,1.3,-2
 .469,-0.141\S,0,2.233,-4.044,0.218\O,0,1.481,-5.234,-0.375\C,0,3.267,-
 3.199,-1.085\C,0,1.555,-2.004,-2.656\C,0,0.969,-3.348,-3.15\C,0,1.895,
 -4.171,-4.027\C,0,2.315,-5.448,-3.63\C,0,3.143,-6.218,-4.451\C,0,3.565
 ,-5.723,-5.685\C,0,3.152,-4.451,-6.092\C,0,2.325,-3.686,-5.271\N,0,3.8
 03,0.321,-3.203\C,0,2.842,1.42,-3.367\C,0,4.996,0.479,-4.057\O,0,5.243
 ,-1.012,-1.617\H,0,2.131,-0.029,-0.659\H,0,0.275,-2.691,-0.441\H,0,1.3
 1,-1.811,0.729\H,0,3.42,-3.849,-1.944\H,0,4.222,-2.889,-0.665\H,0,2.25
 7,-1.608,-3.393\H,0,0.746,-1.269,-2.568\H,0,0.064,-3.12,-3.724\H,0,0.6
 52,-3.961,-2.3\H,0,1.995,-5.822,-2.661\H,0,3.458,-7.204,-4.124\H,0,4.2
 08,-6.319,-6.324\H,0,3.471,-4.057,-7.053\H,0,2.004,-2.702,-5.602\H,0,1
 .953,1.242,-2.76\H,0,2.537,1.436,-4.416\H,0,3.27,2.394,-3.103\H,0,5.65
 2,-0.379,-3.926\H,0,5.548,1.403,-3.842\H,0,4.647,0.511,-5.091\\Version
 =AM64L-G09RevD.01\State=1-A\HF=-1638.8504169\RMSD=7.894e-09\Dipole=-1.
 4486771,2.0699789,-1.3708248\Quadrupole=-0.5644429,-5.4958693,6.060312
 1,-15.5718616,-8.3481034,-4.1435298\PG=C01 [X(C13H20N2O3S2)]\\@


 WOE UNTO THEM THAT CALL EVIL GOOD, AND GOOD EVIL      
 Job cpu time:       0 days  0 hours  5 minutes 18.5 seconds.
 File lengths (MBytes):  RWF=    269 Int=      0 D2E=      0 Chk=      7 Scr=      1
 Normal termination of Gaussian 09 at Sat Aug  8 02:46:46 2020.
