 Entering Gaussian System, Link 0=g09
 Initial command:
 /prod/apps/gaussian/g09d1/l1.exe "/tmp/ubafar01/1449170/Gau-104829.inp" -scrdir="/tmp/ubafar01/1449170/"
 Entering Link 1 = /prod/apps/gaussian/g09d1/l1.exe PID=    104830.
  
 Copyright (c) 1988,1990,1992,1993,1995,1998,2003,2009,2013,
            Gaussian, Inc.  All Rights Reserved.
  
 This is part of the Gaussian(R) 09 program.  It is based on
 the Gaussian(R) 03 system (copyright 2003, Gaussian, Inc.),
 the Gaussian(R) 98 system (copyright 1998, Gaussian, Inc.),
 the Gaussian(R) 94 system (copyright 1995, Gaussian, Inc.),
 the Gaussian 92(TM) system (copyright 1992, Gaussian, Inc.),
 the Gaussian 90(TM) system (copyright 1990, Gaussian, Inc.),
 the Gaussian 88(TM) system (copyright 1988, Gaussian, Inc.),
 the Gaussian 86(TM) system (copyright 1986, Carnegie Mellon
 University), and the Gaussian 82(TM) system (copyright 1983,
 Carnegie Mellon University). Gaussian is a federally registered
 trademark of Gaussian, Inc.
  
 This software contains proprietary and confidential information,
 including trade secrets, belonging to Gaussian, Inc.
  
 This software is provided under written license and may be
 used, copied, transmitted, or stored only in accord with that
 written license.
  
 The following legend is applicable only to US Government
 contracts under FAR:
  
                    RESTRICTED RIGHTS LEGEND
  
 Use, reproduction and disclosure by the US Government is
 subject to restrictions as set forth in subparagraphs (a)
 and (c) of the Commercial Computer Software - Restricted
 Rights clause in FAR 52.227-19.
  
 Gaussian, Inc.
 340 Quinnipiac St., Bldg. 40, Wallingford CT 06492
  
  
 ---------------------------------------------------------------
 Warning -- This program may not be used in any manner that
 competes with the business of Gaussian, Inc. or will provide
 assistance to any competitor of Gaussian, Inc.  The licensee
 of this program is prohibited from giving any competitor of
 Gaussian, Inc. access to this program.  By using this program,
 the user acknowledges that Gaussian, Inc. is engaged in the
 business of creating and licensing software in the field of
 computational chemistry and represents and warrants to the
 licensee that it is not a competitor of Gaussian, Inc. and that
 it will not use this program in any manner prohibited above.
 ---------------------------------------------------------------
  

 Cite this work as:
 Gaussian 09, Revision D.01,
 M. J. Frisch, G. W. Trucks, H. B. Schlegel, G. E. Scuseria, 
 M. A. Robb, J. R. Cheeseman, G. Scalmani, V. Barone, B. Mennucci, 
 G. A. Petersson, H. Nakatsuji, M. Caricato, X. Li, H. P. Hratchian, 
 A. F. Izmaylov, J. Bloino, G. Zheng, J. L. Sonnenberg, M. Hada, 
 M. Ehara, K. Toyota, R. Fukuda, J. Hasegawa, M. Ishida, T. Nakajima, 
 Y. Honda, O. Kitao, H. Nakai, T. Vreven, J. A. Montgomery, Jr., 
 J. E. Peralta, F. Ogliaro, M. Bearpark, J. J. Heyd, E. Brothers, 
 K. N. Kudin, V. N. Staroverov, T. Keith, R. Kobayashi, J. Normand, 
 K. Raghavachari, A. Rendell, J. C. Burant, S. S. Iyengar, J. Tomasi, 
 M. Cossi, N. Rega, J. M. Millam, M. Klene, J. E. Knox, J. B. Cross, 
 V. Bakken, C. Adamo, J. Jaramillo, R. Gomperts, R. E. Stratmann, 
 O. Yazyev, A. J. Austin, R. Cammi, C. Pomelli, J. W. Ochterski, 
 R. L. Martin, K. Morokuma, V. G. Zakrzewski, G. A. Voth, 
 P. Salvador, J. J. Dannenberg, S. Dapprich, A. D. Daniels, 
 O. Farkas, J. B. Foresman, J. V. Ortiz, J. Cioslowski, 
 and D. J. Fox, Gaussian, Inc., Wallingford CT, 2013.
 
 ******************************************
 Gaussian 09:  AM64L-G09RevD.01 24-Apr-2013
                 8-Aug-2020 
 ******************************************
 %nproc=1
 Will use up to    1 processors via shared memory.
 %Chk=SM37.n.12.pdb.xyz.mst.n.w.chk
 -----------------
 #p b3lyp/6-31G(d)
 -----------------
 1/38=1/1;
 2/12=2,17=6,18=5,40=1/2;
 3/5=1,6=6,7=1,11=2,16=1,25=1,30=1,74=-5/1,2,3;
 4//1;
 5/5=2,38=5/2;
 6/7=2,8=2,9=2,10=2,28=1/1;
 99/5=1,9=1/99;
 Leave Link    1 at Sat Aug  8 02:34:59 2020, MaxMem=           0 cpu:         0.0
 (Enter /prod/apps/gaussian/g09d1/l101.exe)
 -----------------
 SM37.n.12.pdb.xyz
 -----------------
 Symbolic Z-matrix:
 Charge =  0 Multiplicity = 1
 O                     4.854    -2.646     0.674 
 S                     4.323    -1.281     0.538 
 N                     3.386    -1.082    -0.826 
 C                     2.689    -2.187    -1.507 
 C                     1.801    -3.063    -0.599 
 S                     2.227    -4.605    -1.562 
 O                     1.253    -4.768    -2.728 
 C                     3.555    -3.367    -2.021 
 C                     1.917    -1.575    -2.69 
 C                     0.909    -0.458    -2.364 
 C                    -0.42     -0.9      -1.781 
 C                    -0.902    -0.333    -0.595 
 C                    -2.144    -0.703    -0.071 
 C                    -2.927    -1.651    -0.73 
 C                    -2.459    -2.223    -1.917 
 C                    -1.22     -1.849    -2.436 
 N                     3.162    -1.126     1.751 
 C                     3.609    -1.642     3.059 
 C                     2.56      0.217     1.833 
 O                     5.278    -0.16      0.515 
 H                     3.884    -0.463    -1.469 
 H                     0.735    -2.844    -0.571 
 H                     2.194    -3.188     0.41 
 H                     3.809    -3.381    -3.082 
 H                     4.425    -3.563    -1.395 
 H                     1.422    -2.404    -3.205 
 H                     2.664    -1.177    -3.387 
 H                     0.713     0.075    -3.302 
 H                     1.375     0.266    -1.69 
 H                    -0.298     0.408    -0.08 
 H                    -2.496    -0.25      0.851 
 H                    -3.89     -1.941    -0.326 
 H                    -3.062    -2.96     -2.439 
 H                    -0.865    -2.303    -3.356 
 H                     4.002    -2.649     2.937 
 H                     2.732    -1.678     3.708 
 H                     4.368    -1.003     3.525 
 H                     2.249     0.531     0.838 
 H                     3.25      0.956     2.256 
 H                     1.679     0.142     2.474 
 
 NAtoms=     40 NQM=       40 NQMF=       0 NMMI=      0 NMMIF=      0
                NMic=       0 NMicF=      0.
                    Isotopes and Nuclear Properties:
 (Nuclear quadrupole moments (NQMom) in fm**2, nuclear magnetic moments (NMagM)
  in nuclear magnetons)

  Atom         1           2           3           4           5           6           7           8           9          10
 IAtWgt=          16          32          14          12          12          32          16          12          12          12
 AtmWgt=  15.9949146  31.9720718  14.0030740  12.0000000  12.0000000  31.9720718  15.9949146  12.0000000  12.0000000  12.0000000
 NucSpn=           0           0           2           0           0           0           0           0           0           0
 AtZEff=   0.0000000   0.0000000   0.0000000   0.0000000   0.0000000   0.0000000   0.0000000   0.0000000   0.0000000   0.0000000
 NQMom=    0.0000000   0.0000000   2.0440000   0.0000000   0.0000000   0.0000000   0.0000000   0.0000000   0.0000000   0.0000000
 NMagM=    0.0000000   0.0000000   0.4037610   0.0000000   0.0000000   0.0000000   0.0000000   0.0000000   0.0000000   0.0000000
 AtZNuc=   8.0000000  16.0000000   7.0000000   6.0000000   6.0000000  16.0000000   8.0000000   6.0000000   6.0000000   6.0000000

  Atom        11          12          13          14          15          16          17          18          19          20
 IAtWgt=          12          12          12          12          12          12          14          12          12          16
 AtmWgt=  12.0000000  12.0000000  12.0000000  12.0000000  12.0000000  12.0000000  14.0030740  12.0000000  12.0000000  15.9949146
 NucSpn=           0           0           0           0           0           0           2           0           0           0
 AtZEff=   0.0000000   0.0000000   0.0000000   0.0000000   0.0000000   0.0000000   0.0000000   0.0000000   0.0000000   0.0000000
 NQMom=    0.0000000   0.0000000   0.0000000   0.0000000   0.0000000   0.0000000   2.0440000   0.0000000   0.0000000   0.0000000
 NMagM=    0.0000000   0.0000000   0.0000000   0.0000000   0.0000000   0.0000000   0.4037610   0.0000000   0.0000000   0.0000000
 AtZNuc=   6.0000000   6.0000000   6.0000000   6.0000000   6.0000000   6.0000000   7.0000000   6.0000000   6.0000000   8.0000000

  Atom        21          22          23          24          25          26          27          28          29          30
 IAtWgt=           1           1           1           1           1           1           1           1           1           1
 AtmWgt=   1.0078250   1.0078250   1.0078250   1.0078250   1.0078250   1.0078250   1.0078250   1.0078250   1.0078250   1.0078250
 NucSpn=           1           1           1           1           1           1           1           1           1           1
 AtZEff=   0.0000000   0.0000000   0.0000000   0.0000000   0.0000000   0.0000000   0.0000000   0.0000000   0.0000000   0.0000000
 NQMom=    0.0000000   0.0000000   0.0000000   0.0000000   0.0000000   0.0000000   0.0000000   0.0000000   0.0000000   0.0000000
 NMagM=    2.7928460   2.7928460   2.7928460   2.7928460   2.7928460   2.7928460   2.7928460   2.7928460   2.7928460   2.7928460
 AtZNuc=   1.0000000   1.0000000   1.0000000   1.0000000   1.0000000   1.0000000   1.0000000   1.0000000   1.0000000   1.0000000

  Atom        31          32          33          34          35          36          37          38          39          40
 IAtWgt=           1           1           1           1           1           1           1           1           1           1
 AtmWgt=   1.0078250   1.0078250   1.0078250   1.0078250   1.0078250   1.0078250   1.0078250   1.0078250   1.0078250   1.0078250
 NucSpn=           1           1           1           1           1           1           1           1           1           1
 AtZEff=   0.0000000   0.0000000   0.0000000   0.0000000   0.0000000   0.0000000   0.0000000   0.0000000   0.0000000   0.0000000
 NQMom=    0.0000000   0.0000000   0.0000000   0.0000000   0.0000000   0.0000000   0.0000000   0.0000000   0.0000000   0.0000000
 NMagM=    2.7928460   2.7928460   2.7928460   2.7928460   2.7928460   2.7928460   2.7928460   2.7928460   2.7928460   2.7928460
 AtZNuc=   1.0000000   1.0000000   1.0000000   1.0000000   1.0000000   1.0000000   1.0000000   1.0000000   1.0000000   1.0000000
 Leave Link  101 at Sat Aug  8 02:34:59 2020, MaxMem=    33554432 cpu:         0.1
 (Enter /prod/apps/gaussian/g09d1/l202.exe)
                          Input orientation:                          
 ---------------------------------------------------------------------
 Center     Atomic      Atomic             Coordinates (Angstroms)
 Number     Number       Type             X           Y           Z
 ---------------------------------------------------------------------
      1          8           0        4.854000   -2.646000    0.674000
      2         16           0        4.323000   -1.281000    0.538000
      3          7           0        3.386000   -1.082000   -0.826000
      4          6           0        2.689000   -2.187000   -1.507000
      5          6           0        1.801000   -3.063000   -0.599000
      6         16           0        2.227000   -4.605000   -1.562000
      7          8           0        1.253000   -4.768000   -2.728000
      8          6           0        3.555000   -3.367000   -2.021000
      9          6           0        1.917000   -1.575000   -2.690000
     10          6           0        0.909000   -0.458000   -2.364000
     11          6           0       -0.420000   -0.900000   -1.781000
     12          6           0       -0.902000   -0.333000   -0.595000
     13          6           0       -2.144000   -0.703000   -0.071000
     14          6           0       -2.927000   -1.651000   -0.730000
     15          6           0       -2.459000   -2.223000   -1.917000
     16          6           0       -1.220000   -1.849000   -2.436000
     17          7           0        3.162000   -1.126000    1.751000
     18          6           0        3.609000   -1.642000    3.059000
     19          6           0        2.560000    0.217000    1.833000
     20          8           0        5.278000   -0.160000    0.515000
     21          1           0        3.884000   -0.463000   -1.469000
     22          1           0        0.735000   -2.844000   -0.571000
     23          1           0        2.194000   -3.188000    0.410000
     24          1           0        3.809000   -3.381000   -3.082000
     25          1           0        4.425000   -3.563000   -1.395000
     26          1           0        1.422000   -2.404000   -3.205000
     27          1           0        2.664000   -1.177000   -3.387000
     28          1           0        0.713000    0.075000   -3.302000
     29          1           0        1.375000    0.266000   -1.690000
     30          1           0       -0.298000    0.408000   -0.080000
     31          1           0       -2.496000   -0.250000    0.851000
     32          1           0       -3.890000   -1.941000   -0.326000
     33          1           0       -3.062000   -2.960000   -2.439000
     34          1           0       -0.865000   -2.303000   -3.356000
     35          1           0        4.002000   -2.649000    2.937000
     36          1           0        2.732000   -1.678000    3.708000
     37          1           0        4.368000   -1.003000    3.525000
     38          1           0        2.249000    0.531000    0.838000
     39          1           0        3.250000    0.956000    2.256000
     40          1           0        1.679000    0.142000    2.474000
 ---------------------------------------------------------------------
                    Distance matrix (angstroms):
                    1          2          3          4          5
     1  O    0.000000
     2  S    1.470946   0.000000
     3  N    2.617464   1.666753   0.000000
     4  C    3.107196   2.769985   1.473294   0.000000
     5  C    3.333951   3.290711   2.547178   1.542849   0.000000
     6  S    3.967179   4.455580   3.781072   2.462355   1.867246
     7  O    5.389220   5.678981   4.664106   3.196013   2.782080
     8  C    3.077380   3.389646   2.584146   1.551307   2.278380
     9  C    4.592331   4.036738   2.423944   1.539486   2.569023
    10  C    5.438733   4.555692   2.981669   2.625317   3.270614
    11  C    6.073765   5.293295   3.928204   3.375993   3.317911
    12  C    6.331814   5.429827   4.359049   4.142987   3.841761
    13  C    7.300841   6.521277   5.594155   5.255687   4.627246
    14  C    7.969015   7.369344   6.339317   5.694777   4.936080
    15  C    7.769954   7.273920   6.054435   5.164426   4.537656
    16  C    6.870283   6.316023   4.939193   4.032067   3.738289
    17  N    2.516584   1.686213   2.587091   3.458904   3.335684
    18  C    2.871631   2.644912   3.931482   4.689540   4.320772
    19  C    3.847400   2.651263   3.072451   4.117215   4.153204
    20  O    2.526906   1.472819   2.495602   3.860069   4.664540
    21  H    3.209180   2.211310   1.022064   2.098010   3.443224
    22  H    4.307597   4.067750   3.193348   2.264036   1.088623
    23  H    2.727464   2.861062   2.717314   2.218539   1.090025
    24  H    3.967340   4.216467   3.248671   2.271709   3.209124
    25  H    2.303409   2.992393   2.749299   2.218021   2.787291
    26  H    5.184962   4.866927   3.356281   2.129691   2.714619
    27  H    4.842084   4.262478   2.662523   2.134274   3.474868
    28  H    6.352976   5.442098   3.822846   3.499035   4.282172
    29  H    5.115827   4.005983   2.570549   2.788780   3.529022
    30  H    6.036434   4.958658   4.043324   4.206248   4.089377
    31  H    7.732700   6.903600   6.172720   6.016341   5.336635
    32  H    8.829188   8.284652   7.343572   6.688686   5.806969
    33  H    8.511899   8.137555   6.906906   5.877087   5.200479
    34  H    7.004678   6.566815   5.095365   4.007889   3.909758
    35  H    2.418074   2.780228   4.122513   4.656882   4.185582
    36  H    3.826887   3.569004   4.619533   5.239958   4.619008
    37  H    3.326236   3.000246   4.461140   5.435248   5.276406
    38  H    4.111721   2.770347   2.581363   3.616649   3.896474
    39  H    4.248523   3.017784   3.697386   4.934910   5.138384
    40  H    4.592774   3.572641   3.911780   4.721515   4.441873
                    6          7          8          9         10
     6  S    0.000000
     7  O    1.528006   0.000000
     8  C    1.872674   2.786010   0.000000
     9  C    3.247982   3.261532   2.518307   0.000000
    10  C    4.424696   4.339001   3.947309   1.539490   0.000000
    11  C    4.558683   4.319394   4.684476   2.596820   1.517068
    12  C    5.382909   5.372424   5.577049   3.725366   2.534701
    13  C    6.046017   5.926507   6.586197   4.910322   3.826053
    14  C    5.998504   5.583914   6.828445   5.226061   4.336831
    15  C    5.268638   4.573149   6.122724   4.490747   3.828637
    16  C    4.499024   3.836868   5.027641   3.159171   2.544151
    17  N    4.894245   6.080287   4.405056   4.634016   4.738719
    18  C    5.660648   6.986557   5.365160   5.993192   6.172583
    19  C    5.906657   6.881947   5.356155   4.907366   4.560289
    20  O    5.777591   6.924690   4.436764   4.854953   5.240764
    21  H    4.462114   5.200026   2.974250   2.568360   3.106715
    22  H    2.511825   2.936452   3.213787   2.738183   2.989669
    23  H    2.428531   3.637159   2.791796   3.505495   4.098683
    24  H    2.512230   2.929543   1.091070   2.644799   4.179647
    25  H    2.438208   3.645614   1.089583   3.452424   4.789806
    26  H    2.862145   2.417558   2.622768   1.094299   2.181139
    27  H    3.908040   3.914139   2.730556   1.096459   2.154882
    28  H    5.217489   4.906702   4.643844   2.132290   1.096517
    29  H    4.946608   5.141350   4.249782   2.164034   1.093439
    30  H    5.805353   6.017348   5.732688   3.956086   2.724603
    31  H    6.862603   6.875796   7.387738   5.811099   4.687591
    32  H    6.785446   6.341292   7.767530   6.280422   5.420621
    33  H    5.607912   4.687388   6.642670   5.174134   4.694089
    34  H    4.251835   3.310065   4.738219   2.951790   2.745026
    35  H    5.217045   6.643748   5.029622   6.096214   6.516727
    36  H    6.049401   7.290928   6.029220   6.450522   6.456076
    37  H    6.590588   7.935897   6.083386   6.705282   6.851425
    38  H    5.669125   6.464346   5.007387   4.122165   3.609228
    39  H    6.822637   7.848085   6.088849   5.713647   5.368806
    40  H    6.254887   7.165918   6.003123   5.447167   4.935498
                   11         12         13         14         15
    11  C    0.000000
    12  C    1.400146   0.000000
    13  C    2.436203   1.397870   0.000000
    14  C    2.820222   2.419912   1.395018   0.000000
    15  C    2.434409   2.782810   2.411916   1.398276   0.000000
    16  C    1.403434   2.405964   2.785735   2.421464   1.394402
    17  N    5.035556   4.759061   5.626033   6.595977   6.800976
    18  C    6.341057   5.950993   6.616315   7.554859   7.868848
    19  C    4.815505   4.264168   5.157444   6.337631   6.723575
    20  O    6.187602   6.281276   7.464873   8.431793   8.368498
    21  H    4.337364   4.866885   6.192640   6.953214   6.597875
    22  H    2.564617   2.997577   3.622502   3.854708   3.521220
    23  H    4.107118   4.329696   5.022433   5.466865   5.291178
    24  H    5.072712   6.137507   7.188603   7.341560   6.479661
    25  H    5.542075   6.280910   7.285900   7.625606   7.032605
    26  H    2.771778   4.062280   5.042987   5.060280   4.093149
    27  H    3.488126   4.606946   5.859812   6.208350   5.431404
    28  H    2.132547   3.178449   4.382590   4.779525   4.154589
    29  H    2.142396   2.596643   3.992929   4.806630   4.576703
    30  H    2.149221   1.085874   2.154557   3.402003   3.868676
    31  H    3.414630   2.153750   1.085908   2.155951   3.399400
    32  H    3.904050   3.403846   2.155501   1.083829   2.158371
    33  H    3.414195   3.868729   3.397675   2.156939   1.085938
    34  H    2.155704   3.391960   3.871313   3.401885   2.148943
    35  H    6.698702   6.472101   7.113951   7.902780   8.092423
    36  H    6.377265   5.790578   6.245546   7.191721   7.673600
    37  H    7.147670   6.722812   7.444955   8.470062   8.815424
    38  H    4.003809   3.567742   4.652686   5.831871   6.110630
    39  H    5.762899   5.198925   6.104297   7.339480   7.753235
    40  H    4.857632   4.038062   4.669730   5.890306   6.480521
                   16         17         18         19         20
    16  C    0.000000
    17  N    6.103738   0.000000
    18  C    7.318273   1.475442   0.000000
    19  C    6.064744   1.474034   2.461576   0.000000
    20  O    7.333834   2.634067   3.384349   3.044138   0.000000
    21  H    5.376514   3.365896   4.687051   3.621958   2.443625
    22  H    2.879284   3.772736   4.783469   4.298786   5.387216
    23  H    4.641986   2.643322   3.377801   3.708492   4.323293
    24  H    5.296714   5.372292   6.385609   6.217944   5.046901
    25  H    5.990618   4.175099   4.918761   5.309106   3.994511
    26  H    2.807054   5.405814   6.678421   5.791902   5.808844
    27  H    4.054805   5.162330   6.531475   5.403929   4.805506
    28  H    2.861507   5.742196   7.197029   5.458919   5.955161
    29  H    3.429835   4.119650   5.584283   3.717278   4.502989
    30  H    3.390408   4.204440   5.414838   3.444447   5.636349
    31  H    3.871608   5.795717   6.639575   5.171610   7.781778
    32  H    3.404330   7.396544   8.233021   7.135877   9.377178
    33  H    2.151115   7.723848   8.744562   7.742751   9.280179
    34  H    1.085606   6.609350   7.848938   6.708707   7.570571
    35  H    7.535145   2.105166   1.087834   3.392954   3.699916
    36  H    7.307276   2.078329   1.091616   2.671373   4.356798
    37  H    8.214316   2.148637   1.096156   2.760458   3.255587
    38  H    5.330801   2.100663   3.391809   1.088734   3.123564
    39  H    7.061430   2.144177   2.742862   1.095970   2.896432
    40  H    6.039568   2.080827   2.692542   1.092093   4.108733
                   21         22         23         24         25
    21  H    0.000000
    22  H    4.048675   0.000000
    23  H    3.716499   1.791474   0.000000
    24  H    3.334984   4.005367   3.852212   0.000000
    25  H    3.147723   3.848641   2.894134   1.805145   0.000000
    26  H    3.583660   2.757449   3.778739   2.582136   3.692884
    27  H    2.382629   3.798656   4.322295   2.502332   3.572419
    28  H    3.701969   3.997425   5.159406   4.645164   5.536302
    29  H    2.622091   3.366580   4.124424   4.600286   4.904158
    30  H    4.491891   3.447271   4.402429   6.343183   6.309104
    31  H    6.792067   4.380671   5.551795   8.063788   7.995044
    32  H    7.995374   4.718693   6.253940   8.303237   8.538903
    33  H    7.444651   4.233213   5.982836   6.913851   7.583450
    34  H    5.431332   3.257132   4.931882   4.804522   5.780763
    35  H    4.919894   4.797643   3.153587   6.066419   4.447533
    36  H    5.441016   4.863888   3.666926   7.082672   5.697375
    37  H    5.046374   5.776261   4.382206   7.044133   5.546463
    38  H    2.997250   3.958295   3.743951   5.753585   5.146076
    39  H    4.036229   5.362570   4.657852   6.900456   5.927207
    40  H    4.557993   4.367992   3.951483   6.915025   6.019693
                   26         27         28         29         30
    26  H    0.000000
    27  H    1.755340   0.000000
    28  H    2.580219   2.319726   0.000000
    29  H    3.070234   2.573631   1.753074   0.000000
    30  H    4.542177   4.714013   3.393272   2.326197   0.000000
    31  H    6.036686   6.741333   5.258395   4.659139   2.476071
    32  H    6.059732   7.273811   5.840243   5.869546   4.298928
    33  H    4.582810   6.071645   4.920022   5.536700   4.954594
    34  H    2.294204   3.704413   2.854450   3.793800   4.289893
    35  H    6.666378   6.629480   7.560610   6.066917   6.077626
    36  H    7.073383   7.112992   7.502631   5.895675   5.280269
    37  H    7.478945   7.121070   7.818506   6.145294   6.062879
    38  H    5.063991   4.576037   4.439238   2.687915   2.710177
    39  H    6.667361   6.061067   6.172835   4.422967   4.283165
    40  H    6.228901   6.087800   5.856605   4.176923   3.240710
                   31         32         33         34         35
    31  H    0.000000
    32  H    2.487578   0.000000
    33  H    4.299832   2.487713   0.000000
    34  H    4.957199   4.296809   2.469686   0.000000
    35  H    7.233989   8.569253   8.882465   7.962993   0.000000
    36  H    6.126469   7.758428   8.543979   7.951675   1.774875
    37  H    7.404848   9.159946   9.726461   8.741993   1.785782
    38  H    4.808862   6.719598   7.150701   5.942911   4.194188
    39  H    6.036968   8.126434   8.787458   7.684325   3.745035
    40  H    4.496490   6.572112   7.499137   6.814606   3.660653
                   36         37         38         39         40
    36  H    0.000000
    37  H    1.779216   0.000000
    38  H    3.653747   3.750105   0.000000
    39  H    3.051980   2.588043   1.786995   0.000000
    40  H    2.438025   3.105857   1.775589   1.782740   0.000000
 Stoichiometry    C13H20N2O3S2
 Framework group  C1[X(C13H20N2O3S2)]
 Deg. of freedom   114
 Full point group                 C1      NOp   1
 Largest Abelian subgroup         C1      NOp   1
 Largest concise Abelian subgroup C1      NOp   1
                         Standard orientation:                         
 ---------------------------------------------------------------------
 Center     Atomic      Atomic             Coordinates (Angstroms)
 Number     Number       Type             X           Y           Z
 ---------------------------------------------------------------------
      1          8           0        3.179431    0.832902   -0.605211
      2         16           0        2.751703   -0.259692    0.281902
      3          7           0        1.341723    0.084032    1.101583
      4          6           0        0.335344    1.049816    0.627180
      5          6           0       -0.147414    0.837440   -0.822725
      6         16           0       -0.296959    2.676392   -1.109954
      7          8           0       -1.684688    3.151971   -0.682365
      8          6           0        0.802522    2.511077    0.396937
      9          6           0       -0.815901    1.043321    1.649241
     10          6           0       -1.496200   -0.309429    1.927253
     11          6           0       -2.480319   -0.795566    0.880031
     12          6           0       -2.363804   -2.079554    0.333946
     13          6           0       -3.288954   -2.552694   -0.601082
     14          6           0       -4.350939   -1.743610   -1.005610
     15          6           0       -4.480893   -0.460242   -0.465928
     16          6           0       -3.555996    0.005983    0.467644
     17          7           0        2.235110   -1.495771   -0.742088
     18          6           0        3.154456   -1.745708   -1.868703
     19          6           0        1.834602   -2.726752   -0.037066
     20          8           0        3.691669   -0.728723    1.314214
     21          1           0        1.565592    0.190152    2.093166
     22          1           0       -1.078545    0.293304   -0.971091
     23          1           0        0.626936    0.463278   -1.492457
     24          1           0        0.577906    3.240748    1.176399
     25          1           0        1.837719    2.581385    0.064346
     26          1           0       -1.547513    1.779966    1.303427
     27          1           0       -0.408297    1.427973    2.591644
     28          1           0       -2.030279   -0.205305    2.879234
     29          1           0       -0.731289   -1.074618    2.085388
     30          1           0       -1.540987   -2.714685    0.648113
     31          1           0       -3.176941   -3.551874   -1.011313
     32          1           0       -5.069490   -2.106842   -1.731167
     33          1           0       -5.305475    0.176502   -0.772332
     34          1           0       -3.664532    1.005735    0.876615
     35          1           0        3.376352   -0.806864   -2.371413
     36          1           0        2.638082   -2.409272   -2.564884
     37          1           0        4.087921   -2.224092   -1.550346
     38          1           0        1.155159   -2.469636    0.773854
     39          1           0        2.695525   -3.275919    0.360900
     40          1           0        1.308106   -3.358652   -0.755517
 ---------------------------------------------------------------------
 Rotational constants (GHZ):      0.3979779      0.2172943      0.1715503
 Leave Link  202 at Sat Aug  8 02:34:59 2020, MaxMem=    33554432 cpu:         0.0
 (Enter /prod/apps/gaussian/g09d1/l301.exe)
 Standard basis: 6-31G(d) (6D, 7F)
 Ernie: Thresh=  0.10000D-02 Tol=  0.10000D-05 Strict=F.
 There are   348 symmetry adapted cartesian basis functions of A   symmetry.
 There are   348 symmetry adapted basis functions of A   symmetry.
   348 basis functions,   688 primitive gaussians,   348 cartesian basis functions
    84 alpha electrons       84 beta electrons
       nuclear repulsion energy      2041.4572132515 Hartrees.
 IExCor=  402 DFT=T Ex+Corr=B3LYP ExCW=0 ScaHFX=  0.200000
 ScaDFX=  0.800000  0.720000  1.000000  0.810000 ScalE2=  1.000000  1.000000
 IRadAn=      0 IRanWt=     -1 IRanGd=            0 ICorTp=0 IEmpDi=  4
 NAtoms=   40 NActive=   40 NUniq=   40 SFac= 1.00D+00 NAtFMM=   60 NAOKFM=F Big=F
 Integral buffers will be    131072 words long.
 Raffenetti 2 integral format.
 Two-electron integral symmetry is turned on.
 Leave Link  301 at Sat Aug  8 02:34:59 2020, MaxMem=    33554432 cpu:         0.0
 (Enter /prod/apps/gaussian/g09d1/l302.exe)
 NPDir=0 NMtPBC=     1 NCelOv=     1 NCel=       1 NClECP=     1 NCelD=      1
         NCelK=      1 NCelE2=     1 NClLst=     1 CellRange=     0.0.
 One-electron integrals computed using PRISM.
 NBasis=   348 RedAO= T EigKep=  4.66D-04  NBF=   348
 NBsUse=   348 1.00D-06 EigRej= -1.00D+00 NBFU=   348
 Precomputing XC quadrature grid using
 IXCGrd= 4 IRadAn=           0 IRanWt=          -1 IRanGd=           0 AccXCQ= 0.00D+00.
 Generated NRdTot=       0 NPtTot=           0 NUsed=           0 NTot=          32
 NSgBfM=   344   344   344   344   345 MxSgAt=    40 MxSgA2=    40.
 Leave Link  302 at Sat Aug  8 02:35:00 2020, MaxMem=    33554432 cpu:         1.3
 (Enter /prod/apps/gaussian/g09d1/l303.exe)
 DipDrv:  MaxL=1.
 Leave Link  303 at Sat Aug  8 02:35:00 2020, MaxMem=    33554432 cpu:         0.1
 (Enter /prod/apps/gaussian/g09d1/l401.exe)
 ExpMin= 1.17D-01 ExpMax= 2.19D+04 ExpMxC= 3.30D+03 IAcc=1 IRadAn=         1 AccDes= 0.00D+00
 Harris functional with IExCor=  402 and IRadAn=       1 diagonalized for initial guess.
 HarFok:  IExCor=  402 AccDes= 0.00D+00 IRadAn=         1 IDoV= 1 UseB2=F ITyADJ=14
 ICtDFT=  3500011 ScaDFX=  1.000000  1.000000  1.000000  1.000000
 FoFCou: FMM=F IPFlag=           0 FMFlag=      100000 FMFlg1=           0
         NFxFlg=           0 DoJE=T BraDBF=F KetDBF=T FulRan=T
         wScrn=  0.000000 ICntrl=     500 IOpCl=  0 I1Cent=   200000004 NGrid=           0
         NMat0=    1 NMatS0=      1 NMatT0=    0 NMatD0=    1 NMtDS0=    0 NMtDT0=    0
 Petite list used in FoFCou.
 Harris En= -1638.91387215146    
 JPrj=0 DoOrth=F DoCkMO=F.
 Leave Link  401 at Sat Aug  8 02:35:05 2020, MaxMem=    33554432 cpu:         5.1
 (Enter /prod/apps/gaussian/g09d1/l502.exe)
 Closed shell SCF:
 Using DIIS extrapolation, IDIIS=  1040.
 Integral symmetry usage will be decided dynamically.
 IVT=      386588 IEndB=      386588 NGot=    33554432 MDV=    33305937
 LenX=    33305937 LenY=    33184392
 Requested convergence on RMS density matrix=1.00D-08 within 128 cycles.
 Requested convergence on MAX density matrix=1.00D-06.
 Requested convergence on             energy=1.00D-06.
 No special actions if energy rises.
 Fock matrices will be formed incrementally for  20 cycles.
 Integral accuracy reduced to 1.0D-05 until final iterations.

 Cycle   1  Pass 0  IDiag  1:
 FoFJK:  IHMeth= 1 ICntrl=       0 DoSepK=F KAlg= 0 I1Cent=   0 FoldK=F
 IRaf= 800000000 NMat=   1 IRICut=       1 DoRegI=T DoRafI=F ISym2E= 0.
 FoFCou: FMM=F IPFlag=           0 FMFlag=      100000 FMFlg1=           0
         NFxFlg=           0 DoJE=F BraDBF=F KetDBF=F FulRan=T
         wScrn=  0.000000 ICntrl=       0 IOpCl=  0 I1Cent=           0 NGrid=           0
         NMat0=    1 NMatS0=      1 NMatT0=    0 NMatD0=    1 NMtDS0=    0 NMtDT0=    0
 Symmetry not used in FoFCou.
 E= -1638.04866626240    
 DIIS: error= 2.67D-02 at cycle   1 NSaved=   1.
 NSaved= 1 IEnMin= 1 EnMin= -1638.04866626240     IErMin= 1 ErrMin= 2.67D-02
 ErrMax= 2.67D-02  0.00D+00 EMaxC= 1.00D-01 BMatC= 8.90D-01 BMatP= 8.90D-01
 IDIUse=3 WtCom= 7.33D-01 WtEn= 2.67D-01
 Coeff-Com:  0.100D+01
 Coeff-En:   0.100D+01
 Coeff:      0.100D+01
 Gap=     0.331 Goal=   None    Shift=    0.000
 GapD=    0.331 DampG=1.000 DampE=0.500 DampFc=0.5000 IDamp=-1.
 Damping current iteration by 5.00D-01
 RMSDP=7.73D-03 MaxDP=5.97D-01              OVMax= 3.22D-01

 Cycle   2  Pass 0  IDiag  1:
 RMSU=  3.87D-03    CP:  9.99D-01
 E= -1638.17814570514     Delta-E=       -0.129479442741 Rises=F Damp=T
 DIIS: error= 1.78D-02 at cycle   2 NSaved=   2.
 NSaved= 2 IEnMin= 2 EnMin= -1638.17814570514     IErMin= 2 ErrMin= 1.78D-02
 ErrMax= 1.78D-02  0.00D+00 EMaxC= 1.00D-01 BMatC= 1.82D-01 BMatP= 8.90D-01
 IDIUse=3 WtCom= 8.22D-01 WtEn= 1.78D-01
 Coeff-Com:  0.266D+00 0.734D+00
 Coeff-En:   0.421D+00 0.579D+00
 Coeff:      0.293D+00 0.707D+00
 Gap=     0.340 Goal=   None    Shift=    0.000
 RMSDP=2.85D-03 MaxDP=1.35D-01 DE=-1.29D-01 OVMax= 2.45D-01

 Cycle   3  Pass 0  IDiag  1:
 RMSU=  2.13D-03    CP:  9.86D-01  5.13D-01
 E= -1638.68741450761     Delta-E=       -0.509268802469 Rises=F Damp=F
 DIIS: error= 1.82D-02 at cycle   3 NSaved=   3.
 NSaved= 3 IEnMin= 3 EnMin= -1638.68741450761     IErMin= 2 ErrMin= 1.78D-02
 ErrMax= 1.82D-02  0.00D+00 EMaxC= 1.00D-01 BMatC= 1.56D-01 BMatP= 1.82D-01
 IDIUse=3 WtCom= 8.18D-01 WtEn= 1.82D-01
 Coeff-Com:  0.123D+00 0.472D+00 0.405D+00
 Coeff-En:   0.000D+00 0.000D+00 0.100D+01
 Coeff:      0.101D+00 0.386D+00 0.513D+00
 Gap=     0.240 Goal=   None    Shift=    0.000
 RMSDP=2.07D-03 MaxDP=8.88D-02 DE=-5.09D-01 OVMax= 1.88D-01

 Cycle   4  Pass 0  IDiag  1:
 RMSU=  1.05D-03    CP:  9.95D-01  6.98D-01  2.35D-01
 E= -1638.78976910891     Delta-E=       -0.102354601295 Rises=F Damp=F
 DIIS: error= 1.06D-02 at cycle   4 NSaved=   4.
 NSaved= 4 IEnMin= 4 EnMin= -1638.78976910891     IErMin= 4 ErrMin= 1.06D-02
 ErrMax= 1.06D-02  0.00D+00 EMaxC= 1.00D-01 BMatC= 4.92D-02 BMatP= 1.56D-01
 IDIUse=3 WtCom= 8.94D-01 WtEn= 1.06D-01
 Coeff-Com:  0.273D-01 0.101D+00 0.350D+00 0.522D+00
 Coeff-En:   0.000D+00 0.000D+00 0.278D+00 0.722D+00
 Coeff:      0.244D-01 0.900D-01 0.343D+00 0.543D+00
 Gap=     0.224 Goal=   None    Shift=    0.000
 RMSDP=9.18D-04 MaxDP=4.55D-02 DE=-1.02D-01 OVMax= 8.58D-02

 Cycle   5  Pass 0  IDiag  1:
 RMSU=  3.33D-04    CP:  9.93D-01  6.17D-01  5.32D-01  5.41D-01
 E= -1638.83055311873     Delta-E=       -0.040784009822 Rises=F Damp=F
 DIIS: error= 2.38D-03 at cycle   5 NSaved=   5.
 NSaved= 5 IEnMin= 5 EnMin= -1638.83055311873     IErMin= 5 ErrMin= 2.38D-03
 ErrMax= 2.38D-03  0.00D+00 EMaxC= 1.00D-01 BMatC= 3.51D-03 BMatP= 4.92D-02
 IDIUse=3 WtCom= 9.76D-01 WtEn= 2.38D-02
 Coeff-Com:  0.242D-02 0.956D-02 0.155D+00 0.334D+00 0.499D+00
 Coeff-En:   0.000D+00 0.000D+00 0.000D+00 0.233D-01 0.977D+00
 Coeff:      0.236D-02 0.933D-02 0.151D+00 0.326D+00 0.511D+00
 Gap=     0.217 Goal=   None    Shift=    0.000
 RMSDP=2.35D-04 MaxDP=1.01D-02 DE=-4.08D-02 OVMax= 1.70D-02

 Cycle   6  Pass 0  IDiag  1:
 RMSU=  1.23D-04    CP:  9.93D-01  6.32D-01  4.98D-01  6.19D-01  5.29D-01
 E= -1638.83320873133     Delta-E=       -0.002655612597 Rises=F Damp=F
 DIIS: error= 8.40D-04 at cycle   6 NSaved=   6.
 NSaved= 6 IEnMin= 6 EnMin= -1638.83320873133     IErMin= 6 ErrMin= 8.40D-04
 ErrMax= 8.40D-04  0.00D+00 EMaxC= 1.00D-01 BMatC= 4.60D-04 BMatP= 3.51D-03
 IDIUse=3 WtCom= 9.92D-01 WtEn= 8.40D-03
 Coeff-Com: -0.111D-02-0.417D-02 0.440D-01 0.119D+00 0.316D+00 0.526D+00
 Coeff-En:   0.000D+00 0.000D+00 0.000D+00 0.000D+00 0.977D-01 0.902D+00
 Coeff:     -0.110D-02-0.413D-02 0.436D-01 0.118D+00 0.315D+00 0.529D+00
 Gap=     0.218 Goal=   None    Shift=    0.000
 RMSDP=7.71D-05 MaxDP=3.57D-03 DE=-2.66D-03 OVMax= 4.25D-03

 Cycle   7  Pass 0  IDiag  1:
 RMSU=  4.06D-05    CP:  9.92D-01  6.29D-01  5.03D-01  6.25D-01  6.13D-01
                    CP:  5.35D-01
 E= -1638.83355085273     Delta-E=       -0.000342121408 Rises=F Damp=F
 DIIS: error= 2.42D-04 at cycle   7 NSaved=   7.
 NSaved= 7 IEnMin= 7 EnMin= -1638.83355085273     IErMin= 7 ErrMin= 2.42D-04
 ErrMax= 2.42D-04  0.00D+00 EMaxC= 1.00D-01 BMatC= 4.19D-05 BMatP= 4.60D-04
 IDIUse=3 WtCom= 9.98D-01 WtEn= 2.42D-03
 Coeff-Com: -0.611D-03-0.313D-02 0.583D-02 0.238D-01 0.117D+00 0.302D+00
 Coeff-Com:  0.556D+00
 Coeff-En:   0.000D+00 0.000D+00 0.000D+00 0.000D+00 0.000D+00 0.331D-01
 Coeff-En:   0.967D+00
 Coeff:     -0.610D-03-0.312D-02 0.582D-02 0.237D-01 0.117D+00 0.301D+00
 Coeff:      0.557D+00
 Gap=     0.217 Goal=   None    Shift=    0.000
 RMSDP=2.19D-05 MaxDP=8.40D-04 DE=-3.42D-04 OVMax= 9.91D-04

 Cycle   8  Pass 0  IDiag  1:
 RMSU=  1.07D-05    CP:  9.92D-01  6.29D-01  5.03D-01  6.22D-01  6.17D-01
                    CP:  6.14D-01  6.11D-01
 E= -1638.83358767892     Delta-E=       -0.000036826184 Rises=F Damp=F
 DIIS: error= 4.68D-05 at cycle   8 NSaved=   8.
 NSaved= 8 IEnMin= 8 EnMin= -1638.83358767892     IErMin= 8 ErrMin= 4.68D-05
 ErrMax= 4.68D-05  0.00D+00 EMaxC= 1.00D-01 BMatC= 1.57D-06 BMatP= 4.19D-05
 IDIUse=1 WtCom= 1.00D+00 WtEn= 0.00D+00
 Coeff-Com: -0.930D-04-0.911D-03-0.383D-03 0.169D-02 0.293D-01 0.955D-01
 Coeff-Com:  0.245D+00 0.630D+00
 Coeff:     -0.930D-04-0.911D-03-0.383D-03 0.169D-02 0.293D-01 0.955D-01
 Coeff:      0.245D+00 0.630D+00
 Gap=     0.217 Goal=   None    Shift=    0.000
 RMSDP=5.76D-06 MaxDP=1.94D-04 DE=-3.68D-05 OVMax= 5.51D-04

 Initial convergence to 1.0D-05 achieved.  Increase integral accuracy.
 Cycle   9  Pass 1  IDiag  1:
 E= -1638.83355984426     Delta-E=        0.000027834660 Rises=F Damp=F
 DIIS: error= 8.10D-05 at cycle   1 NSaved=   1.
 NSaved= 1 IEnMin= 1 EnMin= -1638.83355984426     IErMin= 1 ErrMin= 8.10D-05
 ErrMax= 8.10D-05  0.00D+00 EMaxC= 1.00D-01 BMatC= 9.92D-07 BMatP= 9.92D-07
 IDIUse=1 WtCom= 1.00D+00 WtEn= 0.00D+00
 Coeff-Com:  0.100D+01
 Coeff:      0.100D+01
 Gap=     0.217 Goal=   None    Shift=    0.000
 RMSDP=5.76D-06 MaxDP=1.94D-04 DE= 2.78D-05 OVMax= 7.37D-04

 Cycle  10  Pass 1  IDiag  1:
 RMSU=  3.04D-05    CP:  1.00D+00
 E= -1638.83355941096     Delta-E=        0.000000433295 Rises=F Damp=F
 DIIS: error= 7.47D-05 at cycle   2 NSaved=   2.
 NSaved= 2 IEnMin= 1 EnMin= -1638.83355984426     IErMin= 2 ErrMin= 7.47D-05
 ErrMax= 7.47D-05  0.00D+00 EMaxC= 1.00D-01 BMatC= 1.36D-06 BMatP= 9.92D-07
 IDIUse=1 WtCom= 1.00D+00 WtEn= 0.00D+00
 Coeff-Com:  0.550D+00 0.450D+00
 Coeff:      0.550D+00 0.450D+00
 Gap=     0.217 Goal=   None    Shift=    0.000
 RMSDP=5.14D-06 MaxDP=1.76D-04 DE= 4.33D-07 OVMax= 6.59D-04

 Cycle  11  Pass 1  IDiag  1:
 RMSU=  5.09D-06    CP:  1.00D+00  9.75D-01
 E= -1638.83356074091     Delta-E=       -0.000001329946 Rises=F Damp=F
 DIIS: error= 2.61D-05 at cycle   3 NSaved=   3.
 NSaved= 3 IEnMin= 3 EnMin= -1638.83356074091     IErMin= 3 ErrMin= 2.61D-05
 ErrMax= 2.61D-05  0.00D+00 EMaxC= 1.00D-01 BMatC= 1.77D-07 BMatP= 9.92D-07
 IDIUse=1 WtCom= 1.00D+00 WtEn= 0.00D+00
 Coeff-Com:  0.173D-01 0.263D+00 0.720D+00
 Coeff:      0.173D-01 0.263D+00 0.720D+00
 Gap=     0.217 Goal=   None    Shift=    0.000
 RMSDP=1.51D-06 MaxDP=4.76D-05 DE=-1.33D-06 OVMax= 1.82D-04

 Cycle  12  Pass 1  IDiag  1:
 RMSU=  6.76D-07    CP:  1.00D+00  9.91D-01  7.50D-01
 E= -1638.83356092810     Delta-E=       -0.000000187194 Rises=F Damp=F
 DIIS: error= 4.56D-06 at cycle   4 NSaved=   4.
 NSaved= 4 IEnMin= 4 EnMin= -1638.83356092810     IErMin= 4 ErrMin= 4.56D-06
 ErrMax= 4.56D-06  0.00D+00 EMaxC= 1.00D-01 BMatC= 1.24D-08 BMatP= 1.77D-07
 IDIUse=1 WtCom= 1.00D+00 WtEn= 0.00D+00
 Coeff-Com: -0.719D-02 0.139D+00 0.419D+00 0.449D+00
 Coeff:     -0.719D-02 0.139D+00 0.419D+00 0.449D+00
 Gap=     0.217 Goal=   None    Shift=    0.000
 RMSDP=3.74D-07 MaxDP=1.62D-05 DE=-1.87D-07 OVMax= 2.18D-05

 Cycle  13  Pass 1  IDiag  1:
 RMSU=  1.76D-07    CP:  1.00D+00  9.91D-01  7.56D-01  5.15D-01
 E= -1638.83356093883     Delta-E=       -0.000000010728 Rises=F Damp=F
 DIIS: error= 1.34D-06 at cycle   5 NSaved=   5.
 NSaved= 5 IEnMin= 5 EnMin= -1638.83356093883     IErMin= 5 ErrMin= 1.34D-06
 ErrMax= 1.34D-06  0.00D+00 EMaxC= 1.00D-01 BMatC= 6.70D-10 BMatP= 1.24D-08
 IDIUse=1 WtCom= 1.00D+00 WtEn= 0.00D+00
 Coeff-Com: -0.494D-02 0.710D-01 0.217D+00 0.269D+00 0.448D+00
 Coeff:     -0.494D-02 0.710D-01 0.217D+00 0.269D+00 0.448D+00
 Gap=     0.217 Goal=   None    Shift=    0.000
 RMSDP=9.11D-08 MaxDP=4.92D-06 DE=-1.07D-08 OVMax= 4.39D-06

 Cycle  14  Pass 1  IDiag  1:
 RMSU=  7.17D-08    CP:  1.00D+00  9.91D-01  7.55D-01  5.28D-01  6.91D-01
 E= -1638.83356093940     Delta-E=       -0.000000000568 Rises=F Damp=F
 DIIS: error= 2.89D-07 at cycle   6 NSaved=   6.
 NSaved= 6 IEnMin= 6 EnMin= -1638.83356093940     IErMin= 6 ErrMin= 2.89D-07
 ErrMax= 2.89D-07  0.00D+00 EMaxC= 1.00D-01 BMatC= 3.95D-11 BMatP= 6.70D-10
 IDIUse=1 WtCom= 1.00D+00 WtEn= 0.00D+00
 Coeff-Com: -0.154D-02 0.169D-01 0.523D-01 0.738D-01 0.226D+00 0.633D+00
 Coeff:     -0.154D-02 0.169D-01 0.523D-01 0.738D-01 0.226D+00 0.633D+00
 Gap=     0.217 Goal=   None    Shift=    0.000
 RMSDP=2.52D-08 MaxDP=1.38D-06 DE=-5.68D-10 OVMax= 1.28D-06

 Cycle  15  Pass 1  IDiag  1:
 RMSU=  1.91D-08    CP:  1.00D+00  9.91D-01  7.55D-01  5.31D-01  7.45D-01
                    CP:  8.20D-01
 E= -1638.83356093941     Delta-E=       -0.000000000013 Rises=F Damp=F
 DIIS: error= 1.10D-07 at cycle   7 NSaved=   7.
 NSaved= 7 IEnMin= 7 EnMin= -1638.83356093941     IErMin= 7 ErrMin= 1.10D-07
 ErrMax= 1.10D-07  0.00D+00 EMaxC= 1.00D-01 BMatC= 8.81D-12 BMatP= 3.95D-11
 IDIUse=1 WtCom= 1.00D+00 WtEn= 0.00D+00
 Coeff-Com: -0.308D-03 0.140D-02 0.483D-02 0.110D-01 0.815D-01 0.382D+00
 Coeff-Com:  0.520D+00
 Coeff:     -0.308D-03 0.140D-02 0.483D-02 0.110D-01 0.815D-01 0.382D+00
 Coeff:      0.520D+00
 Gap=     0.217 Goal=   None    Shift=    0.000
 RMSDP=1.20D-08 MaxDP=5.92D-07 DE=-1.27D-11 OVMax= 9.14D-07

 Cycle  16  Pass 1  IDiag  1:
 RMSU=  7.40D-09    CP:  1.00D+00  9.91D-01  7.55D-01  5.33D-01  7.53D-01
                    CP:  8.66D-01  5.49D-01
 E= -1638.83356093945     Delta-E=       -0.000000000034 Rises=F Damp=F
 DIIS: error= 5.15D-08 at cycle   8 NSaved=   8.
 NSaved= 8 IEnMin= 8 EnMin= -1638.83356093945     IErMin= 8 ErrMin= 5.15D-08
 ErrMax= 5.15D-08  0.00D+00 EMaxC= 1.00D-01 BMatC= 1.33D-12 BMatP= 8.81D-12
 IDIUse=1 WtCom= 1.00D+00 WtEn= 0.00D+00
 Coeff-Com: -0.113D-04-0.123D-02-0.349D-02-0.229D-02 0.238D-01 0.165D+00
 Coeff-Com:  0.333D+00 0.485D+00
 Coeff:     -0.113D-04-0.123D-02-0.349D-02-0.229D-02 0.238D-01 0.165D+00
 Coeff:      0.333D+00 0.485D+00
 Gap=     0.217 Goal=   None    Shift=    0.000
 RMSDP=4.90D-09 MaxDP=2.23D-07 DE=-3.37D-11 OVMax= 4.18D-07

 SCF Done:  E(RB3LYP) =  -1638.83356094     A.U. after   16 cycles
            NFock= 16  Conv=0.49D-08     -V/T= 2.0066
 KE= 1.628096061086D+03 PE=-7.933167426203D+03 EE= 2.624780590927D+03
 Leave Link  502 at Sat Aug  8 02:41:51 2020, MaxMem=    33554432 cpu:       405.2
 (Enter /prod/apps/gaussian/g09d1/l601.exe)
 Copying SCF densities to generalized density rwf, IOpCl= 0 IROHF=0.

 **********************************************************************

            Population analysis using the SCF density.

 **********************************************************************

 Orbital symmetries:
       Occupied  (A) (A) (A) (A) (A) (A) (A) (A) (A) (A) (A) (A)
                 (A) (A) (A) (A) (A) (A) (A) (A) (A) (A) (A) (A)
                 (A) (A) (A) (A) (A) (A) (A) (A) (A) (A) (A) (A)
                 (A) (A) (A) (A) (A) (A) (A) (A) (A) (A) (A) (A)
                 (A) (A) (A) (A) (A) (A) (A) (A) (A) (A) (A) (A)
                 (A) (A) (A) (A) (A) (A) (A) (A) (A) (A) (A) (A)
                 (A) (A) (A) (A) (A) (A) (A) (A) (A) (A) (A) (A)
       Virtual   (A) (A) (A) (A) (A) (A) (A) (A) (A) (A) (A) (A)
                 (A) (A) (A) (A) (A) (A) (A) (A) (A) (A) (A) (A)
                 (A) (A) (A) (A) (A) (A) (A) (A) (A) (A) (A) (A)
                 (A) (A) (A) (A) (A) (A) (A) (A) (A) (A) (A) (A)
                 (A) (A) (A) (A) (A) (A) (A) (A) (A) (A) (A) (A)
                 (A) (A) (A) (A) (A) (A) (A) (A) (A) (A) (A) (A)
                 (A) (A) (A) (A) (A) (A) (A) (A) (A) (A) (A) (A)
                 (A) (A) (A) (A) (A) (A) (A) (A) (A) (A) (A) (A)
                 (A) (A) (A) (A) (A) (A) (A) (A) (A) (A) (A) (A)
                 (A) (A) (A) (A) (A) (A) (A) (A) (A) (A) (A) (A)
                 (A) (A) (A) (A) (A) (A) (A) (A) (A) (A) (A) (A)
                 (A) (A) (A) (A) (A) (A) (A) (A) (A) (A) (A) (A)
                 (A) (A) (A) (A) (A) (A) (A) (A) (A) (A) (A) (A)
                 (A) (A) (A) (A) (A) (A) (A) (A) (A) (A) (A) (A)
                 (A) (A) (A) (A) (A) (A) (A) (A) (A) (A) (A) (A)
                 (A) (A) (A) (A) (A) (A) (A) (A) (A) (A) (A) (A)
                 (A) (A) (A) (A) (A) (A) (A) (A) (A) (A) (A) (A)
                 (A) (A) (A) (A) (A) (A) (A) (A) (A) (A) (A) (A)
                 (A) (A) (A) (A) (A) (A) (A) (A) (A) (A) (A) (A)
                 (A) (A) (A) (A) (A) (A) (A) (A) (A) (A) (A) (A)
                 (A) (A) (A) (A) (A) (A) (A) (A) (A) (A) (A) (A)
                 (A) (A) (A) (A) (A) (A) (A) (A) (A) (A) (A) (A)
 The electronic state is 1-A.
 Alpha  occ. eigenvalues --  -89.13756 -88.98023 -19.15289 -19.15026 -19.10717
 Alpha  occ. eigenvalues --  -14.38425 -14.38371 -10.26613 -10.23236 -10.23064
 Alpha  occ. eigenvalues --  -10.21265 -10.21183 -10.20196 -10.19960 -10.19869
 Alpha  occ. eigenvalues --  -10.19292 -10.19144 -10.19126 -10.19045 -10.18804
 Alpha  occ. eigenvalues --   -8.15999  -8.02824  -6.12488  -6.12426  -6.12377
 Alpha  occ. eigenvalues --   -5.99225  -5.99057  -5.98606  -1.12783  -1.00744
 Alpha  occ. eigenvalues --   -0.99548  -0.95380  -0.94286  -0.85878  -0.84511
 Alpha  occ. eigenvalues --   -0.79389  -0.74626  -0.74403  -0.73538  -0.71717
 Alpha  occ. eigenvalues --   -0.69857  -0.67758  -0.62989  -0.61170  -0.60547
 Alpha  occ. eigenvalues --   -0.58135  -0.56638  -0.54425  -0.52599  -0.51554
 Alpha  occ. eigenvalues --   -0.50765  -0.48903  -0.48524  -0.47304  -0.46273
 Alpha  occ. eigenvalues --   -0.45732  -0.45259  -0.44417  -0.43574  -0.42915
 Alpha  occ. eigenvalues --   -0.42493  -0.42086  -0.42004  -0.41577  -0.39991
 Alpha  occ. eigenvalues --   -0.39803  -0.38747  -0.38317  -0.37116  -0.36965
 Alpha  occ. eigenvalues --   -0.35863  -0.34960  -0.34631  -0.34067  -0.33666
 Alpha  occ. eigenvalues --   -0.32889  -0.32440  -0.30882  -0.28987  -0.26411
 Alpha  occ. eigenvalues --   -0.25416  -0.25143  -0.24379  -0.22366
 Alpha virt. eigenvalues --   -0.00639  -0.00242   0.01224   0.03612   0.04472
 Alpha virt. eigenvalues --    0.06271   0.06842   0.06937   0.07546   0.09154
 Alpha virt. eigenvalues --    0.09309   0.10148   0.10856   0.11749   0.12724
 Alpha virt. eigenvalues --    0.13390   0.13647   0.14544   0.14775   0.15139
 Alpha virt. eigenvalues --    0.15604   0.15928   0.16494   0.16924   0.17654
 Alpha virt. eigenvalues --    0.18106   0.18959   0.19394   0.20046   0.20406
 Alpha virt. eigenvalues --    0.21095   0.22019   0.22993   0.23816   0.24744
 Alpha virt. eigenvalues --    0.25069   0.26165   0.28520   0.30456   0.32350
 Alpha virt. eigenvalues --    0.33197   0.34533   0.34914   0.35301   0.36130
 Alpha virt. eigenvalues --    0.38864   0.42275   0.42709   0.43829   0.45121
 Alpha virt. eigenvalues --    0.46068   0.48343   0.48550   0.50170   0.51110
 Alpha virt. eigenvalues --    0.51597   0.53224   0.53784   0.54974   0.55145
 Alpha virt. eigenvalues --    0.55855   0.56622   0.57528   0.58841   0.59451
 Alpha virt. eigenvalues --    0.59901   0.60332   0.61283   0.61322   0.62514
 Alpha virt. eigenvalues --    0.62862   0.63516   0.63981   0.64526   0.65487
 Alpha virt. eigenvalues --    0.67173   0.67921   0.68394   0.69704   0.70968
 Alpha virt. eigenvalues --    0.71643   0.73077   0.74767   0.76917   0.77020
 Alpha virt. eigenvalues --    0.77910   0.79972   0.80441   0.81405   0.81848
 Alpha virt. eigenvalues --    0.82584   0.83041   0.83854   0.84470   0.85151
 Alpha virt. eigenvalues --    0.85503   0.86315   0.86929   0.87547   0.88214
 Alpha virt. eigenvalues --    0.88723   0.89540   0.89939   0.90507   0.91028
 Alpha virt. eigenvalues --    0.91703   0.91858   0.92829   0.93536   0.94340
 Alpha virt. eigenvalues --    0.94754   0.95583   0.96734   0.97832   0.98306
 Alpha virt. eigenvalues --    1.00052   1.01133   1.02814   1.03864   1.04630
 Alpha virt. eigenvalues --    1.04976   1.06756   1.07306   1.07590   1.09532
 Alpha virt. eigenvalues --    1.09958   1.11345   1.11764   1.12526   1.14231
 Alpha virt. eigenvalues --    1.15335   1.15819   1.17245   1.17703   1.19107
 Alpha virt. eigenvalues --    1.20065   1.21397   1.22900   1.24238   1.26020
 Alpha virt. eigenvalues --    1.27452   1.29897   1.34200   1.35386   1.38114
 Alpha virt. eigenvalues --    1.40500   1.43015   1.43574   1.44539   1.45218
 Alpha virt. eigenvalues --    1.47711   1.48328   1.49661   1.50901   1.51691
 Alpha virt. eigenvalues --    1.54514   1.55860   1.56458   1.60687   1.66788
 Alpha virt. eigenvalues --    1.69072   1.71105   1.72240   1.74986   1.75727
 Alpha virt. eigenvalues --    1.76701   1.77797   1.79766   1.80493   1.80685
 Alpha virt. eigenvalues --    1.82316   1.83902   1.84715   1.85229   1.86534
 Alpha virt. eigenvalues --    1.87491   1.88295   1.90043   1.90681   1.91343
 Alpha virt. eigenvalues --    1.91845   1.93414   1.93804   1.94811   1.97065
 Alpha virt. eigenvalues --    1.97155   1.97774   1.99160   2.00124   2.02316
 Alpha virt. eigenvalues --    2.03705   2.04295   2.05811   2.07819   2.08276
 Alpha virt. eigenvalues --    2.09689   2.10383   2.12114   2.13517   2.13747
 Alpha virt. eigenvalues --    2.14406   2.14616   2.16287   2.16661   2.19338
 Alpha virt. eigenvalues --    2.19556   2.21173   2.22669   2.23648   2.25178
 Alpha virt. eigenvalues --    2.26624   2.27978   2.30533   2.30947   2.31301
 Alpha virt. eigenvalues --    2.34861   2.35535   2.37358   2.39340   2.40284
 Alpha virt. eigenvalues --    2.41706   2.46771   2.47707   2.49326   2.57100
 Alpha virt. eigenvalues --    2.58055   2.58934   2.60702   2.64894   2.69490
 Alpha virt. eigenvalues --    2.70046   2.71305   2.72263   2.73545   2.74535
 Alpha virt. eigenvalues --    2.75913   2.77299   2.77891   2.79876   2.83309
 Alpha virt. eigenvalues --    2.85895   2.89003   3.05949   3.40650   3.79870
 Alpha virt. eigenvalues --    3.85149   3.90820   3.94741   4.01374   4.06736
 Alpha virt. eigenvalues --    4.08485   4.10171   4.11703   4.16863   4.20621
 Alpha virt. eigenvalues --    4.24446   4.26077   4.32916   4.33864   4.35884
 Alpha virt. eigenvalues --    4.41736   4.53410   4.69644   4.73072
          Condensed to atoms (all electrons):
               1          2          3          4          5          6
     1  O    8.296143   0.398227  -0.053377   0.005845  -0.004874   0.000340
     2  S    0.398227  13.617593   0.132266   0.006676  -0.007335   0.000628
     3  N   -0.053377   0.132266   7.406460   0.200934  -0.038169   0.004068
     4  C    0.005845   0.006676   0.200934   4.846228   0.323932  -0.059437
     5  C   -0.004874  -0.007335  -0.038169   0.323932   5.687157   0.059411
     6  S    0.000340   0.000628   0.004068  -0.059437   0.059411  14.935827
     7  O    0.000000   0.000010  -0.000053  -0.000695  -0.038740   0.296338
     8  C   -0.008851  -0.005932  -0.053693   0.339349  -0.122440   0.051207
     9  C    0.000095   0.000979  -0.054891   0.369398  -0.050241   0.004646
    10  C   -0.000002  -0.000115  -0.008560  -0.036471  -0.004333  -0.000320
    11  C    0.000000  -0.000005  -0.000213  -0.002189  -0.001900  -0.000157
    12  C    0.000000  -0.000033   0.000098   0.000805  -0.001684   0.000065
    13  C    0.000000  -0.000001   0.000001  -0.000001   0.000010   0.000001
    14  C    0.000000   0.000000   0.000000   0.000002   0.000058  -0.000002
    15  C    0.000000   0.000000   0.000000  -0.000013  -0.000143   0.000022
    16  C    0.000000   0.000001   0.000004  -0.001055  -0.002109   0.000336
    17  N   -0.053902   0.126425  -0.042945  -0.005718   0.001176   0.000120
    18  C   -0.003627  -0.026811   0.002390   0.000056  -0.000056   0.000005
    19  C    0.001767  -0.010143  -0.009095   0.000534  -0.000034   0.000001
    20  O   -0.046049   0.447639  -0.057327   0.001857  -0.000060  -0.000002
    21  H   -0.000157  -0.017928   0.295329  -0.024414   0.005168  -0.000211
    22  H    0.000089   0.000042   0.001295  -0.025818   0.350897  -0.018808
    23  H    0.004215   0.007931  -0.006862  -0.025886   0.320576  -0.005293
    24  H    0.000175   0.000324   0.001589  -0.031298   0.010432  -0.018169
    25  H    0.016058   0.000838  -0.004768  -0.024528   0.003374  -0.003659
    26  H    0.000001   0.000042   0.003019  -0.031276  -0.007744   0.005537
    27  H    0.000000  -0.000258  -0.007567  -0.037109   0.006542  -0.000308
    28  H    0.000000   0.000000   0.000219   0.004813  -0.000066   0.000033
    29  H    0.000003   0.000250   0.009644  -0.011279  -0.000385  -0.000065
    30  H    0.000000   0.000000  -0.000138  -0.000002   0.000015   0.000000
    31  H    0.000000   0.000000   0.000000   0.000000  -0.000002   0.000000
    32  H    0.000000   0.000000   0.000000   0.000000   0.000000   0.000000
    33  H    0.000000   0.000000   0.000000   0.000000  -0.000003   0.000002
    34  H    0.000000   0.000000  -0.000002   0.000125  -0.000071  -0.000124
    35  H    0.011708  -0.004923   0.000113   0.000017  -0.000040   0.000007
    36  H    0.000240   0.002156  -0.000079   0.000001   0.000022  -0.000002
    37  H   -0.000603  -0.003131  -0.000079  -0.000009   0.000000   0.000000
    38  H    0.000018  -0.003849   0.011913   0.000058  -0.000073   0.000000
    39  H   -0.000043  -0.007358  -0.000163  -0.000035   0.000006   0.000000
    40  H   -0.000051   0.003183  -0.000033   0.000008   0.000044  -0.000001
               7          8          9         10         11         12
     1  O    0.000000  -0.008851   0.000095  -0.000002   0.000000   0.000000
     2  S    0.000010  -0.005932   0.000979  -0.000115  -0.000005  -0.000033
     3  N   -0.000053  -0.053693  -0.054891  -0.008560  -0.000213   0.000098
     4  C   -0.000695   0.339349   0.369398  -0.036471  -0.002189   0.000805
     5  C   -0.038740  -0.122440  -0.050241  -0.004333  -0.001900  -0.001684
     6  S    0.296338   0.051207   0.004646  -0.000320  -0.000157   0.000065
     7  O    8.388749  -0.039332  -0.007750   0.000255  -0.000287   0.000000
     8  C   -0.039332   5.714594  -0.057201   0.004989  -0.000067  -0.000004
     9  C   -0.007750  -0.057201   5.208216   0.326616  -0.033911   0.000852
    10  C    0.000255   0.004989   0.326616   5.180307   0.357900  -0.048809
    11  C   -0.000287  -0.000067  -0.033911   0.357900   4.652213   0.547400
    12  C    0.000000  -0.000004   0.000852  -0.048809   0.547400   4.981632
    13  C    0.000000   0.000000  -0.000183   0.007269  -0.020551   0.517475
    14  C    0.000001   0.000000   0.000002   0.000334  -0.035023  -0.035664
    15  C   -0.000091   0.000001   0.000273   0.006252  -0.017214  -0.045981
    16  C    0.000172  -0.000017  -0.003015  -0.068873   0.534316  -0.043350
    17  N    0.000000  -0.000304  -0.000230   0.000052  -0.000031   0.000061
    18  C    0.000000   0.000015   0.000002   0.000000   0.000000   0.000000
    19  C    0.000000  -0.000012   0.000032  -0.000187   0.000016  -0.000447
    20  O    0.000000  -0.000035  -0.000103   0.000002   0.000000   0.000000
    21  H    0.000003  -0.000442  -0.005628   0.000246   0.000112  -0.000004
    22  H   -0.000066   0.009898  -0.007174  -0.000876   0.008034   0.002435
    23  H    0.001231   0.002027   0.004509  -0.000029   0.000030   0.000040
    24  H    0.000047   0.349657  -0.005661   0.000149   0.000011   0.000000
    25  H    0.001156   0.321349   0.004073  -0.000114   0.000001   0.000000
    26  H    0.025563  -0.005415   0.353275  -0.028861  -0.006698   0.000115
    27  H    0.000300  -0.007057   0.345984  -0.032260   0.004114  -0.000113
    28  H    0.000000  -0.000148  -0.035611   0.359001  -0.029597   0.000901
    29  H   -0.000002   0.000291  -0.037183   0.359693  -0.033344  -0.005484
    30  H    0.000000   0.000000   0.000244  -0.012113  -0.044097   0.350766
    31  H    0.000000   0.000000   0.000001  -0.000181   0.003811  -0.040268
    32  H    0.000000   0.000000   0.000000   0.000007   0.000714   0.004680
    33  H   -0.000003   0.000000   0.000003  -0.000184   0.003528   0.000863
    34  H    0.001255   0.000001   0.000718  -0.008802  -0.047215   0.005894
    35  H    0.000000  -0.000001   0.000000   0.000000   0.000000   0.000000
    36  H    0.000000   0.000000   0.000000   0.000000   0.000000  -0.000001
    37  H    0.000000   0.000000   0.000000   0.000000   0.000000   0.000000
    38  H    0.000000   0.000030  -0.000148   0.000015   0.000089  -0.000173
    39  H    0.000000   0.000000  -0.000001   0.000004  -0.000001   0.000018
    40  H    0.000000   0.000000  -0.000001  -0.000004   0.000008  -0.000019
              13         14         15         16         17         18
     1  O    0.000000   0.000000   0.000000   0.000000  -0.053902  -0.003627
     2  S   -0.000001   0.000000   0.000000   0.000001   0.126425  -0.026811
     3  N    0.000001   0.000000   0.000000   0.000004  -0.042945   0.002390
     4  C   -0.000001   0.000002  -0.000013  -0.001055  -0.005718   0.000056
     5  C    0.000010   0.000058  -0.000143  -0.002109   0.001176  -0.000056
     6  S    0.000001  -0.000002   0.000022   0.000336   0.000120   0.000005
     7  O    0.000000   0.000001  -0.000091   0.000172   0.000000   0.000000
     8  C    0.000000   0.000000   0.000001  -0.000017  -0.000304   0.000015
     9  C   -0.000183   0.000002   0.000273  -0.003015  -0.000230   0.000002
    10  C    0.007269   0.000334   0.006252  -0.068873   0.000052   0.000000
    11  C   -0.020551  -0.035023  -0.017214   0.534316  -0.000031   0.000000
    12  C    0.517475  -0.035664  -0.045981  -0.043350   0.000061   0.000000
    13  C    4.874891   0.551978  -0.025941  -0.047581   0.000001   0.000000
    14  C    0.551978   4.858410   0.544802  -0.035039   0.000000   0.000000
    15  C   -0.025941   0.544802   4.859669   0.526557   0.000000   0.000000
    16  C   -0.047581  -0.035039   0.526557   4.977968   0.000000   0.000000
    17  N    0.000001   0.000000   0.000000   0.000000   7.214166   0.290163
    18  C    0.000000   0.000000   0.000000   0.000000   0.290163   4.994725
    19  C   -0.000003   0.000000   0.000000   0.000000   0.272796  -0.050468
    20  O    0.000000   0.000000   0.000000   0.000000  -0.056135  -0.002675
    21  H    0.000000   0.000000   0.000000   0.000001   0.002582  -0.000059
    22  H    0.000046   0.000027   0.000236   0.003400  -0.000124   0.000003
    23  H   -0.000013  -0.000003   0.000002   0.000078   0.003330  -0.000154
    24  H    0.000000   0.000000   0.000000  -0.000001   0.000000   0.000000
    25  H    0.000000   0.000000   0.000000   0.000000   0.000004   0.000009
    26  H    0.000002   0.000003  -0.000151   0.002549   0.000001   0.000000
    27  H    0.000002   0.000000  -0.000001   0.000146   0.000001   0.000000
    28  H   -0.000241   0.000039  -0.000046  -0.004905   0.000000   0.000000
    29  H    0.000234  -0.000004  -0.000158   0.004904  -0.000081   0.000000
    30  H   -0.047813   0.004892   0.000307   0.006647  -0.000091   0.000000
    31  H    0.356319  -0.043111   0.004620   0.000782   0.000000   0.000000
    32  H   -0.043734   0.359460  -0.042532   0.004780   0.000000   0.000000
    33  H    0.004582  -0.043509   0.358394  -0.038354   0.000000   0.000000
    34  H    0.000374   0.004669  -0.040681   0.357446   0.000000   0.000000
    35  H    0.000000   0.000000   0.000000   0.000000  -0.031050   0.378450
    36  H    0.000000   0.000000   0.000000   0.000000  -0.038507   0.377559
    37  H    0.000000   0.000000   0.000000   0.000000  -0.046844   0.370937
    38  H   -0.000001   0.000000   0.000000   0.000003  -0.032022   0.004732
    39  H    0.000000   0.000000   0.000000   0.000000  -0.045176  -0.002375
    40  H    0.000005   0.000000   0.000000   0.000000  -0.035331  -0.003611
              19         20         21         22         23         24
     1  O    0.001767  -0.046049  -0.000157   0.000089   0.004215   0.000175
     2  S   -0.010143   0.447639  -0.017928   0.000042   0.007931   0.000324
     3  N   -0.009095  -0.057327   0.295329   0.001295  -0.006862   0.001589
     4  C    0.000534   0.001857  -0.024414  -0.025818  -0.025886  -0.031298
     5  C   -0.000034  -0.000060   0.005168   0.350897   0.320576   0.010432
     6  S    0.000001  -0.000002  -0.000211  -0.018808  -0.005293  -0.018169
     7  O    0.000000   0.000000   0.000003  -0.000066   0.001231   0.000047
     8  C   -0.000012  -0.000035  -0.000442   0.009898   0.002027   0.349657
     9  C    0.000032  -0.000103  -0.005628  -0.007174   0.004509  -0.005661
    10  C   -0.000187   0.000002   0.000246  -0.000876  -0.000029   0.000149
    11  C    0.000016   0.000000   0.000112   0.008034   0.000030   0.000011
    12  C   -0.000447   0.000000  -0.000004   0.002435   0.000040   0.000000
    13  C   -0.000003   0.000000   0.000000   0.000046  -0.000013   0.000000
    14  C    0.000000   0.000000   0.000000   0.000027  -0.000003   0.000000
    15  C    0.000000   0.000000   0.000000   0.000236   0.000002   0.000000
    16  C    0.000000   0.000000   0.000001   0.003400   0.000078  -0.000001
    17  N    0.272796  -0.056135   0.002582  -0.000124   0.003330   0.000000
    18  C   -0.050468  -0.002675  -0.000059   0.000003  -0.000154   0.000000
    19  C    5.001629   0.001873  -0.000225   0.000009   0.000030   0.000000
    20  O    0.001873   8.232572   0.005589   0.000001   0.000021   0.000001
    21  H   -0.000225   0.005589   0.375217  -0.000064   0.000038   0.000497
    22  H    0.000009   0.000001  -0.000064   0.474347  -0.016818  -0.000327
    23  H    0.000030   0.000021   0.000038  -0.016818   0.502992  -0.000315
    24  H    0.000000   0.000001   0.000497  -0.000327  -0.000315   0.517578
    25  H   -0.000004  -0.000164  -0.000086  -0.000266   0.000014  -0.018413
    26  H   -0.000001   0.000000   0.000098  -0.000267   0.000069   0.000154
    27  H    0.000001  -0.000005   0.006990   0.000137  -0.000141   0.004897
    28  H    0.000003   0.000000  -0.000140   0.000056   0.000004  -0.000015
    29  H   -0.000320  -0.000006   0.000342   0.000109  -0.000034  -0.000001
    30  H    0.000848   0.000000   0.000002   0.000003   0.000002   0.000000
    31  H   -0.000001   0.000000   0.000000   0.000005   0.000000   0.000000
    32  H    0.000000   0.000000   0.000000   0.000000   0.000000   0.000000
    33  H    0.000000   0.000000   0.000000   0.000005   0.000000   0.000000
    34  H    0.000000   0.000000   0.000000   0.000161   0.000001   0.000001
    35  H    0.004613  -0.000193  -0.000004   0.000001   0.000353   0.000000
    36  H   -0.002922  -0.000111   0.000001   0.000000  -0.000142   0.000000
    37  H   -0.002811   0.002941   0.000008   0.000000   0.000038   0.000000
    38  H    0.374683  -0.001605  -0.000626   0.000040  -0.000062   0.000000
    39  H    0.370620   0.005397   0.000091   0.000000   0.000020   0.000000
    40  H    0.374458   0.000036   0.000000   0.000007  -0.000102   0.000000
              25         26         27         28         29         30
     1  O    0.016058   0.000001   0.000000   0.000000   0.000003   0.000000
     2  S    0.000838   0.000042  -0.000258   0.000000   0.000250   0.000000
     3  N   -0.004768   0.003019  -0.007567   0.000219   0.009644  -0.000138
     4  C   -0.024528  -0.031276  -0.037109   0.004813  -0.011279  -0.000002
     5  C    0.003374  -0.007744   0.006542  -0.000066  -0.000385   0.000015
     6  S   -0.003659   0.005537  -0.000308   0.000033  -0.000065   0.000000
     7  O    0.001156   0.025563   0.000300   0.000000  -0.000002   0.000000
     8  C    0.321349  -0.005415  -0.007057  -0.000148   0.000291   0.000000
     9  C    0.004073   0.353275   0.345984  -0.035611  -0.037183   0.000244
    10  C   -0.000114  -0.028861  -0.032260   0.359001   0.359693  -0.012113
    11  C    0.000001  -0.006698   0.004114  -0.029597  -0.033344  -0.044097
    12  C    0.000000   0.000115  -0.000113   0.000901  -0.005484   0.350766
    13  C    0.000000   0.000002   0.000002  -0.000241   0.000234  -0.047813
    14  C    0.000000   0.000003   0.000000   0.000039  -0.000004   0.004892
    15  C    0.000000  -0.000151  -0.000001  -0.000046  -0.000158   0.000307
    16  C    0.000000   0.002549   0.000146  -0.004905   0.004904   0.006647
    17  N    0.000004   0.000001   0.000001   0.000000  -0.000081  -0.000091
    18  C    0.000009   0.000000   0.000000   0.000000   0.000000   0.000000
    19  C   -0.000004  -0.000001   0.000001   0.000003  -0.000320   0.000848
    20  O   -0.000164   0.000000  -0.000005   0.000000  -0.000006   0.000000
    21  H   -0.000086   0.000098   0.006990  -0.000140   0.000342   0.000002
    22  H   -0.000266  -0.000267   0.000137   0.000056   0.000109   0.000003
    23  H    0.000014   0.000069  -0.000141   0.000004  -0.000034   0.000002
    24  H   -0.018413   0.000154   0.004897  -0.000015  -0.000001   0.000000
    25  H    0.477693   0.000228   0.000038   0.000002   0.000002   0.000000
    26  H    0.000228   0.502660  -0.025315  -0.001140   0.004264   0.000007
    27  H    0.000038  -0.025315   0.616208  -0.006121  -0.000946  -0.000009
    28  H    0.000002  -0.001140  -0.006121   0.586150  -0.033982   0.000190
    29  H    0.000002   0.004264  -0.000946  -0.033982   0.583577   0.007118
    30  H    0.000000   0.000007  -0.000009   0.000190   0.007118   0.618828
    31  H    0.000000   0.000000   0.000000   0.000004  -0.000009  -0.005637
    32  H    0.000000   0.000000   0.000000   0.000000   0.000000  -0.000180
    33  H    0.000000   0.000005   0.000000  -0.000001   0.000003   0.000017
    34  H    0.000000   0.004436  -0.000150   0.001535   0.000034  -0.000176
    35  H    0.000004   0.000000   0.000000   0.000000   0.000000   0.000000
    36  H    0.000000   0.000000   0.000000   0.000000   0.000000   0.000000
    37  H    0.000000   0.000000   0.000000   0.000000   0.000000   0.000000
    38  H    0.000000   0.000002  -0.000002  -0.000003   0.002561   0.001811
    39  H    0.000000   0.000000   0.000000   0.000000  -0.000007  -0.000025
    40  H    0.000000   0.000000   0.000000   0.000000  -0.000004   0.000451
              31         32         33         34         35         36
     1  O    0.000000   0.000000   0.000000   0.000000   0.011708   0.000240
     2  S    0.000000   0.000000   0.000000   0.000000  -0.004923   0.002156
     3  N    0.000000   0.000000   0.000000  -0.000002   0.000113  -0.000079
     4  C    0.000000   0.000000   0.000000   0.000125   0.000017   0.000001
     5  C   -0.000002   0.000000  -0.000003  -0.000071  -0.000040   0.000022
     6  S    0.000000   0.000000   0.000002  -0.000124   0.000007  -0.000002
     7  O    0.000000   0.000000  -0.000003   0.001255   0.000000   0.000000
     8  C    0.000000   0.000000   0.000000   0.000001  -0.000001   0.000000
     9  C    0.000001   0.000000   0.000003   0.000718   0.000000   0.000000
    10  C   -0.000181   0.000007  -0.000184  -0.008802   0.000000   0.000000
    11  C    0.003811   0.000714   0.003528  -0.047215   0.000000   0.000000
    12  C   -0.040268   0.004680   0.000863   0.005894   0.000000  -0.000001
    13  C    0.356319  -0.043734   0.004582   0.000374   0.000000   0.000000
    14  C   -0.043111   0.359460  -0.043509   0.004669   0.000000   0.000000
    15  C    0.004620  -0.042532   0.358394  -0.040681   0.000000   0.000000
    16  C    0.000782   0.004780  -0.038354   0.357446   0.000000   0.000000
    17  N    0.000000   0.000000   0.000000   0.000000  -0.031050  -0.038507
    18  C    0.000000   0.000000   0.000000   0.000000   0.378450   0.377559
    19  C   -0.000001   0.000000   0.000000   0.000000   0.004613  -0.002922
    20  O    0.000000   0.000000   0.000000   0.000000  -0.000193  -0.000111
    21  H    0.000000   0.000000   0.000000   0.000000  -0.000004   0.000001
    22  H    0.000005   0.000000   0.000005   0.000161   0.000001   0.000000
    23  H    0.000000   0.000000   0.000000   0.000001   0.000353  -0.000142
    24  H    0.000000   0.000000   0.000000   0.000001   0.000000   0.000000
    25  H    0.000000   0.000000   0.000000   0.000000   0.000004   0.000000
    26  H    0.000000   0.000000   0.000005   0.004436   0.000000   0.000000
    27  H    0.000000   0.000000   0.000000  -0.000150   0.000000   0.000000
    28  H    0.000004   0.000000  -0.000001   0.001535   0.000000   0.000000
    29  H   -0.000009   0.000000   0.000003   0.000034   0.000000   0.000000
    30  H   -0.005637  -0.000180   0.000017  -0.000176   0.000000   0.000000
    31  H    0.602223  -0.005627  -0.000188   0.000017   0.000000   0.000000
    32  H   -0.005627   0.597353  -0.005411  -0.000175   0.000000   0.000000
    33  H   -0.000188  -0.005411   0.588501  -0.005396   0.000000   0.000000
    34  H    0.000017  -0.000175  -0.005396   0.580497   0.000000   0.000000
    35  H    0.000000   0.000000   0.000000   0.000000   0.486882  -0.021111
    36  H    0.000000   0.000000   0.000000   0.000000  -0.021111   0.551799
    37  H    0.000000   0.000000   0.000000   0.000000  -0.030154  -0.040885
    38  H   -0.000003   0.000000   0.000000   0.000000  -0.000188   0.000058
    39  H    0.000000   0.000000   0.000000   0.000000  -0.000186  -0.001885
    40  H    0.000003   0.000000   0.000000   0.000000  -0.000001   0.005223
              37         38         39         40
     1  O   -0.000603   0.000018  -0.000043  -0.000051
     2  S   -0.003131  -0.003849  -0.007358   0.003183
     3  N   -0.000079   0.011913  -0.000163  -0.000033
     4  C   -0.000009   0.000058  -0.000035   0.000008
     5  C    0.000000  -0.000073   0.000006   0.000044
     6  S    0.000000   0.000000   0.000000  -0.000001
     7  O    0.000000   0.000000   0.000000   0.000000
     8  C    0.000000   0.000030   0.000000   0.000000
     9  C    0.000000  -0.000148  -0.000001  -0.000001
    10  C    0.000000   0.000015   0.000004  -0.000004
    11  C    0.000000   0.000089  -0.000001   0.000008
    12  C    0.000000  -0.000173   0.000018  -0.000019
    13  C    0.000000  -0.000001   0.000000   0.000005
    14  C    0.000000   0.000000   0.000000   0.000000
    15  C    0.000000   0.000000   0.000000   0.000000
    16  C    0.000000   0.000003   0.000000   0.000000
    17  N   -0.046844  -0.032022  -0.045176  -0.035331
    18  C    0.370937   0.004732  -0.002375  -0.003611
    19  C   -0.002811   0.374683   0.370620   0.374458
    20  O    0.002941  -0.001605   0.005397   0.000036
    21  H    0.000008  -0.000626   0.000091   0.000000
    22  H    0.000000   0.000040   0.000000   0.000007
    23  H    0.000038  -0.000062   0.000020  -0.000102
    24  H    0.000000   0.000000   0.000000   0.000000
    25  H    0.000000   0.000000   0.000000   0.000000
    26  H    0.000000   0.000002   0.000000   0.000000
    27  H    0.000000  -0.000002   0.000000   0.000000
    28  H    0.000000  -0.000003   0.000000   0.000000
    29  H    0.000000   0.002561  -0.000007  -0.000004
    30  H    0.000000   0.001811  -0.000025   0.000451
    31  H    0.000000  -0.000003   0.000000   0.000003
    32  H    0.000000   0.000000   0.000000   0.000000
    33  H    0.000000   0.000000   0.000000   0.000000
    34  H    0.000000   0.000000   0.000000   0.000000
    35  H   -0.030154  -0.000188  -0.000186  -0.000001
    36  H   -0.040885   0.000058  -0.001885   0.005223
    37  H    0.576679  -0.000194   0.009077  -0.001407
    38  H   -0.000194   0.506095  -0.029734  -0.024031
    39  H    0.009077  -0.029734   0.568426  -0.037586
    40  H   -0.001407  -0.024031  -0.037586   0.550174
 Mulliken charges:
               1
     1  O   -0.563389
     2  S    1.342611
     3  N   -0.731329
     4  C    0.216595
     5  C   -0.488320
     6  S    0.747963
     7  O   -0.628062
     8  C   -0.492454
     9  C   -0.320990
    10  C   -0.351998
    11  C    0.160201
    12  C   -0.192068
    13  C   -0.127126
    14  C   -0.132322
    15  C   -0.128182
    16  C   -0.175790
    17  N   -0.522385
    18  C   -0.329207
    19  C   -0.327240
    20  O   -0.533460
    21  H    0.357674
    22  H    0.219325
    23  H    0.208305
    24  H    0.188687
    25  H    0.227158
    26  H    0.204837
    27  H    0.131999
    28  H    0.159068
    29  H    0.150263
    30  H    0.118132
    31  H    0.127241
    32  H    0.130667
    33  H    0.137145
    34  H    0.145628
    35  H    0.205703
    36  H    0.168585
    37  H    0.166437
    38  H    0.190603
    39  H    0.170914
    40  H    0.168579
 Sum of Mulliken charges =   0.00000
 Mulliken charges with hydrogens summed into heavy atoms:
               1
     1  O   -0.563389
     2  S    1.342611
     3  N   -0.373655
     4  C    0.216595
     5  C   -0.060690
     6  S    0.747963
     7  O   -0.628062
     8  C   -0.076609
     9  C    0.015846
    10  C   -0.042667
    11  C    0.160201
    12  C   -0.073936
    13  C    0.000115
    14  C   -0.001655
    15  C    0.008963
    16  C   -0.030162
    17  N   -0.522385
    18  C    0.211518
    19  C    0.202857
    20  O   -0.533460
 Electronic spatial extent (au):  <R**2>=           6643.1302
 Charge=              0.0000 electrons
 Dipole moment (field-independent basis, Debye):
    X=             -0.3248    Y=             -3.8665    Z=              0.3130  Tot=              3.8927
 Quadrupole moment (field-independent basis, Debye-Ang):
   XX=           -148.3759   YY=           -133.3644   ZZ=           -126.6586
   XY=              2.6586   XZ=             -5.0639   YZ=             10.8661
 Traceless Quadrupole moment (field-independent basis, Debye-Ang):
   XX=            -12.2430   YY=              2.7686   ZZ=              9.4744
   XY=              2.6586   XZ=             -5.0639   YZ=             10.8661
 Octapole moment (field-independent basis, Debye-Ang**2):
  XXX=            -43.4746  YYY=            -43.2565  ZZZ=              1.3278  XYY=             53.3115
  XXY=            -18.7933  XXZ=            -43.9550  XZZ=             13.3401  YZZ=              3.8609
  YYZ=              2.4800  XYZ=              0.1846
 Hexadecapole moment (field-independent basis, Debye-Ang**3):
 XXXX=          -5324.0335 YYYY=          -2559.1498 ZZZZ=           -968.9939 XXXY=            -91.7346
 XXXZ=              0.0431 YYYX=             58.7430 YYYZ=             63.8694 ZZZX=             -5.9069
 ZZZY=             12.3418 XXYY=          -1313.5338 XXZZ=          -1026.0366 YYZZ=           -583.1049
 XXYZ=            109.5743 YYXZ=             -3.7150 ZZXY=            -11.5223
 N-N= 2.041457213252D+03 E-N=-7.933167425901D+03  KE= 1.628096061086D+03
 No NMR shielding tensors so no spin-rotation constants.
 Leave Link  601 at Sat Aug  8 02:41:51 2020, MaxMem=    33554432 cpu:         0.3
 (Enter /prod/apps/gaussian/g09d1/l9999.exe)
 1\1\GINC-PIRINEUS30\SP\RB3LYP\6-31G(d)\C13H20N2O3S2\UBAFAR01\08-Aug-20
 20\0\\#p b3lyp/6-31G(d)\\SM37.n.12.pdb.xyz\\0,1\O,0,4.854,-2.646,0.674
 \S,0,4.323,-1.281,0.538\N,0,3.386,-1.082,-0.826\C,0,2.689,-2.187,-1.50
 7\C,0,1.801,-3.063,-0.599\S,0,2.227,-4.605,-1.562\O,0,1.253,-4.768,-2.
 728\C,0,3.555,-3.367,-2.021\C,0,1.917,-1.575,-2.69\C,0,0.909,-0.458,-2
 .364\C,0,-0.42,-0.9,-1.781\C,0,-0.902,-0.333,-0.595\C,0,-2.144,-0.703,
 -0.071\C,0,-2.927,-1.651,-0.73\C,0,-2.459,-2.223,-1.917\C,0,-1.22,-1.8
 49,-2.436\N,0,3.162,-1.126,1.751\C,0,3.609,-1.642,3.059\C,0,2.56,0.217
 ,1.833\O,0,5.278,-0.16,0.515\H,0,3.884,-0.463,-1.469\H,0,0.735,-2.844,
 -0.571\H,0,2.194,-3.188,0.41\H,0,3.809,-3.381,-3.082\H,0,4.425,-3.563,
 -1.395\H,0,1.422,-2.404,-3.205\H,0,2.664,-1.177,-3.387\H,0,0.713,0.075
 ,-3.302\H,0,1.375,0.266,-1.69\H,0,-0.298,0.408,-0.08\H,0,-2.496,-0.25,
 0.851\H,0,-3.89,-1.941,-0.326\H,0,-3.062,-2.96,-2.439\H,0,-0.865,-2.30
 3,-3.356\H,0,4.002,-2.649,2.937\H,0,2.732,-1.678,3.708\H,0,4.368,-1.00
 3,3.525\H,0,2.249,0.531,0.838\H,0,3.25,0.956,2.256\H,0,1.679,0.142,2.4
 74\\Version=AM64L-G09RevD.01\State=1-A\HF=-1638.8335609\RMSD=4.901e-09
 \Dipole=-0.6089803,1.1772496,0.7673303\Quadrupole=-5.7426521,-4.332733
 4,10.0753855,-3.1671053,-7.2170705,-3.5987978\PG=C01 [X(C13H20N2O3S2)]
 \\@


 IF AT FIRST YOU DON'T SUCCEED, TRY, TRY AGAIN.
 THEN GIVE UP;
 THERE'S NO USE BEING A DAMN FOOL ABOUT IT.

                                 -- W. C. FIELDS
 Job cpu time:       0 days  0 hours  6 minutes 52.2 seconds.
 File lengths (MBytes):  RWF=     67 Int=      0 D2E=      0 Chk=      5 Scr=      1
 Normal termination of Gaussian 09 at Sat Aug  8 02:41:51 2020.
 Initial command:
 /prod/apps/gaussian/g09d1/l1.exe "/tmp/ubafar01/1449170/Gau-104829.inp" -scrdir="/tmp/ubafar01/1449170/"
 Entering Link 1 = /prod/apps/gaussian/g09d1/l1.exe PID=    105150.
  
 Copyright (c) 1988,1990,1992,1993,1995,1998,2003,2009,2013,
            Gaussian, Inc.  All Rights Reserved.
  
 This is part of the Gaussian(R) 09 program.  It is based on
 the Gaussian(R) 03 system (copyright 2003, Gaussian, Inc.),
 the Gaussian(R) 98 system (copyright 1998, Gaussian, Inc.),
 the Gaussian(R) 94 system (copyright 1995, Gaussian, Inc.),
 the Gaussian 92(TM) system (copyright 1992, Gaussian, Inc.),
 the Gaussian 90(TM) system (copyright 1990, Gaussian, Inc.),
 the Gaussian 88(TM) system (copyright 1988, Gaussian, Inc.),
 the Gaussian 86(TM) system (copyright 1986, Carnegie Mellon
 University), and the Gaussian 82(TM) system (copyright 1983,
 Carnegie Mellon University). Gaussian is a federally registered
 trademark of Gaussian, Inc.
  
 This software contains proprietary and confidential information,
 including trade secrets, belonging to Gaussian, Inc.
  
 This software is provided under written license and may be
 used, copied, transmitted, or stored only in accord with that
 written license.
  
 The following legend is applicable only to US Government
 contracts under FAR:
  
                    RESTRICTED RIGHTS LEGEND
  
 Use, reproduction and disclosure by the US Government is
 subject to restrictions as set forth in subparagraphs (a)
 and (c) of the Commercial Computer Software - Restricted
 Rights clause in FAR 52.227-19.
  
 Gaussian, Inc.
 340 Quinnipiac St., Bldg. 40, Wallingford CT 06492
  
  
 ---------------------------------------------------------------
 Warning -- This program may not be used in any manner that
 competes with the business of Gaussian, Inc. or will provide
 assistance to any competitor of Gaussian, Inc.  The licensee
 of this program is prohibited from giving any competitor of
 Gaussian, Inc. access to this program.  By using this program,
 the user acknowledges that Gaussian, Inc. is engaged in the
[...]
    39  H    0.000000   0.000000  -0.000001   0.000004  -0.000001   0.000017
    40  H    0.000000   0.000000  -0.000001  -0.000003   0.000007  -0.000013
              13         14         15         16         17         18
     1  O    0.000000   0.000000   0.000000   0.000000  -0.054879  -0.003874
     2  S   -0.000001   0.000000   0.000000   0.000001   0.145616  -0.025427
     3  N    0.000001   0.000000   0.000000   0.000004  -0.045427   0.002324
     4  C   -0.000002   0.000002  -0.000013  -0.001025  -0.005425   0.000047
     5  C    0.000006   0.000058  -0.000159  -0.002185   0.000924  -0.000058
     6  S    0.000001  -0.000002   0.000027   0.000357   0.000133   0.000004
     7  O    0.000000   0.000001  -0.000094   0.000153   0.000000   0.000000
     8  C    0.000000   0.000000   0.000001  -0.000021  -0.000327   0.000016
     9  C   -0.000192   0.000003   0.000264  -0.003138  -0.000222   0.000002
    10  C    0.007101   0.000296   0.006096  -0.067630   0.000049   0.000000
    11  C   -0.022772  -0.034961  -0.018708   0.532893  -0.000029   0.000000
    12  C    0.512886  -0.037891  -0.046095  -0.045383   0.000058   0.000000
    13  C    4.901169   0.547630  -0.028929  -0.046886   0.000001   0.000000
    14  C    0.547630   4.886227   0.541016  -0.037251   0.000000   0.000000
    15  C   -0.028929   0.541016   4.894138   0.521584   0.000000   0.000000
    16  C   -0.046886  -0.037251   0.521584   4.999791   0.000000   0.000000
    17  N    0.000001   0.000000   0.000000   0.000000   7.214033   0.281164
    18  C    0.000000   0.000000   0.000000   0.000000   0.281164   4.998942
    19  C   -0.000003   0.000000   0.000000   0.000000   0.267864  -0.049709
    20  O    0.000000   0.000000   0.000000   0.000000  -0.056391  -0.002466
    21  H    0.000000   0.000000   0.000000   0.000000   0.002162  -0.000046
    22  H    0.000056   0.000029   0.000283   0.003664  -0.000128   0.000004
    23  H   -0.000013  -0.000003   0.000002   0.000077   0.003928  -0.000205
    24  H    0.000000   0.000000   0.000000  -0.000001   0.000000   0.000000
    25  H    0.000000   0.000000   0.000000   0.000000  -0.000002   0.000009
    26  H    0.000003   0.000002  -0.000154   0.002691   0.000001   0.000000
    27  H    0.000002   0.000000   0.000000   0.000131   0.000001   0.000000
    28  H   -0.000242   0.000038  -0.000046  -0.005011   0.000000   0.000000
    29  H    0.000280  -0.000006  -0.000154   0.004845  -0.000079   0.000000
    30  H   -0.045688   0.004703   0.000280   0.006382  -0.000090   0.000000
    31  H    0.360366  -0.042263   0.004538   0.000719   0.000000   0.000000
    32  H   -0.042456   0.363064  -0.042065   0.004667   0.000000   0.000000
    33  H    0.004571  -0.042372   0.361172  -0.039354   0.000000   0.000000
    34  H    0.000275   0.004730  -0.043312   0.358528   0.000000   0.000000
    35  H    0.000000   0.000000   0.000000   0.000000  -0.032251   0.377461
    36  H    0.000000   0.000000   0.000000   0.000000  -0.036371   0.380738
    37  H    0.000000   0.000000   0.000000   0.000000  -0.046627   0.371837
    38  H    0.000002   0.000000   0.000000   0.000002  -0.032649   0.004637
    39  H    0.000000   0.000000   0.000000   0.000000  -0.045426  -0.002301
    40  H    0.000005   0.000000   0.000000   0.000000  -0.033820  -0.003510
              19         20         21         22         23         24
     1  O    0.001648  -0.045216  -0.000214   0.000089   0.003992   0.000161
     2  S   -0.011577   0.444821  -0.015292   0.000000   0.008123   0.000308
     3  N   -0.009002  -0.057937   0.296666   0.001396  -0.006843   0.001435
     4  C    0.000518   0.001765  -0.021423  -0.026622  -0.026268  -0.030366
     5  C   -0.000034  -0.000061   0.004467   0.349889   0.324780   0.009905
     6  S    0.000001  -0.000001  -0.000260  -0.018516  -0.006176  -0.018177
     7  O    0.000000   0.000000   0.000002  -0.000093   0.001197  -0.000064
     8  C   -0.000012  -0.000031  -0.000438   0.009857   0.001838   0.352277
     9  C    0.000031  -0.000102  -0.004926  -0.007208   0.004382  -0.004889
    10  C   -0.000199   0.000002   0.000137  -0.000844  -0.000051   0.000141
    11  C    0.000016   0.000000   0.000091   0.007984   0.000032   0.000012
    12  C   -0.000426   0.000000  -0.000002   0.002441   0.000038   0.000000
    13  C   -0.000003   0.000000   0.000000   0.000056  -0.000013   0.000000
    14  C    0.000000   0.000000   0.000000   0.000029  -0.000003   0.000000
    15  C    0.000000   0.000000   0.000000   0.000283   0.000002   0.000000
    16  C    0.000000   0.000000   0.000000   0.003664   0.000077  -0.000001
    17  N    0.267864  -0.056391   0.002162  -0.000128   0.003928   0.000000
    18  C   -0.049709  -0.002466  -0.000046   0.000004  -0.000205   0.000000
    19  C    5.008887   0.001750  -0.000261   0.000007  -0.000008   0.000000
    20  O    0.001750   8.274453   0.004647   0.000001   0.000020   0.000001
    21  H   -0.000261   0.004647   0.322067  -0.000054   0.000031   0.000402
    22  H    0.000007   0.000001  -0.000054   0.476665  -0.015585  -0.000324
    23  H   -0.000008   0.000020   0.000031  -0.015585   0.488154  -0.000288
    24  H    0.000000   0.000001   0.000402  -0.000324  -0.000288   0.494724
    25  H   -0.000003  -0.000159  -0.000078  -0.000260  -0.000012  -0.016303
    26  H   -0.000001   0.000000   0.000097  -0.000252   0.000059   0.000184
    27  H    0.000001  -0.000005   0.005442   0.000133  -0.000130   0.004480
    28  H    0.000003   0.000000  -0.000114   0.000053   0.000004  -0.000015
    29  H   -0.000267  -0.000006   0.000344   0.000111  -0.000031   0.000000
    30  H    0.000880   0.000000   0.000001   0.000003   0.000002   0.000000
    31  H   -0.000001   0.000000   0.000000   0.000005   0.000000   0.000000
    32  H    0.000000   0.000000   0.000000   0.000000   0.000000   0.000000
    33  H    0.000000   0.000000   0.000000   0.000005   0.000000   0.000000
    34  H    0.000000   0.000000   0.000000   0.000157   0.000001   0.000000
    35  H    0.004556  -0.000183  -0.000004   0.000000   0.000318   0.000000
    36  H   -0.002721  -0.000105   0.000001   0.000000  -0.000140   0.000000
    37  H   -0.002549   0.002886   0.000008   0.000000   0.000039   0.000000
    38  H    0.374169  -0.001608  -0.000535   0.000039  -0.000065   0.000000
    39  H    0.372293   0.005414   0.000085   0.000000   0.000022   0.000000
    40  H    0.377943   0.000031  -0.000001   0.000007  -0.000101   0.000000
              25         26         27         28         29         30
     1  O    0.015906   0.000001   0.000000   0.000000   0.000003   0.000000
     2  S    0.001061   0.000026  -0.000198   0.000000   0.000214   0.000003
     3  N   -0.005014   0.003228  -0.006622   0.000212   0.008923  -0.000129
     4  C   -0.025263  -0.032780  -0.034531   0.004653  -0.010989  -0.000003
     5  C    0.003491  -0.007753   0.006208  -0.000073  -0.000340   0.000013
     6  S   -0.005850   0.004757  -0.000475   0.000035  -0.000060   0.000000
     7  O    0.001175   0.023866   0.000259   0.000000  -0.000002   0.000000
     8  C    0.324248  -0.005151  -0.006735  -0.000141   0.000271   0.000000
     9  C    0.004035   0.353220   0.355168  -0.033652  -0.036300   0.000244
    10  C   -0.000113  -0.030272  -0.029908   0.361454   0.364654  -0.011032
    11  C    0.000001  -0.007287   0.003982  -0.030133  -0.035217  -0.042562
    12  C    0.000000   0.000127  -0.000103   0.000932  -0.005004   0.355817
    13  C    0.000000   0.000003   0.000002  -0.000242   0.000280  -0.045688
    14  C    0.000000   0.000002   0.000000   0.000038  -0.000006   0.004703
    15  C    0.000000  -0.000154   0.000000  -0.000046  -0.000154   0.000280
    16  C    0.000000   0.002691   0.000131  -0.005011   0.004845   0.006382
    17  N   -0.000002   0.000001   0.000001   0.000000  -0.000079  -0.000090
    18  C    0.000009   0.000000   0.000000   0.000000   0.000000   0.000000
    19  C   -0.000003  -0.000001   0.000001   0.000003  -0.000267   0.000880
    20  O   -0.000159   0.000000  -0.000005   0.000000  -0.000006   0.000000
    21  H   -0.000078   0.000097   0.005442  -0.000114   0.000344   0.000001
    22  H   -0.000260  -0.000252   0.000133   0.000053   0.000111   0.000003
    23  H   -0.000012   0.000059  -0.000130   0.000004  -0.000031   0.000002
    24  H   -0.016303   0.000184   0.004480  -0.000015   0.000000   0.000000
    25  H    0.478606   0.000222   0.000035   0.000002   0.000002   0.000000
    26  H    0.000222   0.526851  -0.025775  -0.001059   0.004337   0.000007
    27  H    0.000035  -0.025775   0.575204  -0.006045  -0.000985  -0.000008
    28  H    0.000002  -0.001059  -0.006045   0.571539  -0.031827   0.000184
    29  H    0.000002   0.004337  -0.000985  -0.031827   0.562951   0.006515
    30  H    0.000000   0.000007  -0.000008   0.000184   0.006515   0.585792
    31  H    0.000000   0.000000   0.000000   0.000003  -0.000008  -0.005185
    32  H    0.000000   0.000000   0.000000   0.000000   0.000000  -0.000167
    33  H    0.000000   0.000005   0.000000   0.000000   0.000003   0.000016
    34  H    0.000000   0.004491  -0.000144   0.001477   0.000027  -0.000167
    35  H    0.000004   0.000000   0.000000   0.000000   0.000000   0.000000
    36  H    0.000000   0.000000   0.000000   0.000000   0.000000   0.000000
    37  H    0.000000   0.000000   0.000000   0.000000   0.000000   0.000000
    38  H    0.000000   0.000002  -0.000002  -0.000003   0.002435   0.001666
    39  H    0.000000   0.000000   0.000000   0.000000  -0.000006  -0.000023
    40  H    0.000000   0.000000   0.000000   0.000000  -0.000005   0.000406
              31         32         33         34         35         36
     1  O    0.000000   0.000000   0.000000   0.000000   0.011181   0.000225
     2  S    0.000000   0.000000   0.000000   0.000000  -0.004814   0.002302
     3  N    0.000000   0.000000   0.000000  -0.000002   0.000108  -0.000085
     4  C    0.000000   0.000000   0.000000   0.000116   0.000016   0.000001
     5  C   -0.000002   0.000000  -0.000003  -0.000070  -0.000038   0.000018
     6  S    0.000000   0.000000   0.000002  -0.000101   0.000006  -0.000002
     7  O    0.000000   0.000000  -0.000003   0.001305   0.000000   0.000000
     8  C    0.000000   0.000000   0.000000   0.000001  -0.000001   0.000000
     9  C    0.000001   0.000000   0.000003   0.000666   0.000000   0.000000
    10  C   -0.000169   0.000007  -0.000173  -0.008672   0.000000   0.000000
    11  C    0.003686   0.000631   0.003540  -0.045633   0.000000   0.000000
    12  C   -0.038541   0.004601   0.000751   0.006031   0.000000  -0.000001
    13  C    0.360366  -0.042456   0.004571   0.000275   0.000000   0.000000
    14  C   -0.042263   0.363064  -0.042372   0.004730   0.000000   0.000000
    15  C    0.004538  -0.042065   0.361172  -0.043312   0.000000   0.000000
    16  C    0.000719   0.004667  -0.039354   0.358528   0.000000   0.000000
    17  N    0.000000   0.000000   0.000000   0.000000  -0.032251  -0.036371
    18  C    0.000000   0.000000   0.000000   0.000000   0.377461   0.380738
    19  C   -0.000001   0.000000   0.000000   0.000000   0.004556  -0.002721
    20  O    0.000000   0.000000   0.000000   0.000000  -0.000183  -0.000105
    21  H    0.000000   0.000000   0.000000   0.000000  -0.000004   0.000001
    22  H    0.000005   0.000000   0.000005   0.000157   0.000000   0.000000
    23  H    0.000000   0.000000   0.000000   0.000001   0.000318  -0.000140
    24  H    0.000000   0.000000   0.000000   0.000000   0.000000   0.000000
    25  H    0.000000   0.000000   0.000000   0.000000   0.000004   0.000000
    26  H    0.000000   0.000000   0.000005   0.004491   0.000000   0.000000
    27  H    0.000000   0.000000   0.000000  -0.000144   0.000000   0.000000
    28  H    0.000003   0.000000   0.000000   0.001477   0.000000   0.000000
    29  H   -0.000008   0.000000   0.000003   0.000027   0.000000   0.000000
    30  H   -0.005185  -0.000167   0.000016  -0.000167   0.000000   0.000000
    31  H    0.574104  -0.005279  -0.000175   0.000016   0.000000   0.000000
    32  H   -0.005279   0.574719  -0.005185  -0.000166   0.000000   0.000000
    33  H   -0.000175  -0.005185   0.574058  -0.005275   0.000000   0.000000
    34  H    0.000016  -0.000166  -0.005275   0.578555   0.000000   0.000000
    35  H    0.000000   0.000000   0.000000   0.000000   0.498257  -0.020510
    36  H    0.000000   0.000000   0.000000   0.000000  -0.020510   0.523298
    37  H    0.000000   0.000000   0.000000   0.000000  -0.030985  -0.037640
    38  H   -0.000003   0.000000   0.000000   0.000000  -0.000192   0.000049
    39  H    0.000000   0.000000   0.000000   0.000000  -0.000176  -0.001754
    40  H    0.000002   0.000000   0.000000   0.000000   0.000007   0.004778
              37         38         39         40
     1  O   -0.000573   0.000021  -0.000041  -0.000050
     2  S   -0.003560  -0.003085  -0.008009   0.003146
     3  N   -0.000077   0.011316  -0.000169  -0.000021
     4  C   -0.000009   0.000041  -0.000034   0.000008
     5  C    0.000000  -0.000064   0.000005   0.000040
     6  S    0.000000   0.000000   0.000000  -0.000001
     7  O    0.000000   0.000000   0.000000   0.000000
     8  C    0.000000   0.000028   0.000000   0.000000
     9  C    0.000000  -0.000143  -0.000001  -0.000001
    10  C    0.000000   0.000084   0.000004  -0.000003
    11  C    0.000000   0.000065  -0.000001   0.000007
    12  C    0.000000  -0.000126   0.000017  -0.000013
    13  C    0.000000   0.000002   0.000000   0.000005
    14  C    0.000000   0.000000   0.000000   0.000000
    15  C    0.000000   0.000000   0.000000   0.000000
    16  C    0.000000   0.000002   0.000000   0.000000
    17  N   -0.046627  -0.032649  -0.045426  -0.033820
    18  C    0.371837   0.004637  -0.002301  -0.003510
    19  C   -0.002549   0.374169   0.372293   0.377943
    20  O    0.002886  -0.001608   0.005414   0.000031
    21  H    0.000008  -0.000535   0.000085  -0.000001
    22  H    0.000000   0.000039   0.000000   0.000007
    23  H    0.000039  -0.000065   0.000022  -0.000101
    24  H    0.000000   0.000000   0.000000   0.000000
    25  H    0.000000   0.000000   0.000000   0.000000
    26  H    0.000000   0.000002   0.000000   0.000000
    27  H    0.000000  -0.000002   0.000000   0.000000
    28  H    0.000000  -0.000003   0.000000   0.000000
    29  H    0.000000   0.002435  -0.000006  -0.000005
    30  H    0.000000   0.001666  -0.000023   0.000406
    31  H    0.000000  -0.000003   0.000000   0.000002
    32  H    0.000000   0.000000   0.000000   0.000000
    33  H    0.000000   0.000000   0.000000   0.000000
    34  H    0.000000   0.000000   0.000000   0.000000
    35  H   -0.030985  -0.000192  -0.000176   0.000007
    36  H   -0.037640   0.000049  -0.001754   0.004778
    37  H    0.570268  -0.000180   0.008717  -0.001308
    38  H   -0.000180   0.499670  -0.029544  -0.022924
    39  H    0.008717  -0.029544   0.563808  -0.034598
    40  H   -0.001308  -0.022924  -0.034598   0.522666
 Mulliken charges:
               1
     1  O   -0.589824
     2  S    1.342612
     3  N   -0.737066
     4  C    0.215889
     5  C   -0.481623
     6  S    0.741707
     7  O   -0.688184
     8  C   -0.477670
     9  C   -0.317673
    10  C   -0.353385
    11  C    0.154635
    12  C   -0.208216
    13  C   -0.147173
    14  C   -0.153053
    15  C   -0.149669
    16  C   -0.188604
    17  N   -0.525789
    18  C   -0.329588
    19  C   -0.333796
    20  O   -0.571519
    21  H    0.406999
    22  H    0.217010
    23  H    0.218878
    24  H    0.206398
    25  H    0.224262
    26  H    0.186309
    27  H    0.160621
    28  H    0.167773
    29  H    0.165370
    30  H    0.142140
    31  H    0.148184
    32  H    0.147630
    33  H    0.148415
    34  H    0.147166
    35  H    0.197239
    36  H    0.187920
    37  H    0.169753
    38  H    0.196897
    39  H    0.171719
    40  H    0.187308
 Sum of Mulliken charges =   0.00000
 Mulliken charges with hydrogens summed into heavy atoms:
               1
     1  O   -0.589824
     2  S    1.342612
     3  N   -0.330068
     4  C    0.215889
     5  C   -0.045736
     6  S    0.741707
     7  O   -0.688184
     8  C   -0.047011
     9  C    0.029257
    10  C   -0.020242
    11  C    0.154635
    12  C   -0.066076
    13  C    0.001011
    14  C   -0.005423
    15  C   -0.001255
    16  C   -0.041438
    17  N   -0.525789
    18  C    0.225324
    19  C    0.222129
    20  O   -0.571519
 Electronic spatial extent (au):  <R**2>=           6645.5770
 Charge=              0.0000 electrons
 Dipole moment (field-independent basis, Debye):
    X=              0.1223    Y=             -5.0062    Z=              0.9873  Tot=              5.1041
 Quadrupole moment (field-independent basis, Debye-Ang):
   XX=           -154.0000   YY=           -133.2956   ZZ=           -124.3941
   XY=              4.2272   XZ=             -5.8073   YZ=             13.1797
 Traceless Quadrupole moment (field-independent basis, Debye-Ang):
   XX=            -16.7701   YY=              3.9343   ZZ=             12.8358
   XY=              4.2272   XZ=             -5.8073   YZ=             13.1797
 Octapole moment (field-independent basis, Debye-Ang**2):
  XXX=            -50.8995  YYY=            -60.3467  ZZZ=              5.7493  XYY=             61.1744
  XXY=            -24.1668  XXZ=            -47.2626  XZZ=             13.7320  YZZ=              2.2803
  YYZ=              4.5315  XYZ=              0.8779
 Hexadecapole moment (field-independent basis, Debye-Ang**3):
 XXXX=          -5412.0647 YYYY=          -2558.4562 ZZZZ=           -948.0363 XXXY=            -86.9718
 XXXZ=             -6.4923 YYYX=             81.2057 YYYZ=             86.4678 ZZZX=            -10.7159
 ZZZY=             23.0499 XXYY=          -1317.7010 XXZZ=          -1025.0407 YYZZ=           -576.8588
 XXYZ=            125.1301 YYXZ=             -9.0188 ZZXY=            -10.2299
 N-N= 2.041460358976D+03 E-N=-7.933293766771D+03  KE= 1.628106304124D+03
 No NMR shielding tensors so no spin-rotation constants.
 Leave Link  601 at Sat Aug  8 02:47:04 2020, MaxMem=    33554432 cpu:         0.3
 (Enter /prod/apps/gaussian/g09d1/l9999.exe)
 1\1\GINC-PIRINEUS30\SP\RB3LYP\6-31G(d)\C13H20N2O3S2\UBAFAR01\08-Aug-20
 20\0\\#p b3lyp/6-31G(d) scrf=(iefpcm,read,solvent=Water) geom=allcheck
  guess=read\\SM37.n.12.pdb.xyz\\0,1\O,0,4.854,-2.646,0.674\S,0,4.323,-
 1.281,0.538\N,0,3.386,-1.082,-0.826\C,0,2.689,-2.187,-1.507\C,0,1.801,
 -3.063,-0.599\S,0,2.227,-4.605,-1.562\O,0,1.253,-4.768,-2.728\C,0,3.55
 5,-3.367,-2.021\C,0,1.917,-1.575,-2.69\C,0,0.909,-0.458,-2.364\C,0,-0.
 42,-0.9,-1.781\C,0,-0.902,-0.333,-0.595\C,0,-2.144,-0.703,-0.071\C,0,-
 2.927,-1.651,-0.73\C,0,-2.459,-2.223,-1.917\C,0,-1.22,-1.849,-2.436\N,
 0,3.162,-1.126,1.751\C,0,3.609,-1.642,3.059\C,0,2.56,0.217,1.833\O,0,5
 .278,-0.16,0.515\H,0,3.884,-0.463,-1.469\H,0,0.735,-2.844,-0.571\H,0,2
 .194,-3.188,0.41\H,0,3.809,-3.381,-3.082\H,0,4.425,-3.563,-1.395\H,0,1
 .422,-2.404,-3.205\H,0,2.664,-1.177,-3.387\H,0,0.713,0.075,-3.302\H,0,
 1.375,0.266,-1.69\H,0,-0.298,0.408,-0.08\H,0,-2.496,-0.25,0.851\H,0,-3
 .89,-1.941,-0.326\H,0,-3.062,-2.96,-2.439\H,0,-0.865,-2.303,-3.356\H,0
 ,4.002,-2.649,2.937\H,0,2.732,-1.678,3.708\H,0,4.368,-1.003,3.525\H,0,
 2.249,0.531,0.838\H,0,3.25,0.956,2.256\H,0,1.679,0.142,2.474\\Version=
 AM64L-G09RevD.01\State=1-A\HF=-1638.8543629\RMSD=5.130e-09\Dipole=-0.5
 360668,1.697884,0.9286008\Quadrupole=-7.4229071,-4.6305727,12.0534797,
 -4.1804184,-9.9834809,-4.9007006\PG=C01 [X(C13H20N2O3S2)]\\@


 THOSE WHO TRY TO PASS CHEMISTRY OFF AS A NEW SCIENCE
 SHOW HOW LITTLE KNOWLEDGE THEY HAVE OF THE CHARACTER
 AND LITERATURE OF THE ANCIENTS.
   -- NICOLAS LEFEVRE
 "COURS DE CHYMIE" J.-N.LELOUP, PARIS, 1751
 Job cpu time:       0 days  0 hours  5 minutes 13.3 seconds.
 File lengths (MBytes):  RWF=    251 Int=      0 D2E=      0 Chk=      7 Scr=      1
 Normal termination of Gaussian 09 at Sat Aug  8 02:47:04 2020.
