 Entering Gaussian System, Link 0=g09
 Initial command:
 /prod/apps/gaussian/g09d1/l1.exe "/tmp/ubafar01/1449175/Gau-92256.inp" -scrdir="/tmp/ubafar01/1449175/"
 Entering Link 1 = /prod/apps/gaussian/g09d1/l1.exe PID=     92257.
  
 Copyright (c) 1988,1990,1992,1993,1995,1998,2003,2009,2013,
            Gaussian, Inc.  All Rights Reserved.
  
 This is part of the Gaussian(R) 09 program.  It is based on
 the Gaussian(R) 03 system (copyright 2003, Gaussian, Inc.),
 the Gaussian(R) 98 system (copyright 1998, Gaussian, Inc.),
 the Gaussian(R) 94 system (copyright 1995, Gaussian, Inc.),
 the Gaussian 92(TM) system (copyright 1992, Gaussian, Inc.),
 the Gaussian 90(TM) system (copyright 1990, Gaussian, Inc.),
 the Gaussian 88(TM) system (copyright 1988, Gaussian, Inc.),
 the Gaussian 86(TM) system (copyright 1986, Carnegie Mellon
 University), and the Gaussian 82(TM) system (copyright 1983,
 Carnegie Mellon University). Gaussian is a federally registered
 trademark of Gaussian, Inc.
  
 This software contains proprietary and confidential information,
 including trade secrets, belonging to Gaussian, Inc.
  
 This software is provided under written license and may be
 used, copied, transmitted, or stored only in accord with that
 written license.
  
 The following legend is applicable only to US Government
 contracts under FAR:
  
                    RESTRICTED RIGHTS LEGEND
  
 Use, reproduction and disclosure by the US Government is
 subject to restrictions as set forth in subparagraphs (a)
 and (c) of the Commercial Computer Software - Restricted
 Rights clause in FAR 52.227-19.
  
 Gaussian, Inc.
 340 Quinnipiac St., Bldg. 40, Wallingford CT 06492
  
  
 ---------------------------------------------------------------
 Warning -- This program may not be used in any manner that
 competes with the business of Gaussian, Inc. or will provide
 assistance to any competitor of Gaussian, Inc.  The licensee
 of this program is prohibited from giving any competitor of
 Gaussian, Inc. access to this program.  By using this program,
 the user acknowledges that Gaussian, Inc. is engaged in the
 business of creating and licensing software in the field of
 computational chemistry and represents and warrants to the
 licensee that it is not a competitor of Gaussian, Inc. and that
 it will not use this program in any manner prohibited above.
 ---------------------------------------------------------------
  

 Cite this work as:
 Gaussian 09, Revision D.01,
 M. J. Frisch, G. W. Trucks, H. B. Schlegel, G. E. Scuseria, 
 M. A. Robb, J. R. Cheeseman, G. Scalmani, V. Barone, B. Mennucci, 
 G. A. Petersson, H. Nakatsuji, M. Caricato, X. Li, H. P. Hratchian, 
 A. F. Izmaylov, J. Bloino, G. Zheng, J. L. Sonnenberg, M. Hada, 
 M. Ehara, K. Toyota, R. Fukuda, J. Hasegawa, M. Ishida, T. Nakajima, 
 Y. Honda, O. Kitao, H. Nakai, T. Vreven, J. A. Montgomery, Jr., 
 J. E. Peralta, F. Ogliaro, M. Bearpark, J. J. Heyd, E. Brothers, 
 K. N. Kudin, V. N. Staroverov, T. Keith, R. Kobayashi, J. Normand, 
 K. Raghavachari, A. Rendell, J. C. Burant, S. S. Iyengar, J. Tomasi, 
 M. Cossi, N. Rega, J. M. Millam, M. Klene, J. E. Knox, J. B. Cross, 
 V. Bakken, C. Adamo, J. Jaramillo, R. Gomperts, R. E. Stratmann, 
 O. Yazyev, A. J. Austin, R. Cammi, C. Pomelli, J. W. Ochterski, 
 R. L. Martin, K. Morokuma, V. G. Zakrzewski, G. A. Voth, 
 P. Salvador, J. J. Dannenberg, S. Dapprich, A. D. Daniels, 
 O. Farkas, J. B. Foresman, J. V. Ortiz, J. Cioslowski, 
 and D. J. Fox, Gaussian, Inc., Wallingford CT, 2013.
 
 ******************************************
 Gaussian 09:  AM64L-G09RevD.01 24-Apr-2013
                 8-Aug-2020 
 ******************************************
 %nproc=1
 Will use up to    1 processors via shared memory.
 %Chk=SM37.n.2.pdb.xyz.mst.n.w.chk
 -----------------
 #p b3lyp/6-31G(d)
 -----------------
 1/38=1/1;
 2/12=2,17=6,18=5,40=1/2;
 3/5=1,6=6,7=1,11=2,16=1,25=1,30=1,74=-5/1,2,3;
 4//1;
 5/5=2,38=5/2;
 6/7=2,8=2,9=2,10=2,28=1/1;
 99/5=1,9=1/99;
 Leave Link    1 at Sat Aug  8 02:35:30 2020, MaxMem=           0 cpu:         0.0
 (Enter /prod/apps/gaussian/g09d1/l101.exe)
 ----------------
 SM37.n.2.pdb.xyz
 ----------------
 Symbolic Z-matrix:
 Charge =  0 Multiplicity = 1
 O                     4.525    -1.282    -3.924 
 S                     4.754    -0.743    -2.58 
 N                     3.622    -1.436    -1.547 
 C                     2.479    -2.241    -2.04 
 C                     1.885    -3.069    -0.873 
 S                     1.714    -4.596    -1.934 
 O                     0.356    -4.592    -2.631 
 C                     2.901    -3.485    -2.857 
 C                     1.381    -1.463    -2.798 
 C                     0.558    -0.424    -2.007 
 C                     1.201     0.926    -1.76 
 C                     1.433     1.815    -2.819 
 C                     1.995     3.071    -2.591 
 C                     2.332     3.466    -1.293 
 C                     2.097     2.595    -0.228 
 C                     1.533     1.339    -0.463 
 N                     6.268    -1.298    -2.096 
 C                     6.66     -0.869    -0.743 
 C                     6.507    -2.73     -2.34 
 O                     4.776     0.706    -2.35 
 H                     3.357    -0.764    -0.826 
 H                     0.939    -2.741    -0.443 
 H                     2.611    -3.282    -0.086 
 H                     2.724    -3.466    -3.932 
 H                     3.911    -3.831    -2.637 
 H                     0.685    -2.224    -3.165 
 H                     1.835    -0.999    -3.68 
 H                     0.249    -0.851    -1.048 
 H                    -0.365    -0.265    -2.576 
 H                     1.167     1.524    -3.831 
 H                     2.165     3.745    -3.425 
 H                     2.767     4.444    -1.115 
 H                     2.347     2.893     0.785 
 H                     1.341     0.669     0.37 
 H                     6.501     0.203    -0.641 
 H                     7.723    -1.082    -0.626 
 H                     6.104    -1.402     0.038 
 H                     6.263    -2.967    -3.374 
 H                     5.928    -3.37     -1.662 
 H                     7.57     -2.914    -2.174 
 
 NAtoms=     40 NQM=       40 NQMF=       0 NMMI=      0 NMMIF=      0
                NMic=       0 NMicF=      0.
                    Isotopes and Nuclear Properties:
 (Nuclear quadrupole moments (NQMom) in fm**2, nuclear magnetic moments (NMagM)
  in nuclear magnetons)

  Atom         1           2           3           4           5           6           7           8           9          10
 IAtWgt=          16          32          14          12          12          32          16          12          12          12
 AtmWgt=  15.9949146  31.9720718  14.0030740  12.0000000  12.0000000  31.9720718  15.9949146  12.0000000  12.0000000  12.0000000
 NucSpn=           0           0           2           0           0           0           0           0           0           0
 AtZEff=   0.0000000   0.0000000   0.0000000   0.0000000   0.0000000   0.0000000   0.0000000   0.0000000   0.0000000   0.0000000
 NQMom=    0.0000000   0.0000000   2.0440000   0.0000000   0.0000000   0.0000000   0.0000000   0.0000000   0.0000000   0.0000000
 NMagM=    0.0000000   0.0000000   0.4037610   0.0000000   0.0000000   0.0000000   0.0000000   0.0000000   0.0000000   0.0000000
 AtZNuc=   8.0000000  16.0000000   7.0000000   6.0000000   6.0000000  16.0000000   8.0000000   6.0000000   6.0000000   6.0000000

  Atom        11          12          13          14          15          16          17          18          19          20
 IAtWgt=          12          12          12          12          12          12          14          12          12          16
 AtmWgt=  12.0000000  12.0000000  12.0000000  12.0000000  12.0000000  12.0000000  14.0030740  12.0000000  12.0000000  15.9949146
 NucSpn=           0           0           0           0           0           0           2           0           0           0
 AtZEff=   0.0000000   0.0000000   0.0000000   0.0000000   0.0000000   0.0000000   0.0000000   0.0000000   0.0000000   0.0000000
 NQMom=    0.0000000   0.0000000   0.0000000   0.0000000   0.0000000   0.0000000   2.0440000   0.0000000   0.0000000   0.0000000
 NMagM=    0.0000000   0.0000000   0.0000000   0.0000000   0.0000000   0.0000000   0.4037610   0.0000000   0.0000000   0.0000000
 AtZNuc=   6.0000000   6.0000000   6.0000000   6.0000000   6.0000000   6.0000000   7.0000000   6.0000000   6.0000000   8.0000000

  Atom        21          22          23          24          25          26          27          28          29          30
 IAtWgt=           1           1           1           1           1           1           1           1           1           1
 AtmWgt=   1.0078250   1.0078250   1.0078250   1.0078250   1.0078250   1.0078250   1.0078250   1.0078250   1.0078250   1.0078250
 NucSpn=           1           1           1           1           1           1           1           1           1           1
 AtZEff=   0.0000000   0.0000000   0.0000000   0.0000000   0.0000000   0.0000000   0.0000000   0.0000000   0.0000000   0.0000000
 NQMom=    0.0000000   0.0000000   0.0000000   0.0000000   0.0000000   0.0000000   0.0000000   0.0000000   0.0000000   0.0000000
 NMagM=    2.7928460   2.7928460   2.7928460   2.7928460   2.7928460   2.7928460   2.7928460   2.7928460   2.7928460   2.7928460
 AtZNuc=   1.0000000   1.0000000   1.0000000   1.0000000   1.0000000   1.0000000   1.0000000   1.0000000   1.0000000   1.0000000

  Atom        31          32          33          34          35          36          37          38          39          40
 IAtWgt=           1           1           1           1           1           1           1           1           1           1
 AtmWgt=   1.0078250   1.0078250   1.0078250   1.0078250   1.0078250   1.0078250   1.0078250   1.0078250   1.0078250   1.0078250
 NucSpn=           1           1           1           1           1           1           1           1           1           1
 AtZEff=   0.0000000   0.0000000   0.0000000   0.0000000   0.0000000   0.0000000   0.0000000   0.0000000   0.0000000   0.0000000
 NQMom=    0.0000000   0.0000000   0.0000000   0.0000000   0.0000000   0.0000000   0.0000000   0.0000000   0.0000000   0.0000000
 NMagM=    2.7928460   2.7928460   2.7928460   2.7928460   2.7928460   2.7928460   2.7928460   2.7928460   2.7928460   2.7928460
 AtZNuc=   1.0000000   1.0000000   1.0000000   1.0000000   1.0000000   1.0000000   1.0000000   1.0000000   1.0000000   1.0000000
 Leave Link  101 at Sat Aug  8 02:35:30 2020, MaxMem=    33554432 cpu:         0.1
 (Enter /prod/apps/gaussian/g09d1/l202.exe)
                          Input orientation:                          
 ---------------------------------------------------------------------
 Center     Atomic      Atomic             Coordinates (Angstroms)
 Number     Number       Type             X           Y           Z
 ---------------------------------------------------------------------
      1          8           0        4.525000   -1.282000   -3.924000
      2         16           0        4.754000   -0.743000   -2.580000
      3          7           0        3.622000   -1.436000   -1.547000
      4          6           0        2.479000   -2.241000   -2.040000
      5          6           0        1.885000   -3.069000   -0.873000
      6         16           0        1.714000   -4.596000   -1.934000
      7          8           0        0.356000   -4.592000   -2.631000
      8          6           0        2.901000   -3.485000   -2.857000
      9          6           0        1.381000   -1.463000   -2.798000
     10          6           0        0.558000   -0.424000   -2.007000
     11          6           0        1.201000    0.926000   -1.760000
     12          6           0        1.433000    1.815000   -2.819000
     13          6           0        1.995000    3.071000   -2.591000
     14          6           0        2.332000    3.466000   -1.293000
     15          6           0        2.097000    2.595000   -0.228000
     16          6           0        1.533000    1.339000   -0.463000
     17          7           0        6.268000   -1.298000   -2.096000
     18          6           0        6.660000   -0.869000   -0.743000
     19          6           0        6.507000   -2.730000   -2.340000
     20          8           0        4.776000    0.706000   -2.350000
     21          1           0        3.357000   -0.764000   -0.826000
     22          1           0        0.939000   -2.741000   -0.443000
     23          1           0        2.611000   -3.282000   -0.086000
     24          1           0        2.724000   -3.466000   -3.932000
     25          1           0        3.911000   -3.831000   -2.637000
     26          1           0        0.685000   -2.224000   -3.165000
     27          1           0        1.835000   -0.999000   -3.680000
     28          1           0        0.249000   -0.851000   -1.048000
     29          1           0       -0.365000   -0.265000   -2.576000
     30          1           0        1.167000    1.524000   -3.831000
     31          1           0        2.165000    3.745000   -3.425000
     32          1           0        2.767000    4.444000   -1.115000
     33          1           0        2.347000    2.893000    0.785000
     34          1           0        1.341000    0.669000    0.370000
     35          1           0        6.501000    0.203000   -0.641000
     36          1           0        7.723000   -1.082000   -0.626000
     37          1           0        6.104000   -1.402000    0.038000
     38          1           0        6.263000   -2.967000   -3.374000
     39          1           0        5.928000   -3.370000   -1.662000
     40          1           0        7.570000   -2.914000   -2.174000
 ---------------------------------------------------------------------
                    Distance matrix (angstroms):
                    1          2          3          4          5
     1  O    0.000000
     2  S    1.466048   0.000000
     3  N    2.547401   1.681892   0.000000
     4  C    2.941981   2.776910   1.482404   0.000000
     5  C    4.412660   4.068819   2.477526   1.549293   0.000000
     6  S    4.779583   4.950205   3.711581   2.478404   1.867268
     7  O    5.478002   5.844639   4.669277   3.222361   2.783511
     8  C    2.937529   3.320979   2.536600   1.546968   2.267503
     9  C    3.344454   3.455872   2.566673   1.544491   2.557123
    10  C    4.488668   4.246941   3.259423   2.644394   3.169055
    11  C    4.539508   4.010208   3.389049   3.426598   4.149054
    12  C    4.513635   4.198753   4.120523   4.260527   5.276805
    13  C    5.208301   4.707313   4.904092   5.362388   6.376772
    14  C    5.854478   5.023757   5.075256   5.757557   6.563721
    15  C    5.881048   4.871734   4.507144   5.178433   5.704548
    16  C    5.272592   4.380782   3.638626   4.024704   4.440999
    17  N    2.525844   1.683591   2.705875   3.904985   4.882915
    18  C    3.853253   2.650147   3.193329   4.587522   5.259042
    19  C    2.921315   2.660597   3.259833   4.068649   4.861059
    20  O    2.548062   1.467305   2.562165   3.749282   4.978959
    21  H    3.351142   2.242446   1.020613   2.103856   2.735328
    22  H    5.206288   4.807598   3.181247   2.274205   1.089679
    23  H    4.732192   4.154396   2.562100   2.217932   1.091702
    24  H    2.830816   3.655617   3.258148   2.267226   3.196719
    25  H    2.920748   3.201506   2.647196   2.221516   2.792314
    26  H    4.026046   4.369479   3.444537   2.117628   2.721634
    27  H    2.715829   3.129872   2.816740   2.155667   3.488072
    28  H    5.171200   4.759592   3.459531   2.808748   2.761638
    29  H    5.173344   5.141270   4.280917   3.504313   3.978081
    30  H    4.377037   4.423896   4.472726   4.370841   5.510076
    31  H    5.575781   5.249675   5.700219   6.152155   7.281600
    32  H    6.615748   5.744507   5.957520   6.754835   7.568465
    33  H    6.659504   5.507937   5.079773   5.861400   6.205470
    34  H    5.690579   4.727030   3.648133   3.946042   3.976635
    35  H    4.109488   2.776085   3.434501   4.909870   5.662796
    36  H    4.598261   3.570434   4.218028   5.553577   6.171825
    37  H    4.266742   3.018394   2.945115   4.261764   4.626961
    38  H    2.482412   2.802444   3.557636   4.077412   5.043044
    39  H    3.383016   3.020286   3.011846   3.648716   4.130251
    40  H    3.872719   3.578817   4.261962   5.137039   5.834025
                    6          7          8          9         10
     6  S    0.000000
     7  O    1.526430   0.000000
     8  C    1.869550   2.784520   0.000000
     9  C    3.266967   3.296840   2.530290   0.000000
    10  C    4.329809   4.219290   3.947388   1.543545   0.000000
    11  C    5.548507   5.649866   4.852868   2.610970   1.515572
    12  C    6.477894   6.499609   5.499679   3.278480   2.537339
    13  C    7.700227   7.836421   6.623649   4.580066   3.823748
    14  C    8.111020   8.403939   7.147465   5.240655   4.334625
    15  C    7.400514   7.775504   6.672665   4.856431   3.827234
    16  C    6.117256   6.423575   5.556405   3.650552   2.538253
    17  N    5.625119   6.788844   4.086414   4.939919   5.777188
    18  C    6.306499   7.560799   5.044059   5.695937   6.247409
    19  C    5.159423   6.433236   3.720289   5.300088   6.388985
    20  O    6.136783   6.905372   4.619216   4.053553   4.380191
    21  H    4.314086   5.188218   3.425892   2.877840   3.056920
    22  H    2.502944   2.924625   3.198496   2.715635   2.821302
    23  H    2.438505   3.643920   2.793519   3.489499   4.009141
    24  H    2.507789   2.927098   1.089640   2.664885   4.201303
    25  H    2.430276   3.635544   1.090053   3.469041   4.821531
    26  H    2.863667   2.449657   2.568198   1.094635   2.144083
    27  H    4.000196   4.024611   2.827345   1.095142   2.181807
    28  H    4.117796   4.063548   4.152534   2.172203   1.094299
    29  H    4.846851   4.387003   4.595010   2.129085   1.095888
    30  H    6.430569   6.285155   5.389389   3.167815   2.737254
    31  H    8.485208   8.567875   7.289528   5.303871   4.687615
    32  H    9.137897   9.474200   8.119209   6.296518   5.419665
    33  H    7.992420   8.465126   7.365457   5.722393   4.690232
    34  H    5.759147   6.136314   5.486606   3.818802   2.730910
    35  H    6.900552   8.044448   5.609991   5.800225   6.130117
    36  H    7.082877   8.403143   5.831248   6.714440   7.326483
    37  H    5.776030   7.095010   4.793654   5.509387   5.991379
    38  H    5.041889   6.171331   3.440735   5.140789   6.393947
    39  H    4.397142   5.786141   3.256375   5.059877   6.134724
    40  H    6.097496   7.420669   4.753114   6.387370   7.442858
                   11         12         13         14         15
    11  C    0.000000
    12  C    1.402008   0.000000
    13  C    2.433520   1.394763   0.000000
    14  C    2.819370   2.421297   1.397998   0.000000
    15  C    2.436268   2.786140   2.412623   1.395740   0.000000
    16  C    1.401072   2.405683   2.782382   2.418973   1.396731
    17  N    5.543786   5.795750   6.131208   6.231581   6.003508
    18  C    5.835837   6.231786   6.379728   6.150310   5.751999
    19  C    6.469650   6.828758   7.353417   7.544352   7.229403
    20  O    3.630031   3.553237   3.658588   3.835099   3.904900
    21  H    2.894269   3.784847   4.435932   4.377398   3.637043
    22  H    3.905128   5.162029   6.285570   6.417928   5.464438
    23  H    4.743168   5.902235   6.856755   6.860772   5.901143
    24  H    5.130963   5.549271   6.712830   7.427692   7.130811
    25  H    5.544572   6.168543   7.163154   7.585894   7.098405
    26  H    3.487518   4.122225   5.484761   6.212334   5.817428
    27  H    2.791770   2.970105   4.216209   5.087338   4.990169
    28  H    2.137984   3.412602   4.561957   4.799521   3.995300
    29  H    2.129951   2.760118   4.086407   4.779148   4.444564
    30  H    2.155876   1.086085   2.148579   3.401475   3.872151
    31  H    3.412958   2.151269   1.085694   2.156653   3.398225
    32  H    3.904447   3.405116   2.158631   1.085077   2.157422
    33  H    3.414591   3.871214   3.398965   2.155606   1.085114
    34  H    2.150011   3.389912   3.868442   3.401597   2.153745
    35  H    5.464878   5.746899   5.686120   5.334120   5.028663
    36  H    6.917695   7.264018   7.342930   7.084636   6.732801
    37  H    5.717674   6.350573   6.618402   6.300553   5.665935
    38  H    6.586675   6.819417   7.435480   7.820921   7.628153
    39  H    6.388251   6.959016   7.603816   7.732934   7.232852
    40  H    7.448567   7.774460   8.189917   8.301639   8.005606
                   16         17         18         19         20
    16  C    0.000000
    17  N    5.660449   0.000000
    18  C    5.589257   1.472520   0.000000
    19  C    6.694816   1.472169   2.457059   0.000000
    20  O    3.805063   2.511294   2.934711   3.847409   0.000000
    21  H    2.807375   3.220555   3.305711   4.009969   2.548929
    22  H    4.123061   5.763063   6.026958   5.882292   5.499184
    23  H    4.760027   4.620607   4.759057   4.534759   5.071200
    24  H    6.044871   4.542142   5.692647   4.169802   4.911111
    25  H    6.091803   3.502031   4.462923   2.835423   4.627630
    26  H    4.551360   5.759351   6.588075   5.901893   5.097588
    27  H    3.988300   4.716985   5.650088   5.159413   3.650398
    28  H    2.605183   6.125886   6.418276   6.660516   4.961167
    29  H    3.261900   6.730095   7.285282   7.304540   5.236774
    30  H    3.392876   6.082278   6.740567   6.988218   3.985896
    31  H    3.868036   6.635714   6.977617   7.871202   4.148309
    32  H    3.404245   6.796317   6.597106   8.182573   4.419723
    33  H    2.152909   6.421751   5.923630   7.660898   4.528933
    34  H    1.086118   5.850263   5.647652   6.751656   4.381666
    35  H    5.099334   2.103406   1.088517   3.389561   2.479781
    36  H    6.648602   2.079563   1.090425   2.670647   3.854080
    37  H    5.353328   2.142818   1.096898   2.753339   3.451057
    38  H    7.027692   2.102111   3.388418   1.088513   4.092759
    39  H    6.551970   2.144094   2.763220   1.097509   4.291180
    40  H    7.580297   2.076715   2.656668   1.091504   4.576222
                   21         22         23         24         25
    21  H    0.000000
    22  H    3.146735   0.000000
    23  H    2.728450   1.793241   0.000000
    24  H    4.165181   3.985595   3.852057   0.000000
    25  H    3.604598   3.851561   2.915305   1.794218   0.000000
    26  H    3.839545   2.782281   3.782735   2.507663   3.642569
    27  H    3.242996   3.783589   4.327944   2.634372   3.663038
    28  H    3.117133   2.101006   3.523386   4.613167   4.981522
    29  H    4.143041   3.518619   4.915177   4.650490   5.568146
    30  H    4.365898   5.451674   6.261613   5.228245   6.134427
    31  H    5.339171   7.243176   7.792725   7.250383   7.814425
    32  H    5.249275   7.444286   7.795784   8.396752   8.491222
    33  H    4.121780   5.935689   6.241711   7.926481   7.705086
    34  H    2.747392   3.528551   4.175073   6.125204   5.991406
    35  H    3.294549   6.296204   5.252176   6.209507   5.192810
    36  H    4.382132   6.986303   5.591435   6.450046   5.111992
    37  H    2.949500   5.357379   3.968731   5.607619   4.226691
    38  H    4.448635   6.081678   4.924152   3.617304   2.611813
    39  H    3.755020   5.174140   3.673419   3.927815   2.287233
    40  H    4.918229   6.855396   5.393223   5.184495   3.800466
                   26         27         28         29         30
    26  H    0.000000
    27  H    1.757370   0.000000
    28  H    2.560647   3.076479   0.000000
    29  H    2.299370   2.568574   1.747906   0.000000
    30  H    3.837106   2.614298   3.772060   2.668814   0.000000
    31  H    6.155239   4.762296   5.517645   4.816825   2.468538
    32  H    7.280072   6.088850   5.863603   5.841115   4.296866
    33  H    6.674461   5.945253   4.666801   5.350162   4.957219
    34  H    4.614760   4.407807   2.348103   3.530114   4.290653
    35  H    6.788723   5.696655   6.353272   7.148790   6.353951
    36  H    7.568628   6.633427   7.489467   8.359769   7.748832
    37  H    6.348264   5.675411   5.980303   7.069210   6.921315
    38  H    5.631147   4.855290   6.786452   7.201944   6.807874
    39  H    5.573273   5.142627   6.242868   7.076600   7.164002
    40  H    6.990093   6.231010   7.689011   8.375144   7.964917
                   31         32         33         34         35
    31  H    0.000000
    32  H    2.487389   0.000000
    33  H    4.299201   2.488373   0.000000
    34  H    4.954067   4.299922   2.475972   0.000000
    35  H    6.252785   5.670407   5.150271   5.278719   0.000000
    36  H    7.875639   7.438934   6.833222   6.692379   1.773340
    37  H    7.348449   6.829399   5.755005   5.204367   1.787365
    38  H    7.864296   8.499883   8.183638   7.173849   4.192235
    39  H    8.239634   8.446877   7.618172   6.440739   3.759933
    40  H    8.667255   8.850449   8.352045   7.623009   3.634355
                   36         37         38         39         40
    36  H    0.000000
    37  H    1.778892   0.000000
    38  H    3.638177   3.757160   0.000000
    39  H    3.087113   2.606530   1.790413   0.000000
    40  H    2.403318   3.054217   1.775122   1.779394   0.000000
 Stoichiometry    C13H20N2O3S2
 Framework group  C1[X(C13H20N2O3S2)]
 Deg. of freedom   114
 Full point group                 C1      NOp   1
 Largest Abelian subgroup         C1      NOp   1
 Largest concise Abelian subgroup C1      NOp   1
                         Standard orientation:                         
 ---------------------------------------------------------------------
 Center     Atomic      Atomic             Coordinates (Angstroms)
 Number     Number       Type             X           Y           Z
 ---------------------------------------------------------------------
      1          8           0        0.528627    1.503178   -1.818159
      2         16           0       -0.135082    1.720739   -0.529184
      3          7           0        0.401876    0.533217    0.533939
      4          6           0        1.205645   -0.630775    0.090543
      5          6           0        1.885080   -1.290355    1.316770
      6         16           0        3.504237   -1.500502    0.410757
      7          8           0        3.515981   -2.838573   -0.323693
      8          6           0        2.542826   -0.242615   -0.583540
      9          6           0        0.464952   -1.673762   -0.774907
     10          6           0       -0.682208   -2.470697   -0.118060
     11          6           0       -2.022965   -1.775876    0.010591
     12          6           0       -2.788862   -1.477951   -1.125309
     13          6           0       -4.037560   -0.867644   -1.008500
     14          6           0       -4.549028   -0.547331    0.252530
     15          6           0       -3.801757   -0.847620    1.392488
     16          6           0       -2.552426   -1.459743    1.268658
     17          7           0        0.428970    3.196016    0.053806
     18          6           0       -0.119664    3.571324    1.367754
     19          6           0        1.886974    3.378393   -0.036996
     20          8           0       -1.597884    1.800130   -0.446155
     21          1           0       -0.350552    0.279321    1.175062
     22          1           0        1.476464   -2.231898    1.682734
     23          1           0        2.046037   -0.594932    2.142780
     24          1           0        2.626561   -0.390791   -1.659806
     25          1           0        2.905525    0.745271   -0.299378
     26          1           0        1.230384   -2.392661   -1.083977
     27          1           0        0.112459   -1.177279   -1.685176
     28          1           0       -0.368432   -2.822739    0.869413
     29          1           0       -0.819823   -3.370858   -0.727768
     30          1           0       -2.407086   -1.730194   -2.110297
     31          1           0       -4.615290   -0.646851   -1.900807
     32          1           0       -5.521496   -0.074725    0.343869
     33          1           0       -4.191247   -0.611075    2.377281
     34          1           0       -1.979469   -1.702307    2.158903
     35          1           0       -1.202074    3.456770    1.356119
     36          1           0        0.123535    4.620617    1.537654
     37          1           0        0.307561    2.972564    2.181481
     38          1           0        2.218225    3.151050   -1.048652
     39          1           0        2.430134    2.754644    0.684419
     40          1           0        2.096342    4.427688    0.178702
 ---------------------------------------------------------------------
 Rotational constants (GHZ):      0.3535334      0.2479916      0.1700366
 Leave Link  202 at Sat Aug  8 02:35:30 2020, MaxMem=    33554432 cpu:         0.0
 (Enter /prod/apps/gaussian/g09d1/l301.exe)
 Standard basis: 6-31G(d) (6D, 7F)
 Ernie: Thresh=  0.10000D-02 Tol=  0.10000D-05 Strict=F.
 There are   348 symmetry adapted cartesian basis functions of A   symmetry.
 There are   348 symmetry adapted basis functions of A   symmetry.
   348 basis functions,   688 primitive gaussians,   348 cartesian basis functions
    84 alpha electrons       84 beta electrons
       nuclear repulsion energy      2048.8529852884 Hartrees.
 IExCor=  402 DFT=T Ex+Corr=B3LYP ExCW=0 ScaHFX=  0.200000
 ScaDFX=  0.800000  0.720000  1.000000  0.810000 ScalE2=  1.000000  1.000000
 IRadAn=      0 IRanWt=     -1 IRanGd=            0 ICorTp=0 IEmpDi=  4
 NAtoms=   40 NActive=   40 NUniq=   40 SFac= 1.00D+00 NAtFMM=   60 NAOKFM=F Big=F
 Integral buffers will be    131072 words long.
 Raffenetti 2 integral format.
 Two-electron integral symmetry is turned on.
 Leave Link  301 at Sat Aug  8 02:35:30 2020, MaxMem=    33554432 cpu:         0.0
 (Enter /prod/apps/gaussian/g09d1/l302.exe)
 NPDir=0 NMtPBC=     1 NCelOv=     1 NCel=       1 NClECP=     1 NCelD=      1
         NCelK=      1 NCelE2=     1 NClLst=     1 CellRange=     0.0.
 One-electron integrals computed using PRISM.
 NBasis=   348 RedAO= T EigKep=  4.70D-04  NBF=   348
 NBsUse=   348 1.00D-06 EigRej= -1.00D+00 NBFU=   348
 Precomputing XC quadrature grid using
 IXCGrd= 4 IRadAn=           0 IRanWt=          -1 IRanGd=           0 AccXCQ= 0.00D+00.
 Generated NRdTot=       0 NPtTot=           0 NUsed=           0 NTot=          32
 NSgBfM=   345   345   345   345   345 MxSgAt=    40 MxSgA2=    40.
 Leave Link  302 at Sat Aug  8 02:35:31 2020, MaxMem=    33554432 cpu:         1.2
 (Enter /prod/apps/gaussian/g09d1/l303.exe)
 DipDrv:  MaxL=1.
 Leave Link  303 at Sat Aug  8 02:35:31 2020, MaxMem=    33554432 cpu:         0.0
 (Enter /prod/apps/gaussian/g09d1/l401.exe)
 ExpMin= 1.17D-01 ExpMax= 2.19D+04 ExpMxC= 3.30D+03 IAcc=1 IRadAn=         1 AccDes= 0.00D+00
 Harris functional with IExCor=  402 and IRadAn=       1 diagonalized for initial guess.
 HarFok:  IExCor=  402 AccDes= 0.00D+00 IRadAn=         1 IDoV= 1 UseB2=F ITyADJ=14
 ICtDFT=  3500011 ScaDFX=  1.000000  1.000000  1.000000  1.000000
 FoFCou: FMM=F IPFlag=           0 FMFlag=      100000 FMFlg1=           0
         NFxFlg=           0 DoJE=T BraDBF=F KetDBF=T FulRan=T
         wScrn=  0.000000 ICntrl=     500 IOpCl=  0 I1Cent=   200000004 NGrid=           0
         NMat0=    1 NMatS0=      1 NMatT0=    0 NMatD0=    1 NMtDS0=    0 NMtDT0=    0
 Petite list used in FoFCou.
 Harris En= -1638.91120937539    
 JPrj=0 DoOrth=F DoCkMO=F.
 Leave Link  401 at Sat Aug  8 02:35:36 2020, MaxMem=    33554432 cpu:         5.0
 (Enter /prod/apps/gaussian/g09d1/l502.exe)
 Closed shell SCF:
 Using DIIS extrapolation, IDIIS=  1040.
 Integral symmetry usage will be decided dynamically.
 IVT=      386588 IEndB=      386588 NGot=    33554432 MDV=    33305937
 LenX=    33305937 LenY=    33184392
 Requested convergence on RMS density matrix=1.00D-08 within 128 cycles.
 Requested convergence on MAX density matrix=1.00D-06.
 Requested convergence on             energy=1.00D-06.
 No special actions if energy rises.
 Fock matrices will be formed incrementally for  20 cycles.
 Integral accuracy reduced to 1.0D-05 until final iterations.

 Cycle   1  Pass 0  IDiag  1:
 FoFJK:  IHMeth= 1 ICntrl=       0 DoSepK=F KAlg= 0 I1Cent=   0 FoldK=F
 IRaf= 800000000 NMat=   1 IRICut=       1 DoRegI=T DoRafI=F ISym2E= 0.
 FoFCou: FMM=F IPFlag=           0 FMFlag=      100000 FMFlg1=           0
         NFxFlg=           0 DoJE=F BraDBF=F KetDBF=F FulRan=T
         wScrn=  0.000000 ICntrl=       0 IOpCl=  0 I1Cent=           0 NGrid=           0
         NMat0=    1 NMatS0=      1 NMatT0=    0 NMatD0=    1 NMtDS0=    0 NMtDT0=    0
 Symmetry not used in FoFCou.
 E= -1638.03660337122    
 DIIS: error= 3.19D-02 at cycle   1 NSaved=   1.
 NSaved= 1 IEnMin= 1 EnMin= -1638.03660337122     IErMin= 1 ErrMin= 3.19D-02
 ErrMax= 3.19D-02  0.00D+00 EMaxC= 1.00D-01 BMatC= 8.94D-01 BMatP= 8.94D-01
 IDIUse=3 WtCom= 6.81D-01 WtEn= 3.19D-01
 Coeff-Com:  0.100D+01
 Coeff-En:   0.100D+01
 Coeff:      0.100D+01
 Gap=     0.345 Goal=   None    Shift=    0.000
 GapD=    0.345 DampG=1.000 DampE=0.500 DampFc=0.5000 IDamp=-1.
 Damping current iteration by 5.00D-01
 RMSDP=8.08D-03 MaxDP=6.07D-01              OVMax= 3.67D-01

 Cycle   2  Pass 0  IDiag  1:
 RMSU=  4.04D-03    CP:  9.99D-01
 E= -1638.14170522621     Delta-E=       -0.105101854997 Rises=F Damp=T
 DIIS: error= 2.56D-02 at cycle   2 NSaved=   2.
 NSaved= 2 IEnMin= 2 EnMin= -1638.14170522621     IErMin= 2 ErrMin= 2.56D-02
 ErrMax= 2.56D-02  0.00D+00 EMaxC= 1.00D-01 BMatC= 2.00D-01 BMatP= 8.94D-01
 IDIUse=3 WtCom= 7.44D-01 WtEn= 2.56D-01
 Coeff-Com:  0.278D+00 0.722D+00
 Coeff-En:   0.439D+00 0.561D+00
 Coeff:      0.319D+00 0.681D+00
 Gap=     0.247 Goal=   None    Shift=    0.000
 RMSDP=2.99D-03 MaxDP=1.64D-01 DE=-1.05D-01 OVMax= 2.54D-01

 Cycle   3  Pass 0  IDiag  1:
 RMSU=  2.19D-03    CP:  9.86D-01  5.01D-01
 E= -1638.67896246470     Delta-E=       -0.537257238491 Rises=F Damp=F
 DIIS: error= 2.13D-02 at cycle   3 NSaved=   3.
 NSaved= 3 IEnMin= 3 EnMin= -1638.67896246470     IErMin= 3 ErrMin= 2.13D-02
 ErrMax= 2.13D-02  0.00D+00 EMaxC= 1.00D-01 BMatC= 1.56D-01 BMatP= 2.00D-01
 IDIUse=3 WtCom= 7.87D-01 WtEn= 2.13D-01
 Coeff-Com:  0.137D+00 0.455D+00 0.409D+00
 Coeff-En:   0.000D+00 0.000D+00 0.100D+01
 Coeff:      0.107D+00 0.358D+00 0.535D+00
 Gap=     0.243 Goal=   None    Shift=    0.000
 RMSDP=2.18D-03 MaxDP=9.05D-02 DE=-5.37D-01 OVMax= 1.97D-01

 Cycle   4  Pass 0  IDiag  1:
 RMSU=  1.10D-03    CP:  9.95D-01  6.86D-01  2.14D-01
 E= -1638.77311353381     Delta-E=       -0.094151069108 Rises=F Damp=F
 DIIS: error= 1.68D-02 at cycle   4 NSaved=   4.
 NSaved= 4 IEnMin= 4 EnMin= -1638.77311353381     IErMin= 4 ErrMin= 1.68D-02
 ErrMax= 1.68D-02  0.00D+00 EMaxC= 1.00D-01 BMatC= 6.15D-02 BMatP= 1.56D-01
 IDIUse=3 WtCom= 8.32D-01 WtEn= 1.68D-01
 Coeff-Com:  0.370D-01 0.998D-01 0.369D+00 0.494D+00
 Coeff-En:   0.000D+00 0.000D+00 0.313D+00 0.687D+00
 Coeff:      0.308D-01 0.830D-01 0.360D+00 0.526D+00
 Gap=     0.235 Goal=   None    Shift=    0.000
 RMSDP=1.05D-03 MaxDP=5.24D-02 DE=-9.42D-02 OVMax= 1.04D-01

 Cycle   5  Pass 0  IDiag  1:
 RMSU=  3.77D-04    CP:  9.93D-01  5.88D-01  5.42D-01  5.10D-01
 E= -1638.82344857262     Delta-E=       -0.050335038811 Rises=F Damp=F
 DIIS: error= 4.03D-03 at cycle   5 NSaved=   5.
 NSaved= 5 IEnMin= 5 EnMin= -1638.82344857262     IErMin= 5 ErrMin= 4.03D-03
 ErrMax= 4.03D-03  0.00D+00 EMaxC= 1.00D-01 BMatC= 5.19D-03 BMatP= 6.15D-02
 IDIUse=3 WtCom= 9.60D-01 WtEn= 4.03D-02
 Coeff-Com:  0.483D-02 0.698D-02 0.174D+00 0.342D+00 0.472D+00
 Coeff-En:   0.000D+00 0.000D+00 0.000D+00 0.468D-01 0.953D+00
 Coeff:      0.463D-02 0.670D-02 0.167D+00 0.330D+00 0.492D+00
 Gap=     0.225 Goal=   None    Shift=    0.000
 RMSDP=2.85D-04 MaxDP=1.31D-02 DE=-5.03D-02 OVMax= 2.30D-02

 Cycle   6  Pass 0  IDiag  1:
 RMSU=  1.31D-04    CP:  9.93D-01  6.09D-01  5.02D-01  6.05D-01  4.85D-01
 E= -1638.82744377732     Delta-E=       -0.003995204697 Rises=F Damp=F
 DIIS: error= 9.75D-04 at cycle   6 NSaved=   6.
 NSaved= 6 IEnMin= 6 EnMin= -1638.82744377732     IErMin= 6 ErrMin= 9.75D-04
 ErrMax= 9.75D-04  0.00D+00 EMaxC= 1.00D-01 BMatC= 5.40D-04 BMatP= 5.19D-03
 IDIUse=3 WtCom= 9.90D-01 WtEn= 9.75D-03
 Coeff-Com: -0.103D-02-0.573D-02 0.431D-01 0.109D+00 0.295D+00 0.560D+00
 Coeff-En:   0.000D+00 0.000D+00 0.000D+00 0.000D+00 0.775D-01 0.923D+00
 Coeff:     -0.102D-02-0.567D-02 0.427D-01 0.108D+00 0.292D+00 0.564D+00
 Gap=     0.226 Goal=   None    Shift=    0.000
 RMSDP=7.97D-05 MaxDP=4.11D-03 DE=-4.00D-03 OVMax= 3.87D-03

 Cycle   7  Pass 0  IDiag  1:
 RMSU=  4.20D-05    CP:  9.93D-01  6.06D-01  5.07D-01  6.08D-01  5.79D-01
                    CP:  5.81D-01
 E= -1638.82783826184     Delta-E=       -0.000394484520 Rises=F Damp=F
 DIIS: error= 1.82D-04 at cycle   7 NSaved=   7.
 NSaved= 7 IEnMin= 7 EnMin= -1638.82783826184     IErMin= 7 ErrMin= 1.82D-04
 ErrMax= 1.82D-04  0.00D+00 EMaxC= 1.00D-01 BMatC= 4.47D-05 BMatP= 5.40D-04
 IDIUse=3 WtCom= 9.98D-01 WtEn= 1.82D-03
 Coeff-Com: -0.675D-03-0.322D-02 0.479D-02 0.191D-01 0.108D+00 0.311D+00
 Coeff-Com:  0.561D+00
 Coeff-En:   0.000D+00 0.000D+00 0.000D+00 0.000D+00 0.000D+00 0.874D-02
 Coeff-En:   0.991D+00
 Coeff:     -0.674D-03-0.322D-02 0.478D-02 0.191D-01 0.108D+00 0.310D+00
 Coeff:      0.562D+00
 Gap=     0.225 Goal=   None    Shift=    0.000
 RMSDP=2.34D-05 MaxDP=1.02D-03 DE=-3.94D-04 OVMax= 1.06D-03

 Cycle   8  Pass 0  IDiag  1:
 RMSU=  1.13D-05    CP:  9.93D-01  6.05D-01  5.07D-01  6.04D-01  5.84D-01
                    CP:  6.53D-01  5.93D-01
 E= -1638.82787890320     Delta-E=       -0.000040641364 Rises=F Damp=F
 DIIS: error= 5.97D-05 at cycle   8 NSaved=   8.
 NSaved= 8 IEnMin= 8 EnMin= -1638.82787890320     IErMin= 8 ErrMin= 5.97D-05
 ErrMax= 5.97D-05  0.00D+00 EMaxC= 1.00D-01 BMatC= 1.71D-06 BMatP= 4.47D-05
 IDIUse=1 WtCom= 1.00D+00 WtEn= 0.00D+00
 Coeff-Com: -0.125D-03-0.864D-03-0.556D-03 0.907D-03 0.280D-01 0.989D-01
 Coeff-Com:  0.247D+00 0.626D+00
 Coeff:     -0.125D-03-0.864D-03-0.556D-03 0.907D-03 0.280D-01 0.989D-01
 Coeff:      0.247D+00 0.626D+00
 Gap=     0.225 Goal=   None    Shift=    0.000
 RMSDP=6.01D-06 MaxDP=2.12D-04 DE=-4.06D-05 OVMax= 4.73D-04

 Initial convergence to 1.0D-05 achieved.  Increase integral accuracy.
 Cycle   9  Pass 1  IDiag  1:
 E= -1638.82793331078     Delta-E=       -0.000054407574 Rises=F Damp=F
 DIIS: error= 5.37D-05 at cycle   1 NSaved=   1.
 NSaved= 1 IEnMin= 1 EnMin= -1638.82793331078     IErMin= 1 ErrMin= 5.37D-05
 ErrMax= 5.37D-05  0.00D+00 EMaxC= 1.00D-01 BMatC= 1.11D-06 BMatP= 1.11D-06
 IDIUse=1 WtCom= 1.00D+00 WtEn= 0.00D+00
 Coeff-Com:  0.100D+01
 Coeff:      0.100D+01
 Gap=     0.225 Goal=   None    Shift=    0.000
 RMSDP=6.01D-06 MaxDP=2.12D-04 DE=-5.44D-05 OVMax= 6.11D-04

 Cycle  10  Pass 1  IDiag  1:
 RMSU=  2.45D-05    CP:  1.00D+00
 E= -1638.82793303415     Delta-E=        0.000000276626 Rises=F Damp=F
 DIIS: error= 9.83D-05 at cycle   2 NSaved=   2.
 NSaved= 2 IEnMin= 1 EnMin= -1638.82793331078     IErMin= 1 ErrMin= 5.37D-05
 ErrMax= 9.83D-05  0.00D+00 EMaxC= 1.00D-01 BMatC= 1.50D-06 BMatP= 1.11D-06
 IDIUse=1 WtCom= 1.00D+00 WtEn= 0.00D+00
 Coeff-Com:  0.546D+00 0.454D+00
 Coeff:      0.546D+00 0.454D+00
 Gap=     0.225 Goal=   None    Shift=    0.000
 RMSDP=5.22D-06 MaxDP=1.74D-04 DE= 2.77D-07 OVMax= 5.50D-04

 Cycle  11  Pass 1  IDiag  1:
 RMSU=  5.13D-06    CP:  1.00D+00  9.62D-01
 E= -1638.82793436779     Delta-E=       -0.000001333639 Rises=F Damp=F
 DIIS: error= 3.88D-05 at cycle   3 NSaved=   3.
 NSaved= 3 IEnMin= 3 EnMin= -1638.82793436779     IErMin= 3 ErrMin= 3.88D-05
 ErrMax= 3.88D-05  0.00D+00 EMaxC= 1.00D-01 BMatC= 1.99D-07 BMatP= 1.11D-06
 IDIUse=1 WtCom= 1.00D+00 WtEn= 0.00D+00
 Coeff-Com:  0.144D-01 0.265D+00 0.721D+00
 Coeff:      0.144D-01 0.265D+00 0.721D+00
 Gap=     0.225 Goal=   None    Shift=    0.000
 RMSDP=1.55D-06 MaxDP=5.27D-05 DE=-1.33D-06 OVMax= 1.70D-04

 Cycle  12  Pass 1  IDiag  1:
 RMSU=  7.42D-07    CP:  1.00D+00  9.81D-01  7.51D-01
 E= -1638.82793455889     Delta-E=       -0.000000191099 Rises=F Damp=F
 DIIS: error= 4.95D-06 at cycle   4 NSaved=   4.
 NSaved= 4 IEnMin= 4 EnMin= -1638.82793455889     IErMin= 4 ErrMin= 4.95D-06
 ErrMax= 4.95D-06  0.00D+00 EMaxC= 1.00D-01 BMatC= 1.75D-08 BMatP= 1.99D-07
 IDIUse=1 WtCom= 1.00D+00 WtEn= 0.00D+00
 Coeff-Com: -0.103D-01 0.144D+00 0.433D+00 0.433D+00
 Coeff:     -0.103D-01 0.144D+00 0.433D+00 0.433D+00
 Gap=     0.225 Goal=   None    Shift=    0.000
 RMSDP=4.35D-07 MaxDP=2.23D-05 DE=-1.91D-07 OVMax= 2.59D-05

 Cycle  13  Pass 1  IDiag  1:
 RMSU=  2.39D-07    CP:  1.00D+00  9.82D-01  7.58D-01  5.13D-01
 E= -1638.82793457346     Delta-E=       -0.000000014571 Rises=F Damp=F
 DIIS: error= 1.49D-06 at cycle   5 NSaved=   5.
 NSaved= 5 IEnMin= 5 EnMin= -1638.82793457346     IErMin= 5 ErrMin= 1.49D-06
 ErrMax= 1.49D-06  0.00D+00 EMaxC= 1.00D-01 BMatC= 1.04D-09 BMatP= 1.75D-08
 IDIUse=1 WtCom= 1.00D+00 WtEn= 0.00D+00
 Coeff-Com: -0.672D-02 0.688D-01 0.212D+00 0.262D+00 0.464D+00
 Coeff:     -0.672D-02 0.688D-01 0.212D+00 0.262D+00 0.464D+00
 Gap=     0.225 Goal=   None    Shift=    0.000
 RMSDP=1.13D-07 MaxDP=5.92D-06 DE=-1.46D-08 OVMax= 6.94D-06

 Cycle  14  Pass 1  IDiag  1:
 RMSU=  8.44D-08    CP:  1.00D+00  9.82D-01  7.58D-01  5.31D-01  6.93D-01
 E= -1638.82793457441     Delta-E=       -0.000000000949 Rises=F Damp=F
 DIIS: error= 3.58D-07 at cycle   6 NSaved=   6.
 NSaved= 6 IEnMin= 6 EnMin= -1638.82793457441     IErMin= 6 ErrMin= 3.58D-07
 ErrMax= 3.58D-07  0.00D+00 EMaxC= 1.00D-01 BMatC= 6.21D-11 BMatP= 1.04D-09
 IDIUse=1 WtCom= 1.00D+00 WtEn= 0.00D+00
 Coeff-Com: -0.214D-02 0.174D-01 0.545D-01 0.801D-01 0.235D+00 0.615D+00
 Coeff:     -0.214D-02 0.174D-01 0.545D-01 0.801D-01 0.235D+00 0.615D+00
 Gap=     0.225 Goal=   None    Shift=    0.000
 RMSDP=3.22D-08 MaxDP=1.79D-06 DE=-9.49D-10 OVMax= 2.05D-06

 Cycle  15  Pass 1  IDiag  1:
 RMSU=  2.58D-08    CP:  1.00D+00  9.82D-01  7.58D-01  5.39D-01  7.38D-01
                    CP:  8.31D-01
 E= -1638.82793457440     Delta-E=        0.000000000010 Rises=F Damp=F
 DIIS: error= 1.78D-07 at cycle   7 NSaved=   7.
 NSaved= 7 IEnMin= 6 EnMin= -1638.82793457441     IErMin= 7 ErrMin= 1.78D-07
 ErrMax= 1.78D-07  0.00D+00 EMaxC= 1.00D-01 BMatC= 1.58D-11 BMatP= 6.21D-11
 IDIUse=1 WtCom= 1.00D+00 WtEn= 0.00D+00
 Coeff-Com: -0.455D-03 0.171D-02 0.595D-02 0.153D-01 0.872D-01 0.385D+00
 Coeff-Com:  0.505D+00
 Coeff:     -0.455D-03 0.171D-02 0.595D-02 0.153D-01 0.872D-01 0.385D+00
 Coeff:      0.505D+00
 Gap=     0.225 Goal=   None    Shift=    0.000
 RMSDP=1.61D-08 MaxDP=7.25D-07 DE= 1.00D-11 OVMax= 1.24D-06

 Cycle  16  Pass 1  IDiag  1:
 RMSU=  9.29D-09    CP:  1.00D+00  9.82D-01  7.58D-01  5.40D-01  7.44D-01
                    CP:  8.72D-01  5.16D-01
 E= -1638.82793457439     Delta-E=        0.000000000008 Rises=F Damp=F
 DIIS: error= 8.19D-08 at cycle   8 NSaved=   8.
 NSaved= 8 IEnMin= 6 EnMin= -1638.82793457441     IErMin= 8 ErrMin= 8.19D-08
 ErrMax= 8.19D-08  0.00D+00 EMaxC= 1.00D-01 BMatC= 2.08D-12 BMatP= 1.58D-11
 IDIUse=1 WtCom= 1.00D+00 WtEn= 0.00D+00
 Coeff-Com: -0.431D-04-0.101D-02-0.279D-02-0.908D-04 0.278D-01 0.170D+00
 Coeff-Com:  0.322D+00 0.484D+00
 Coeff:     -0.431D-04-0.101D-02-0.279D-02-0.908D-04 0.278D-01 0.170D+00
 Coeff:      0.322D+00 0.484D+00
 Gap=     0.225 Goal=   None    Shift=    0.000
 RMSDP=5.91D-09 MaxDP=2.73D-07 DE= 8.19D-12 OVMax= 4.99D-07

 SCF Done:  E(RB3LYP) =  -1638.82793457     A.U. after   16 cycles
            NFock= 16  Conv=0.59D-08     -V/T= 2.0066
 KE= 1.628045558790D+03 PE=-7.948187221203D+03 EE= 2.632460742550D+03
 Leave Link  502 at Sat Aug  8 02:42:15 2020, MaxMem=    33554432 cpu:       398.9
 (Enter /prod/apps/gaussian/g09d1/l601.exe)
 Copying SCF densities to generalized density rwf, IOpCl= 0 IROHF=0.

 **********************************************************************

            Population analysis using the SCF density.

 **********************************************************************

 Orbital symmetries:
       Occupied  (A) (A) (A) (A) (A) (A) (A) (A) (A) (A) (A) (A)
                 (A) (A) (A) (A) (A) (A) (A) (A) (A) (A) (A) (A)
                 (A) (A) (A) (A) (A) (A) (A) (A) (A) (A) (A) (A)
                 (A) (A) (A) (A) (A) (A) (A) (A) (A) (A) (A) (A)
                 (A) (A) (A) (A) (A) (A) (A) (A) (A) (A) (A) (A)
                 (A) (A) (A) (A) (A) (A) (A) (A) (A) (A) (A) (A)
                 (A) (A) (A) (A) (A) (A) (A) (A) (A) (A) (A) (A)
       Virtual   (A) (A) (A) (A) (A) (A) (A) (A) (A) (A) (A) (A)
                 (A) (A) (A) (A) (A) (A) (A) (A) (A) (A) (A) (A)
                 (A) (A) (A) (A) (A) (A) (A) (A) (A) (A) (A) (A)
                 (A) (A) (A) (A) (A) (A) (A) (A) (A) (A) (A) (A)
                 (A) (A) (A) (A) (A) (A) (A) (A) (A) (A) (A) (A)
                 (A) (A) (A) (A) (A) (A) (A) (A) (A) (A) (A) (A)
                 (A) (A) (A) (A) (A) (A) (A) (A) (A) (A) (A) (A)
                 (A) (A) (A) (A) (A) (A) (A) (A) (A) (A) (A) (A)
                 (A) (A) (A) (A) (A) (A) (A) (A) (A) (A) (A) (A)
                 (A) (A) (A) (A) (A) (A) (A) (A) (A) (A) (A) (A)
                 (A) (A) (A) (A) (A) (A) (A) (A) (A) (A) (A) (A)
                 (A) (A) (A) (A) (A) (A) (A) (A) (A) (A) (A) (A)
                 (A) (A) (A) (A) (A) (A) (A) (A) (A) (A) (A) (A)
                 (A) (A) (A) (A) (A) (A) (A) (A) (A) (A) (A) (A)
                 (A) (A) (A) (A) (A) (A) (A) (A) (A) (A) (A) (A)
                 (A) (A) (A) (A) (A) (A) (A) (A) (A) (A) (A) (A)
                 (A) (A) (A) (A) (A) (A) (A) (A) (A) (A) (A) (A)
                 (A) (A) (A) (A) (A) (A) (A) (A) (A) (A) (A) (A)
                 (A) (A) (A) (A) (A) (A) (A) (A) (A) (A) (A) (A)
                 (A) (A) (A) (A) (A) (A) (A) (A) (A) (A) (A) (A)
                 (A) (A) (A) (A) (A) (A) (A) (A) (A) (A) (A) (A)
                 (A) (A) (A) (A) (A) (A) (A) (A) (A) (A) (A) (A)
 The electronic state is 1-A.
 Alpha  occ. eigenvalues --  -89.12970 -88.98849 -19.14707 -19.14255 -19.11532
 Alpha  occ. eigenvalues --  -14.37839 -14.37472 -10.26829 -10.23100 -10.22925
 Alpha  occ. eigenvalues --  -10.22613 -10.22172 -10.19581 -10.19542 -10.19172
 Alpha  occ. eigenvalues --  -10.18922 -10.18847 -10.18696 -10.18581 -10.18458
 Alpha  occ. eigenvalues --   -8.15196  -8.03656  -6.11681  -6.11614  -6.11594
 Alpha  occ. eigenvalues --   -6.00055  -5.99895  -5.99437  -1.12134  -1.00401
 Alpha  occ. eigenvalues --   -1.00328  -0.94539  -0.93661  -0.85395  -0.84775
 Alpha  occ. eigenvalues --   -0.78897  -0.74142  -0.73628  -0.73436  -0.71303
 Alpha  occ. eigenvalues --   -0.70920  -0.67488  -0.63201  -0.60505  -0.60333
 Alpha  occ. eigenvalues --   -0.58058  -0.56344  -0.54601  -0.52385  -0.51095
 Alpha  occ. eigenvalues --   -0.50634  -0.49293  -0.48463  -0.47475  -0.46137
 Alpha  occ. eigenvalues --   -0.45437  -0.44587  -0.44094  -0.43505  -0.43084
 Alpha  occ. eigenvalues --   -0.42366  -0.41905  -0.41795  -0.40839  -0.39992
 Alpha  occ. eigenvalues --   -0.39534  -0.39338  -0.38220  -0.37791  -0.35951
 Alpha  occ. eigenvalues --   -0.35370  -0.35086  -0.34265  -0.33616  -0.33354
 Alpha  occ. eigenvalues --   -0.32191  -0.31628  -0.30227  -0.28890  -0.26327
 Alpha  occ. eigenvalues --   -0.25995  -0.24703  -0.23986  -0.22845
 Alpha virt. eigenvalues --   -0.00322  -0.00055   0.00101   0.02958   0.04466
 Alpha virt. eigenvalues --    0.05687   0.06836   0.08418   0.08645   0.09310
 Alpha virt. eigenvalues --    0.10057   0.10313   0.11092   0.11357   0.11738
 Alpha virt. eigenvalues --    0.12713   0.13400   0.14306   0.14539   0.15588
 Alpha virt. eigenvalues --    0.15972   0.16052   0.17111   0.17324   0.17623
 Alpha virt. eigenvalues --    0.18438   0.18624   0.19571   0.19660   0.19973
 Alpha virt. eigenvalues --    0.20881   0.21368   0.21688   0.23373   0.23745
 Alpha virt. eigenvalues --    0.25653   0.27711   0.29544   0.30766   0.32635
 Alpha virt. eigenvalues --    0.32805   0.33828   0.34223   0.35633   0.36089
 Alpha virt. eigenvalues --    0.37787   0.41159   0.42602   0.43982   0.46231
 Alpha virt. eigenvalues --    0.47529   0.48638   0.49059   0.49598   0.51861
 Alpha virt. eigenvalues --    0.53517   0.53749   0.53985   0.55060   0.55528
 Alpha virt. eigenvalues --    0.57061   0.57475   0.57929   0.58512   0.59243
 Alpha virt. eigenvalues --    0.59938   0.60281   0.60875   0.61276   0.61924
 Alpha virt. eigenvalues --    0.62146   0.62908   0.63085   0.64691   0.66236
 Alpha virt. eigenvalues --    0.66859   0.67824   0.68647   0.71042   0.71901
 Alpha virt. eigenvalues --    0.72293   0.73116   0.75528   0.76346   0.76860
 Alpha virt. eigenvalues --    0.78671   0.79436   0.81014   0.81197   0.81978
 Alpha virt. eigenvalues --    0.82485   0.83417   0.83608   0.84097   0.84287
 Alpha virt. eigenvalues --    0.85147   0.85864   0.86706   0.86796   0.87370
 Alpha virt. eigenvalues --    0.88335   0.88666   0.89844   0.90222   0.90477
 Alpha virt. eigenvalues --    0.91791   0.92500   0.92771   0.93573   0.94030
 Alpha virt. eigenvalues --    0.94729   0.95483   0.96673   0.97064   0.99060
 Alpha virt. eigenvalues --    1.00479   1.00858   1.01138   1.02356   1.03630
 Alpha virt. eigenvalues --    1.05113   1.06088   1.07358   1.08798   1.10858
 Alpha virt. eigenvalues --    1.11310   1.11671   1.12525   1.13352   1.14369
 Alpha virt. eigenvalues --    1.15438   1.15989   1.16598   1.17861   1.18788
 Alpha virt. eigenvalues --    1.20096   1.22464   1.23015   1.24431   1.26052
 Alpha virt. eigenvalues --    1.29283   1.32594   1.32798   1.36465   1.37191
 Alpha virt. eigenvalues --    1.41593   1.43564   1.44195   1.44568   1.45175
 Alpha virt. eigenvalues --    1.46464   1.48388   1.49465   1.49909   1.51124
 Alpha virt. eigenvalues --    1.51813   1.56370   1.59086   1.61937   1.66255
 Alpha virt. eigenvalues --    1.70195   1.70396   1.73891   1.74313   1.75906
 Alpha virt. eigenvalues --    1.77067   1.78688   1.80036   1.80597   1.81762
 Alpha virt. eigenvalues --    1.81858   1.82550   1.84673   1.85894   1.87243
 Alpha virt. eigenvalues --    1.87697   1.88739   1.89667   1.90463   1.91713
 Alpha virt. eigenvalues --    1.92054   1.92345   1.93860   1.94190   1.96247
 Alpha virt. eigenvalues --    1.98002   1.98301   1.98991   2.00362   2.00820
 Alpha virt. eigenvalues --    2.03108   2.04319   2.05725   2.07271   2.07890
 Alpha virt. eigenvalues --    2.09578   2.10028   2.11516   2.12763   2.13599
 Alpha virt. eigenvalues --    2.14293   2.14901   2.16248   2.16649   2.19533
 Alpha virt. eigenvalues --    2.20226   2.21411   2.24023   2.25036   2.26457
 Alpha virt. eigenvalues --    2.26928   2.29152   2.31282   2.31980   2.32357
 Alpha virt. eigenvalues --    2.33996   2.36364   2.38040   2.41684   2.42176
 Alpha virt. eigenvalues --    2.42879   2.47226   2.48545   2.52198   2.54735
 Alpha virt. eigenvalues --    2.58304   2.58712   2.59144   2.65485   2.70136
 Alpha virt. eigenvalues --    2.71413   2.72530   2.73138   2.73325   2.74064
 Alpha virt. eigenvalues --    2.75717   2.76430   2.77818   2.79104   2.83590
 Alpha virt. eigenvalues --    2.86263   2.89471   3.05664   3.41045   3.75621
 Alpha virt. eigenvalues --    3.83237   3.93107   3.96106   4.03813   4.04286
 Alpha virt. eigenvalues --    4.07453   4.10889   4.13036   4.15795   4.21119
 Alpha virt. eigenvalues --    4.26423   4.29519   4.30781   4.32947   4.34671
 Alpha virt. eigenvalues --    4.42349   4.53603   4.68788   4.73360
          Condensed to atoms (all electrons):
               1          2          3          4          5          6
     1  O    8.278382   0.410262  -0.051204   0.006686   0.000218   0.000362
     2  S    0.410262  13.553817   0.113136  -0.010258   0.000338   0.000724
     3  N   -0.051204   0.113136   7.433946   0.240339  -0.049288   0.003690
     4  C    0.006686  -0.010258   0.240339   4.821865   0.310295  -0.059449
     5  C    0.000218   0.000338  -0.049288   0.310295   5.744449   0.032723
     6  S    0.000362   0.000724   0.003690  -0.059449   0.032723  14.961386
     7  O    0.000000  -0.000001  -0.000048  -0.000676  -0.038801   0.299153
     8  C    0.004795  -0.003480  -0.043942   0.324826  -0.106079   0.053373
     9  C   -0.006287  -0.001654  -0.070232   0.376230  -0.068553   0.008978
    10  C    0.000129  -0.000508  -0.001356  -0.029736  -0.009001  -0.000554
    11  C   -0.000084   0.000989   0.000914  -0.004072  -0.000475  -0.000008
    12  C   -0.000041   0.001739  -0.000253  -0.000453  -0.000003   0.000003
    13  C   -0.000003   0.000238   0.000012  -0.000007   0.000000   0.000000
    14  C    0.000000   0.000056   0.000027   0.000001   0.000000   0.000000
    15  C    0.000000  -0.000066  -0.000187  -0.000011   0.000002   0.000000
    16  C    0.000000   0.000076  -0.002189   0.000991   0.000039  -0.000002
    17  N   -0.052672   0.162269  -0.058127   0.000277  -0.000101  -0.000025
    18  C    0.001666  -0.010503  -0.001692   0.000125  -0.000008  -0.000002
    19  C   -0.004137  -0.009161  -0.002005  -0.000136   0.000027  -0.000040
    20  O   -0.040818   0.454743  -0.053834  -0.000066  -0.000072   0.000003
    21  H    0.001438  -0.010513   0.284915  -0.024735  -0.004394   0.000085
    22  H    0.000000  -0.000043   0.001119  -0.026345   0.348937  -0.017113
    23  H    0.000002   0.000009   0.000778  -0.029385   0.315487  -0.002260
    24  H    0.000911   0.000236   0.001063  -0.026520   0.009753  -0.020446
    25  H   -0.001531  -0.001116  -0.002298  -0.026802   0.004038  -0.007876
    26  H   -0.000016   0.000015   0.004135  -0.031718  -0.005787   0.004412
    27  H    0.007346   0.002931  -0.004955  -0.027930   0.005702  -0.000340
    28  H   -0.000002  -0.000012  -0.000266  -0.008287   0.002890  -0.000038
    29  H   -0.000001   0.000020  -0.000049   0.004465   0.000238   0.000026
    30  H   -0.000012   0.000052  -0.000003   0.000079   0.000000   0.000000
    31  H    0.000000   0.000002   0.000000   0.000000   0.000000   0.000000
    32  H    0.000000   0.000001   0.000000   0.000000   0.000000   0.000000
    33  H    0.000000   0.000001  -0.000002   0.000001   0.000000   0.000000
    34  H    0.000000  -0.000017  -0.000196  -0.000059   0.000179   0.000005
    35  H    0.000045   0.001272  -0.000670  -0.000002   0.000001   0.000000
    36  H   -0.000052   0.002543  -0.000066   0.000002   0.000000   0.000000
    37  H   -0.000036  -0.010707   0.009272  -0.000042  -0.000004   0.000005
    38  H    0.010285  -0.001628  -0.000468  -0.000012   0.000004  -0.000002
    39  H   -0.000292  -0.011752   0.008641   0.000074   0.000000   0.000125
    40  H    0.000150   0.002803  -0.000118  -0.000010  -0.000001   0.000000
               7          8          9         10         11         12
     1  O    0.000000   0.004795  -0.006287   0.000129  -0.000084  -0.000041
     2  S   -0.000001  -0.003480  -0.001654  -0.000508   0.000989   0.001739
     3  N   -0.000048  -0.043942  -0.070232  -0.001356   0.000914  -0.000253
     4  C   -0.000676   0.324826   0.376230  -0.029736  -0.004072  -0.000453
     5  C   -0.038801  -0.106079  -0.068553  -0.009001  -0.000475  -0.000003
     6  S    0.299153   0.053373   0.008978  -0.000554  -0.000008   0.000003
     7  O    8.374586  -0.038505  -0.007758  -0.000046  -0.000003   0.000000
     8  C   -0.038505   5.652223  -0.053768   0.004413   0.000015  -0.000002
     9  C   -0.007758  -0.053768   5.210213   0.328435  -0.034751  -0.004439
    10  C   -0.000046   0.004413   0.328435   5.194972   0.346784  -0.061649
    11  C   -0.000003   0.000015  -0.034751   0.346784   4.643909   0.546171
    12  C    0.000000  -0.000002  -0.004439  -0.061649   0.546171   4.946838
    13  C    0.000000   0.000000   0.000092   0.006049  -0.016231   0.529570
    14  C    0.000000   0.000000   0.000007   0.000364  -0.034304  -0.033853
    15  C    0.000000   0.000000  -0.000144   0.007124  -0.022201  -0.046681
    16  C    0.000000  -0.000009  -0.000498  -0.053135   0.543560  -0.039573
    17  N    0.000000   0.000694  -0.000122   0.000001  -0.000001   0.000001
    18  C    0.000000  -0.000013   0.000002   0.000000   0.000000   0.000000
    19  C    0.000000  -0.001885  -0.000015   0.000000   0.000000   0.000000
    20  O    0.000000  -0.000031   0.000632  -0.000146  -0.000037   0.000579
    21  H    0.000002   0.004356  -0.001722   0.001109   0.003376  -0.000064
    22  H    0.000386   0.010051  -0.006876   0.001813   0.000178   0.000004
    23  H    0.001291   0.002779   0.005559  -0.000036  -0.000005   0.000000
    24  H   -0.000036   0.358746  -0.004116   0.000131  -0.000005  -0.000001
    25  H    0.001333   0.315672   0.004794  -0.000120   0.000001   0.000000
    26  H    0.024833  -0.008302   0.336513  -0.026316   0.003716   0.000143
    27  H    0.000230  -0.004662   0.354427  -0.034507  -0.006803   0.003062
    28  H    0.000100   0.000062  -0.042029   0.358446  -0.038289   0.004645
    29  H   -0.000006  -0.000169  -0.034582   0.363513  -0.030703  -0.005608
    30  H    0.000000   0.000001   0.001006  -0.008740  -0.048041   0.355270
    31  H    0.000000   0.000000   0.000000  -0.000180   0.003631  -0.039002
    32  H    0.000000   0.000000   0.000000   0.000007   0.000761   0.004645
    33  H    0.000000   0.000000   0.000002  -0.000183   0.003831   0.000844
    34  H    0.000000   0.000002   0.000135  -0.011262  -0.047659   0.006445
    35  H    0.000000   0.000001  -0.000001   0.000000   0.000000   0.000000
    36  H    0.000000   0.000001   0.000000   0.000000   0.000000   0.000000
    37  H    0.000000  -0.000054   0.000010   0.000000   0.000001   0.000000
    38  H    0.000000  -0.000143  -0.000003   0.000000   0.000000   0.000000
    39  H    0.000000  -0.002619   0.000038   0.000000   0.000000   0.000000
    40  H    0.000000   0.000098   0.000000   0.000000   0.000000   0.000000
              13         14         15         16         17         18
     1  O   -0.000003   0.000000   0.000000   0.000000  -0.052672   0.001666
     2  S    0.000238   0.000056  -0.000066   0.000076   0.162269  -0.010503
     3  N    0.000012   0.000027  -0.000187  -0.002189  -0.058127  -0.001692
     4  C   -0.000007   0.000001  -0.000011   0.000991   0.000277   0.000125
     5  C    0.000000   0.000000   0.000002   0.000039  -0.000101  -0.000008
     6  S    0.000000   0.000000   0.000000  -0.000002  -0.000025  -0.000002
     7  O    0.000000   0.000000   0.000000   0.000000   0.000000   0.000000
     8  C    0.000000   0.000000   0.000000  -0.000009   0.000694  -0.000013
     9  C    0.000092   0.000007  -0.000144  -0.000498  -0.000122   0.000002
    10  C    0.006049   0.000364   0.007124  -0.053135   0.000001   0.000000
    11  C   -0.016231  -0.034304  -0.022201   0.543560  -0.000001   0.000000
    12  C    0.529570  -0.033853  -0.046681  -0.039573   0.000001   0.000000
    13  C    4.840484   0.548161  -0.025153  -0.046697   0.000000   0.000000
    14  C    0.548161   4.841268   0.555255  -0.035435   0.000000   0.000000
    15  C   -0.025153   0.555255   4.862483   0.517976   0.000000  -0.000002
    16  C   -0.046697  -0.035435   0.517976   5.000745   0.000001  -0.000004
    17  N    0.000000   0.000000   0.000000   0.000001   7.158792   0.281323
    18  C    0.000000   0.000000  -0.000002  -0.000004   0.281323   5.015192
    19  C    0.000000   0.000000   0.000000   0.000000   0.277812  -0.053921
    20  O    0.000295   0.000182   0.000208  -0.000060  -0.056919  -0.006893
    21  H   -0.000165  -0.000055   0.000603   0.011246   0.000820  -0.000244
    22  H    0.000000   0.000000  -0.000001  -0.000067   0.000000   0.000000
    23  H    0.000000   0.000000   0.000000  -0.000012  -0.000070  -0.000015
    24  H    0.000000   0.000000   0.000000   0.000000   0.000011  -0.000001
    25  H    0.000000   0.000000   0.000000   0.000000  -0.000934  -0.000008
    26  H    0.000002   0.000000   0.000002  -0.000092   0.000001   0.000000
    27  H   -0.000101  -0.000001   0.000003   0.000188   0.000007  -0.000001
    28  H   -0.000181  -0.000002   0.000251  -0.004923   0.000000   0.000000
    29  H    0.000039   0.000031  -0.000234   0.002366   0.000000   0.000000
    30  H   -0.043258   0.004779   0.000413   0.006075   0.000000   0.000000
    31  H    0.356710  -0.042924   0.004567   0.000905   0.000000   0.000000
    32  H   -0.042163   0.358564  -0.043632   0.004724   0.000000   0.000000
    33  H    0.004572  -0.042536   0.355225  -0.040849   0.000000   0.000000
    34  H    0.000386   0.004830  -0.046580   0.349522   0.000000   0.000000
    35  H    0.000000   0.000000   0.000004   0.000003  -0.032994   0.376524
    36  H    0.000000   0.000000   0.000000   0.000000  -0.034538   0.375191
    37  H    0.000000   0.000000   0.000000   0.000000  -0.049068   0.362295
    38  H    0.000000   0.000000   0.000000   0.000000  -0.032067   0.004797
    39  H    0.000000   0.000000   0.000000   0.000000  -0.047016  -0.003047
    40  H    0.000000   0.000000   0.000000   0.000000  -0.034128  -0.003950
              19         20         21         22         23         24
     1  O   -0.004137  -0.040818   0.001438   0.000000   0.000002   0.000911
     2  S   -0.009161   0.454743  -0.010513  -0.000043   0.000009   0.000236
     3  N   -0.002005  -0.053834   0.284915   0.001119   0.000778   0.001063
     4  C   -0.000136  -0.000066  -0.024735  -0.026345  -0.029385  -0.026520
     5  C    0.000027  -0.000072  -0.004394   0.348937   0.315487   0.009753
     6  S   -0.000040   0.000003   0.000085  -0.017113  -0.002260  -0.020446
     7  O    0.000000   0.000000   0.000002   0.000386   0.001291  -0.000036
     8  C   -0.001885  -0.000031   0.004356   0.010051   0.002779   0.358746
     9  C   -0.000015   0.000632  -0.001722  -0.006876   0.005559  -0.004116
    10  C    0.000000  -0.000146   0.001109   0.001813  -0.000036   0.000131
    11  C    0.000000  -0.000037   0.003376   0.000178  -0.000005  -0.000005
    12  C    0.000000   0.000579  -0.000064   0.000004   0.000000  -0.000001
    13  C    0.000000   0.000295  -0.000165   0.000000   0.000000   0.000000
    14  C    0.000000   0.000182  -0.000055   0.000000   0.000000   0.000000
    15  C    0.000000   0.000208   0.000603  -0.000001   0.000000   0.000000
    16  C    0.000000  -0.000060   0.011246  -0.000067  -0.000012   0.000000
    17  N    0.277812  -0.056919   0.000820   0.000000  -0.000070   0.000011
    18  C   -0.053921  -0.006893  -0.000244   0.000000  -0.000015  -0.000001
    19  C    5.017834   0.001808   0.000121   0.000000  -0.000033  -0.000009
    20  O    0.001808   8.221298   0.002669   0.000001   0.000001   0.000000
    21  H    0.000121   0.002669   0.370624   0.000577   0.000639  -0.000098
    22  H    0.000000   0.000001   0.000577   0.500552  -0.021358  -0.000351
    23  H   -0.000033   0.000001   0.000639  -0.021358   0.542245  -0.000332
    24  H   -0.000009   0.000000  -0.000098  -0.000351  -0.000332   0.478652
    25  H    0.002405  -0.000005   0.000038  -0.000362   0.000487  -0.018696
    26  H    0.000000  -0.000003   0.000022  -0.000262  -0.000024   0.000217
    27  H    0.000001  -0.000576  -0.000131   0.000125  -0.000129   0.003205
    28  H    0.000000   0.000000   0.000178   0.007639  -0.000242   0.000015
    29  H    0.000000   0.000000   0.000051  -0.000256   0.000004  -0.000012
    30  H    0.000000  -0.000006   0.000001   0.000000   0.000000   0.000000
    31  H    0.000000  -0.000012   0.000000   0.000000   0.000000   0.000000
    32  H    0.000000  -0.000003  -0.000001   0.000000   0.000000   0.000000
    33  H    0.000000  -0.000002   0.000003   0.000000   0.000000   0.000000
    34  H    0.000000  -0.000004   0.001450   0.000180   0.000012   0.000000
    35  H    0.004770   0.010198   0.000115   0.000000  -0.000001   0.000000
    36  H   -0.003825   0.000126  -0.000002   0.000000   0.000000   0.000000
    37  H   -0.003428  -0.000085   0.000065   0.000000   0.000197   0.000000
    38  H    0.378154   0.000020  -0.000012   0.000000  -0.000005   0.000043
    39  H    0.358136  -0.000052  -0.000034  -0.000001   0.000398  -0.000004
    40  H    0.372979  -0.000052   0.000003   0.000000  -0.000001  -0.000001
              25         26         27         28         29         30
     1  O   -0.001531  -0.000016   0.007346  -0.000002  -0.000001  -0.000012
     2  S   -0.001116   0.000015   0.002931  -0.000012   0.000020   0.000052
     3  N   -0.002298   0.004135  -0.004955  -0.000266  -0.000049  -0.000003
     4  C   -0.026802  -0.031718  -0.027930  -0.008287   0.004465   0.000079
     5  C    0.004038  -0.005787   0.005702   0.002890   0.000238   0.000000
     6  S   -0.007876   0.004412  -0.000340  -0.000038   0.000026   0.000000
     7  O    0.001333   0.024833   0.000230   0.000100  -0.000006   0.000000
     8  C    0.315672  -0.008302  -0.004662   0.000062  -0.000169   0.000001
     9  C    0.004794   0.336513   0.354427  -0.042029  -0.034582   0.001006
    10  C   -0.000120  -0.026316  -0.034507   0.358446   0.363513  -0.008740
    11  C    0.000001   0.003716  -0.006803  -0.038289  -0.030703  -0.048041
    12  C    0.000000   0.000143   0.003062   0.004645  -0.005608   0.355270
    13  C    0.000000   0.000002  -0.000101  -0.000181   0.000039  -0.043258
    14  C    0.000000   0.000000  -0.000001  -0.000002   0.000031   0.004779
    15  C    0.000000   0.000002   0.000003   0.000251  -0.000234   0.000413
    16  C    0.000000  -0.000092   0.000188  -0.004923   0.002366   0.006075
    17  N   -0.000934   0.000001   0.000007   0.000000   0.000000   0.000000
    18  C   -0.000008   0.000000  -0.000001   0.000000   0.000000   0.000000
    19  C    0.002405   0.000000   0.000001   0.000000   0.000000   0.000000
    20  O   -0.000005  -0.000003  -0.000576   0.000000   0.000000  -0.000006
    21  H    0.000038   0.000022  -0.000131   0.000178   0.000051   0.000001
    22  H   -0.000362  -0.000262   0.000125   0.007639  -0.000256   0.000000
    23  H    0.000487  -0.000024  -0.000129  -0.000242   0.000004   0.000000
    24  H   -0.018696   0.000217   0.003205   0.000015  -0.000012   0.000000
    25  H    0.541464   0.000265  -0.000001  -0.000001   0.000002   0.000000
    26  H    0.000265   0.546074  -0.023526  -0.000387  -0.006187  -0.000121
    27  H   -0.000001  -0.023526   0.541980   0.004824  -0.000781   0.002210
    28  H   -0.000001  -0.000387   0.004824   0.600792  -0.032042   0.000047
    29  H    0.000002  -0.006187  -0.000781  -0.032042   0.571679   0.002900
    30  H    0.000000  -0.000121   0.002210   0.000047   0.002900   0.604679
    31  H    0.000000   0.000000   0.000004   0.000003  -0.000003  -0.005598
    32  H    0.000000   0.000000   0.000000   0.000000   0.000000  -0.000184
    33  H    0.000000   0.000000   0.000000  -0.000009   0.000003   0.000018
    34  H    0.000000  -0.000011   0.000014   0.007604   0.000066  -0.000190
    35  H   -0.000001   0.000000   0.000000   0.000000   0.000000   0.000000
    36  H   -0.000001   0.000000   0.000000   0.000000   0.000000   0.000000
    37  H    0.000044   0.000000   0.000000   0.000000   0.000000   0.000000
    38  H    0.000663   0.000000  -0.000002   0.000000   0.000000   0.000000
    39  H    0.006495  -0.000001   0.000002   0.000000   0.000000   0.000000
    40  H   -0.000085   0.000000   0.000000   0.000000   0.000000   0.000000
              31         32         33         34         35         36
     1  O    0.000000   0.000000   0.000000   0.000000   0.000045  -0.000052
     2  S    0.000002   0.000001   0.000001  -0.000017   0.001272   0.002543
     3  N    0.000000   0.000000  -0.000002  -0.000196  -0.000670  -0.000066
     4  C    0.000000   0.000000   0.000001  -0.000059  -0.000002   0.000002
     5  C    0.000000   0.000000   0.000000   0.000179   0.000001   0.000000
     6  S    0.000000   0.000000   0.000000   0.000005   0.000000   0.000000
     7  O    0.000000   0.000000   0.000000   0.000000   0.000000   0.000000
     8  C    0.000000   0.000000   0.000000   0.000002   0.000001   0.000001
     9  C    0.000000   0.000000   0.000002   0.000135  -0.000001   0.000000
    10  C   -0.000180   0.000007  -0.000183  -0.011262   0.000000   0.000000
    11  C    0.003631   0.000761   0.003831  -0.047659   0.000000   0.000000
    12  C   -0.039002   0.004645   0.000844   0.006445   0.000000   0.000000
    13  C    0.356710  -0.042163   0.004572   0.000386   0.000000   0.000000
    14  C   -0.042924   0.358564  -0.042536   0.004830   0.000000   0.000000
    15  C    0.004567  -0.043632   0.355225  -0.046580   0.000004   0.000000
    16  C    0.000905   0.004724  -0.040849   0.349522   0.000003   0.000000
    17  N    0.000000   0.000000   0.000000   0.000000  -0.032994  -0.034538
    18  C    0.000000   0.000000   0.000000   0.000000   0.376524   0.375191
    19  C    0.000000   0.000000   0.000000   0.000000   0.004770  -0.003825
    20  O   -0.000012  -0.000003  -0.000002  -0.000004   0.010198   0.000126
    21  H    0.000000  -0.000001   0.000003   0.001450   0.000115  -0.000002
    22  H    0.000000   0.000000   0.000000   0.000180   0.000000   0.000000
    23  H    0.000000   0.000000   0.000000   0.000012  -0.000001   0.000000
    24  H    0.000000   0.000000   0.000000   0.000000   0.000000   0.000000
    25  H    0.000000   0.000000   0.000000   0.000000  -0.000001  -0.000001
    26  H    0.000000   0.000000   0.000000  -0.000011   0.000000   0.000000
    27  H    0.000004   0.000000   0.000000   0.000014   0.000000   0.000000
    28  H    0.000003   0.000000  -0.000009   0.007604   0.000000   0.000000
    29  H   -0.000003   0.000000   0.000003   0.000066   0.000000   0.000000
    30  H   -0.005598  -0.000184   0.000018  -0.000190   0.000000   0.000000
    31  H    0.594450  -0.005443  -0.000192   0.000018   0.000000   0.000000
    32  H   -0.005443   0.599029  -0.005595  -0.000187   0.000000   0.000000
    33  H   -0.000192  -0.005595   0.604723  -0.005709   0.000000   0.000000
    34  H    0.000018  -0.000187  -0.005709   0.629867   0.000000   0.000000
    35  H    0.000000   0.000000   0.000000   0.000000   0.486900  -0.020234
    36  H    0.000000   0.000000   0.000000   0.000000  -0.020234   0.545834
    37  H    0.000000   0.000000   0.000000   0.000000  -0.032547  -0.039587
    38  H    0.000000   0.000000   0.000000   0.000000  -0.000190   0.000002
    39  H    0.000000   0.000000   0.000000   0.000000  -0.000215  -0.001502
    40  H    0.000000   0.000000   0.000000   0.000000   0.000003   0.005432
              37         38         39         40
     1  O   -0.000036   0.010285  -0.000292   0.000150
     2  S   -0.010707  -0.001628  -0.011752   0.002803
     3  N    0.009272  -0.000468   0.008641  -0.000118
     4  C   -0.000042  -0.000012   0.000074  -0.000010
     5  C   -0.000004   0.000004   0.000000  -0.000001
     6  S    0.000005  -0.000002   0.000125   0.000000
     7  O    0.000000   0.000000   0.000000   0.000000
     8  C   -0.000054  -0.000143  -0.002619   0.000098
     9  C    0.000010  -0.000003   0.000038   0.000000
    10  C    0.000000   0.000000   0.000000   0.000000
    11  C    0.000001   0.000000   0.000000   0.000000
    12  C    0.000000   0.000000   0.000000   0.000000
    13  C    0.000000   0.000000   0.000000   0.000000
    14  C    0.000000   0.000000   0.000000   0.000000
    15  C    0.000000   0.000000   0.000000   0.000000
    16  C    0.000000   0.000000   0.000000   0.000000
    17  N   -0.049068  -0.032067  -0.047016  -0.034128
    18  C    0.362295   0.004797  -0.003047  -0.003950
    19  C   -0.003428   0.378154   0.358136   0.372979
    20  O   -0.000085   0.000020  -0.000052  -0.000052
    21  H    0.000065  -0.000012  -0.000034   0.000003
    22  H    0.000000   0.000000  -0.000001   0.000000
    23  H    0.000197  -0.000005   0.000398  -0.000001
    24  H    0.000000   0.000043  -0.000004  -0.000001
    25  H    0.000044   0.000663   0.006495  -0.000085
    26  H    0.000000   0.000000  -0.000001   0.000000
    27  H    0.000000  -0.000002   0.000002   0.000000
    28  H    0.000000   0.000000   0.000000   0.000000
    29  H    0.000000   0.000000   0.000000   0.000000
    30  H    0.000000   0.000000   0.000000   0.000000
    31  H    0.000000   0.000000   0.000000   0.000000
    32  H    0.000000   0.000000   0.000000   0.000000
    33  H    0.000000   0.000000   0.000000   0.000000
    34  H    0.000000   0.000000   0.000000   0.000000
    35  H   -0.032547  -0.000190  -0.000215   0.000003
    36  H   -0.039587   0.000002  -0.001502   0.005432
    37  H    0.608815  -0.000219   0.010270  -0.001550
    38  H   -0.000219   0.492342  -0.034923  -0.020663
    39  H    0.010270  -0.034923   0.609211  -0.038325
    40  H   -0.001550  -0.020663  -0.038325   0.545878
 Mulliken charges:
               1
     1  O   -0.565491
     2  S    1.363149
     3  N   -0.758540
     4  C    0.220454
     5  C   -0.492755
     6  S    0.743103
     7  O   -0.616034
     8  C   -0.468447
     9  C   -0.289522
    10  C   -0.375815
    11  C    0.185836
    12  C   -0.168338
    13  C   -0.112650
    14  C   -0.124417
    15  C   -0.119223
    16  C   -0.214873
    17  N   -0.483226
    18  C   -0.336811
    19  C   -0.335453
    20  O   -0.533087
    21  H    0.357662
    22  H    0.201469
    23  H    0.184021
    24  H    0.217643
    25  H    0.182139
    26  H    0.182402
    27  H    0.178183
    28  H    0.139214
    29  H    0.165228
    30  H    0.128622
    31  H    0.133064
    32  H    0.129476
    33  H    0.125854
    34  H    0.111158
    35  H    0.207018
    36  H    0.170677
    37  H    0.146354
    38  H    0.204027
    39  H    0.146392
    40  H    0.171538
 Sum of Mulliken charges =   0.00000
 Mulliken charges with hydrogens summed into heavy atoms:
               1
     1  O   -0.565491
     2  S    1.363149
     3  N   -0.400879
     4  C    0.220454
     5  C   -0.107265
     6  S    0.743103
     7  O   -0.616034
     8  C   -0.068665
     9  C    0.071063
    10  C   -0.071373
    11  C    0.185836
    12  C   -0.039716
    13  C    0.020414
    14  C    0.005060
    15  C    0.006630
    16  C   -0.103714
    17  N   -0.483226
    18  C    0.187239
    19  C    0.186504
    20  O   -0.533087
 Electronic spatial extent (au):  <R**2>=           6554.9613
 Charge=              0.0000 electrons
 Dipole moment (field-independent basis, Debye):
    X=              0.1122    Y=              2.6385    Z=              4.3073  Tot=              5.0525
 Quadrupole moment (field-independent basis, Debye-Ang):
   XX=           -138.1277   YY=           -137.4122   ZZ=           -128.4239
   XY=             16.8086   XZ=              2.4659   YZ=              5.6452
 Traceless Quadrupole moment (field-independent basis, Debye-Ang):
   XX=             -3.4731   YY=             -2.7576   ZZ=              6.2307
   XY=             16.8086   XZ=              2.4659   YZ=              5.6452
 Octapole moment (field-independent basis, Debye-Ang**2):
  XXX=            -36.0578  YYY=             89.3948  ZZZ=              4.6803  XYY=             -6.3239
  XXY=             72.6578  XXZ=              1.1052  XZZ=             -1.5066  YZZ=             -7.3114
  YYZ=             24.9930  XYZ=            -15.8462
 Hexadecapole moment (field-independent basis, Debye-Ang**3):
 XXXX=          -4661.3140 YYYY=          -3110.6135 ZZZZ=           -793.3550 XXXY=             86.6896
 XXXZ=             19.8964 YYYX=            130.1684 YYYZ=             51.5995 ZZZX=              4.1713
 ZZZY=              7.3491 XXYY=          -1512.1783 XXZZ=           -856.9930 YYZZ=           -648.2881
 XXYZ=            -21.4956 YYXZ=             27.9402 ZZXY=            -21.8318
 N-N= 2.048852985288D+03 E-N=-7.948187220309D+03  KE= 1.628045558790D+03
 No NMR shielding tensors so no spin-rotation constants.
 Leave Link  601 at Sat Aug  8 02:42:16 2020, MaxMem=    33554432 cpu:         0.3
 (Enter /prod/apps/gaussian/g09d1/l9999.exe)
 1\1\GINC-PIRINEUS25\SP\RB3LYP\6-31G(d)\C13H20N2O3S2\UBAFAR01\08-Aug-20
 20\0\\#p b3lyp/6-31G(d)\\SM37.n.2.pdb.xyz\\0,1\O,0,4.525,-1.282,-3.924
 \S,0,4.754,-0.743,-2.58\N,0,3.622,-1.436,-1.547\C,0,2.479,-2.241,-2.04
 \C,0,1.885,-3.069,-0.873\S,0,1.714,-4.596,-1.934\O,0,0.356,-4.592,-2.6
 31\C,0,2.901,-3.485,-2.857\C,0,1.381,-1.463,-2.798\C,0,0.558,-0.424,-2
 .007\C,0,1.201,0.926,-1.76\C,0,1.433,1.815,-2.819\C,0,1.995,3.071,-2.5
 91\C,0,2.332,3.466,-1.293\C,0,2.097,2.595,-0.228\C,0,1.533,1.339,-0.46
 3\N,0,6.268,-1.298,-2.096\C,0,6.66,-0.869,-0.743\C,0,6.507,-2.73,-2.34
 \O,0,4.776,0.706,-2.35\H,0,3.357,-0.764,-0.826\H,0,0.939,-2.741,-0.443
 \H,0,2.611,-3.282,-0.086\H,0,2.724,-3.466,-3.932\H,0,3.911,-3.831,-2.6
 37\H,0,0.685,-2.224,-3.165\H,0,1.835,-0.999,-3.68\H,0,0.249,-0.851,-1.
 048\H,0,-0.365,-0.265,-2.576\H,0,1.167,1.524,-3.831\H,0,2.165,3.745,-3
 .425\H,0,2.767,4.444,-1.115\H,0,2.347,2.893,0.785\H,0,1.341,0.669,0.37
 \H,0,6.501,0.203,-0.641\H,0,7.723,-1.082,-0.626\H,0,6.104,-1.402,0.038
 \H,0,6.263,-2.967,-3.374\H,0,5.928,-3.37,-1.662\H,0,7.57,-2.914,-2.174
 \\Version=AM64L-G09RevD.01\State=1-A\HF=-1638.8279346\RMSD=5.912e-09\D
 ipole=1.0896059,-0.1696388,1.6538678\Quadrupole=-0.7675509,-3.2627859,
 4.0303368,-12.8615837,3.1478024,-2.0599537\PG=C01 [X(C13H20N2O3S2)]\\@


 Other things may change us, but we start and end with family.
 -- Anthony Brandt
 Job cpu time:       0 days  0 hours  6 minutes 45.8 seconds.
 File lengths (MBytes):  RWF=     67 Int=      0 D2E=      0 Chk=      5 Scr=      1
 Normal termination of Gaussian 09 at Sat Aug  8 02:42:16 2020.
 Initial command:
 /prod/apps/gaussian/g09d1/l1.exe "/tmp/ubafar01/1449175/Gau-92256.inp" -scrdir="/tmp/ubafar01/1449175/"
 Entering Link 1 = /prod/apps/gaussian/g09d1/l1.exe PID=     94427.
  
 Copyright (c) 1988,1990,1992,1993,1995,1998,2003,2009,2013,
            Gaussian, Inc.  All Rights Reserved.
  
 This is part of the Gaussian(R) 09 program.  It is based on
 the Gaussian(R) 03 system (copyright 2003, Gaussian, Inc.),
 the Gaussian(R) 98 system (copyright 1998, Gaussian, Inc.),
 the Gaussian(R) 94 system (copyright 1995, Gaussian, Inc.),
 the Gaussian 92(TM) system (copyright 1992, Gaussian, Inc.),
 the Gaussian 90(TM) system (copyright 1990, Gaussian, Inc.),
 the Gaussian 88(TM) system (copyright 1988, Gaussian, Inc.),
 the Gaussian 86(TM) system (copyright 1986, Carnegie Mellon
 University), and the Gaussian 82(TM) system (copyright 1983,
 Carnegie Mellon University). Gaussian is a federally registered
 trademark of Gaussian, Inc.
  
 This software contains proprietary and confidential information,
 including trade secrets, belonging to Gaussian, Inc.
  
 This software is provided under written license and may be
 used, copied, transmitted, or stored only in accord with that
 written license.
  
 The following legend is applicable only to US Government
 contracts under FAR:
  
                    RESTRICTED RIGHTS LEGEND
  
 Use, reproduction and disclosure by the US Government is
 subject to restrictions as set forth in subparagraphs (a)
 and (c) of the Commercial Computer Software - Restricted
 Rights clause in FAR 52.227-19.
  
 Gaussian, Inc.
 340 Quinnipiac St., Bldg. 40, Wallingford CT 06492
  
  
 ---------------------------------------------------------------
 Warning -- This program may not be used in any manner that
 competes with the business of Gaussian, Inc. or will provide
 assistance to any competitor of Gaussian, Inc.  The licensee
 of this program is prohibited from giving any competitor of
 Gaussian, Inc. access to this program.  By using this program,
 the user acknowledges that Gaussian, Inc. is engaged in the
 business of creating and licensing software in the field of
 computational chemistry and represents and warrants to the
[...]
    38  H    0.000000  -0.000133  -0.000004   0.000000   0.000000   0.000000
    39  H    0.000000  -0.002328   0.000035   0.000000   0.000000   0.000000
    40  H    0.000000   0.000092   0.000000   0.000000   0.000000   0.000000
              13         14         15         16         17         18
     1  O   -0.000003   0.000000   0.000000   0.000000  -0.053394   0.001555
     2  S    0.000296   0.000066  -0.000078   0.000174   0.183770  -0.013795
     3  N    0.000009   0.000026  -0.000188  -0.001720  -0.061346  -0.001277
     4  C   -0.000007   0.000001  -0.000013   0.000957   0.000348   0.000122
     5  C    0.000000   0.000000   0.000002   0.000054  -0.000107  -0.000006
     6  S    0.000000   0.000000   0.000000  -0.000002  -0.000023  -0.000001
     7  O    0.000000   0.000000   0.000000   0.000000   0.000000   0.000000
     8  C    0.000000   0.000000   0.000000  -0.000008   0.000640  -0.000016
     9  C    0.000082   0.000008  -0.000155  -0.000350  -0.000126   0.000002
    10  C    0.006046   0.000324   0.007078  -0.053191   0.000001   0.000000
    11  C   -0.018741  -0.034116  -0.023924   0.542930  -0.000002   0.000000
    12  C    0.525178  -0.036720  -0.046545  -0.040369   0.000001   0.000000
    13  C    4.880464   0.543420  -0.028301  -0.046694   0.000000   0.000000
    14  C    0.543420   4.879416   0.549661  -0.037653   0.000000   0.000000
    15  C   -0.028301   0.549661   4.890421   0.514069   0.000000  -0.000002
    16  C   -0.046694  -0.037653   0.514069   5.006592   0.000001  -0.000005
    17  N    0.000000   0.000000   0.000000   0.000001   7.181713   0.272630
    18  C    0.000000   0.000000  -0.000002  -0.000005   0.272630   5.013117
    19  C    0.000000   0.000000   0.000000   0.000000   0.268480  -0.051795
    20  O    0.000324   0.000202   0.000208  -0.000041  -0.058233  -0.007006
    21  H   -0.000145  -0.000045   0.000550   0.009664   0.000660  -0.000255
    22  H    0.000000   0.000000   0.000000  -0.000055   0.000001   0.000000
    23  H    0.000000   0.000000   0.000000  -0.000010  -0.000065  -0.000008
    24  H    0.000000   0.000000   0.000000   0.000000   0.000011   0.000000
    25  H    0.000000   0.000000   0.000000   0.000000  -0.000956  -0.000010
    26  H    0.000003   0.000000   0.000002  -0.000096   0.000001   0.000000
    27  H   -0.000111  -0.000001   0.000004   0.000197   0.000006  -0.000001
    28  H   -0.000176  -0.000003   0.000267  -0.004262   0.000000   0.000000
    29  H    0.000040   0.000031  -0.000235   0.002349   0.000000   0.000000
    30  H   -0.043805   0.004729   0.000313   0.005998   0.000000   0.000000
    31  H    0.359955  -0.042505   0.004512   0.000790   0.000000   0.000000
    32  H   -0.042162   0.362211  -0.042533   0.004645   0.000000   0.000000
    33  H    0.004491  -0.042381   0.359605  -0.038620   0.000000   0.000000
    34  H    0.000326   0.004658  -0.043886   0.356383   0.000000   0.000000
    35  H    0.000000   0.000000   0.000004   0.000003  -0.034777   0.375026
    36  H    0.000000   0.000000   0.000000   0.000000  -0.033279   0.378037
    37  H    0.000000   0.000000   0.000000   0.000000  -0.047351   0.370270
    38  H    0.000000   0.000000   0.000000   0.000000  -0.033463   0.004681
    39  H    0.000000   0.000000   0.000000   0.000000  -0.046010  -0.002300
    40  H    0.000000   0.000000   0.000000   0.000000  -0.032657  -0.003861
              19         20         21         22         23         24
     1  O   -0.004327  -0.039709   0.001270   0.000000   0.000002   0.000952
     2  S   -0.012678   0.452663  -0.009715  -0.000049  -0.000041   0.000305
     3  N   -0.001494  -0.054723   0.288523   0.000932   0.000285   0.001112
     4  C   -0.000160   0.000037  -0.022638  -0.027646  -0.027912  -0.028474
     5  C    0.000024  -0.000072  -0.004423   0.351180   0.326989   0.009548
     6  S   -0.000030   0.000004  -0.000005  -0.017450  -0.004957  -0.019754
     7  O    0.000000   0.000000   0.000002   0.000346   0.001212  -0.000048
     8  C   -0.001945  -0.000038   0.004029   0.009471   0.002595   0.356600
     9  C   -0.000011   0.000598  -0.001379  -0.006169   0.005161  -0.004292
    10  C    0.000000  -0.000137   0.000975   0.001801  -0.000035   0.000128
    11  C    0.000000  -0.000111   0.003195   0.000170  -0.000005  -0.000006
    12  C    0.000000   0.000571  -0.000055   0.000003   0.000000  -0.000001
    13  C    0.000000   0.000324  -0.000145   0.000000   0.000000   0.000000
    14  C    0.000000   0.000202  -0.000045   0.000000   0.000000   0.000000
    15  C    0.000000   0.000208   0.000550   0.000000   0.000000   0.000000
    16  C    0.000000  -0.000041   0.009664  -0.000055  -0.000010   0.000000
    17  N    0.268480  -0.058233   0.000660   0.000001  -0.000065   0.000011
    18  C   -0.051795  -0.007006  -0.000255   0.000000  -0.000008   0.000000
    19  C    5.022785   0.001684   0.000116   0.000000  -0.000018  -0.000013
    20  O    0.001684   8.257761   0.002037   0.000001   0.000001   0.000000
    21  H    0.000116   0.002037   0.336196   0.000520   0.000497  -0.000090
    22  H    0.000000   0.000001   0.000520   0.480776  -0.017192  -0.000352
    23  H   -0.000018   0.000001   0.000497  -0.017192   0.496058  -0.000304
    24  H   -0.000013   0.000000  -0.000090  -0.000352  -0.000304   0.481323
    25  H    0.002978  -0.000004   0.000031  -0.000311   0.000413  -0.017191
    26  H    0.000000  -0.000003   0.000017  -0.000274  -0.000036   0.000294
    27  H    0.000001  -0.000575  -0.000134   0.000122  -0.000121   0.003296
    28  H    0.000000   0.000000   0.000150   0.007166  -0.000207   0.000014
    29  H    0.000000   0.000000   0.000039  -0.000235   0.000003  -0.000012
    30  H    0.000000  -0.000007   0.000001   0.000000   0.000000   0.000000
    31  H    0.000000  -0.000012   0.000000   0.000000   0.000000   0.000000
    32  H    0.000000  -0.000003  -0.000001   0.000000   0.000000   0.000000
    33  H    0.000000  -0.000002   0.000004   0.000000   0.000000   0.000000
    34  H    0.000000  -0.000004   0.001126   0.000145   0.000009   0.000000
    35  H    0.004693   0.009720   0.000088   0.000000  -0.000001   0.000000
    36  H   -0.003724   0.000111  -0.000003   0.000000   0.000000   0.000000
    37  H   -0.002507  -0.000119   0.000075   0.000000   0.000165   0.000000
    38  H    0.376877   0.000023  -0.000010   0.000000  -0.000004   0.000043
    39  H    0.366359  -0.000054  -0.000016  -0.000001   0.000335  -0.000004
    40  H    0.375892  -0.000050   0.000002   0.000000  -0.000001  -0.000001
              25         26         27         28         29         30
     1  O   -0.001480  -0.000017   0.007073  -0.000002  -0.000001  -0.000012
     2  S   -0.000583   0.000050   0.003593  -0.000001   0.000022   0.000062
     3  N   -0.002034   0.004287  -0.005174  -0.000262  -0.000046  -0.000003
     4  C   -0.026825  -0.032103  -0.029828  -0.008047   0.004421   0.000076
     5  C    0.003446  -0.005663   0.005673   0.003232   0.000217   0.000000
     6  S   -0.008629   0.003813  -0.000501  -0.000119   0.000025   0.000000
     7  O    0.001242   0.024997   0.000231   0.000093  -0.000008   0.000000
     8  C    0.325174  -0.008546  -0.004572   0.000073  -0.000165   0.000001
     9  C    0.004588   0.334869   0.354198  -0.040662  -0.033343   0.000970
    10  C   -0.000113  -0.026934  -0.034790   0.362708   0.363762  -0.008450
    11  C    0.000001   0.003717  -0.006871  -0.037420  -0.030524  -0.046317
    12  C    0.000000   0.000147   0.003230   0.004545  -0.005573   0.358447
    13  C    0.000000   0.000003  -0.000111  -0.000176   0.000040  -0.043805
    14  C    0.000000   0.000000  -0.000001  -0.000003   0.000031   0.004729
    15  C    0.000000   0.000002   0.000004   0.000267  -0.000235   0.000313
    16  C    0.000000  -0.000096   0.000197  -0.004262   0.002349   0.005998
    17  N   -0.000956   0.000001   0.000006   0.000000   0.000000   0.000000
    18  C   -0.000010   0.000000  -0.000001   0.000000   0.000000   0.000000
    19  C    0.002978   0.000000   0.000001   0.000000   0.000000   0.000000
    20  O   -0.000004  -0.000003  -0.000575   0.000000   0.000000  -0.000007
    21  H    0.000031   0.000017  -0.000134   0.000150   0.000039   0.000001
    22  H   -0.000311  -0.000274   0.000122   0.007166  -0.000235   0.000000
    23  H    0.000413  -0.000036  -0.000121  -0.000207   0.000003   0.000000
    24  H   -0.017191   0.000294   0.003296   0.000014  -0.000012   0.000000
    25  H    0.504778   0.000236  -0.000016  -0.000001   0.000002   0.000000
    26  H    0.000236   0.566445  -0.024265  -0.000357  -0.006579  -0.000124
    27  H   -0.000016  -0.024265   0.554014   0.004749  -0.000816   0.002169
    28  H   -0.000001  -0.000357   0.004749   0.575203  -0.031093   0.000043
    29  H    0.000002  -0.006579  -0.000816  -0.031093   0.564580   0.002771
    30  H    0.000000  -0.000124   0.002169   0.000043   0.002771   0.586096
    31  H    0.000000   0.000000   0.000005   0.000003  -0.000003  -0.005306
    32  H    0.000000   0.000000   0.000000   0.000000   0.000000  -0.000171
    33  H    0.000000   0.000000   0.000000  -0.000008   0.000003   0.000017
    34  H    0.000000  -0.000012   0.000013   0.006821   0.000074  -0.000172
    35  H   -0.000001   0.000000   0.000000   0.000000   0.000000   0.000000
    36  H   -0.000001   0.000000   0.000000   0.000000   0.000000   0.000000
    37  H    0.000037   0.000000   0.000000   0.000000   0.000000   0.000000
    38  H    0.000551   0.000000  -0.000002   0.000000   0.000000   0.000000
    39  H    0.006051  -0.000001   0.000002   0.000000   0.000000   0.000000
    40  H   -0.000073   0.000000   0.000000   0.000000   0.000000   0.000000
              31         32         33         34         35         36
     1  O    0.000000   0.000000   0.000000   0.000000   0.000048  -0.000050
     2  S    0.000003   0.000001   0.000001  -0.000008   0.001052   0.002367
     3  N    0.000000   0.000000  -0.000002  -0.000143  -0.000733  -0.000066
     4  C    0.000000   0.000000   0.000001  -0.000041  -0.000004   0.000002
     5  C    0.000000   0.000000   0.000000   0.000143   0.000001   0.000000
     6  S    0.000000   0.000000   0.000000   0.000003   0.000000   0.000000
     7  O    0.000000   0.000000   0.000000   0.000000   0.000000   0.000000
     8  C    0.000000   0.000000   0.000000   0.000002   0.000001   0.000000
     9  C    0.000000   0.000000   0.000001   0.000156  -0.000001   0.000000
    10  C   -0.000173   0.000007  -0.000173  -0.010350   0.000000   0.000000
    11  C    0.003588   0.000663   0.003692  -0.044794   0.000000   0.000000
    12  C   -0.039105   0.004585   0.000763   0.006175   0.000000   0.000000
    13  C    0.359955  -0.042162   0.004491   0.000326   0.000000   0.000000
    14  C   -0.042505   0.362211  -0.042381   0.004658   0.000000   0.000000
    15  C    0.004512  -0.042533   0.359605  -0.043886   0.000004   0.000000
    16  C    0.000790   0.004645  -0.038620   0.356383   0.000003   0.000000
    17  N    0.000000   0.000000   0.000000   0.000000  -0.034777  -0.033279
    18  C    0.000000   0.000000   0.000000   0.000000   0.375026   0.378037
    19  C    0.000000   0.000000   0.000000   0.000000   0.004693  -0.003724
    20  O   -0.000012  -0.000003  -0.000002  -0.000004   0.009720   0.000111
    21  H    0.000000  -0.000001   0.000004   0.001126   0.000088  -0.000003
    22  H    0.000000   0.000000   0.000000   0.000145   0.000000   0.000000
    23  H    0.000000   0.000000   0.000000   0.000009  -0.000001   0.000000
    24  H    0.000000   0.000000   0.000000   0.000000   0.000000   0.000000
    25  H    0.000000   0.000000   0.000000   0.000000  -0.000001  -0.000001
    26  H    0.000000   0.000000   0.000000  -0.000012   0.000000   0.000000
    27  H    0.000005   0.000000   0.000000   0.000013   0.000000   0.000000
    28  H    0.000003   0.000000  -0.000008   0.006821   0.000000   0.000000
    29  H   -0.000003   0.000000   0.000003   0.000074   0.000000   0.000000
    30  H   -0.005306  -0.000171   0.000017  -0.000172   0.000000   0.000000
    31  H    0.576971  -0.005171  -0.000178   0.000017   0.000000   0.000000
    32  H   -0.005171   0.577416  -0.005246  -0.000170   0.000000   0.000000
    33  H   -0.000178  -0.005246   0.576299  -0.005204   0.000000   0.000000
    34  H    0.000017  -0.000170  -0.005204   0.586143   0.000000   0.000000
    35  H    0.000000   0.000000   0.000000   0.000000   0.506786  -0.021024
    36  H    0.000000   0.000000   0.000000   0.000000  -0.021024   0.519799
    37  H    0.000000   0.000000   0.000000   0.000000  -0.031426  -0.035099
    38  H    0.000000   0.000000   0.000000   0.000000  -0.000202   0.000012
    39  H    0.000000   0.000000   0.000000   0.000000  -0.000187  -0.001359
    40  H    0.000000   0.000000   0.000000   0.000000   0.000013   0.004949
              37         38         39         40
     1  O   -0.000040   0.009686  -0.000327   0.000136
     2  S   -0.009689  -0.001873  -0.010390   0.002657
     3  N    0.008657  -0.000532   0.008126  -0.000112
     4  C   -0.000031  -0.000001  -0.000001  -0.000009
     5  C    0.000003   0.000004   0.000030  -0.000001
     6  S    0.000005  -0.000004   0.000100   0.000000
     7  O    0.000000   0.000000   0.000000   0.000000
     8  C   -0.000049  -0.000133  -0.002328   0.000092
     9  C    0.000009  -0.000004   0.000035   0.000000
    10  C    0.000000   0.000000   0.000000   0.000000
    11  C    0.000001   0.000000   0.000000   0.000000
    12  C    0.000000   0.000000   0.000000   0.000000
    13  C    0.000000   0.000000   0.000000   0.000000
    14  C    0.000000   0.000000   0.000000   0.000000
    15  C    0.000000   0.000000   0.000000   0.000000
    16  C    0.000000   0.000000   0.000000   0.000000
    17  N   -0.047351  -0.033463  -0.046010  -0.032657
    18  C    0.370270   0.004681  -0.002300  -0.003861
    19  C   -0.002507   0.376877   0.366359   0.375892
    20  O   -0.000119   0.000023  -0.000054  -0.000050
    21  H    0.000075  -0.000010  -0.000016   0.000002
    22  H    0.000000   0.000000  -0.000001   0.000000
    23  H    0.000165  -0.000004   0.000335  -0.000001
    24  H    0.000000   0.000043  -0.000004  -0.000001
    25  H    0.000037   0.000551   0.006051  -0.000073
    26  H    0.000000   0.000000  -0.000001   0.000000
    27  H    0.000000  -0.000002   0.000002   0.000000
    28  H    0.000000   0.000000   0.000000   0.000000
    29  H    0.000000   0.000000   0.000000   0.000000
    30  H    0.000000   0.000000   0.000000   0.000000
    31  H    0.000000   0.000000   0.000000   0.000000
    32  H    0.000000   0.000000   0.000000   0.000000
    33  H    0.000000   0.000000   0.000000   0.000000
    34  H    0.000000   0.000000   0.000000   0.000000
    35  H   -0.031426  -0.000202  -0.000187   0.000013
    36  H   -0.035099   0.000012  -0.001359   0.004949
    37  H    0.569573  -0.000188   0.008968  -0.001386
    38  H   -0.000188   0.502059  -0.033428  -0.020763
    39  H    0.008968  -0.033428   0.570347  -0.033659
    40  H   -0.001386  -0.020763  -0.033659   0.517869
 Mulliken charges:
               1
     1  O   -0.592434
     2  S    1.351807
     3  N   -0.754187
     4  C    0.210745
     5  C   -0.486873
     6  S    0.756112
     7  O   -0.685849
     8  C   -0.471917
     9  C   -0.279617
    10  C   -0.377183
    11  C    0.175106
    12  C   -0.188230
    13  C   -0.140488
    14  C   -0.151328
    15  C   -0.140835
    16  C   -0.221729
    17  N   -0.506473
    18  C   -0.335100
    19  C   -0.341191
    20  O   -0.565041
    21  H    0.389148
    22  H    0.217102
    23  H    0.217193
    24  H    0.216914
    25  H    0.208701
    26  H    0.166135
    27  H    0.169200
    28  H    0.157552
    29  H    0.170295
    30  H    0.142673
    31  H    0.146611
    32  H    0.145931
    33  H    0.146939
    34  H    0.142591
    35  H    0.190922
    36  H    0.189330
    37  H    0.170126
    38  H    0.196670
    39  H    0.169711
    40  H    0.190961
 Sum of Mulliken charges =   0.00000
 Mulliken charges with hydrogens summed into heavy atoms:
               1
     1  O   -0.592434
     2  S    1.351807
     3  N   -0.365040
     4  C    0.210745
     5  C   -0.052578
     6  S    0.756112
     7  O   -0.685849
     8  C   -0.046302
     9  C    0.055718
    10  C   -0.049336
    11  C    0.175106
    12  C   -0.045556
    13  C    0.006123
    14  C   -0.005398
    15  C    0.006104
    16  C   -0.079138
    17  N   -0.506473
    18  C    0.215278
    19  C    0.216152
    20  O   -0.565041
 Electronic spatial extent (au):  <R**2>=           6556.2516
 Charge=              0.0000 electrons
 Dipole moment (field-independent basis, Debye):
    X=              0.7569    Y=              3.3753    Z=              6.3900  Tot=              7.2662
 Quadrupole moment (field-independent basis, Debye-Ang):
   XX=           -140.6530   YY=           -138.3388   ZZ=           -126.7073
   XY=             21.6729   XZ=              3.4222   YZ=              6.4358
 Traceless Quadrupole moment (field-independent basis, Debye-Ang):
   XX=             -5.4200   YY=             -3.1058   ZZ=              8.5258
   XY=             21.6729   XZ=              3.4222   YZ=              6.4358
 Octapole moment (field-independent basis, Debye-Ang**2):
  XXX=            -36.7447  YYY=            105.6219  ZZZ=             14.0346  XYY=             -9.5187
  XXY=             88.3703  XXZ=              9.3455  XZZ=             -1.4602  YZZ=             -8.1048
  YYZ=             35.3139  XYZ=            -16.8648
 Hexadecapole moment (field-independent basis, Debye-Ang**3):
 XXXX=          -4698.3388 YYYY=          -3089.5326 ZZZZ=           -779.8236 XXXY=            137.6080
 XXXZ=             24.9911 YYYX=            189.4529 YYYZ=             67.8482 ZZZX=              6.3449
 ZZZY=             11.7199 XXYY=          -1546.3920 XXZZ=           -846.2858 YYZZ=           -639.8858
 XXYZ=            -27.7601 YYXZ=             37.2947 ZZXY=            -17.9243
 N-N= 2.048856148222D+03 E-N=-7.948489256430D+03  KE= 1.628064713812D+03
 No NMR shielding tensors so no spin-rotation constants.
 Leave Link  601 at Sat Aug  8 02:47:15 2020, MaxMem=    33554432 cpu:         0.3
 (Enter /prod/apps/gaussian/g09d1/l9999.exe)
 1\1\GINC-PIRINEUS25\SP\RB3LYP\6-31G(d)\C13H20N2O3S2\UBAFAR01\08-Aug-20
 20\0\\#p b3lyp/6-31G(d) scrf=(iefpcm,read,solvent=Water) geom=allcheck
  guess=read\\SM37.n.2.pdb.xyz\\0,1\O,0,4.525,-1.282,-3.924\S,0,4.754,-
 0.743,-2.58\N,0,3.622,-1.436,-1.547\C,0,2.479,-2.241,-2.04\C,0,1.885,-
 3.069,-0.873\S,0,1.714,-4.596,-1.934\O,0,0.356,-4.592,-2.631\C,0,2.901
 ,-3.485,-2.857\C,0,1.381,-1.463,-2.798\C,0,0.558,-0.424,-2.007\C,0,1.2
 01,0.926,-1.76\C,0,1.433,1.815,-2.819\C,0,1.995,3.071,-2.591\C,0,2.332
 ,3.466,-1.293\C,0,2.097,2.595,-0.228\C,0,1.533,1.339,-0.463\N,0,6.268,
 -1.298,-2.096\C,0,6.66,-0.869,-0.743\C,0,6.507,-2.73,-2.34\O,0,4.776,0
 .706,-2.35\H,0,3.357,-0.764,-0.826\H,0,0.939,-2.741,-0.443\H,0,2.611,-
 3.282,-0.086\H,0,2.724,-3.466,-3.932\H,0,3.911,-3.831,-2.637\H,0,0.685
 ,-2.224,-3.165\H,0,1.835,-0.999,-3.68\H,0,0.249,-0.851,-1.048\H,0,-0.3
 65,-0.265,-2.576\H,0,1.167,1.524,-3.831\H,0,2.165,3.745,-3.425\H,0,2.7
 67,4.444,-1.115\H,0,2.347,2.893,0.785\H,0,1.341,0.669,0.37\H,0,6.501,0
 .203,-0.641\H,0,7.723,-1.082,-0.626\H,0,6.104,-1.402,0.038\H,0,6.263,-
 2.967,-3.374\H,0,5.928,-3.37,-1.662\H,0,7.57,-2.914,-2.174\\Version=AM
 64L-G09RevD.01\State=1-A\HF=-1638.8498957\RMSD=6.581e-09\Dipole=1.4141
 811,-0.491832,2.4352744\Quadrupole=-0.6942492,-4.8525697,5.546819,-16.
 485382,3.4488053,-2.9696771\PG=C01 [X(C13H20N2O3S2)]\\@


 THERE IS NO CURE FOR BIRTH AND DEATH SAVE TO ENJOY THE INTERVAL.

                               -- GEORGE SANTAYANA
 Job cpu time:       0 days  0 hours  4 minutes 59.7 seconds.
 File lengths (MBytes):  RWF=    242 Int=      0 D2E=      0 Chk=      7 Scr=      1
 Normal termination of Gaussian 09 at Sat Aug  8 02:47:15 2020.
