 Entering Gaussian System, Link 0=g09
 Initial command:
 /prod/apps/gaussian/g09d1/l1.exe "/tmp/ubafar01/1449208/Gau-66227.inp" -scrdir="/tmp/ubafar01/1449208/"
 Entering Link 1 = /prod/apps/gaussian/g09d1/l1.exe PID=     66228.
  
 Copyright (c) 1988,1990,1992,1993,1995,1998,2003,2009,2013,
            Gaussian, Inc.  All Rights Reserved.
  
 This is part of the Gaussian(R) 09 program.  It is based on
 the Gaussian(R) 03 system (copyright 2003, Gaussian, Inc.),
 the Gaussian(R) 98 system (copyright 1998, Gaussian, Inc.),
 the Gaussian(R) 94 system (copyright 1995, Gaussian, Inc.),
 the Gaussian 92(TM) system (copyright 1992, Gaussian, Inc.),
 the Gaussian 90(TM) system (copyright 1990, Gaussian, Inc.),
 the Gaussian 88(TM) system (copyright 1988, Gaussian, Inc.),
 the Gaussian 86(TM) system (copyright 1986, Carnegie Mellon
 University), and the Gaussian 82(TM) system (copyright 1983,
 Carnegie Mellon University). Gaussian is a federally registered
 trademark of Gaussian, Inc.
  
 This software contains proprietary and confidential information,
 including trade secrets, belonging to Gaussian, Inc.
  
 This software is provided under written license and may be
 used, copied, transmitted, or stored only in accord with that
 written license.
  
 The following legend is applicable only to US Government
 contracts under FAR:
  
                    RESTRICTED RIGHTS LEGEND
  
 Use, reproduction and disclosure by the US Government is
 subject to restrictions as set forth in subparagraphs (a)
 and (c) of the Commercial Computer Software - Restricted
 Rights clause in FAR 52.227-19.
  
 Gaussian, Inc.
 340 Quinnipiac St., Bldg. 40, Wallingford CT 06492
  
  
 ---------------------------------------------------------------
 Warning -- This program may not be used in any manner that
 competes with the business of Gaussian, Inc. or will provide
 assistance to any competitor of Gaussian, Inc.  The licensee
 of this program is prohibited from giving any competitor of
 Gaussian, Inc. access to this program.  By using this program,
 the user acknowledges that Gaussian, Inc. is engaged in the
 business of creating and licensing software in the field of
 computational chemistry and represents and warrants to the
 licensee that it is not a competitor of Gaussian, Inc. and that
 it will not use this program in any manner prohibited above.
 ---------------------------------------------------------------
  

 Cite this work as:
 Gaussian 09, Revision D.01,
 M. J. Frisch, G. W. Trucks, H. B. Schlegel, G. E. Scuseria, 
 M. A. Robb, J. R. Cheeseman, G. Scalmani, V. Barone, B. Mennucci, 
 G. A. Petersson, H. Nakatsuji, M. Caricato, X. Li, H. P. Hratchian, 
 A. F. Izmaylov, J. Bloino, G. Zheng, J. L. Sonnenberg, M. Hada, 
 M. Ehara, K. Toyota, R. Fukuda, J. Hasegawa, M. Ishida, T. Nakajima, 
 Y. Honda, O. Kitao, H. Nakai, T. Vreven, J. A. Montgomery, Jr., 
 J. E. Peralta, F. Ogliaro, M. Bearpark, J. J. Heyd, E. Brothers, 
 K. N. Kudin, V. N. Staroverov, T. Keith, R. Kobayashi, J. Normand, 
 K. Raghavachari, A. Rendell, J. C. Burant, S. S. Iyengar, J. Tomasi, 
 M. Cossi, N. Rega, J. M. Millam, M. Klene, J. E. Knox, J. B. Cross, 
 V. Bakken, C. Adamo, J. Jaramillo, R. Gomperts, R. E. Stratmann, 
 O. Yazyev, A. J. Austin, R. Cammi, C. Pomelli, J. W. Ochterski, 
 R. L. Martin, K. Morokuma, V. G. Zakrzewski, G. A. Voth, 
 P. Salvador, J. J. Dannenberg, S. Dapprich, A. D. Daniels, 
 O. Farkas, J. B. Foresman, J. V. Ortiz, J. Cioslowski, 
 and D. J. Fox, Gaussian, Inc., Wallingford CT, 2013.
 
 ******************************************
 Gaussian 09:  AM64L-G09RevD.01 24-Apr-2013
                 8-Aug-2020 
 ******************************************
 %nproc=1
 Will use up to    1 processors via shared memory.
 %Chk=SM37.n.6.pdb.xyz.mst.n.o.chk
 -----------------
 #p b3lyp/6-31G(d)
 -----------------
 1/38=1/1;
 2/12=2,17=6,18=5,40=1/2;
 3/5=1,6=6,7=1,11=2,16=1,25=1,30=1,74=-5/1,2,3;
 4//1;
 5/5=2,38=5/2;
 6/7=2,8=2,9=2,10=2,28=1/1;
 99/5=1,9=1/99;
 Leave Link    1 at Sat Aug  8 07:13:34 2020, MaxMem=           0 cpu:         0.0
 (Enter /prod/apps/gaussian/g09d1/l101.exe)
 ----------------
 SM37.n.6.pdb.xyz
 ----------------
 Symbolic Z-matrix:
 Charge =  0 Multiplicity = 1
 O                     4.335     0.24      0.763 
 S                     4.272    -1.166     0.345 
 N                     3.366    -1.162    -1.06 
 C                     2.572    -2.327    -1.507 
 C                     1.497    -2.834    -0.507 
 S                     2.191    -4.571    -0.471 
 O                     1.343    -5.498    -1.324 
 C                     3.4      -3.634    -1.551 
 C                     2.005    -1.913    -2.878 
 C                     1.116    -2.952    -3.582 
 C                     0.661    -2.459    -4.938 
 C                     1.433    -2.692    -6.083 
 C                     1.03     -2.212    -7.329 
 C                    -0.158    -1.489    -7.45 
 C                    -0.938    -1.252    -6.317 
 C                    -0.53     -1.734    -5.074 
 N                     5.751    -1.733    -0.238 
 C                     6.386    -0.827    -1.203 
 C                     6.662    -2.19      0.827 
 O                     3.808    -2.181     1.298 
 H                     2.858    -0.279    -1.106 
 H                     0.47     -2.839    -0.874 
 H                     1.556    -2.389     0.485 
 H                     3.471    -4.104    -2.532 
 H                     4.384    -3.568    -1.089 
 H                     2.853    -1.662    -3.522 
 H                     1.426    -0.989    -2.746 
 H                     0.244    -3.178    -2.962 
 H                     1.661    -3.894    -3.694 
 H                     2.355    -3.26     -5.997 
 H                     1.64     -2.408    -8.205 
 H                    -0.475    -1.118    -8.419 
 H                    -1.866    -0.696    -6.401 
 H                    -1.145    -1.553    -4.197 
 H                     5.659    -0.552    -1.966 
 H                     7.206    -1.37     -1.677 
 H                     6.782     0.078    -0.728 
 H                     6.124    -2.86      1.495 
 H                     7.085    -1.356     1.401 
 H                     7.475    -2.736     0.346 
 
 NAtoms=     40 NQM=       40 NQMF=       0 NMMI=      0 NMMIF=      0
                NMic=       0 NMicF=      0.
                    Isotopes and Nuclear Properties:
 (Nuclear quadrupole moments (NQMom) in fm**2, nuclear magnetic moments (NMagM)
  in nuclear magnetons)

  Atom         1           2           3           4           5           6           7           8           9          10
 IAtWgt=          16          32          14          12          12          32          16          12          12          12
 AtmWgt=  15.9949146  31.9720718  14.0030740  12.0000000  12.0000000  31.9720718  15.9949146  12.0000000  12.0000000  12.0000000
 NucSpn=           0           0           2           0           0           0           0           0           0           0
 AtZEff=   0.0000000   0.0000000   0.0000000   0.0000000   0.0000000   0.0000000   0.0000000   0.0000000   0.0000000   0.0000000
 NQMom=    0.0000000   0.0000000   2.0440000   0.0000000   0.0000000   0.0000000   0.0000000   0.0000000   0.0000000   0.0000000
 NMagM=    0.0000000   0.0000000   0.4037610   0.0000000   0.0000000   0.0000000   0.0000000   0.0000000   0.0000000   0.0000000
 AtZNuc=   8.0000000  16.0000000   7.0000000   6.0000000   6.0000000  16.0000000   8.0000000   6.0000000   6.0000000   6.0000000

  Atom        11          12          13          14          15          16          17          18          19          20
 IAtWgt=          12          12          12          12          12          12          14          12          12          16
 AtmWgt=  12.0000000  12.0000000  12.0000000  12.0000000  12.0000000  12.0000000  14.0030740  12.0000000  12.0000000  15.9949146
 NucSpn=           0           0           0           0           0           0           2           0           0           0
 AtZEff=   0.0000000   0.0000000   0.0000000   0.0000000   0.0000000   0.0000000   0.0000000   0.0000000   0.0000000   0.0000000
 NQMom=    0.0000000   0.0000000   0.0000000   0.0000000   0.0000000   0.0000000   2.0440000   0.0000000   0.0000000   0.0000000
 NMagM=    0.0000000   0.0000000   0.0000000   0.0000000   0.0000000   0.0000000   0.4037610   0.0000000   0.0000000   0.0000000
 AtZNuc=   6.0000000   6.0000000   6.0000000   6.0000000   6.0000000   6.0000000   7.0000000   6.0000000   6.0000000   8.0000000

  Atom        21          22          23          24          25          26          27          28          29          30
 IAtWgt=           1           1           1           1           1           1           1           1           1           1
 AtmWgt=   1.0078250   1.0078250   1.0078250   1.0078250   1.0078250   1.0078250   1.0078250   1.0078250   1.0078250   1.0078250
 NucSpn=           1           1           1           1           1           1           1           1           1           1
 AtZEff=   0.0000000   0.0000000   0.0000000   0.0000000   0.0000000   0.0000000   0.0000000   0.0000000   0.0000000   0.0000000
 NQMom=    0.0000000   0.0000000   0.0000000   0.0000000   0.0000000   0.0000000   0.0000000   0.0000000   0.0000000   0.0000000
 NMagM=    2.7928460   2.7928460   2.7928460   2.7928460   2.7928460   2.7928460   2.7928460   2.7928460   2.7928460   2.7928460
 AtZNuc=   1.0000000   1.0000000   1.0000000   1.0000000   1.0000000   1.0000000   1.0000000   1.0000000   1.0000000   1.0000000

  Atom        31          32          33          34          35          36          37          38          39          40
 IAtWgt=           1           1           1           1           1           1           1           1           1           1
 AtmWgt=   1.0078250   1.0078250   1.0078250   1.0078250   1.0078250   1.0078250   1.0078250   1.0078250   1.0078250   1.0078250
 NucSpn=           1           1           1           1           1           1           1           1           1           1
 AtZEff=   0.0000000   0.0000000   0.0000000   0.0000000   0.0000000   0.0000000   0.0000000   0.0000000   0.0000000   0.0000000
 NQMom=    0.0000000   0.0000000   0.0000000   0.0000000   0.0000000   0.0000000   0.0000000   0.0000000   0.0000000   0.0000000
 NMagM=    2.7928460   2.7928460   2.7928460   2.7928460   2.7928460   2.7928460   2.7928460   2.7928460   2.7928460   2.7928460
 AtZNuc=   1.0000000   1.0000000   1.0000000   1.0000000   1.0000000   1.0000000   1.0000000   1.0000000   1.0000000   1.0000000
 Leave Link  101 at Sat Aug  8 07:13:34 2020, MaxMem=    33554432 cpu:         0.1
 (Enter /prod/apps/gaussian/g09d1/l202.exe)
                          Input orientation:                          
 ---------------------------------------------------------------------
 Center     Atomic      Atomic             Coordinates (Angstroms)
 Number     Number       Type             X           Y           Z
 ---------------------------------------------------------------------
      1          8           0        4.335000    0.240000    0.763000
      2         16           0        4.272000   -1.166000    0.345000
      3          7           0        3.366000   -1.162000   -1.060000
      4          6           0        2.572000   -2.327000   -1.507000
      5          6           0        1.497000   -2.834000   -0.507000
      6         16           0        2.191000   -4.571000   -0.471000
      7          8           0        1.343000   -5.498000   -1.324000
      8          6           0        3.400000   -3.634000   -1.551000
      9          6           0        2.005000   -1.913000   -2.878000
     10          6           0        1.116000   -2.952000   -3.582000
     11          6           0        0.661000   -2.459000   -4.938000
     12          6           0        1.433000   -2.692000   -6.083000
     13          6           0        1.030000   -2.212000   -7.329000
     14          6           0       -0.158000   -1.489000   -7.450000
     15          6           0       -0.938000   -1.252000   -6.317000
     16          6           0       -0.530000   -1.734000   -5.074000
     17          7           0        5.751000   -1.733000   -0.238000
     18          6           0        6.386000   -0.827000   -1.203000
     19          6           0        6.662000   -2.190000    0.827000
     20          8           0        3.808000   -2.181000    1.298000
     21          1           0        2.858000   -0.279000   -1.106000
     22          1           0        0.470000   -2.839000   -0.874000
     23          1           0        1.556000   -2.389000    0.485000
     24          1           0        3.471000   -4.104000   -2.532000
     25          1           0        4.384000   -3.568000   -1.089000
     26          1           0        2.853000   -1.662000   -3.522000
     27          1           0        1.426000   -0.989000   -2.746000
     28          1           0        0.244000   -3.178000   -2.962000
     29          1           0        1.661000   -3.894000   -3.694000
     30          1           0        2.355000   -3.260000   -5.997000
     31          1           0        1.640000   -2.408000   -8.205000
     32          1           0       -0.475000   -1.118000   -8.419000
     33          1           0       -1.866000   -0.696000   -6.401000
     34          1           0       -1.145000   -1.553000   -4.197000
     35          1           0        5.659000   -0.552000   -1.966000
     36          1           0        7.206000   -1.370000   -1.677000
     37          1           0        6.782000    0.078000   -0.728000
     38          1           0        6.124000   -2.860000    1.495000
     39          1           0        7.085000   -1.356000    1.401000
     40          1           0        7.475000   -2.736000    0.346000
 ---------------------------------------------------------------------
                    Distance matrix (angstroms):
                    1          2          3          4          5
     1  O    0.000000
     2  S    1.468172   0.000000
     3  N    2.495575   1.671789   0.000000
     4  C    3.853642   2.769084   1.479010   0.000000
     5  C    4.372256   3.347948   2.567986   1.553278   0.000000
     6  S    5.409733   4.073137   3.653605   2.500798   1.870856
     7  O    6.799432   5.489155   4.791985   3.405756   2.790717
     8  C    4.608329   3.232062   2.520520   1.547827   2.313297
     9  C    4.829202   4.010614   2.391954   1.540301   2.593828
    10  C    6.279319   5.345228   3.824537   2.610783   3.100760
    11  C    7.299608   6.528496   4.902868   3.929517   4.524741
    12  C    7.992868   7.190812   5.595348   4.729727   5.578175
    13  C    9.078314   8.396127   6.771983   6.023842   6.866197
    14  C    9.519972   8.971692   7.304629   6.593511   7.263147
    15  C    8.953044   8.457762   6.794745   6.050771   6.495233
    16  C    7.850826   7.262740   5.623006   4.764194   5.116270
    17  N    2.626744   1.687844   2.586494   3.474081   4.402395
    18  C    3.034839   2.642011   3.041887   4.109624   5.330552
    19  C    3.365104   2.644428   3.934612   4.711096   5.373222
    20  O    2.534797   1.467559   2.606509   3.068719   3.004190
    21  H    2.438042   2.211688   1.019740   2.106395   2.956205
    22  H    5.205597   4.328983   3.351677   2.254160   1.090616
    23  H    3.835592   2.981943   2.677434   2.236999   1.088839
    24  H    5.520313   4.189341   3.291379   2.239767   3.100032
    25  H    4.234757   2.799733   2.612662   2.235654   3.035169
    26  H    4.916823   4.148887   2.564101   2.140423   3.507498
    27  H    4.720784   4.205392   2.576068   2.153760   2.902100
    28  H    6.503432   5.586517   4.174775   2.874162   2.777655
    29  H    6.641166   5.529270   4.160385   2.840489   3.362657
    30  H    7.865621   6.948431   5.458726   4.591043   5.572947
    31  H    9.731390   9.031749   7.455375   6.763016   7.711104
    32  H   10.454156   9.967146   8.301211   7.649943   8.332658
    33  H    9.521103   9.132604   7.491146   6.804942   7.114777
    34  H    7.605712   7.079790   5.508427   4.653092   4.715636
    35  H    3.134913   2.764324   2.539840   3.590386   4.965727
    36  H    4.097358   3.569097   3.894811   4.734839   6.008733
    37  H    2.870041   2.999827   3.649230   4.910699   6.038196
    38  H    3.653265   2.760804   4.125263   4.681111   5.041608
    39  H    3.242955   3.010682   4.463756   5.455866   6.086928
    40  H    4.346270   3.567087   4.619328   5.257404   6.039346
                    6          7          8          9         10
     6  S    0.000000
     7  O    1.518566   0.000000
     8  C    1.872445   2.785188   0.000000
     9  C    3.590711   3.963002   2.582401   0.000000
    10  C    3.668120   3.410602   3.131572   1.538005   0.000000
    11  C    5.172575   4.770916   4.511598   2.519534   1.512881
    12  C    5.966553   5.525379   5.029461   3.347544   2.534382
    13  C    7.344724   6.852429   6.405019   4.566336   3.820341
    14  C    7.982667   7.473484   7.215164   5.075582   4.327224
    15  C    7.414993   6.939851   6.870730   4.574373   3.819573
    16  C    6.053100   5.633678   5.609495   3.358673   2.533556
    17  N    4.558742   5.897888   3.296206   4.586340   5.843930
    18  C    5.670219   6.874935   4.112973   4.814372   6.160208
    19  C    5.229131   6.622796   4.287268   5.957466   7.125871
    20  O    3.384693   4.894241   3.224046   4.556491   5.626340
    21  H    4.389690   5.438815   3.427508   2.556863   4.038573
    22  H    2.474687   2.834592   3.110507   2.688813   2.786279
    23  H    2.465418   3.603294   3.015901   3.426069   4.129293
    24  H    2.470670   2.816183   1.090093   2.658825   2.824116
    25  H    2.489414   3.609405   1.089062   3.405758   4.156240
    26  H    4.267215   4.671852   2.841273   1.094002   2.164456
    27  H    4.311795   4.728642   3.510089   1.098381   2.156007
    28  H    3.454901   3.045200   3.487003   2.169885   1.093554
    29  H    3.335710   2.879382   2.772034   2.169920   1.094044
    30  H    5.681751   5.279178   4.582447   3.415417   2.731705
    31  H    8.049654   7.548806   6.991165   5.362386   4.684297
    32  H    9.066503   8.533964   8.277397   6.122508   5.412154
    33  H    8.163319   7.689786   7.738546   5.373757   4.682801
    34  H    5.841258   5.477892   5.655873   3.433928   2.729019
    35  H    5.514926   6.595676   3.843700   4.004470   5.386122
    36  H    6.070508   7.179120   4.430260   5.365412   6.574180
    37  H    6.538848   7.812152   5.088634   5.604133   7.030631
    38  H    4.718174   6.145223   4.159010   6.081620   7.131932
    39  H    6.147507   7.586327   5.242405   6.665320   7.937661
    40  H    5.652908   6.929572   4.583736   6.402531   7.477481
                   11         12         13         14         15
    11  C    0.000000
    12  C    1.400463   0.000000
    13  C    2.431882   1.394749   0.000000
    14  C    2.814570   2.418094   1.395963   0.000000
    15  C    2.432137   2.783882   2.412212   1.395800   0.000000
    16  C    1.400929   2.406079   2.783363   2.417392   1.394216
    17  N    6.966001   7.329995   8.532266   9.326777   9.051427
    18  C    7.027750   7.198947   8.254262   9.071229   8.942852
    19  C    8.325839   8.680008   9.911622  10.747676  10.472659
    20  O    6.990607   7.770515   9.063298   9.629929   9.020853
    21  H    4.925793   5.711718   6.767851   7.127881   6.520036
    22  H    4.086193   5.299307   6.509513   6.742452   5.841856
    23  H    5.496804   6.576136   7.833684   8.167743   7.333485
    24  H    4.048575   4.330911   5.705204   6.647901   6.472975
    25  H    5.468584   5.866499   7.212881   8.087912   7.811499
    26  H    2.728576   3.104194   4.256651   4.952296   4.727770
    27  H    2.747906   3.746442   4.759878   4.988654   4.290653
    28  H    2.143694   3.374990   4.541106   4.812117   4.045074
    29  H    2.146337   2.684047   4.054690   4.816671   4.540385
    30  H    2.152375   1.086326   2.151314   3.400415   3.870183
    31  H    3.410914   2.150904   1.085307   2.155781   3.398082
    32  H    3.899505   3.402181   2.156377   1.084938   2.156555
    33  H    3.410904   3.868920   3.397978   2.155577   1.085070
    34  H    2.152104   3.391224   3.869668   3.400040   2.151244
    35  H    6.119595   6.276015   7.276332   8.049206   7.933575
    36  H    7.393042   7.381602   8.414098   9.357894   9.373807
    37  H    7.850294   8.059822   9.050017   9.787971   9.623109
    38  H    8.449181   8.914022  10.209394  11.016179  10.652927
    39  H    9.092156   9.473133  10.658736  11.437611  11.133143
    40  H    8.627165   8.822683  10.035847  10.981590  10.834039
                   16         17         18         19         20
    16  C    0.000000
    17  N    7.927033   0.000000
    18  C    7.977365   1.468089   0.000000
    19  C    9.314215   1.474108   2.460659   0.000000
    20  O    7.721427   2.516992   3.838542   2.892618   0.000000
    21  H    5.416696   3.352162   3.571624   4.675342   3.209255
    22  H    4.456571   5.432927   6.257431   6.454105   4.036433
    23  H    5.973517   4.307098   5.349588   5.121309   2.403276
    24  H    5.299685   4.010296   4.582815   5.012859   4.298883
    25  H    6.587198   2.441335   3.396186   3.280126   2.820162
    26  H    3.722711   4.380422   4.307792   5.805262   4.941031
    27  H    3.130582   5.054624   5.196989   6.451699   4.842388
    28  H    2.672968   6.311517   6.807749   7.518204   5.643023
    29  H    3.372014   5.774249   6.159318   6.953636   5.697723
    30  H    3.391730   6.857888   6.719441   8.140155   7.516148
    31  H    3.868635   8.990497   8.605352  10.336587   9.749808
    32  H    3.401692  10.299032   9.961358  11.729214  10.672120
    33  H    2.150179   9.852747   9.753557  11.278422   9.678538
    34  H    1.086331   7.953672   8.136773   9.305675   7.424393
    35  H    7.025703   2.095044   1.089185   3.389676   4.090665
    36  H    8.456820   2.078344   1.091753   2.690419   4.588546
    37  H    8.696919   2.140743   1.096114   2.752499   4.248815
    38  H    9.417821   2.100606   3.388353   1.088379   2.421509
    39  H   10.002836   2.146627   2.747591   1.097252   3.380823
    40  H    9.719076   2.078278   2.688792   1.091076   3.828997
                   21         22         23         24         25
    21  H    0.000000
    22  H    3.508556   0.000000
    23  H    2.945944   1.796880   0.000000
    24  H    4.127938   3.654475   3.963677   0.000000
    25  H    3.625808   3.987112   3.444576   1.789725   0.000000
    26  H    2.783841   3.751789   4.273966   2.706545   3.449099
    27  H    2.290049   2.800146   3.523672   3.732432   4.259889
    28  H    4.322260   2.127379   3.771694   3.384657   4.560683
    29  H    4.604213   3.237886   4.442982   2.161121   3.782463
    30  H    5.749891   5.474997   6.588882   3.736846   5.319790
    31  H    7.510790   7.436277   8.690427   6.197734   7.714440
    32  H    8.080395   7.796274   9.220717   7.690506   9.129145
    33  H    7.108241   6.371583   7.873584   7.420727   8.690698
    34  H    5.215493   3.912077   5.469499   5.530577   6.655053
    35  H    2.942742   5.774821   5.120213   4.210036   3.389839
    36  H    4.519007   6.940927   6.134746   4.707017   3.625001
    37  H    3.958296   6.954966   5.904958   5.630831   4.378817
    38  H    4.908515   6.130279   4.701975   4.980228   3.194671
    39  H    5.031154   7.150744   5.698771   6.006745   4.288175
    40  H    5.427876   7.111191   5.930792   5.117257   3.507952
                   26         27         28         29         30
    26  H    0.000000
    27  H    1.758247   0.000000
    28  H    3.068996   2.497099   0.000000
    29  H    2.536192   3.064793   1.748247   0.000000
    30  H    2.987848   4.073019   3.697874   2.487449   0.000000
    31  H    4.894729   5.644470   5.480033   4.749501   2.472325
    32  H    5.945766   5.984427   5.877024   5.881692   4.296877
    33  H    5.611663   4.927691   4.736997   5.476749   4.955215
    34  H    4.056046   3.005584   2.468840   3.688757   4.289971
    35  H    3.395125   4.326391   6.100010   5.489895   5.873554
    36  H    4.736866   5.890358   7.306814   6.417623   6.765109
    37  H    5.125532   5.822160   7.637914   7.127312   7.648721
    38  H    6.107777   6.599843   7.385145   6.921939   8.396155
    39  H    6.499184   7.025424   8.315933   7.862585   8.984905
    40  H    6.121910   7.014476   7.964018   7.173922   8.168392
                   31         32         33         34         35
    31  H    0.000000
    32  H    2.486588   0.000000
    33  H    4.298534   2.487024   0.000000
    34  H    4.954928   4.296907   2.472227   0.000000
    35  H    7.649982   8.921184   8.735879   7.230061   0.000000
    36  H    8.641330  10.223298  10.250446   8.724855   1.773656
    37  H    9.408820  10.641708  10.371591   8.805195   1.786246
    38  H   10.695820  12.036144  11.439834   9.324456   4.185882
    39  H   11.091887  12.395267  11.892317   9.955366   3.743872
    40  H   10.357336  11.943435  11.702046   9.815434   3.662384
                   36         37         38         39         40
    36  H    0.000000
    37  H    1.782437   0.000000
    38  H    3.667752   3.742531   0.000000
    39  H    3.080409   2.584726   1.787281   0.000000
    40  H    2.455778   3.090683   1.777858   1.780316   0.000000
 Stoichiometry    C13H20N2O3S2
 Framework group  C1[X(C13H20N2O3S2)]
 Deg. of freedom   114
 Full point group                 C1      NOp   1
 Largest Abelian subgroup         C1      NOp   1
 Largest concise Abelian subgroup C1      NOp   1
                         Standard orientation:                         
 ---------------------------------------------------------------------
 Center     Atomic      Atomic             Coordinates (Angstroms)
 Number     Number       Type             X           Y           Z
 ---------------------------------------------------------------------
      1          8           0        3.347404   -1.678701   -1.697128
      2         16           0        2.905355   -0.690714   -0.705158
      3          7           0        1.238819   -0.819750   -0.675379
      4          6           0        0.352921    0.302965   -0.298331
      5          6           0        0.497701    1.592248   -1.152417
      6         16           0        0.852634    2.670065    0.335008
      7          8           0       -0.380467    3.470545    0.715448
      8          6           0        0.743571    0.944948    1.054820
      9          6           0       -1.065889   -0.296566   -0.306536
     10          6           0       -2.208725    0.669960    0.047313
     11          6           0       -3.545400   -0.038542    0.058836
     12          6           0       -4.022009   -0.653931    1.223070
     13          6           0       -5.240018   -1.333460    1.227387
     14          6           0       -6.004721   -1.407316    0.061844
     15          6           0       -5.542308   -0.796069   -1.104694
     16          6           0       -4.323855   -0.118423   -1.103158
     17          7           0        3.282961   -1.148868    0.874819
     18          6           0        2.925585   -2.539170    1.182440
     19          6           0        4.656741   -0.792846    1.273532
     20          8           0        3.348881    0.702741   -0.828838
     21          1           0        0.944324   -1.306609   -1.521612
     22          1           0       -0.405208    1.928928   -1.663147
     23          1           0        1.352779    1.594905   -1.826513
     24          1           0       -0.027002    0.906359    1.824904
     25          1           0        1.700496    0.616368    1.457792
     26          1           0       -1.070736   -1.138682    0.391790
     27          1           0       -1.257079   -0.714239   -1.304252
     28          1           0       -2.236174    1.493937   -0.671136
     29          1           0       -2.022411    1.125466    1.024418
     30          1           0       -3.435228   -0.594191    2.135332
     31          1           0       -5.594064   -1.799089    2.141571
     32          1           0       -6.954188   -1.932290    0.064207
     33          1           0       -6.131610   -0.842692   -2.014598
     34          1           0       -3.972689    0.361866   -2.012069
     35          1           0        1.894871   -2.718070    0.879215
     36          1           0        3.002463   -2.669369    2.263672
     37          1           0        3.586071   -3.259643    0.686314
     38          1           0        4.843845    0.249246    1.021333
     39          1           0        5.409439   -1.430807    0.793518
     40          1           0        4.723700   -0.920131    2.355087
 ---------------------------------------------------------------------
 Rotational constants (GHZ):      0.4850014      0.1435653      0.1264135
 Leave Link  202 at Sat Aug  8 07:13:34 2020, MaxMem=    33554432 cpu:         0.0
 (Enter /prod/apps/gaussian/g09d1/l301.exe)
 Standard basis: 6-31G(d) (6D, 7F)
 Ernie: Thresh=  0.10000D-02 Tol=  0.10000D-05 Strict=F.
 There are   348 symmetry adapted cartesian basis functions of A   symmetry.
 There are   348 symmetry adapted basis functions of A   symmetry.
   348 basis functions,   688 primitive gaussians,   348 cartesian basis functions
    84 alpha electrons       84 beta electrons
       nuclear repulsion energy      1964.9212054439 Hartrees.
 IExCor=  402 DFT=T Ex+Corr=B3LYP ExCW=0 ScaHFX=  0.200000
 ScaDFX=  0.800000  0.720000  1.000000  0.810000 ScalE2=  1.000000  1.000000
 IRadAn=      0 IRanWt=     -1 IRanGd=            0 ICorTp=0 IEmpDi=  4
 NAtoms=   40 NActive=   40 NUniq=   40 SFac= 1.00D+00 NAtFMM=   60 NAOKFM=F Big=F
 Integral buffers will be    131072 words long.
 Raffenetti 2 integral format.
 Two-electron integral symmetry is turned on.
 Leave Link  301 at Sat Aug  8 07:13:34 2020, MaxMem=    33554432 cpu:         0.0
 (Enter /prod/apps/gaussian/g09d1/l302.exe)
 NPDir=0 NMtPBC=     1 NCelOv=     1 NCel=       1 NClECP=     1 NCelD=      1
         NCelK=      1 NCelE2=     1 NClLst=     1 CellRange=     0.0.
 One-electron integrals computed using PRISM.
 NBasis=   348 RedAO= T EigKep=  4.63D-04  NBF=   348
 NBsUse=   348 1.00D-06 EigRej= -1.00D+00 NBFU=   348
 Precomputing XC quadrature grid using
 IXCGrd= 4 IRadAn=           0 IRanWt=          -1 IRanGd=           0 AccXCQ= 0.00D+00.
 Generated NRdTot=       0 NPtTot=           0 NUsed=           0 NTot=          32
 NSgBfM=   343   343   343   343   343 MxSgAt=    40 MxSgA2=    40.
 Leave Link  302 at Sat Aug  8 07:13:36 2020, MaxMem=    33554432 cpu:         1.2
 (Enter /prod/apps/gaussian/g09d1/l303.exe)
 DipDrv:  MaxL=1.
 Leave Link  303 at Sat Aug  8 07:13:36 2020, MaxMem=    33554432 cpu:         0.0
 (Enter /prod/apps/gaussian/g09d1/l401.exe)
 ExpMin= 1.17D-01 ExpMax= 2.19D+04 ExpMxC= 3.30D+03 IAcc=1 IRadAn=         1 AccDes= 0.00D+00
 Harris functional with IExCor=  402 and IRadAn=       1 diagonalized for initial guess.
 HarFok:  IExCor=  402 AccDes= 0.00D+00 IRadAn=         1 IDoV= 1 UseB2=F ITyADJ=14
 ICtDFT=  3500011 ScaDFX=  1.000000  1.000000  1.000000  1.000000
 FoFCou: FMM=F IPFlag=           0 FMFlag=      100000 FMFlg1=           0
         NFxFlg=           0 DoJE=T BraDBF=F KetDBF=T FulRan=T
         wScrn=  0.000000 ICntrl=     500 IOpCl=  0 I1Cent=   200000004 NGrid=           0
         NMat0=    1 NMatS0=      1 NMatT0=    0 NMatD0=    1 NMtDS0=    0 NMtDT0=    0
 Petite list used in FoFCou.
 Harris En= -1638.91513748702    
 JPrj=0 DoOrth=F DoCkMO=F.
 Leave Link  401 at Sat Aug  8 07:13:40 2020, MaxMem=    33554432 cpu:         4.8
 (Enter /prod/apps/gaussian/g09d1/l502.exe)
 Closed shell SCF:
 Using DIIS extrapolation, IDIIS=  1040.
 Integral symmetry usage will be decided dynamically.
 IVT=      386588 IEndB=      386588 NGot=    33554432 MDV=    33305937
 LenX=    33305937 LenY=    33184392
 Requested convergence on RMS density matrix=1.00D-08 within 128 cycles.
 Requested convergence on MAX density matrix=1.00D-06.
 Requested convergence on             energy=1.00D-06.
 No special actions if energy rises.
 Fock matrices will be formed incrementally for  20 cycles.
 Integral accuracy reduced to 1.0D-05 until final iterations.

 Cycle   1  Pass 0  IDiag  1:
 FoFJK:  IHMeth= 1 ICntrl=       0 DoSepK=F KAlg= 0 I1Cent=   0 FoldK=F
 IRaf= 730000000 NMat=   1 IRICut=       1 DoRegI=T DoRafI=F ISym2E= 0.
 FoFCou: FMM=F IPFlag=           0 FMFlag=      100000 FMFlg1=           0
         NFxFlg=           0 DoJE=F BraDBF=F KetDBF=F FulRan=T
         wScrn=  0.000000 ICntrl=       0 IOpCl=  0 I1Cent=           0 NGrid=           0
         NMat0=    1 NMatS0=      1 NMatT0=    0 NMatD0=    1 NMtDS0=    0 NMtDT0=    0
 Symmetry not used in FoFCou.
 E= -1638.04994901598    
 DIIS: error= 3.77D-02 at cycle   1 NSaved=   1.
 NSaved= 1 IEnMin= 1 EnMin= -1638.04994901598     IErMin= 1 ErrMin= 3.77D-02
 ErrMax= 3.77D-02  0.00D+00 EMaxC= 1.00D-01 BMatC= 8.90D-01 BMatP= 8.90D-01
 IDIUse=3 WtCom= 6.23D-01 WtEn= 3.77D-01
 Coeff-Com:  0.100D+01
 Coeff-En:   0.100D+01
 Coeff:      0.100D+01
 Gap=     0.331 Goal=   None    Shift=    0.000
 GapD=    0.331 DampG=1.000 DampE=0.500 DampFc=0.5000 IDamp=-1.
 Damping current iteration by 5.00D-01
 RMSDP=7.67D-03 MaxDP=6.00D-01              OVMax= 3.50D-01

 Cycle   2  Pass 0  IDiag  1:
 RMSU=  3.84D-03    CP:  9.99D-01
 E= -1638.18354908093     Delta-E=       -0.133600064959 Rises=F Damp=T
 DIIS: error= 1.78D-02 at cycle   2 NSaved=   2.
 NSaved= 2 IEnMin= 2 EnMin= -1638.18354908093     IErMin= 2 ErrMin= 1.78D-02
 ErrMax= 1.78D-02  0.00D+00 EMaxC= 1.00D-01 BMatC= 1.79D-01 BMatP= 8.90D-01
 IDIUse=3 WtCom= 8.22D-01 WtEn= 1.78D-01
 Coeff-Com:  0.264D+00 0.736D+00
 Coeff-En:   0.418D+00 0.582D+00
 Coeff:      0.291D+00 0.709D+00
 Gap=     0.342 Goal=   None    Shift=    0.000
 RMSDP=2.83D-03 MaxDP=1.42D-01 DE=-1.34D-01 OVMax= 2.41D-01

 Cycle   3  Pass 0  IDiag  1:
 RMSU=  2.12D-03    CP:  9.86D-01  5.17D-01
 E= -1638.68802821806     Delta-E=       -0.504479137129 Rises=F Damp=F
 DIIS: error= 1.99D-02 at cycle   3 NSaved=   3.
 NSaved= 3 IEnMin= 3 EnMin= -1638.68802821806     IErMin= 2 ErrMin= 1.78D-02
 ErrMax= 1.99D-02  0.00D+00 EMaxC= 1.00D-01 BMatC= 1.55D-01 BMatP= 1.79D-01
 IDIUse=3 WtCom= 8.01D-01 WtEn= 1.99D-01
 Coeff-Com:  0.122D+00 0.473D+00 0.406D+00
 Coeff-En:   0.000D+00 0.000D+00 0.100D+01
 Coeff:      0.975D-01 0.379D+00 0.524D+00
 Gap=     0.242 Goal=   None    Shift=    0.000
 RMSDP=2.14D-03 MaxDP=9.57D-02 DE=-5.04D-01 OVMax= 1.93D-01

 Cycle   4  Pass 0  IDiag  1:
 RMSU=  1.04D-03    CP:  9.96D-01  7.21D-01  2.06D-01
 E= -1638.78447080155     Delta-E=       -0.096442583483 Rises=F Damp=F
 DIIS: error= 1.21D-02 at cycle   4 NSaved=   4.
 NSaved= 4 IEnMin= 4 EnMin= -1638.78447080155     IErMin= 4 ErrMin= 1.21D-02
 ErrMax= 1.21D-02  0.00D+00 EMaxC= 1.00D-01 BMatC= 5.51D-02 BMatP= 1.55D-01
 IDIUse=3 WtCom= 8.79D-01 WtEn= 1.21D-01
 Coeff-Com:  0.291D-01 0.988D-01 0.361D+00 0.511D+00
 Coeff-En:   0.000D+00 0.000D+00 0.298D+00 0.702D+00
 Coeff:      0.256D-01 0.869D-01 0.354D+00 0.534D+00
 Gap=     0.224 Goal=   None    Shift=    0.000
 RMSDP=9.79D-04 MaxDP=5.03D-02 DE=-9.64D-02 OVMax= 9.41D-02

 Cycle   5  Pass 0  IDiag  1:
 RMSU=  3.48D-04    CP:  9.93D-01  6.25D-01  5.26D-01  5.32D-01
 E= -1638.82977162994     Delta-E=       -0.045300828388 Rises=F Damp=F
 DIIS: error= 3.01D-03 at cycle   5 NSaved=   5.
 NSaved= 5 IEnMin= 5 EnMin= -1638.82977162994     IErMin= 5 ErrMin= 3.01D-03
 ErrMax= 3.01D-03  0.00D+00 EMaxC= 1.00D-01 BMatC= 3.84D-03 BMatP= 5.51D-02
 IDIUse=3 WtCom= 9.70D-01 WtEn= 3.01D-02
 Coeff-Com:  0.324D-02 0.709D-02 0.165D+00 0.335D+00 0.489D+00
 Coeff-En:   0.000D+00 0.000D+00 0.000D+00 0.183D-01 0.982D+00
 Coeff:      0.314D-02 0.688D-02 0.160D+00 0.326D+00 0.504D+00
 Gap=     0.218 Goal=   None    Shift=    0.000
 RMSDP=2.53D-04 MaxDP=1.16D-02 DE=-4.53D-02 OVMax= 1.93D-02

 Cycle   6  Pass 0  IDiag  1:
 RMSU=  1.27D-04    CP:  9.93D-01  6.42D-01  4.90D-01  6.14D-01  5.00D-01
 E= -1638.83262103652     Delta-E=       -0.002849406587 Rises=F Damp=F
 DIIS: error= 7.81D-04 at cycle   6 NSaved=   6.
 NSaved= 6 IEnMin= 6 EnMin= -1638.83262103652     IErMin= 6 ErrMin= 7.81D-04
 ErrMax= 7.81D-04  0.00D+00 EMaxC= 1.00D-01 BMatC= 5.13D-04 BMatP= 3.84D-03
 IDIUse=3 WtCom= 9.92D-01 WtEn= 7.81D-03
 Coeff-Com: -0.874D-03-0.511D-02 0.462D-01 0.116D+00 0.314D+00 0.530D+00
 Coeff-En:   0.000D+00 0.000D+00 0.000D+00 0.000D+00 0.108D+00 0.892D+00
 Coeff:     -0.867D-03-0.507D-02 0.458D-01 0.115D+00 0.313D+00 0.533D+00
 Gap=     0.219 Goal=   None    Shift=    0.000
 RMSDP=7.94D-05 MaxDP=3.62D-03 DE=-2.85D-03 OVMax= 4.37D-03

 Cycle   7  Pass 0  IDiag  1:
 RMSU=  4.25D-05    CP:  9.93D-01  6.40D-01  4.95D-01  6.19D-01  5.88D-01
                    CP:  5.47D-01
 E= -1638.83300055598     Delta-E=       -0.000379519458 Rises=F Damp=F
 DIIS: error= 2.68D-04 at cycle   7 NSaved=   7.
 NSaved= 7 IEnMin= 7 EnMin= -1638.83300055598     IErMin= 7 ErrMin= 2.68D-04
 ErrMax= 2.68D-04  0.00D+00 EMaxC= 1.00D-01 BMatC= 4.07D-05 BMatP= 5.13D-04
 IDIUse=3 WtCom= 9.97D-01 WtEn= 2.68D-03
 Coeff-Com: -0.526D-03-0.308D-02 0.493D-02 0.190D-01 0.111D+00 0.294D+00
 Coeff-Com:  0.574D+00
 Coeff-En:   0.000D+00 0.000D+00 0.000D+00 0.000D+00 0.000D+00 0.156D-01
 Coeff-En:   0.984D+00
 Coeff:     -0.525D-03-0.307D-02 0.492D-02 0.189D-01 0.111D+00 0.294D+00
 Coeff:      0.575D+00
 Gap=     0.218 Goal=   None    Shift=    0.000
 RMSDP=2.21D-05 MaxDP=8.76D-04 DE=-3.80D-04 OVMax= 9.70D-04

 Cycle   8  Pass 0  IDiag  1:
 RMSU=  1.03D-05    CP:  9.93D-01  6.39D-01  4.96D-01  6.16D-01  5.96D-01
                    CP:  6.22D-01  6.17D-01
 E= -1638.83303731799     Delta-E=       -0.000036762006 Rises=F Damp=F
 DIIS: error= 3.34D-05 at cycle   8 NSaved=   8.
 NSaved= 8 IEnMin= 8 EnMin= -1638.83303731799     IErMin= 8 ErrMin= 3.34D-05
 ErrMax= 3.34D-05  0.00D+00 EMaxC= 1.00D-01 BMatC= 1.16D-06 BMatP= 4.07D-05
 IDIUse=1 WtCom= 1.00D+00 WtEn= 0.00D+00
 Coeff-Com: -0.663D-04-0.753D-03-0.754D-03 0.661D-04 0.258D-01 0.857D-01
 Coeff-Com:  0.231D+00 0.659D+00
 Coeff:     -0.663D-04-0.753D-03-0.754D-03 0.661D-04 0.258D-01 0.857D-01
 Coeff:      0.231D+00 0.659D+00
 Gap=     0.218 Goal=   None    Shift=    0.000
 RMSDP=4.61D-06 MaxDP=2.33D-04 DE=-3.68D-05 OVMax= 2.24D-04

 Initial convergence to 1.0D-05 achieved.  Increase integral accuracy.
 Cycle   9  Pass 1  IDiag  1:
 E= -1638.83312931223     Delta-E=       -0.000091994248 Rises=F Damp=F
 DIIS: error= 7.26D-05 at cycle   1 NSaved=   1.
 NSaved= 1 IEnMin= 1 EnMin= -1638.83312931223     IErMin= 1 ErrMin= 7.26D-05
 ErrMax= 7.26D-05  0.00D+00 EMaxC= 1.00D-01 BMatC= 8.30D-07 BMatP= 8.30D-07
 IDIUse=1 WtCom= 1.00D+00 WtEn= 0.00D+00
 Coeff-Com:  0.100D+01
 Coeff:      0.100D+01
 Gap=     0.218 Goal=   None    Shift=    0.000
 RMSDP=4.61D-06 MaxDP=2.33D-04 DE=-9.20D-05 OVMax= 2.31D-04

 Cycle  10  Pass 1  IDiag  1:
 RMSU=  3.03D-05    CP:  1.00D+00
 E= -1638.83312985701     Delta-E=       -0.000000544773 Rises=F Damp=F
 DIIS: error= 2.57D-05 at cycle   2 NSaved=   2.
 NSaved= 2 IEnMin= 2 EnMin= -1638.83312985701     IErMin= 2 ErrMin= 2.57D-05
 ErrMax= 2.57D-05  0.00D+00 EMaxC= 1.00D-01 BMatC= 3.13D-07 BMatP= 8.30D-07
 IDIUse=1 WtCom= 1.00D+00 WtEn= 0.00D+00
 Coeff-Com:  0.330D+00 0.670D+00
 Coeff:      0.330D+00 0.670D+00
 Gap=     0.218 Goal=   None    Shift=    0.000
 RMSDP=3.17D-06 MaxDP=1.24D-04 DE=-5.45D-07 OVMax= 2.89D-04

 Cycle  11  Pass 1  IDiag  1:
 RMSU=  3.17D-06    CP:  1.00D+00  9.99D-01
 E= -1638.83312994634     Delta-E=       -0.000000089336 Rises=F Damp=F
 DIIS: error= 2.58D-05 at cycle   3 NSaved=   3.
 NSaved= 3 IEnMin= 3 EnMin= -1638.83312994634     IErMin= 2 ErrMin= 2.57D-05
 ErrMax= 2.58D-05  0.00D+00 EMaxC= 1.00D-01 BMatC= 2.24D-07 BMatP= 3.13D-07
 IDIUse=1 WtCom= 1.00D+00 WtEn= 0.00D+00
 Coeff-Com:  0.162D-01 0.455D+00 0.529D+00
 Coeff:      0.162D-01 0.455D+00 0.529D+00
 Gap=     0.218 Goal=   None    Shift=    0.000
 RMSDP=1.60D-06 MaxDP=5.78D-05 DE=-8.93D-08 OVMax= 1.61D-04

 Cycle  12  Pass 1  IDiag  1:
 RMSU=  7.44D-07    CP:  1.00D+00  1.01D+00  5.61D-01
 E= -1638.83313014919     Delta-E=       -0.000000202843 Rises=F Damp=F
 DIIS: error= 5.18D-06 at cycle   4 NSaved=   4.
 NSaved= 4 IEnMin= 4 EnMin= -1638.83313014919     IErMin= 4 ErrMin= 5.18D-06
 ErrMax= 5.18D-06  0.00D+00 EMaxC= 1.00D-01 BMatC= 1.69D-08 BMatP= 2.24D-07
 IDIUse=1 WtCom= 1.00D+00 WtEn= 0.00D+00
 Coeff-Com: -0.653D-02 0.255D+00 0.337D+00 0.415D+00
 Coeff:     -0.653D-02 0.255D+00 0.337D+00 0.415D+00
 Gap=     0.218 Goal=   None    Shift=    0.000
 RMSDP=4.21D-07 MaxDP=1.73D-05 DE=-2.03D-07 OVMax= 2.40D-05

 Cycle  13  Pass 1  IDiag  1:
 RMSU=  1.66D-07    CP:  1.00D+00  1.01D+00  5.70D-01  4.83D-01
 E= -1638.83313016404     Delta-E=       -0.000000014850 Rises=F Damp=F
 DIIS: error= 9.77D-07 at cycle   5 NSaved=   5.
 NSaved= 5 IEnMin= 5 EnMin= -1638.83313016404     IErMin= 5 ErrMin= 9.77D-07
 ErrMax= 9.77D-07  0.00D+00 EMaxC= 1.00D-01 BMatC= 4.67D-10 BMatP= 1.69D-08
 IDIUse=1 WtCom= 1.00D+00 WtEn= 0.00D+00
 Coeff-Com: -0.444D-02 0.132D+00 0.177D+00 0.240D+00 0.455D+00
 Coeff:     -0.444D-02 0.132D+00 0.177D+00 0.240D+00 0.455D+00
 Gap=     0.218 Goal=   None    Shift=    0.000
 RMSDP=8.49D-08 MaxDP=3.03D-06 DE=-1.49D-08 OVMax= 5.04D-06

 Cycle  14  Pass 1  IDiag  1:
 RMSU=  7.28D-08    CP:  1.00D+00  1.01D+00  5.74D-01  5.00D-01  7.59D-01
 E= -1638.83313016431     Delta-E=       -0.000000000271 Rises=F Damp=F
 DIIS: error= 3.08D-07 at cycle   6 NSaved=   6.
 NSaved= 6 IEnMin= 6 EnMin= -1638.83313016431     IErMin= 6 ErrMin= 3.08D-07
 ErrMax= 3.08D-07  0.00D+00 EMaxC= 1.00D-01 BMatC= 4.96D-11 BMatP= 4.67D-10
 IDIUse=1 WtCom= 1.00D+00 WtEn= 0.00D+00
 Coeff-Com: -0.144D-02 0.348D-01 0.475D-01 0.716D-01 0.265D+00 0.583D+00
 Coeff:     -0.144D-02 0.348D-01 0.475D-01 0.716D-01 0.265D+00 0.583D+00
 Gap=     0.218 Goal=   None    Shift=    0.000
 RMSDP=3.25D-08 MaxDP=1.42D-06 DE=-2.71D-10 OVMax= 2.80D-06

 Cycle  15  Pass 1  IDiag  1:
 RMSU=  2.34D-08    CP:  1.00D+00  1.01D+00  5.72D-01  4.95D-01  8.05D-01
                    CP:  7.24D-01
 E= -1638.83313016445     Delta-E=       -0.000000000144 Rises=F Damp=F
 DIIS: error= 1.61D-07 at cycle   7 NSaved=   7.
 NSaved= 7 IEnMin= 7 EnMin= -1638.83313016445     IErMin= 7 ErrMin= 1.61D-07
 ErrMax= 1.61D-07  0.00D+00 EMaxC= 1.00D-01 BMatC= 1.12D-11 BMatP= 4.96D-11
 IDIUse=1 WtCom= 1.00D+00 WtEn= 0.00D+00
 Coeff-Com: -0.262D-03 0.261D-02 0.393D-02 0.101D-01 0.987D-01 0.384D+00
 Coeff-Com:  0.501D+00
 Coeff:     -0.262D-03 0.261D-02 0.393D-02 0.101D-01 0.987D-01 0.384D+00
 Coeff:      0.501D+00
 Gap=     0.218 Goal=   None    Shift=    0.000
 RMSDP=1.39D-08 MaxDP=5.85D-07 DE=-1.44D-10 OVMax= 9.88D-07

 Cycle  16  Pass 1  IDiag  1:
 RMSU=  6.77D-09    CP:  1.00D+00  1.01D+00  5.72D-01  5.01D-01  8.22D-01
                    CP:  7.94D-01  5.87D-01
 E= -1638.83313016441     Delta-E=        0.000000000045 Rises=F Damp=F
 DIIS: error= 5.70D-08 at cycle   8 NSaved=   8.
 NSaved= 8 IEnMin= 7 EnMin= -1638.83313016445     IErMin= 8 ErrMin= 5.70D-08
 ErrMax= 5.70D-08  0.00D+00 EMaxC= 1.00D-01 BMatC= 1.23D-12 BMatP= 1.12D-11
 IDIUse=1 WtCom= 1.00D+00 WtEn= 0.00D+00
 Coeff-Com: -0.124D-04-0.213D-02-0.267D-02-0.124D-02 0.339D-01 0.188D+00
 Coeff-Com:  0.311D+00 0.473D+00
 Coeff:     -0.124D-04-0.213D-02-0.267D-02-0.124D-02 0.339D-01 0.188D+00
 Coeff:      0.311D+00 0.473D+00
 Gap=     0.218 Goal=   None    Shift=    0.000
 RMSDP=3.96D-09 MaxDP=2.26D-07 DE= 4.46D-11 OVMax= 3.25D-07

 SCF Done:  E(RB3LYP) =  -1638.83313016     A.U. after   16 cycles
            NFock= 16  Conv=0.40D-08     -V/T= 2.0066
 KE= 1.628144898080D+03 PE=-7.779997487141D+03 EE= 2.548098253452D+03
 Leave Link  502 at Sat Aug  8 07:19:33 2020, MaxMem=    33554432 cpu:       352.6
 (Enter /prod/apps/gaussian/g09d1/l601.exe)
 Copying SCF densities to generalized density rwf, IOpCl= 0 IROHF=0.

 **********************************************************************

            Population analysis using the SCF density.

 **********************************************************************

 Orbital symmetries:
       Occupied  (A) (A) (A) (A) (A) (A) (A) (A) (A) (A) (A) (A)
                 (A) (A) (A) (A) (A) (A) (A) (A) (A) (A) (A) (A)
                 (A) (A) (A) (A) (A) (A) (A) (A) (A) (A) (A) (A)
                 (A) (A) (A) (A) (A) (A) (A) (A) (A) (A) (A) (A)
                 (A) (A) (A) (A) (A) (A) (A) (A) (A) (A) (A) (A)
                 (A) (A) (A) (A) (A) (A) (A) (A) (A) (A) (A) (A)
                 (A) (A) (A) (A) (A) (A) (A) (A) (A) (A) (A) (A)
       Virtual   (A) (A) (A) (A) (A) (A) (A) (A) (A) (A) (A) (A)
                 (A) (A) (A) (A) (A) (A) (A) (A) (A) (A) (A) (A)
                 (A) (A) (A) (A) (A) (A) (A) (A) (A) (A) (A) (A)
                 (A) (A) (A) (A) (A) (A) (A) (A) (A) (A) (A) (A)
                 (A) (A) (A) (A) (A) (A) (A) (A) (A) (A) (A) (A)
                 (A) (A) (A) (A) (A) (A) (A) (A) (A) (A) (A) (A)
                 (A) (A) (A) (A) (A) (A) (A) (A) (A) (A) (A) (A)
                 (A) (A) (A) (A) (A) (A) (A) (A) (A) (A) (A) (A)
                 (A) (A) (A) (A) (A) (A) (A) (A) (A) (A) (A) (A)
                 (A) (A) (A) (A) (A) (A) (A) (A) (A) (A) (A) (A)
                 (A) (A) (A) (A) (A) (A) (A) (A) (A) (A) (A) (A)
                 (A) (A) (A) (A) (A) (A) (A) (A) (A) (A) (A) (A)
                 (A) (A) (A) (A) (A) (A) (A) (A) (A) (A) (A) (A)
                 (A) (A) (A) (A) (A) (A) (A) (A) (A) (A) (A) (A)
                 (A) (A) (A) (A) (A) (A) (A) (A) (A) (A) (A) (A)
                 (A) (A) (A) (A) (A) (A) (A) (A) (A) (A) (A) (A)
                 (A) (A) (A) (A) (A) (A) (A) (A) (A) (A) (A) (A)
                 (A) (A) (A) (A) (A) (A) (A) (A) (A) (A) (A) (A)
                 (A) (A) (A) (A) (A) (A) (A) (A) (A) (A) (A) (A)
                 (A) (A) (A) (A) (A) (A) (A) (A) (A) (A) (A) (A)
                 (A) (A) (A) (A) (A) (A) (A) (A) (A) (A) (A) (A)
                 (A) (A) (A) (A) (A) (A) (A) (A) (A) (A) (A) (A)
 The electronic state is 1-A.
 Alpha  occ. eigenvalues --  -89.13921 -88.97822 -19.15634 -19.15410 -19.10561
 Alpha  occ. eigenvalues --  -14.38583 -14.38400 -10.26874 -10.23209 -10.23205
 Alpha  occ. eigenvalues --  -10.21376 -10.21141 -10.20798 -10.19885 -10.19501
 Alpha  occ. eigenvalues --  -10.19183 -10.19167 -10.19027 -10.19017 -10.19010
 Alpha  occ. eigenvalues --   -8.16190  -8.02593  -6.12675  -6.12614  -6.12569
 Alpha  occ. eigenvalues --   -5.98999  -5.98839  -5.98361  -1.13239  -1.01333
 Alpha  occ. eigenvalues --   -0.99634  -0.95597  -0.94477  -0.85920  -0.84241
 Alpha  occ. eigenvalues --   -0.79356  -0.74613  -0.74540  -0.73702  -0.71871
 Alpha  occ. eigenvalues --   -0.70289  -0.67658  -0.62541  -0.60940  -0.60708
 Alpha  occ. eigenvalues --   -0.58253  -0.56451  -0.54694  -0.53163  -0.51625
 Alpha  occ. eigenvalues --   -0.50775  -0.48987  -0.48562  -0.47942  -0.46891
 Alpha  occ. eigenvalues --   -0.45596  -0.45352  -0.44652  -0.43965  -0.42735
 Alpha  occ. eigenvalues --   -0.42258  -0.42147  -0.42016  -0.40692  -0.40429
 Alpha  occ. eigenvalues --   -0.40226  -0.39878  -0.38126  -0.37190  -0.36068
 Alpha  occ. eigenvalues --   -0.35372  -0.35158  -0.34841  -0.34372  -0.33804
 Alpha  occ. eigenvalues --   -0.33175  -0.32816  -0.31305  -0.29213  -0.26596
 Alpha  occ. eigenvalues --   -0.25463  -0.25153  -0.24460  -0.22097
 Alpha virt. eigenvalues --   -0.00278  -0.00259   0.01470   0.02823   0.04876
 Alpha virt. eigenvalues --    0.05920   0.06162   0.06738   0.08178   0.08815
 Alpha virt. eigenvalues --    0.09043   0.10359   0.10730   0.11287   0.12093
 Alpha virt. eigenvalues --    0.12990   0.13685   0.14410   0.14931   0.15191
 Alpha virt. eigenvalues --    0.15335   0.15764   0.16094   0.17218   0.17816
 Alpha virt. eigenvalues --    0.18069   0.18696   0.19101   0.19366   0.19878
 Alpha virt. eigenvalues --    0.20967   0.21984   0.22379   0.23384   0.23864
 Alpha virt. eigenvalues --    0.27163   0.27831   0.29106   0.30433   0.32217
 Alpha virt. eigenvalues --    0.33997   0.34133   0.34237   0.35797   0.36737
 Alpha virt. eigenvalues --    0.40043   0.42140   0.43524   0.43916   0.45808
 Alpha virt. eigenvalues --    0.46957   0.47465   0.48615   0.49354   0.51320
 Alpha virt. eigenvalues --    0.52205   0.52658   0.52757   0.54896   0.55175
 Alpha virt. eigenvalues --    0.55472   0.56545   0.57092   0.57724   0.59059
 Alpha virt. eigenvalues --    0.59387   0.60187   0.60887   0.61150   0.61668
 Alpha virt. eigenvalues --    0.62280   0.62712   0.63111   0.65568   0.66470
 Alpha virt. eigenvalues --    0.67166   0.68111   0.69274   0.69884   0.70818
 Alpha virt. eigenvalues --    0.73601   0.74089   0.74273   0.75564   0.76340
 Alpha virt. eigenvalues --    0.76982   0.77384   0.80211   0.81384   0.81730
 Alpha virt. eigenvalues --    0.82695   0.82699   0.83488   0.83804   0.84208
 Alpha virt. eigenvalues --    0.85531   0.85811   0.86479   0.86800   0.86941
 Alpha virt. eigenvalues --    0.87616   0.88122   0.89359   0.89669   0.90367
 Alpha virt. eigenvalues --    0.91151   0.91427   0.92666   0.93211   0.94081
 Alpha virt. eigenvalues --    0.94729   0.94959   0.95913   0.97756   0.98068
 Alpha virt. eigenvalues --    0.99132   0.99960   1.00186   1.01070   1.02247
 Alpha virt. eigenvalues --    1.03630   1.06037   1.06994   1.07401   1.08767
 Alpha virt. eigenvalues --    1.10570   1.10991   1.11208   1.12145   1.12944
 Alpha virt. eigenvalues --    1.13710   1.17223   1.17758   1.18522   1.19440
 Alpha virt. eigenvalues --    1.20866   1.21890   1.24659   1.25918   1.28235
 Alpha virt. eigenvalues --    1.31327   1.32677   1.34564   1.36374   1.39199
 Alpha virt. eigenvalues --    1.40241   1.42167   1.42636   1.43475   1.45912
 Alpha virt. eigenvalues --    1.48136   1.48347   1.49131   1.50930   1.51250
 Alpha virt. eigenvalues --    1.51769   1.55047   1.57606   1.57906   1.67424
 Alpha virt. eigenvalues --    1.70166   1.71138   1.71754   1.73621   1.75910
 Alpha virt. eigenvalues --    1.76243   1.79949   1.80141   1.80453   1.81583
 Alpha virt. eigenvalues --    1.82117   1.82501   1.83410   1.84680   1.84866
 Alpha virt. eigenvalues --    1.86933   1.87359   1.89087   1.89722   1.90961
 Alpha virt. eigenvalues --    1.92673   1.93224   1.95797   1.96091   1.96942
 Alpha virt. eigenvalues --    1.97347   1.97684   1.99401   2.01889   2.02635
 Alpha virt. eigenvalues --    2.03271   2.03974   2.05692   2.05929   2.06639
 Alpha virt. eigenvalues --    2.07882   2.09502   2.12405   2.12977   2.13501
 Alpha virt. eigenvalues --    2.14093   2.14773   2.15351   2.16905   2.18985
 Alpha virt. eigenvalues --    2.19990   2.21748   2.22789   2.24046   2.25221
 Alpha virt. eigenvalues --    2.26500   2.27784   2.30868   2.31099   2.31669
 Alpha virt. eigenvalues --    2.34228   2.36340   2.38728   2.41132   2.41723
 Alpha virt. eigenvalues --    2.42131   2.47086   2.47796   2.50624   2.56296
 Alpha virt. eigenvalues --    2.56902   2.57878   2.60402   2.66197   2.70241
 Alpha virt. eigenvalues --    2.70531   2.72183   2.72655   2.72707   2.74547
 Alpha virt. eigenvalues --    2.75052   2.76557   2.76849   2.78202   2.83501
 Alpha virt. eigenvalues --    2.88884   2.94519   3.04890   3.41125   3.78401
 Alpha virt. eigenvalues --    3.86356   3.91702   3.94439   4.01430   4.06665
 Alpha virt. eigenvalues --    4.09025   4.10138   4.11449   4.14863   4.20501
 Alpha virt. eigenvalues --    4.23734   4.27171   4.32906   4.34241   4.36315
 Alpha virt. eigenvalues --    4.41399   4.50556   4.70052   4.73829
          Condensed to atoms (all electrons):
               1          2          3          4          5          6
     1  O    8.224917   0.449989  -0.057735   0.001819  -0.000020   0.000018
     2  S    0.449989  13.617263   0.128054   0.003995  -0.005371   0.000981
     3  N   -0.057735   0.128054   7.420983   0.191307  -0.056411   0.000078
     4  C    0.001819   0.003995   0.191307   4.826592   0.358134  -0.066765
     5  C   -0.000020  -0.005371  -0.056411   0.358134   5.705191   0.058778
     6  S    0.000018   0.000981   0.000078  -0.066765   0.058778  14.897951
     7  O    0.000000   0.000014  -0.000040  -0.000185  -0.037717   0.313825
     8  C   -0.000090  -0.005747  -0.038111   0.338030  -0.144502   0.065954
     9  C   -0.000090   0.001001  -0.039735   0.337572  -0.049885   0.003283
    10  C    0.000000  -0.000009   0.003163  -0.029548  -0.005099   0.000085
    11  C    0.000000   0.000002  -0.000123   0.003721   0.000190   0.000216
    12  C    0.000000   0.000000  -0.000003   0.000100  -0.000004  -0.000006
    13  C    0.000000   0.000000   0.000000   0.000002   0.000000   0.000000
    14  C    0.000000   0.000000   0.000000   0.000000   0.000000   0.000000
    15  C    0.000000   0.000000   0.000000   0.000002   0.000000   0.000000
    16  C    0.000000   0.000000  -0.000001   0.000084  -0.000015  -0.000005
    17  N   -0.056977   0.121208  -0.042972  -0.004026  -0.000292  -0.000235
    18  C    0.001642  -0.010847  -0.011906   0.000541  -0.000019   0.000010
    19  C   -0.002440  -0.025015   0.002395   0.000039   0.000018   0.000002
    20  O   -0.043633   0.400834  -0.053139   0.004628  -0.006424   0.006407
    21  H    0.005596  -0.017940   0.296860  -0.023059  -0.000175  -0.000118
    22  H   -0.000001   0.000274   0.002696  -0.029003   0.341443  -0.018333
    23  H   -0.000363   0.001852  -0.005848  -0.023478   0.328944  -0.008378
    24  H    0.000001   0.000147   0.002197  -0.028305   0.008570  -0.019428
    25  H    0.000025   0.005365  -0.007480  -0.024764   0.006391  -0.008605
    26  H   -0.000001  -0.000008  -0.000191  -0.033742   0.006026  -0.000305
    27  H   -0.000010  -0.000181  -0.005656  -0.035050  -0.005365  -0.000338
    28  H    0.000000   0.000003  -0.000042  -0.004808   0.001318  -0.000116
    29  H    0.000000  -0.000001  -0.000034  -0.005011  -0.000746  -0.000093
    30  H    0.000000   0.000000   0.000001  -0.000061   0.000001  -0.000003
    31  H    0.000000   0.000000   0.000000   0.000000   0.000000   0.000000
    32  H    0.000000   0.000000   0.000000   0.000000   0.000000   0.000000
    33  H    0.000000   0.000000   0.000000   0.000000   0.000000   0.000000
    34  H    0.000000   0.000000   0.000000  -0.000054  -0.000001  -0.000002
    35  H   -0.001670  -0.003335   0.015313  -0.000075   0.000043   0.000006
    36  H    0.000031   0.003342   0.000026  -0.000002   0.000001   0.000000
    37  H    0.005766  -0.008129  -0.000140  -0.000018   0.000000   0.000000
    38  H   -0.000260  -0.004343   0.000117   0.000013  -0.000002   0.000069
    39  H    0.002968  -0.003882  -0.000072  -0.000006   0.000000  -0.000001
    40  H   -0.000109   0.002218  -0.000083   0.000000   0.000000  -0.000002
               7          8          9         10         11         12
     1  O    0.000000  -0.000090  -0.000090   0.000000   0.000000   0.000000
     2  S    0.000014  -0.005747   0.001001  -0.000009   0.000002   0.000000
     3  N   -0.000040  -0.038111  -0.039735   0.003163  -0.000123  -0.000003
     4  C   -0.000185   0.338030   0.337572  -0.029548   0.003721   0.000100
     5  C   -0.037717  -0.144502  -0.049885  -0.005099   0.000190  -0.000004
     6  S    0.313825   0.065954   0.003283   0.000085   0.000216  -0.000006
     7  O    8.376354  -0.038463  -0.000214  -0.000395   0.000279  -0.000003
     8  C   -0.038463   5.698011  -0.039390  -0.007516   0.000076  -0.000013
     9  C   -0.000214  -0.039390   5.153205   0.339263  -0.034478  -0.004459
    10  C   -0.000395  -0.007516   0.339263   5.239233   0.316592  -0.056540
    11  C    0.000279   0.000076  -0.034478   0.316592   4.663424   0.546047
    12  C   -0.000003  -0.000013  -0.004459  -0.056540   0.546047   4.959905
    13  C    0.000000   0.000000  -0.000081   0.006999  -0.018341   0.522902
    14  C    0.000000   0.000000   0.000025   0.000326  -0.035109  -0.035406
    15  C    0.000000   0.000000  -0.000077   0.007001  -0.018553  -0.047774
    16  C   -0.000002  -0.000003  -0.004303  -0.056252   0.546240  -0.036565
    17  N    0.000000  -0.007590  -0.000271   0.000001   0.000000   0.000000
    18  C    0.000000   0.000212  -0.000013  -0.000001   0.000000   0.000000
    19  C    0.000000   0.000028   0.000002   0.000000   0.000000   0.000000
    20  O    0.000003  -0.002536   0.000135   0.000001   0.000000   0.000000
    21  H    0.000001   0.005275  -0.006887  -0.000090  -0.000003   0.000000
    22  H   -0.000114   0.008539  -0.006748  -0.001008  -0.000052  -0.000001
    23  H    0.001212   0.006697   0.002593   0.000234   0.000003   0.000000
    24  H   -0.000146   0.346929  -0.008143  -0.000027  -0.000100   0.000001
    25  H    0.001147   0.326675   0.002361   0.000227   0.000004   0.000000
    26  H    0.000008  -0.006430   0.362418  -0.037157  -0.001783   0.003985
    27  H    0.000007   0.005865   0.357855  -0.037545  -0.001600   0.000011
    28  H    0.002760  -0.000439  -0.037589   0.356983  -0.027429   0.003600
    29  H    0.006222   0.001027  -0.039460   0.355873  -0.025185  -0.003916
    30  H    0.000001  -0.000009   0.000274  -0.009434  -0.047748   0.354679
    31  H    0.000000   0.000000  -0.000001  -0.000183   0.003760  -0.039619
    32  H    0.000000   0.000000   0.000000   0.000006   0.000726   0.004713
    33  H    0.000000   0.000000  -0.000001  -0.000183   0.003780   0.000869
    34  H    0.000001   0.000000   0.000214  -0.009629  -0.047646   0.006236
    35  H    0.000000   0.000004   0.000015   0.000001   0.000000   0.000000
    36  H    0.000000   0.000097  -0.000001   0.000000   0.000000   0.000000
    37  H    0.000000  -0.000021  -0.000001   0.000000   0.000000   0.000000
    38  H    0.000000   0.000059   0.000000   0.000000   0.000000   0.000000
    39  H    0.000000  -0.000016   0.000000   0.000000   0.000000   0.000000
    40  H    0.000000   0.000078   0.000000   0.000000   0.000000   0.000000
              13         14         15         16         17         18
     1  O    0.000000   0.000000   0.000000   0.000000  -0.056977   0.001642
     2  S    0.000000   0.000000   0.000000   0.000000   0.121208  -0.010847
     3  N    0.000000   0.000000   0.000000  -0.000001  -0.042972  -0.011906
     4  C    0.000002   0.000000   0.000002   0.000084  -0.004026   0.000541
     5  C    0.000000   0.000000   0.000000  -0.000015  -0.000292  -0.000019
     6  S    0.000000   0.000000   0.000000  -0.000005  -0.000235   0.000010
     7  O    0.000000   0.000000   0.000000  -0.000002   0.000000   0.000000
     8  C    0.000000   0.000000   0.000000  -0.000003  -0.007590   0.000212
     9  C   -0.000081   0.000025  -0.000077  -0.004303  -0.000271  -0.000013
    10  C    0.006999   0.000326   0.007001  -0.056252   0.000001  -0.000001
    11  C   -0.018341  -0.035109  -0.018553   0.546240   0.000000   0.000000
    12  C    0.522902  -0.035406  -0.047774  -0.036565   0.000000   0.000000
    13  C    4.867682   0.550293  -0.025765  -0.047751   0.000000   0.000000
    14  C    0.550293   4.852865   0.550463  -0.035430   0.000000   0.000000
    15  C   -0.025765   0.550463   4.866941   0.523055   0.000000   0.000000
    16  C   -0.047751  -0.035430   0.523055   4.960550   0.000000   0.000000
    17  N    0.000000   0.000000   0.000000   0.000000   7.218737   0.273437
    18  C    0.000000   0.000000   0.000000   0.000000   0.273437   5.001230
    19  C    0.000000   0.000000   0.000000   0.000000   0.288326  -0.050443
    20  O    0.000000   0.000000   0.000000   0.000000  -0.053392   0.001753
    21  H    0.000000   0.000000   0.000000  -0.000002   0.002512  -0.000221
    22  H    0.000000   0.000000   0.000000  -0.000003   0.000000   0.000000
    23  H    0.000000   0.000000   0.000000   0.000000   0.000044  -0.000003
    24  H   -0.000001   0.000000   0.000000   0.000000   0.000107  -0.000014
    25  H    0.000000   0.000000   0.000000   0.000000   0.015392  -0.000549
    26  H   -0.000163  -0.000004  -0.000016   0.000030  -0.000012  -0.000065
    27  H   -0.000010  -0.000005  -0.000149   0.003840   0.000001   0.000003
    28  H   -0.000207   0.000013   0.000108  -0.003933   0.000000   0.000000
    29  H    0.000091   0.000014  -0.000208   0.003422   0.000000   0.000000
    30  H   -0.045913   0.004920   0.000362   0.006230   0.000000   0.000000
    31  H    0.356543  -0.043193   0.004562   0.000873   0.000000   0.000000
    32  H   -0.043097   0.359012  -0.043054   0.004714   0.000000   0.000000
    33  H    0.004563  -0.043227   0.356642  -0.039607   0.000000   0.000000
    34  H    0.000362   0.004925  -0.045905   0.354729   0.000000   0.000000
    35  H    0.000000   0.000000   0.000000   0.000000  -0.033606   0.374405
    36  H    0.000000   0.000000   0.000000   0.000000  -0.035550   0.374011
    37  H    0.000000   0.000000   0.000000   0.000000  -0.045017   0.372814
    38  H    0.000000   0.000000   0.000000   0.000000  -0.031301   0.004684
    39  H    0.000000   0.000000   0.000000   0.000000  -0.046661  -0.002879
    40  H    0.000000   0.000000   0.000000   0.000000  -0.038554  -0.002932
              19         20         21         22         23         24
     1  O   -0.002440  -0.043633   0.005596  -0.000001  -0.000363   0.000001
     2  S   -0.025015   0.400834  -0.017940   0.000274   0.001852   0.000147
     3  N    0.002395  -0.053139   0.296860   0.002696  -0.005848   0.002197
     4  C    0.000039   0.004628  -0.023059  -0.029003  -0.023478  -0.028305
     5  C    0.000018  -0.006424  -0.000175   0.341443   0.328944   0.008570
     6  S    0.000002   0.006407  -0.000118  -0.018333  -0.008378  -0.019428
     7  O    0.000000   0.000003   0.000001  -0.000114   0.001212  -0.000146
     8  C    0.000028  -0.002536   0.005275   0.008539   0.006697   0.346929
     9  C    0.000002   0.000135  -0.006887  -0.006748   0.002593  -0.008143
    10  C    0.000000   0.000001  -0.000090  -0.001008   0.000234  -0.000027
    11  C    0.000000   0.000000  -0.000003  -0.000052   0.000003  -0.000100
    12  C    0.000000   0.000000   0.000000  -0.000001   0.000000   0.000001
    13  C    0.000000   0.000000   0.000000   0.000000   0.000000  -0.000001
    14  C    0.000000   0.000000   0.000000   0.000000   0.000000   0.000000
    15  C    0.000000   0.000000   0.000000   0.000000   0.000000   0.000000
    16  C    0.000000   0.000000  -0.000002  -0.000003   0.000000   0.000000
    17  N    0.288326  -0.053392   0.002512   0.000000   0.000044   0.000107
    18  C   -0.050443   0.001753  -0.000221   0.000000  -0.000003  -0.000014
    19  C    4.997157  -0.004589  -0.000056   0.000000   0.000007  -0.000002
    20  O   -0.004589   8.288217   0.000047   0.000257   0.009611   0.000104
    21  H   -0.000056   0.000047   0.372932   0.000271   0.000262  -0.000058
    22  H    0.000000   0.000257   0.000271   0.518073  -0.018695  -0.000388
    23  H    0.000007   0.009611   0.000262  -0.018695   0.489635  -0.000321
    24  H   -0.000002   0.000104  -0.000058  -0.000388  -0.000321   0.511445
    25  H   -0.000378  -0.000623   0.000135  -0.000297  -0.000374  -0.018157
    26  H    0.000001   0.000003  -0.000300   0.000153  -0.000118   0.002624
    27  H    0.000000   0.000001   0.007811   0.002296   0.000069   0.000214
    28  H    0.000000   0.000000   0.000001   0.006498   0.000037   0.000128
    29  H    0.000000   0.000000   0.000022   0.000204  -0.000015   0.006352
    30  H    0.000000   0.000000   0.000000   0.000000   0.000000   0.000176
    31  H    0.000000   0.000000   0.000000   0.000000   0.000000   0.000000
    32  H    0.000000   0.000000   0.000000   0.000000   0.000000   0.000000
    33  H    0.000000   0.000000   0.000000   0.000000   0.000000   0.000000
    34  H    0.000000   0.000000   0.000000   0.000077   0.000000   0.000000
    35  H    0.004835   0.000036  -0.000660   0.000000   0.000000   0.000017
    36  H   -0.003501  -0.000051   0.000000   0.000000   0.000000  -0.000001
    37  H   -0.002470  -0.000042   0.000094   0.000000   0.000000   0.000000
    38  H    0.377663   0.012200  -0.000004   0.000000  -0.000001  -0.000001
    39  H    0.371283  -0.000476   0.000008   0.000000   0.000000   0.000000
    40  H    0.378347   0.000181   0.000001   0.000000   0.000000  -0.000001
              25         26         27         28         29         30
     1  O    0.000025  -0.000001  -0.000010   0.000000   0.000000   0.000000
     2  S    0.005365  -0.000008  -0.000181   0.000003  -0.000001   0.000000
     3  N   -0.007480  -0.000191  -0.005656  -0.000042  -0.000034   0.000001
     4  C   -0.024764  -0.033742  -0.035050  -0.004808  -0.005011  -0.000061
     5  C    0.006391   0.006026  -0.005365   0.001318  -0.000746   0.000001
     6  S   -0.008605  -0.000305  -0.000338  -0.000116  -0.000093  -0.000003
     7  O    0.001147   0.000008   0.000007   0.002760   0.006222   0.000001
     8  C    0.326675  -0.006430   0.005865  -0.000439   0.001027  -0.000009
     9  C    0.002361   0.362418   0.357855  -0.037589  -0.039460   0.000274
    10  C    0.000227  -0.037157  -0.037545   0.356983   0.355873  -0.009434
    11  C    0.000004  -0.001783  -0.001600  -0.027429  -0.025185  -0.047748
    12  C    0.000000   0.003985   0.000011   0.003600  -0.003916   0.354679
    13  C    0.000000  -0.000163  -0.000010  -0.000207   0.000091  -0.045913
    14  C    0.000000  -0.000004  -0.000005   0.000013   0.000014   0.004920
    15  C    0.000000  -0.000016  -0.000149   0.000108  -0.000208   0.000362
    16  C    0.000000   0.000030   0.003840  -0.003933   0.003422   0.006230
    17  N    0.015392  -0.000012   0.000001   0.000000   0.000000   0.000000
    18  C   -0.000549  -0.000065   0.000003   0.000000   0.000000   0.000000
    19  C   -0.000378   0.000001   0.000000   0.000000   0.000000   0.000000
    20  O   -0.000623   0.000003   0.000001   0.000000   0.000000   0.000000
    21  H    0.000135  -0.000300   0.007811   0.000001   0.000022   0.000000
    22  H   -0.000297   0.000153   0.002296   0.006498   0.000204   0.000000
    23  H   -0.000374  -0.000118   0.000069   0.000037  -0.000015   0.000000
    24  H   -0.018157   0.002624   0.000214   0.000128   0.006352   0.000176
    25  H    0.484635   0.000098  -0.000132  -0.000014   0.000050   0.000000
    26  H    0.000098   0.576290  -0.034625   0.005437  -0.003721   0.000902
    27  H   -0.000132  -0.034625   0.601974  -0.004451   0.005637   0.000042
    28  H   -0.000014   0.005437  -0.004451   0.562233  -0.030088   0.000073
    29  H    0.000050  -0.003721   0.005637  -0.030088   0.552566   0.005081
    30  H    0.000000   0.000902   0.000042   0.000073   0.005081   0.615236
    31  H    0.000000   0.000004   0.000000   0.000003  -0.000006  -0.005724
    32  H    0.000000   0.000000   0.000000   0.000000   0.000000  -0.000185
    33  H    0.000000   0.000000   0.000003  -0.000007   0.000003   0.000018
    34  H    0.000000   0.000051   0.000801   0.005432   0.000081  -0.000185
    35  H   -0.000166   0.000578  -0.000012   0.000000   0.000000   0.000000
    36  H   -0.000240   0.000001   0.000000   0.000000   0.000000   0.000000
    37  H    0.000091   0.000000   0.000000   0.000000   0.000000   0.000000
    38  H   -0.000035   0.000000   0.000000   0.000000   0.000000   0.000000
    39  H    0.000101   0.000000   0.000000   0.000000   0.000000   0.000000
    40  H   -0.000318   0.000000   0.000000   0.000000   0.000000   0.000000
              31         32         33         34         35         36
     1  O    0.000000   0.000000   0.000000   0.000000  -0.001670   0.000031
     2  S    0.000000   0.000000   0.000000   0.000000  -0.003335   0.003342
     3  N    0.000000   0.000000   0.000000   0.000000   0.015313   0.000026
     4  C    0.000000   0.000000   0.000000  -0.000054  -0.000075  -0.000002
     5  C    0.000000   0.000000   0.000000  -0.000001   0.000043   0.000001
     6  S    0.000000   0.000000   0.000000  -0.000002   0.000006   0.000000
     7  O    0.000000   0.000000   0.000000   0.000001   0.000000   0.000000
     8  C    0.000000   0.000000   0.000000   0.000000   0.000004   0.000097
     9  C   -0.000001   0.000000  -0.000001   0.000214   0.000015  -0.000001
    10  C   -0.000183   0.000006  -0.000183  -0.009629   0.000001   0.000000
    11  C    0.003760   0.000726   0.003780  -0.047646   0.000000   0.000000
    12  C   -0.039619   0.004713   0.000869   0.006236   0.000000   0.000000
    13  C    0.356543  -0.043097   0.004563   0.000362   0.000000   0.000000
    14  C   -0.043193   0.359012  -0.043227   0.004925   0.000000   0.000000
    15  C    0.004562  -0.043054   0.356642  -0.045905   0.000000   0.000000
    16  C    0.000873   0.004714  -0.039607   0.354729   0.000000   0.000000
    17  N    0.000000   0.000000   0.000000   0.000000  -0.033606  -0.035550
    18  C    0.000000   0.000000   0.000000   0.000000   0.374405   0.374011
    19  C    0.000000   0.000000   0.000000   0.000000   0.004835  -0.003501
    20  O    0.000000   0.000000   0.000000   0.000000   0.000036  -0.000051
    21  H    0.000000   0.000000   0.000000   0.000000  -0.000660   0.000000
    22  H    0.000000   0.000000   0.000000   0.000077   0.000000   0.000000
    23  H    0.000000   0.000000   0.000000   0.000000   0.000000   0.000000
    24  H    0.000000   0.000000   0.000000   0.000000   0.000017  -0.000001
    25  H    0.000000   0.000000   0.000000   0.000000  -0.000166  -0.000240
    26  H    0.000004   0.000000   0.000000   0.000051   0.000578   0.000001
    27  H    0.000000   0.000000   0.000003   0.000801  -0.000012   0.000000
    28  H    0.000003   0.000000  -0.000007   0.005432   0.000000   0.000000
    29  H   -0.000006   0.000000   0.000003   0.000081   0.000000   0.000000
    30  H   -0.005724  -0.000185   0.000018  -0.000185   0.000000   0.000000
    31  H    0.598749  -0.005549  -0.000191   0.000018   0.000000   0.000000
    32  H   -0.005549   0.598634  -0.005547  -0.000185   0.000000   0.000000
    33  H   -0.000191  -0.005547   0.598203  -0.005736   0.000000   0.000000
    34  H    0.000018  -0.000185  -0.005736   0.614834   0.000000   0.000000
    35  H    0.000000   0.000000   0.000000   0.000000   0.509899  -0.023030
    36  H    0.000000   0.000000   0.000000   0.000000  -0.023030   0.551123
    37  H    0.000000   0.000000   0.000000   0.000000  -0.030777  -0.037127
    38  H    0.000000   0.000000   0.000000   0.000000  -0.000195  -0.000005
    39  H    0.000000   0.000000   0.000000   0.000000  -0.000206  -0.001488
    40  H    0.000000   0.000000   0.000000   0.000000   0.000024   0.005204
              37         38         39         40
     1  O    0.005766  -0.000260   0.002968  -0.000109
     2  S   -0.008129  -0.004343  -0.003882   0.002218
     3  N   -0.000140   0.000117  -0.000072  -0.000083
     4  C   -0.000018   0.000013  -0.000006   0.000000
     5  C    0.000000  -0.000002   0.000000   0.000000
     6  S    0.000000   0.000069  -0.000001  -0.000002
     7  O    0.000000   0.000000   0.000000   0.000000
     8  C   -0.000021   0.000059  -0.000016   0.000078
     9  C   -0.000001   0.000000   0.000000   0.000000
    10  C    0.000000   0.000000   0.000000   0.000000
    11  C    0.000000   0.000000   0.000000   0.000000
    12  C    0.000000   0.000000   0.000000   0.000000
    13  C    0.000000   0.000000   0.000000   0.000000
    14  C    0.000000   0.000000   0.000000   0.000000
    15  C    0.000000   0.000000   0.000000   0.000000
    16  C    0.000000   0.000000   0.000000   0.000000
    17  N   -0.045017  -0.031301  -0.046661  -0.038554
    18  C    0.372814   0.004684  -0.002879  -0.002932
    19  C   -0.002470   0.377663   0.371283   0.378347
    20  O   -0.000042   0.012200  -0.000476   0.000181
    21  H    0.000094  -0.000004   0.000008   0.000001
    22  H    0.000000   0.000000   0.000000   0.000000
    23  H    0.000000  -0.000001   0.000000   0.000000
    24  H    0.000000  -0.000001   0.000000  -0.000001
    25  H    0.000091  -0.000035   0.000101  -0.000318
    26  H    0.000000   0.000000   0.000000   0.000000
    27  H    0.000000   0.000000   0.000000   0.000000
    28  H    0.000000   0.000000   0.000000   0.000000
    29  H    0.000000   0.000000   0.000000   0.000000
    30  H    0.000000   0.000000   0.000000   0.000000
    31  H    0.000000   0.000000   0.000000   0.000000
    32  H    0.000000   0.000000   0.000000   0.000000
    33  H    0.000000   0.000000   0.000000   0.000000
    34  H    0.000000   0.000000   0.000000   0.000000
    35  H   -0.030777  -0.000195  -0.000206   0.000024
    36  H   -0.037127  -0.000005  -0.001488   0.005204
    37  H    0.566477  -0.000187   0.009216  -0.001769
    38  H   -0.000187   0.484075  -0.029791  -0.020648
    39  H    0.009216  -0.029791   0.575996  -0.040648
    40  H   -0.001769  -0.020648  -0.040648   0.549270
 Mulliken charges:
               1
     1  O   -0.529371
     2  S    1.348267
     3  N   -0.743467
     4  C    0.241382
     5  C   -0.502998
     6  S    0.775069
     7  O   -0.624554
     8  C   -0.512679
     9  C   -0.288388
    10  C   -0.375373
    11  C    0.173088
    12  C   -0.178738
    13  C   -0.128108
    14  C   -0.130480
    15  C   -0.127635
    16  C   -0.179895
    17  N   -0.523305
    18  C   -0.324850
    19  C   -0.331208
    20  O   -0.559512
    21  H    0.357743
    22  H    0.193863
    23  H    0.216394
    24  H    0.196080
    25  H    0.219433
    26  H    0.160032
    27  H    0.138704
    28  H    0.164496
    29  H    0.171840
    30  H    0.121265
    31  H    0.129954
    32  H    0.129811
    33  H    0.130418
    34  H    0.121578
    35  H    0.188557
    36  H    0.167159
    37  H    0.171239
    38  H    0.207894
    39  H    0.166555
    40  H    0.169742
 Sum of Mulliken charges =   0.00000
 Mulliken charges with hydrogens summed into heavy atoms:
               1
     1  O   -0.529371
     2  S    1.348267
     3  N   -0.385724
     4  C    0.241382
     5  C   -0.092741
     6  S    0.775069
     7  O   -0.624554
     8  C   -0.097166
     9  C    0.010347
    10  C   -0.039037
    11  C    0.173088
    12  C   -0.057473
    13  C    0.001846
    14  C   -0.000669
    15  C    0.002783
    16  C   -0.058317
    17  N   -0.523305
    18  C    0.202104
    19  C    0.212983
    20  O   -0.559512
 Electronic spatial extent (au):  <R**2>=           8587.0224
 Charge=              0.0000 electrons
 Dipole moment (field-independent basis, Debye):
    X=             -0.2141    Y=             -4.5913    Z=              1.4677  Tot=              4.8249
 Quadrupole moment (field-independent basis, Debye-Ang):
   XX=           -130.6406   YY=           -148.4649   ZZ=           -126.8959
   XY=              3.0694   XZ=             16.0347   YZ=            -10.3201
 Traceless Quadrupole moment (field-independent basis, Debye-Ang):
   XX=              4.6932   YY=            -13.1311   ZZ=              8.4379
   XY=              3.0694   XZ=             16.0347   YZ=            -10.3201
 Octapole moment (field-independent basis, Debye-Ang**2):
  XXX=             27.9694  YYY=            -58.0148  ZZZ=              3.5027  XYY=             31.7992
  XXY=            -37.8211  XXZ=             49.3141  XZZ=             -3.3933  YZZ=              3.0269
  YYZ=             -7.5096  XYZ=             -7.8628
 Hexadecapole moment (field-independent basis, Debye-Ang**3):
 XXXX=          -8079.5333 YYYY=          -2208.0531 ZZZZ=           -859.4604 XXXY=            129.9538
 XXXZ=            265.8853 YYYX=             -9.1571 YYYZ=            -78.5047 ZZZX=             22.6235
 ZZZY=            -11.0600 XXYY=          -1749.7053 XXZZ=          -1514.9620 YYZZ=           -476.6198
 XXYZ=            -91.3453 YYXZ=             31.8437 ZZXY=             17.6962
 N-N= 1.964921205444D+03 E-N=-7.779997487951D+03  KE= 1.628144898080D+03
 No NMR shielding tensors so no spin-rotation constants.
 Leave Link  601 at Sat Aug  8 07:19:33 2020, MaxMem=    33554432 cpu:         0.3
 (Enter /prod/apps/gaussian/g09d1/l9999.exe)
 1\1\GINC-PIRINEUS28\SP\RB3LYP\6-31G(d)\C13H20N2O3S2\UBAFAR01\08-Aug-20
 20\0\\#p b3lyp/6-31G(d)\\SM37.n.6.pdb.xyz\\0,1\O,0,4.335,0.24,0.763\S,
 0,4.272,-1.166,0.345\N,0,3.366,-1.162,-1.06\C,0,2.572,-2.327,-1.507\C,
 0,1.497,-2.834,-0.507\S,0,2.191,-4.571,-0.471\O,0,1.343,-5.498,-1.324\
 C,0,3.4,-3.634,-1.551\C,0,2.005,-1.913,-2.878\C,0,1.116,-2.952,-3.582\
 C,0,0.661,-2.459,-4.938\C,0,1.433,-2.692,-6.083\C,0,1.03,-2.212,-7.329
 \C,0,-0.158,-1.489,-7.45\C,0,-0.938,-1.252,-6.317\C,0,-0.53,-1.734,-5.
 074\N,0,5.751,-1.733,-0.238\C,0,6.386,-0.827,-1.203\C,0,6.662,-2.19,0.
 827\O,0,3.808,-2.181,1.298\H,0,2.858,-0.279,-1.106\H,0,0.47,-2.839,-0.
 874\H,0,1.556,-2.389,0.485\H,0,3.471,-4.104,-2.532\H,0,4.384,-3.568,-1
 .089\H,0,2.853,-1.662,-3.522\H,0,1.426,-0.989,-2.746\H,0,0.244,-3.178,
 -2.962\H,0,1.661,-3.894,-3.694\H,0,2.355,-3.26,-5.997\H,0,1.64,-2.408,
 -8.205\H,0,-0.475,-1.118,-8.419\H,0,-1.866,-0.696,-6.401\H,0,-1.145,-1
 .553,-4.197\H,0,5.659,-0.552,-1.966\H,0,7.206,-1.37,-1.677\H,0,6.782,0
 .078,-0.728\H,0,6.124,-2.86,1.495\H,0,7.085,-1.356,1.401\H,0,7.475,-2.
 736,0.346\\Version=AM64L-G09RevD.01\State=1-A\HF=-1638.8331302\RMSD=3.
 957e-09\Dipole=1.1671919,1.0886219,-1.0275973\Quadrupole=14.6238302,-1
 2.1610506,-2.4627795,-9.0728156,0.8419185,-3.5619316\PG=C01 [X(C13H20N
 2O3S2)]\\@


 WHEN ALL ELSE FAILS, LOOK AT THE SCHRODINGER EQUATION.
     -- RUSSELL T. PACK, APRIL 1978
 Job cpu time:       0 days  0 hours  5 minutes 59.2 seconds.
 File lengths (MBytes):  RWF=     67 Int=      0 D2E=      0 Chk=      5 Scr=      1
 Normal termination of Gaussian 09 at Sat Aug  8 07:19:33 2020.
 Initial command:
 /prod/apps/gaussian/g09d1/l1.exe "/tmp/ubafar01/1449208/Gau-66227.inp" -scrdir="/tmp/ubafar01/1449208/"
 Entering Link 1 = /prod/apps/gaussian/g09d1/l1.exe PID=     67464.
  
 Copyright (c) 1988,1990,1992,1993,1995,1998,2003,2009,2013,
            Gaussian, Inc.  All Rights Reserved.
  
 This is part of the Gaussian(R) 09 program.  It is based on
 the Gaussian(R) 03 system (copyright 2003, Gaussian, Inc.),
 the Gaussian(R) 98 system (copyright 1998, Gaussian, Inc.),
 the Gaussian(R) 94 system (copyright 1995, Gaussian, Inc.),
 the Gaussian 92(TM) system (copyright 1992, Gaussian, Inc.),
 the Gaussian 90(TM) system (copyright 1990, Gaussian, Inc.),
 the Gaussian 88(TM) system (copyright 1988, Gaussian, Inc.),
 the Gaussian 86(TM) system (copyright 1986, Carnegie Mellon
 University), and the Gaussian 82(TM) system (copyright 1983,
 Carnegie Mellon University). Gaussian is a federally registered
 trademark of Gaussian, Inc.
  
 This software contains proprietary and confidential information,
 including trade secrets, belonging to Gaussian, Inc.
  
 This software is provided under written license and may be
 used, copied, transmitted, or stored only in accord with that
 written license.
  
 The following legend is applicable only to US Government
 contracts under FAR:
  
                    RESTRICTED RIGHTS LEGEND
  
 Use, reproduction and disclosure by the US Government is
 subject to restrictions as set forth in subparagraphs (a)
 and (c) of the Commercial Computer Software - Restricted
 Rights clause in FAR 52.227-19.
  
 Gaussian, Inc.
 340 Quinnipiac St., Bldg. 40, Wallingford CT 06492
  
  
 ---------------------------------------------------------------
 Warning -- This program may not be used in any manner that
 competes with the business of Gaussian, Inc. or will provide
 assistance to any competitor of Gaussian, Inc.  The licensee
 of this program is prohibited from giving any competitor of
 Gaussian, Inc. access to this program.  By using this program,
 the user acknowledges that Gaussian, Inc. is engaged in the
 business of creating and licensing software in the field of
[...]
    38  H    0.000000   0.000060   0.000000   0.000000   0.000000   0.000000
    39  H    0.000000  -0.000016   0.000000   0.000000   0.000000   0.000000
    40  H    0.000000   0.000075   0.000000   0.000000   0.000000   0.000000
              13         14         15         16         17         18
     1  O    0.000000   0.000000   0.000000   0.000000  -0.057310   0.001551
     2  S    0.000000   0.000000   0.000000   0.000000   0.132464  -0.011890
     3  N    0.000000   0.000000   0.000000  -0.000001  -0.044277  -0.011554
     4  C    0.000002   0.000000   0.000002   0.000082  -0.003968   0.000529
     5  C    0.000000   0.000000   0.000000  -0.000015  -0.000307  -0.000019
     6  S    0.000000   0.000000   0.000000  -0.000004  -0.000255   0.000010
     7  O    0.000000   0.000000   0.000000  -0.000002   0.000000   0.000000
     8  C    0.000000   0.000000   0.000000  -0.000004  -0.007685   0.000208
     9  C   -0.000083   0.000025  -0.000080  -0.004122  -0.000270  -0.000011
    10  C    0.006997   0.000299   0.007001  -0.056957   0.000001   0.000000
    11  C   -0.019658  -0.034897  -0.019899   0.545627   0.000000   0.000000
    12  C    0.521228  -0.036762  -0.047706  -0.037212   0.000000   0.000000
    13  C    4.881698   0.548002  -0.027121  -0.047654   0.000000   0.000000
    14  C    0.548002   4.867961   0.548036  -0.036721   0.000000   0.000000
    15  C   -0.027121   0.548036   4.881724   0.521115   0.000000   0.000000
    16  C   -0.047654  -0.036721   0.521115   4.970868   0.000000   0.000000
    17  N    0.000000   0.000000   0.000000   0.000000   7.214785   0.271179
    18  C    0.000000   0.000000   0.000000   0.000000   0.271179   5.004208
    19  C    0.000000   0.000000   0.000000   0.000000   0.283785  -0.049962
    20  O    0.000000   0.000000   0.000000   0.000000  -0.054059   0.001683
    21  H    0.000000   0.000000   0.000000  -0.000002   0.002306  -0.000250
    22  H    0.000000   0.000000   0.000000  -0.000003   0.000000   0.000000
    23  H    0.000000   0.000000   0.000000   0.000000   0.000043  -0.000003
    24  H   -0.000001   0.000000   0.000000   0.000000   0.000105  -0.000015
    25  H    0.000000   0.000000   0.000000   0.000000   0.015858  -0.000581
    26  H   -0.000155  -0.000003  -0.000015   0.000003  -0.000012  -0.000057
    27  H   -0.000009  -0.000005  -0.000138   0.003745   0.000001   0.000003
    28  H   -0.000209   0.000013   0.000104  -0.004133   0.000000   0.000000
    29  H    0.000089   0.000014  -0.000210   0.003556   0.000000   0.000000
    30  H   -0.044831   0.004842   0.000321   0.006112   0.000000   0.000000
    31  H    0.358716  -0.042675   0.004510   0.000823   0.000000   0.000000
    32  H   -0.042582   0.361067  -0.042585   0.004669   0.000000   0.000000
    33  H    0.004514  -0.042737   0.358763  -0.039031   0.000000   0.000000
    34  H    0.000318   0.004844  -0.045033   0.357401   0.000000   0.000000
    35  H    0.000000   0.000000   0.000000   0.000000  -0.033674   0.374604
    36  H    0.000000   0.000000   0.000000   0.000000  -0.034409   0.376595
    37  H    0.000000   0.000000   0.000000   0.000000  -0.045253   0.373276
    38  H    0.000000   0.000000   0.000000   0.000000  -0.032086   0.004668
    39  H    0.000000   0.000000   0.000000   0.000000  -0.046675  -0.002717
    40  H    0.000000   0.000000   0.000000   0.000000  -0.037198  -0.002748
              19         20         21         22         23         24
     1  O   -0.002344  -0.043234   0.005042  -0.000001  -0.000359   0.000001
     2  S   -0.024418   0.401601  -0.016537   0.000279   0.002022   0.000154
     3  N    0.002346  -0.053363   0.298540   0.002593  -0.005924   0.002158
     4  C    0.000037   0.004445  -0.021860  -0.028401  -0.023441  -0.028211
     5  C    0.000018  -0.006521  -0.000205   0.343269   0.330286   0.008475
     6  S    0.000002   0.006661  -0.000166  -0.018854  -0.009490  -0.019919
     7  O    0.000000   0.000003   0.000001  -0.000235   0.001222  -0.000303
     8  C    0.000033  -0.002574   0.004906   0.008383   0.006594   0.348648
     9  C    0.000002   0.000128  -0.006294  -0.006472   0.002531  -0.007898
    10  C    0.000000   0.000001  -0.000062  -0.000974   0.000233  -0.000113
    11  C    0.000000   0.000000  -0.000004  -0.000041   0.000003  -0.000092
    12  C    0.000000   0.000000   0.000000  -0.000001   0.000000   0.000001
    13  C    0.000000   0.000000   0.000000   0.000000   0.000000  -0.000001
    14  C    0.000000   0.000000   0.000000   0.000000   0.000000   0.000000
    15  C    0.000000   0.000000   0.000000   0.000000   0.000000   0.000000
    16  C    0.000000   0.000000  -0.000002  -0.000003   0.000000   0.000000
    17  N    0.283785  -0.054059   0.002306   0.000000   0.000043   0.000105
    18  C   -0.049962   0.001683  -0.000250   0.000000  -0.000003  -0.000015
    19  C    4.999827  -0.004716  -0.000049   0.000000   0.000007  -0.000002
    20  O   -0.004716   8.301832   0.000002   0.000252   0.009753   0.000102
    21  H   -0.000049   0.000002   0.347336   0.000238   0.000248  -0.000052
    22  H    0.000000   0.000252   0.000238   0.505472  -0.017201  -0.000387
    23  H    0.000007   0.009753   0.000248  -0.017201   0.486527  -0.000308
    24  H   -0.000002   0.000102  -0.000052  -0.000387  -0.000308   0.499871
    25  H   -0.000438  -0.000659   0.000133  -0.000282  -0.000386  -0.016623
    26  H    0.000001   0.000003  -0.000281   0.000142  -0.000114   0.002541
    27  H    0.000000   0.000001   0.006802   0.002176   0.000066   0.000196
    28  H    0.000000   0.000000   0.000001   0.006345   0.000039   0.000124
    29  H    0.000000   0.000000   0.000019   0.000195  -0.000016   0.006226
    30  H    0.000000   0.000000   0.000000   0.000000   0.000000   0.000163
    31  H    0.000000   0.000000   0.000000   0.000000   0.000000   0.000000
    32  H    0.000000   0.000000   0.000000   0.000000   0.000000   0.000000
    33  H    0.000000   0.000000   0.000000   0.000000   0.000000   0.000000
    34  H    0.000000   0.000000   0.000000   0.000071   0.000000   0.000000
    35  H    0.004758   0.000037  -0.000608   0.000000   0.000000   0.000015
    36  H   -0.003407  -0.000050   0.000000   0.000000   0.000000  -0.000001
    37  H   -0.002479  -0.000042   0.000093   0.000000   0.000000   0.000000
    38  H    0.376837   0.011879  -0.000004   0.000000  -0.000001  -0.000001
    39  H    0.371666  -0.000462   0.000008   0.000000   0.000000   0.000000
    40  H    0.380702   0.000174   0.000001   0.000000   0.000000  -0.000001
              25         26         27         28         29         30
     1  O    0.000027  -0.000001  -0.000010   0.000000   0.000000   0.000000
     2  S    0.005640  -0.000018  -0.000139   0.000003   0.000000   0.000000
     3  N   -0.007416  -0.000339  -0.005056  -0.000043  -0.000034   0.000001
     4  C   -0.024759  -0.033231  -0.033589  -0.004938  -0.005050  -0.000060
     5  C    0.006147   0.005954  -0.005265   0.001653  -0.000737   0.000001
     6  S   -0.009118  -0.000346  -0.000378  -0.000183  -0.000277  -0.000003
     7  O    0.001125   0.000007   0.000006   0.002741   0.006194   0.000001
     8  C    0.328380  -0.006327   0.005671  -0.000425   0.001399  -0.000008
     9  C    0.002291   0.364456   0.362542  -0.036653  -0.038852   0.000298
    10  C    0.000220  -0.037533  -0.037376   0.355645   0.353927  -0.009313
    11  C    0.000004  -0.001797  -0.001679  -0.026862  -0.025068  -0.046963
    12  C    0.000000   0.003916  -0.000009   0.003718  -0.004128   0.357303
    13  C    0.000000  -0.000155  -0.000009  -0.000209   0.000089  -0.044831
    14  C    0.000000  -0.000003  -0.000005   0.000013   0.000014   0.004842
    15  C    0.000000  -0.000015  -0.000138   0.000104  -0.000210   0.000321
    16  C    0.000000   0.000003   0.003745  -0.004133   0.003556   0.006112
    17  N    0.015858  -0.000012   0.000001   0.000000   0.000000   0.000000
    18  C   -0.000581  -0.000057   0.000003   0.000000   0.000000   0.000000
    19  C   -0.000438   0.000001   0.000000   0.000000   0.000000   0.000000
    20  O   -0.000659   0.000003   0.000001   0.000000   0.000000   0.000000
    21  H    0.000133  -0.000281   0.006802   0.000001   0.000019   0.000000
    22  H   -0.000282   0.000142   0.002176   0.006345   0.000195   0.000000
    23  H   -0.000386  -0.000114   0.000066   0.000039  -0.000016   0.000000
    24  H   -0.016623   0.002541   0.000196   0.000124   0.006226   0.000163
    25  H    0.473324   0.000092  -0.000123  -0.000014   0.000050   0.000000
    26  H    0.000092   0.567016  -0.033205   0.005381  -0.003837   0.000860
    27  H   -0.000123  -0.033205   0.579178  -0.004491   0.005529   0.000037
    28  H   -0.000014   0.005381  -0.004491   0.566302  -0.031888   0.000077
    29  H    0.000050  -0.003837   0.005529  -0.031888   0.562057   0.004942
    30  H    0.000000   0.000860   0.000037   0.000077   0.004942   0.598995
    31  H    0.000000   0.000004   0.000000   0.000003  -0.000006  -0.005494
    32  H    0.000000   0.000000   0.000000   0.000000   0.000000  -0.000177
    33  H    0.000000   0.000000   0.000003  -0.000006   0.000003   0.000018
    34  H    0.000000   0.000046   0.000751   0.005234   0.000083  -0.000175
    35  H   -0.000173   0.000545  -0.000011   0.000000   0.000000   0.000000
    36  H   -0.000239   0.000001   0.000000   0.000000   0.000000   0.000000
    37  H    0.000092   0.000000   0.000000   0.000000   0.000000   0.000000
    38  H   -0.000050   0.000000   0.000000   0.000000   0.000000   0.000000
    39  H    0.000102   0.000000   0.000000   0.000000   0.000000   0.000000
    40  H   -0.000317   0.000000   0.000000   0.000000   0.000000   0.000000
              31         32         33         34         35         36
     1  O    0.000000   0.000000   0.000000   0.000000  -0.001662   0.000028
     2  S    0.000000   0.000000   0.000000   0.000000  -0.003006   0.003338
     3  N    0.000000   0.000000   0.000000   0.000000   0.014535   0.000027
     4  C    0.000000   0.000000   0.000000  -0.000052  -0.000063  -0.000001
     5  C    0.000000   0.000000   0.000000  -0.000001   0.000041   0.000001
     6  S    0.000000   0.000000   0.000000  -0.000002   0.000005   0.000000
     7  O    0.000000   0.000000   0.000000   0.000000   0.000000   0.000000
     8  C    0.000000   0.000000   0.000000   0.000000   0.000006   0.000092
     9  C   -0.000001   0.000000  -0.000001   0.000246   0.000016  -0.000001
    10  C   -0.000179   0.000006  -0.000179  -0.009502   0.000001   0.000000
    11  C    0.003695   0.000679   0.003718  -0.046474   0.000000   0.000000
    12  C   -0.038971   0.004675   0.000820   0.006127   0.000000   0.000000
    13  C    0.358716  -0.042582   0.004514   0.000318   0.000000   0.000000
    14  C   -0.042675   0.361067  -0.042737   0.004844   0.000000   0.000000
    15  C    0.004510  -0.042585   0.358763  -0.045033   0.000000   0.000000
    16  C    0.000823   0.004669  -0.039031   0.357401   0.000000   0.000000
    17  N    0.000000   0.000000   0.000000   0.000000  -0.033674  -0.034409
    18  C    0.000000   0.000000   0.000000   0.000000   0.374604   0.376595
    19  C    0.000000   0.000000   0.000000   0.000000   0.004758  -0.003407
    20  O    0.000000   0.000000   0.000000   0.000000   0.000037  -0.000050
    21  H    0.000000   0.000000   0.000000   0.000000  -0.000608   0.000000
    22  H    0.000000   0.000000   0.000000   0.000071   0.000000   0.000000
    23  H    0.000000   0.000000   0.000000   0.000000   0.000000   0.000000
    24  H    0.000000   0.000000   0.000000   0.000000   0.000015  -0.000001
    25  H    0.000000   0.000000   0.000000   0.000000  -0.000173  -0.000239
    26  H    0.000004   0.000000   0.000000   0.000046   0.000545   0.000001
    27  H    0.000000   0.000000   0.000003   0.000751  -0.000011   0.000000
    28  H    0.000003   0.000000  -0.000006   0.005234   0.000000   0.000000
    29  H   -0.000006   0.000000   0.000003   0.000083   0.000000   0.000000
    30  H   -0.005494  -0.000177   0.000018  -0.000175   0.000000   0.000000
    31  H    0.585006  -0.005365  -0.000183   0.000017   0.000000   0.000000
    32  H   -0.005365   0.585864  -0.005368  -0.000176   0.000000   0.000000
    33  H   -0.000183  -0.005368   0.585026  -0.005502   0.000000   0.000000
    34  H    0.000017  -0.000176  -0.005502   0.597916   0.000000   0.000000
    35  H    0.000000   0.000000   0.000000   0.000000   0.505508  -0.022141
    36  H    0.000000   0.000000   0.000000   0.000000  -0.022141   0.531928
    37  H    0.000000   0.000000   0.000000   0.000000  -0.030854  -0.035529
    38  H    0.000000   0.000000   0.000000   0.000000  -0.000198   0.000000
    39  H    0.000000   0.000000   0.000000   0.000000  -0.000197  -0.001423
    40  H    0.000000   0.000000   0.000000   0.000000   0.000023   0.004887
              37         38         39         40
     1  O    0.005776  -0.000255   0.002947  -0.000106
     2  S   -0.008617  -0.004271  -0.004148   0.002286
     3  N   -0.000151   0.000114  -0.000072  -0.000086
     4  C   -0.000018   0.000013  -0.000006   0.000000
     5  C    0.000000  -0.000002   0.000000   0.000000
     6  S    0.000000   0.000068  -0.000001  -0.000002
     7  O    0.000000   0.000000   0.000000   0.000000
     8  C   -0.000021   0.000060  -0.000016   0.000075
     9  C   -0.000001   0.000000   0.000000   0.000000
    10  C    0.000000   0.000000   0.000000   0.000000
    11  C    0.000000   0.000000   0.000000   0.000000
    12  C    0.000000   0.000000   0.000000   0.000000
    13  C    0.000000   0.000000   0.000000   0.000000
    14  C    0.000000   0.000000   0.000000   0.000000
    15  C    0.000000   0.000000   0.000000   0.000000
    16  C    0.000000   0.000000   0.000000   0.000000
    17  N   -0.045253  -0.032086  -0.046675  -0.037198
    18  C    0.373276   0.004668  -0.002717  -0.002748
    19  C   -0.002479   0.376837   0.371666   0.380702
    20  O   -0.000042   0.011879  -0.000462   0.000174
    21  H    0.000093  -0.000004   0.000008   0.000001
    22  H    0.000000   0.000000   0.000000   0.000000
    23  H    0.000000  -0.000001   0.000000   0.000000
    24  H    0.000000  -0.000001   0.000000  -0.000001
    25  H    0.000092  -0.000050   0.000102  -0.000317
    26  H    0.000000   0.000000   0.000000   0.000000
    27  H    0.000000   0.000000   0.000000   0.000000
    28  H    0.000000   0.000000   0.000000   0.000000
    29  H    0.000000   0.000000   0.000000   0.000000
    30  H    0.000000   0.000000   0.000000   0.000000
    31  H    0.000000   0.000000   0.000000   0.000000
    32  H    0.000000   0.000000   0.000000   0.000000
    33  H    0.000000   0.000000   0.000000   0.000000
    34  H    0.000000   0.000000   0.000000   0.000000
    35  H   -0.030854  -0.000198  -0.000197   0.000023
    36  H   -0.035529   0.000000  -0.001423   0.004887
    37  H    0.566305  -0.000181   0.009017  -0.001697
    38  H   -0.000181   0.493435  -0.030564  -0.020262
    39  H    0.009017  -0.030564   0.573099  -0.038648
    40  H   -0.001697  -0.020262  -0.038648   0.529554
 Mulliken charges:
               1
     1  O   -0.546645
     2  S    1.345124
     3  N   -0.745923
     4  C    0.240952
     5  C   -0.497223
     6  S    0.760618
     7  O   -0.657315
     8  C   -0.512207
     9  C   -0.292948
    10  C   -0.374080
    11  C    0.165663
    12  C   -0.187456
    13  C   -0.139261
    14  C   -0.141300
    15  C   -0.138787
    16  C   -0.188139
    17  N   -0.523088
    18  C   -0.328706
    19  C   -0.332206
    20  O   -0.572874
    21  H    0.380698
    22  H    0.203439
    23  H    0.217671
    24  H    0.205145
    25  H    0.227695
    26  H    0.166307
    27  H    0.154779
    28  H    0.162462
    29  H    0.165820
    30  H    0.133054
    31  H    0.140099
    32  H    0.139293
    33  H    0.140144
    34  H    0.133862
    35  H    0.192493
    36  H    0.180305
    37  H    0.170283
    38  H    0.200800
    39  H    0.168091
    40  H    0.183362
 Sum of Mulliken charges =   0.00000
 Mulliken charges with hydrogens summed into heavy atoms:
               1
     1  O   -0.546645
     2  S    1.345124
     3  N   -0.365225
     4  C    0.240952
     5  C   -0.076113
     6  S    0.760618
     7  O   -0.657315
     8  C   -0.079368
     9  C    0.028138
    10  C   -0.045798
    11  C    0.165663
    12  C   -0.054401
    13  C    0.000838
    14  C   -0.002007
    15  C    0.001357
    16  C   -0.054277
    17  N   -0.523088
    18  C    0.214375
    19  C    0.220048
    20  O   -0.572874
 Electronic spatial extent (au):  <R**2>=           8588.2000
 Charge=              0.0000 electrons
 Dipole moment (field-independent basis, Debye):
    X=             -0.2388    Y=             -5.5384    Z=              1.5752  Tot=              5.7630
 Quadrupole moment (field-independent basis, Debye-Ang):
   XX=           -131.4865   YY=           -150.3575   ZZ=           -125.7413
   XY=              3.1039   XZ=             17.9738   YZ=            -11.5032
 Traceless Quadrupole moment (field-independent basis, Debye-Ang):
   XX=              4.3753   YY=            -14.4958   ZZ=             10.1205
   XY=              3.1039   XZ=             17.9738   YZ=            -11.5032
 Octapole moment (field-independent basis, Debye-Ang**2):
  XXX=             25.0081  YYY=            -69.7384  ZZZ=              5.0750  XYY=             32.3934
  XXY=            -42.4939  XXZ=             55.0260  XZZ=             -4.1764  YZZ=              1.4640
  YYZ=             -8.0634  XYZ=             -9.4196
 Hexadecapole moment (field-independent basis, Debye-Ang**3):
 XXXX=          -8064.5623 YYYY=          -2242.2248 ZZZZ=           -850.4122 XXXY=            137.4968
 XXXZ=            299.0678 YYYX=             -9.0816 YYYZ=            -90.4135 ZZZX=             32.9235
 ZZZY=            -16.7131 XXYY=          -1746.6184 XXZZ=          -1501.9976 YYZZ=           -475.5104
 XXYZ=           -102.5431 YYXZ=             37.4159 ZZXY=             17.4283
 N-N= 1.964905945338D+03 E-N=-7.780094113591D+03  KE= 1.628151113722D+03
 No NMR shielding tensors so no spin-rotation constants.
 Leave Link  601 at Sat Aug  8 07:24:00 2020, MaxMem=    33554432 cpu:         0.3
 (Enter /prod/apps/gaussian/g09d1/l9999.exe)
 1\1\GINC-PIRINEUS28\SP\RB3LYP\6-31G(d)\C13H20N2O3S2\UBAFAR01\08-Aug-20
 20\0\\#p b3lyp/6-31G(d) scrf=(iefpcm,read,solvent=n-Octanol) geom=allc
 heck guess=read\\SM37.n.6.pdb.xyz\\0,1\O,0,4.335,0.24,0.763\S,0,4.272,
 -1.166,0.345\N,0,3.366,-1.162,-1.06\C,0,2.572,-2.327,-1.507\C,0,1.497,
 -2.834,-0.507\S,0,2.191,-4.571,-0.471\O,0,1.343,-5.498,-1.324\C,0,3.4,
 -3.634,-1.551\C,0,2.005,-1.913,-2.878\C,0,1.116,-2.952,-3.582\C,0,0.66
 1,-2.459,-4.938\C,0,1.433,-2.692,-6.083\C,0,1.03,-2.212,-7.329\C,0,-0.
 158,-1.489,-7.45\C,0,-0.938,-1.252,-6.317\C,0,-0.53,-1.734,-5.074\N,0,
 5.751,-1.733,-0.238\C,0,6.386,-0.827,-1.203\C,0,6.662,-2.19,0.827\O,0,
 3.808,-2.181,1.298\H,0,2.858,-0.279,-1.106\H,0,0.47,-2.839,-0.874\H,0,
 1.556,-2.389,0.485\H,0,3.471,-4.104,-2.532\H,0,4.384,-3.568,-1.089\H,0
 ,2.853,-1.662,-3.522\H,0,1.426,-0.989,-2.746\H,0,0.244,-3.178,-2.962\H
 ,0,1.661,-3.894,-3.694\H,0,2.355,-3.26,-5.997\H,0,1.64,-2.408,-8.205\H
 ,0,-0.475,-1.118,-8.419\H,0,-1.866,-0.696,-6.401\H,0,-1.145,-1.553,-4.
 197\H,0,5.659,-0.552,-1.966\H,0,7.206,-1.37,-1.677\H,0,6.782,0.078,-0.
 728\H,0,6.124,-2.86,1.495\H,0,7.085,-1.356,1.401\H,0,7.475,-2.736,0.34
 6\\Version=AM64L-G09RevD.01\State=1-A\HF=-1638.8605054\RMSD=4.430e-09\
 Dipole=1.3617281,1.3597946,-1.1989287\Quadrupole=16.5199782,-13.283827
 6,-3.2361505,-10.2117029,0.5127593,-3.7747982\PG=C01 [X(C13H20N2O3S2)]
 \\@


 If fifty million people say a stupid thing,
 it is still a stupid thing.
                   -- Anatole France
 Job cpu time:       0 days  0 hours  4 minutes 26.2 seconds.
 File lengths (MBytes):  RWF=    251 Int=      0 D2E=      0 Chk=      7 Scr=      1
 Normal termination of Gaussian 09 at Sat Aug  8 07:24:00 2020.
