 Entering Gaussian System, Link 0=g09
 Initial command:
 /prod/apps/gaussian/g09d1/l1.exe "/tmp/ubafar01/1449198/Gau-169030.inp" -scrdir="/tmp/ubafar01/1449198/"
 Entering Link 1 = /prod/apps/gaussian/g09d1/l1.exe PID=    169031.
  
 Copyright (c) 1988,1990,1992,1993,1995,1998,2003,2009,2013,
            Gaussian, Inc.  All Rights Reserved.
  
 This is part of the Gaussian(R) 09 program.  It is based on
 the Gaussian(R) 03 system (copyright 2003, Gaussian, Inc.),
 the Gaussian(R) 98 system (copyright 1998, Gaussian, Inc.),
 the Gaussian(R) 94 system (copyright 1995, Gaussian, Inc.),
 the Gaussian 92(TM) system (copyright 1992, Gaussian, Inc.),
 the Gaussian 90(TM) system (copyright 1990, Gaussian, Inc.),
 the Gaussian 88(TM) system (copyright 1988, Gaussian, Inc.),
 the Gaussian 86(TM) system (copyright 1986, Carnegie Mellon
 University), and the Gaussian 82(TM) system (copyright 1983,
 Carnegie Mellon University). Gaussian is a federally registered
 trademark of Gaussian, Inc.
  
 This software contains proprietary and confidential information,
 including trade secrets, belonging to Gaussian, Inc.
  
 This software is provided under written license and may be
 used, copied, transmitted, or stored only in accord with that
 written license.
  
 The following legend is applicable only to US Government
 contracts under FAR:
  
                    RESTRICTED RIGHTS LEGEND
  
 Use, reproduction and disclosure by the US Government is
 subject to restrictions as set forth in subparagraphs (a)
 and (c) of the Commercial Computer Software - Restricted
 Rights clause in FAR 52.227-19.
  
 Gaussian, Inc.
 340 Quinnipiac St., Bldg. 40, Wallingford CT 06492
  
  
 ---------------------------------------------------------------
 Warning -- This program may not be used in any manner that
 competes with the business of Gaussian, Inc. or will provide
 assistance to any competitor of Gaussian, Inc.  The licensee
 of this program is prohibited from giving any competitor of
 Gaussian, Inc. access to this program.  By using this program,
 the user acknowledges that Gaussian, Inc. is engaged in the
 business of creating and licensing software in the field of
 computational chemistry and represents and warrants to the
 licensee that it is not a competitor of Gaussian, Inc. and that
 it will not use this program in any manner prohibited above.
 ---------------------------------------------------------------
  

 Cite this work as:
 Gaussian 09, Revision D.01,
 M. J. Frisch, G. W. Trucks, H. B. Schlegel, G. E. Scuseria, 
 M. A. Robb, J. R. Cheeseman, G. Scalmani, V. Barone, B. Mennucci, 
 G. A. Petersson, H. Nakatsuji, M. Caricato, X. Li, H. P. Hratchian, 
 A. F. Izmaylov, J. Bloino, G. Zheng, J. L. Sonnenberg, M. Hada, 
 M. Ehara, K. Toyota, R. Fukuda, J. Hasegawa, M. Ishida, T. Nakajima, 
 Y. Honda, O. Kitao, H. Nakai, T. Vreven, J. A. Montgomery, Jr., 
 J. E. Peralta, F. Ogliaro, M. Bearpark, J. J. Heyd, E. Brothers, 
 K. N. Kudin, V. N. Staroverov, T. Keith, R. Kobayashi, J. Normand, 
 K. Raghavachari, A. Rendell, J. C. Burant, S. S. Iyengar, J. Tomasi, 
 M. Cossi, N. Rega, J. M. Millam, M. Klene, J. E. Knox, J. B. Cross, 
 V. Bakken, C. Adamo, J. Jaramillo, R. Gomperts, R. E. Stratmann, 
 O. Yazyev, A. J. Austin, R. Cammi, C. Pomelli, J. W. Ochterski, 
 R. L. Martin, K. Morokuma, V. G. Zakrzewski, G. A. Voth, 
 P. Salvador, J. J. Dannenberg, S. Dapprich, A. D. Daniels, 
 O. Farkas, J. B. Foresman, J. V. Ortiz, J. Cioslowski, 
 and D. J. Fox, Gaussian, Inc., Wallingford CT, 2013.
 
 ******************************************
 Gaussian 09:  AM64L-G09RevD.01 24-Apr-2013
                 8-Aug-2020 
 ******************************************
 %nproc=1
 Will use up to    1 processors via shared memory.
 %Chk=SM37.n.11.pdb.xyz.mst.n.o.chk
 -----------------
 #p b3lyp/6-31G(d)
 -----------------
 1/38=1/1;
 2/12=2,17=6,18=5,40=1/2;
 3/5=1,6=6,7=1,11=2,16=1,25=1,30=1,74=-5/1,2,3;
 4//1;
 5/5=2,38=5/2;
 6/7=2,8=2,9=2,10=2,28=1/1;
 99/5=1,9=1/99;
 Leave Link    1 at Sat Aug  8 06:03:54 2020, MaxMem=           0 cpu:         0.0
 (Enter /prod/apps/gaussian/g09d1/l101.exe)
 -----------------
 SM37.n.11.pdb.xyz
 -----------------
 Symbolic Z-matrix:
 Charge =  0 Multiplicity = 1
 O                     4.011    -1.428     1.268 
 S                     4.577    -0.567     0.218 
 N                     3.499    -0.63     -1.057 
 C                     2.83     -1.882    -1.45 
 C                     1.691    -2.299    -0.495 
 S                     2.059    -4.117    -0.748 
 O                     1.295    -4.624    -1.962 
 C                     3.607    -3.22     -1.304 
 C                     2.254    -1.679    -2.864 
 C                     3.235    -1.359    -4.011 
 C                     4.164    -2.476    -4.443 
 C                     3.659    -3.656    -5.007 
 C                     4.518    -4.675    -5.418 
 C                     5.9      -4.529    -5.277 
 C                     6.415    -3.356    -4.724 
 C                     5.551    -2.34     -4.313 
 N                     4.453     1.075     0.545 
 C                     3.156     1.476     1.103 
 C                     5.613     1.653     1.244 
 O                     5.965    -0.805    -0.195 
 H                     3.865    -0.082    -1.834 
 H                     0.674    -2.02     -0.774 
 H                     1.908    -2.053     0.544 
 H                     4.065    -3.647    -2.194 
 H                     4.298    -3.222    -0.46 
 H                     1.527    -0.861    -2.796 
 H                     1.69     -2.587    -3.097 
 H                     3.84     -0.477    -3.772 
 H                     2.618    -1.059    -4.866 
 H                     2.586    -3.782    -5.119 
 H                     4.109    -5.581    -5.851 
 H                     6.568    -5.321    -5.597 
 H                     7.488    -3.231    -4.611 
 H                     5.955    -1.429    -3.881 
 H                     2.36      1.041     0.499 
 H                     3.088     2.563     1.042 
 H                     3.035     1.168     2.148 
 H                     6.528     1.316     0.761 
 H                     5.638     1.386     2.308 
 H                     5.538     2.739     1.155 
 
 NAtoms=     40 NQM=       40 NQMF=       0 NMMI=      0 NMMIF=      0
                NMic=       0 NMicF=      0.
                    Isotopes and Nuclear Properties:
 (Nuclear quadrupole moments (NQMom) in fm**2, nuclear magnetic moments (NMagM)
  in nuclear magnetons)

  Atom         1           2           3           4           5           6           7           8           9          10
 IAtWgt=          16          32          14          12          12          32          16          12          12          12
 AtmWgt=  15.9949146  31.9720718  14.0030740  12.0000000  12.0000000  31.9720718  15.9949146  12.0000000  12.0000000  12.0000000
 NucSpn=           0           0           2           0           0           0           0           0           0           0
 AtZEff=   0.0000000   0.0000000   0.0000000   0.0000000   0.0000000   0.0000000   0.0000000   0.0000000   0.0000000   0.0000000
 NQMom=    0.0000000   0.0000000   2.0440000   0.0000000   0.0000000   0.0000000   0.0000000   0.0000000   0.0000000   0.0000000
 NMagM=    0.0000000   0.0000000   0.4037610   0.0000000   0.0000000   0.0000000   0.0000000   0.0000000   0.0000000   0.0000000
 AtZNuc=   8.0000000  16.0000000   7.0000000   6.0000000   6.0000000  16.0000000   8.0000000   6.0000000   6.0000000   6.0000000

  Atom        11          12          13          14          15          16          17          18          19          20
 IAtWgt=          12          12          12          12          12          12          14          12          12          16
 AtmWgt=  12.0000000  12.0000000  12.0000000  12.0000000  12.0000000  12.0000000  14.0030740  12.0000000  12.0000000  15.9949146
 NucSpn=           0           0           0           0           0           0           2           0           0           0
 AtZEff=   0.0000000   0.0000000   0.0000000   0.0000000   0.0000000   0.0000000   0.0000000   0.0000000   0.0000000   0.0000000
 NQMom=    0.0000000   0.0000000   0.0000000   0.0000000   0.0000000   0.0000000   2.0440000   0.0000000   0.0000000   0.0000000
 NMagM=    0.0000000   0.0000000   0.0000000   0.0000000   0.0000000   0.0000000   0.4037610   0.0000000   0.0000000   0.0000000
 AtZNuc=   6.0000000   6.0000000   6.0000000   6.0000000   6.0000000   6.0000000   7.0000000   6.0000000   6.0000000   8.0000000

  Atom        21          22          23          24          25          26          27          28          29          30
 IAtWgt=           1           1           1           1           1           1           1           1           1           1
 AtmWgt=   1.0078250   1.0078250   1.0078250   1.0078250   1.0078250   1.0078250   1.0078250   1.0078250   1.0078250   1.0078250
 NucSpn=           1           1           1           1           1           1           1           1           1           1
 AtZEff=   0.0000000   0.0000000   0.0000000   0.0000000   0.0000000   0.0000000   0.0000000   0.0000000   0.0000000   0.0000000
 NQMom=    0.0000000   0.0000000   0.0000000   0.0000000   0.0000000   0.0000000   0.0000000   0.0000000   0.0000000   0.0000000
 NMagM=    2.7928460   2.7928460   2.7928460   2.7928460   2.7928460   2.7928460   2.7928460   2.7928460   2.7928460   2.7928460
 AtZNuc=   1.0000000   1.0000000   1.0000000   1.0000000   1.0000000   1.0000000   1.0000000   1.0000000   1.0000000   1.0000000

  Atom        31          32          33          34          35          36          37          38          39          40
 IAtWgt=           1           1           1           1           1           1           1           1           1           1
 AtmWgt=   1.0078250   1.0078250   1.0078250   1.0078250   1.0078250   1.0078250   1.0078250   1.0078250   1.0078250   1.0078250
 NucSpn=           1           1           1           1           1           1           1           1           1           1
 AtZEff=   0.0000000   0.0000000   0.0000000   0.0000000   0.0000000   0.0000000   0.0000000   0.0000000   0.0000000   0.0000000
 NQMom=    0.0000000   0.0000000   0.0000000   0.0000000   0.0000000   0.0000000   0.0000000   0.0000000   0.0000000   0.0000000
 NMagM=    2.7928460   2.7928460   2.7928460   2.7928460   2.7928460   2.7928460   2.7928460   2.7928460   2.7928460   2.7928460
 AtZNuc=   1.0000000   1.0000000   1.0000000   1.0000000   1.0000000   1.0000000   1.0000000   1.0000000   1.0000000   1.0000000
 Leave Link  101 at Sat Aug  8 06:03:54 2020, MaxMem=    33554432 cpu:         0.1
 (Enter /prod/apps/gaussian/g09d1/l202.exe)
                          Input orientation:                          
 ---------------------------------------------------------------------
 Center     Atomic      Atomic             Coordinates (Angstroms)
 Number     Number       Type             X           Y           Z
 ---------------------------------------------------------------------
      1          8           0        4.011000   -1.428000    1.268000
      2         16           0        4.577000   -0.567000    0.218000
      3          7           0        3.499000   -0.630000   -1.057000
      4          6           0        2.830000   -1.882000   -1.450000
      5          6           0        1.691000   -2.299000   -0.495000
      6         16           0        2.059000   -4.117000   -0.748000
      7          8           0        1.295000   -4.624000   -1.962000
      8          6           0        3.607000   -3.220000   -1.304000
      9          6           0        2.254000   -1.679000   -2.864000
     10          6           0        3.235000   -1.359000   -4.011000
     11          6           0        4.164000   -2.476000   -4.443000
     12          6           0        3.659000   -3.656000   -5.007000
     13          6           0        4.518000   -4.675000   -5.418000
     14          6           0        5.900000   -4.529000   -5.277000
     15          6           0        6.415000   -3.356000   -4.724000
     16          6           0        5.551000   -2.340000   -4.313000
     17          7           0        4.453000    1.075000    0.545000
     18          6           0        3.156000    1.476000    1.103000
     19          6           0        5.613000    1.653000    1.244000
     20          8           0        5.965000   -0.805000   -0.195000
     21          1           0        3.865000   -0.082000   -1.834000
     22          1           0        0.674000   -2.020000   -0.774000
     23          1           0        1.908000   -2.053000    0.544000
     24          1           0        4.065000   -3.647000   -2.194000
     25          1           0        4.298000   -3.222000   -0.460000
     26          1           0        1.527000   -0.861000   -2.796000
     27          1           0        1.690000   -2.587000   -3.097000
     28          1           0        3.840000   -0.477000   -3.772000
     29          1           0        2.618000   -1.059000   -4.866000
     30          1           0        2.586000   -3.782000   -5.119000
     31          1           0        4.109000   -5.581000   -5.851000
     32          1           0        6.568000   -5.321000   -5.597000
     33          1           0        7.488000   -3.231000   -4.611000
     34          1           0        5.955000   -1.429000   -3.881000
     35          1           0        2.360000    1.041000    0.499000
     36          1           0        3.088000    2.563000    1.042000
     37          1           0        3.035000    1.168000    2.148000
     38          1           0        6.528000    1.316000    0.761000
     39          1           0        5.638000    1.386000    2.308000
     40          1           0        5.538000    2.739000    1.155000
 ---------------------------------------------------------------------
                    Distance matrix (angstroms):
                    1          2          3          4          5
     1  O    0.000000
     2  S    1.471114   0.000000
     3  N    2.510891   1.670832   0.000000
     4  C    2.998066   2.750174   1.472927   0.000000
     5  C    3.041251   3.440522   2.523939   1.543773   0.000000
     6  S    3.886551   4.458249   3.785267   2.466266   1.872046
     7  O    5.293767   5.655367   4.650664   3.183855   2.777504
     8  C    3.160643   3.208706   2.603992   1.554120   2.274594
     9  C    4.497052   4.016416   2.432216   1.540254   2.512674
    10  C    5.336176   4.506958   3.054055   2.645047   3.953453
    11  C    5.808376   5.053689   3.913430   3.330231   4.661948
    12  C    6.668097   6.138833   4.978431   4.060365   5.106135
    13  C    7.450010   6.974499   6.034791   5.137628   6.154123
    14  C    7.484754   6.902376   6.226990   5.574714   6.749526
    15  C    6.737987   5.964908   5.420426   5.073852   6.427897
    16  C    5.860965   4.962073   4.211453   3.976226   5.429402
    17  N    2.642556   1.678830   2.526568   3.918929   4.482647
    18  C    3.031743   2.641271   3.036196   4.230869   4.353212
    19  C    3.472685   2.656007   3.869843   5.243944   5.833053
    20  O    2.519249   1.467568   2.618172   3.544458   4.537523
    21  H    3.384588   2.225505   1.018817   2.111559   3.381462
    22  H    3.956741   4.281201   3.161141   2.263704   1.090858
    23  H    2.310284   3.072138   2.668222   2.203488   1.089553
    24  H    4.112459   3.945414   3.273441   2.279032   3.215522
    25  H    2.507347   2.754369   2.777278   2.220523   2.765792
    26  H    4.796649   4.298038   2.639368   2.133534   2.718334
    27  H    5.077750   4.837809   3.356178   2.123496   2.617890
    28  H    5.131787   4.058493   2.740605   2.895826   4.321645
    29  H    6.300997   5.470539   3.933025   3.520132   4.637086
    30  H    6.954546   6.540938   5.221927   4.138973   4.937782
    31  H    8.242401   7.886189   6.918594   5.889588   6.730898
    32  H    8.295898   7.770381   7.213587   6.557208   7.677761
    33  H    7.064204   6.236189   5.942074   5.788669   7.170446
    34  H    5.503757   4.409504   3.826920   3.985046   5.513945
    35  H    3.068081   2.753128   2.551607   3.544493   3.548408
    36  H    4.102571   3.562723   3.843172   5.102416   5.287062
    37  H    2.909672   3.018756   3.704069   4.721242   4.562003
    38  H    3.757908   2.765310   4.033222   5.365718   6.167846
    39  H    3.412818   3.050906   4.467975   5.717277   6.083982
    40  H    4.439413   3.568070   4.516705   5.955916   6.550065
                    6          7          8          9         10
     6  S    0.000000
     7  O    1.521362   0.000000
     8  C    1.873512   2.783797   0.000000
     9  C    3.234088   3.225881   2.576604   0.000000
    10  C    4.431333   4.315348   3.305988   1.542845   0.000000
    11  C    4.558172   4.358948   3.273699   2.603181   1.515702
    12  C    4.572921   3.974613   3.728942   3.236511   2.539291
    13  C    5.307254   4.725914   4.457796   4.541435   3.823819
    14  C    5.952719   5.674881   4.770331   5.219041   4.330575
    15  C    5.946632   5.954063   4.427162   4.856527   3.822143
    16  C    5.297265   5.371908   3.688850   3.661520   2.533263
    17  N    5.861736   6.981161   4.752004   4.903203   5.307072
    18  C    5.992600   7.075842   5.296175   5.148273   5.847774
    19  C    7.063418   8.265851   5.853415   6.265841   6.507077
    20  O    5.150921   6.286171   3.552783   4.653919   4.724582
    21  H    4.552171   5.220254   3.192884   2.491311   2.601338
    22  H    2.513227   2.928788   3.213003   2.642117   4.180169
    23  H    2.439705   3.642231   2.768320   3.445875   4.794850
    24  H    2.517112   2.946397   1.088206   2.757108   3.037323
    25  H    2.428392   3.638628   1.090789   3.512549   4.148535
    26  H    3.883151   3.861289   3.480998   1.096484   2.154412
    27  H    2.827519   2.365083   2.700079   1.094006   2.174949
    28  H    5.056297   5.191410   3.697210   2.187387   1.095933
    29  H    5.159629   4.784639   4.282042   2.127181   1.096227
    30  H    4.415382   3.513160   3.989049   3.101267   2.742224
    31  H    5.690905   4.894769   5.147964   5.252504   4.687724
    32  H    6.730044   6.442326   5.622417   6.272483   5.414954
    33  H    6.721741   6.878292   5.098875   5.731969   4.685338
    34  H    5.676253   5.967092   3.919402   3.846322   2.724004
    35  H    5.315127   6.267613   4.791862   4.326593   5.183216
    36  H    6.991805   7.993237   6.262281   5.826402   6.398164
    37  H    6.104967   7.312111   5.612311   5.816830   6.660256
    38  H    7.194896   8.371536   5.776830   6.354347   6.385253
    39  H    7.240952   8.556556   6.195703   6.898932   7.296519
    40  H    7.920201   9.051658   6.729422   6.815845   6.984624
                   11         12         13         14         15
    11  C    0.000000
    12  C    1.401970   0.000000
    13  C    2.431366   1.394691   0.000000
    14  C    2.814971   2.420147   1.396825   0.000000
    15  C    2.433179   2.786687   2.412469   1.395336   0.000000
    16  C    1.399702   2.406898   2.782146   2.417192   1.395591
    17  N    6.129704   7.337404   8.283966   8.209404   7.158601
    18  C    6.884220   7.995157   9.067154   9.181174   8.241555
    19  C    7.175668   8.430812   9.253370   8.990158   7.832644
    20  O    4.907275   6.049891   6.659612   6.300724   5.217465
    21  H    3.553522   4.783706   5.862347   5.980910   5.057042
    22  H    5.084250   5.431851   6.587268   7.340515   7.095525
    23  H    5.489866   6.037318   7.016582   7.480019   7.054267
    24  H    2.537527   2.842162   3.414113   3.694596   3.465268
    25  H    4.054474   4.612145   5.171206   5.241960   4.762493
    26  H    3.503513   4.152827   5.510677   6.223561   5.816765
    27  H    2.818637   2.944117   4.212407   5.123267   5.056097
    28  H    2.133358   3.415264   4.559847   4.788249   3.978136
    29  H    2.139377   2.801423   4.121912   4.793886   4.439998
    30  H    2.157011   1.086163   2.149296   3.400819   3.872821
    31  H    3.409767   2.149526   1.084254   2.154962   3.396821
    32  H    3.899353   3.403323   2.156816   1.084384   2.155635
    33  H    3.412803   3.872813   3.399601   2.156410   1.086151
    34  H    2.149357   3.391021   3.868314   3.400271   2.153039
    35  H    6.328275   7.352907   8.505322   8.770329   7.940804
    36  H    7.525591   8.694389   9.806383   9.906239   8.907876
    37  H    7.615422   8.651842   9.673898   9.787475   8.894682
    38  H    6.859255   8.137676   8.838112   8.427090   7.205940
    39  H    7.916042   9.102056   9.883380   9.622271   8.517002
    40  H    7.773140   9.077274   9.960528   9.712131   8.513565
                   16         17         18         19         20
    16  C    0.000000
    17  N    6.038873   0.000000
    18  C    7.044923   1.467779   0.000000
    19  C    6.843109   1.472510   2.467399   0.000000
    20  O    4.414243   2.523518   3.844248   2.869911   0.000000
    21  H    3.753212   2.709988   3.399414   3.942057   2.760263
    22  H    6.034240   5.059607   4.680328   6.477420   5.459501
    23  H    6.078180   4.032544   3.784683   5.286914   4.308465
    24  H    2.899415   5.472655   6.159677   6.504318   3.960172
    25  H    4.146510   4.415683   5.081175   5.329021   2.948051
    26  H    4.547670   4.844776   4.828811   6.271937   5.144335
    27  H    4.055488   5.857352   6.024710   7.225774   5.465597
    28  H    2.586691   4.628279   5.296007   5.730679   4.173504
    29  H    3.247962   6.099189   6.507275   7.325099   5.751971
    30  H    3.394146   7.691361   8.166073   8.898861   6.672776
    31  H    3.866379   9.237396   9.953270  10.243622   7.631857
    32  H    3.401368   9.116260  10.135628   9.815701   7.066786
    33  H    2.152825   7.371377   8.577405   7.851758   5.263655
    34  H    1.086168   5.302405   6.411995   5.990101   3.738459
    35  H    6.690963   2.093782   1.089797   3.392872   4.109182
    36  H    7.666929   2.079514   1.090832   2.691566   4.598991
    37  H    7.770511   2.142191   1.096143   2.774622   4.238783
    38  H    6.329798   2.100086   3.393074   1.088156   2.393647
    39  H    7.597913   2.146885   2.760516   1.097274   3.342517
    40  H    7.462937   2.078033   2.696627   1.092219   3.816381
                   21         22         23         24         25
    21  H    0.000000
    22  H    3.880970   0.000000
    23  H    3.656443   1.805815   0.000000
    24  H    3.588708   4.020250   3.832770   0.000000
    25  H    3.454702   3.831028   2.843708   1.800464   0.000000
    26  H    2.645473   2.481809   3.566739   3.816496   4.325466
    27  H    3.549763   2.598090   3.686402   2.753114   3.762799
    28  H    1.978003   4.625193   4.984401   3.548184   4.325983
    29  H    3.420901   4.631104   5.546191   3.991383   5.187852
    30  H    5.110486   5.063538   5.959756   3.280441   4.995080
    31  H    6.814310   7.089138   7.628054   4.137142   5.887570
    32  H    6.993819   8.300432   8.373011   4.543973   5.995621
    33  H    5.545634   7.913260   7.687529   4.210923   5.235168
    34  H    3.220670   6.155623   6.028948   3.367134   4.202825
    35  H    2.994836   3.719253   3.127166   5.668917   4.780031
    36  H    3.983859   5.489002   4.790392   7.070384   6.098059
    37  H    4.255317   4.927043   3.770648   6.564913   5.260127
    38  H    3.972405   6.910459   5.722032   6.279312   5.201652
    39  H    4.738641   6.763199   5.371342   6.933500   5.539954
    40  H    4.437464   7.073020   6.042639   7.359791   6.299154
                   26         27         28         29         30
    26  H    0.000000
    27  H    1.759615   0.000000
    28  H    2.539685   3.087106   0.000000
    29  H    2.348273   2.515021   1.740357   0.000000
    30  H    3.879440   2.513827   3.782849   2.734915   0.000000
    31  H    6.186934   4.732876   5.517737   4.862282   2.468148
    32  H    7.290328   6.125328   5.851234   5.856749   4.295734
    33  H    6.666682   6.026918   4.647186   5.338493   4.958958
    34  H    4.594239   4.488412   2.321941   3.498956   4.291784
    35  H    3.894678   5.151941   4.768245   5.767130   7.407721
    36  H    5.375011   6.753386   5.742970   6.945808   8.858270
    37  H    5.552841   6.589315   6.196810   7.370863   8.804169
    38  H    6.511649   7.315997   5.566712   7.252024   8.723724
    39  H    6.928214   7.783666   6.608326   8.158719   9.548992
    40  H    6.682703   7.826422   6.123821   7.694390   9.518446
                   31         32         33         34         35
    31  H    0.000000
    32  H    2.485719   0.000000
    33  H    4.298574   2.487307   0.000000
    34  H    4.952547   4.297451   2.475923   0.000000
    35  H    9.339828   9.764401   8.405859   6.181369   0.000000
    36  H   10.718238  10.878611   9.213406   6.956413   1.772376
    37  H   10.520764  10.703935   9.212193   7.184682   1.786324
    38  H    9.855897   9.191057   7.103182   5.423239   4.185271
    39  H   10.837260  10.408543   8.521253   6.806499   3.759892
    40  H   10.970345  10.564753   8.525852   6.550375   3.662407
                   36         37         38         39         40
    36  H    0.000000
    37  H    1.781031   0.000000
    38  H    3.669819   3.761213   0.000000
    39  H    3.080679   2.617008   1.786116   0.000000
    40  H    2.458911   3.117547   1.777713   1.780454   0.000000
 Stoichiometry    C13H20N2O3S2
 Framework group  C1[X(C13H20N2O3S2)]
 Deg. of freedom   114
 Full point group                 C1      NOp   1
 Largest Abelian subgroup         C1      NOp   1
 Largest concise Abelian subgroup C1      NOp   1
                         Standard orientation:                         
 ---------------------------------------------------------------------
 Center     Atomic      Atomic             Coordinates (Angstroms)
 Number     Number       Type             X           Y           Z
 ---------------------------------------------------------------------
      1          8           0       -2.571023    0.695384   -1.301163
      2         16           0       -2.308631   -0.516634   -0.509746
      3          7           0       -1.269452   -0.049934    0.712537
      4          6           0       -0.165826    0.896734    0.477288
      5          6           0       -0.629165    2.363033    0.341197
      6         16           0        0.712614    2.737334   -0.909437
      7          8           0        1.981923    3.153006   -0.181004
      8          6           0        0.558832    0.870183   -0.897286
      9          6           0        0.807234    0.783286    1.665844
     10          6           0        1.482365   -0.579223    1.926870
     11          6           0        2.513218   -1.032955    0.912561
     12          6           0        3.701936   -0.314481    0.722121
     13          6           0        4.655310   -0.744029   -0.200771
     14          6           0        4.438550   -1.904959   -0.946678
     15          6           0        3.262669   -2.632722   -0.760590
     16          6           0        2.311247   -2.197743    0.163133
     17          7           0       -3.599087   -0.992742    0.452808
     18          6           0       -4.270603    0.115868    1.141592
     19          6           0       -4.518804   -1.952367   -0.180851
     20          8           0       -1.853514   -1.718129   -1.218996
     21          1           0       -1.018319   -0.865072    1.269737
     22          1           0       -0.578357    2.990694    1.231944
     23          1           0       -1.591835    2.450352   -0.161563
     24          1           0        1.513157    0.351545   -0.964160
     25          1           0       -0.101172    0.598574   -1.722177
     26          1           0        0.245187    1.065430    2.564050
     27          1           0        1.568208    1.554036    1.511849
     28          1           0        0.732739   -1.370900    2.038129
     29          1           0        1.961589   -0.499487    2.909571
     30          1           0        3.880184    0.591335    1.294374
     31          1           0        5.568208   -0.174688   -0.335208
     32          1           0        5.179971   -2.239314   -1.663887
     33          1           0        3.084278   -3.537756   -1.334012
     34          1           0        1.396016   -2.765404    0.304107
     35          1           0       -3.518916    0.746108    1.616378
     36          1           0       -4.910139   -0.310416    1.915665
     37          1           0       -4.883794    0.721428    0.464227
     38          1           0       -3.941649   -2.743519   -0.655250
     39          1           0       -5.174250   -1.478830   -0.922580
     40          1           0       -5.135946   -2.382434    0.611059
 ---------------------------------------------------------------------
 Rotational constants (GHZ):      0.4319032      0.1974785      0.1595933
 Leave Link  202 at Sat Aug  8 06:03:54 2020, MaxMem=    33554432 cpu:         0.0
 (Enter /prod/apps/gaussian/g09d1/l301.exe)
 Standard basis: 6-31G(d) (6D, 7F)
 Ernie: Thresh=  0.10000D-02 Tol=  0.10000D-05 Strict=F.
 There are   348 symmetry adapted cartesian basis functions of A   symmetry.
 There are   348 symmetry adapted basis functions of A   symmetry.
   348 basis functions,   688 primitive gaussians,   348 cartesian basis functions
    84 alpha electrons       84 beta electrons
       nuclear repulsion energy      2026.8293621506 Hartrees.
 IExCor=  402 DFT=T Ex+Corr=B3LYP ExCW=0 ScaHFX=  0.200000
 ScaDFX=  0.800000  0.720000  1.000000  0.810000 ScalE2=  1.000000  1.000000
 IRadAn=      0 IRanWt=     -1 IRanGd=            0 ICorTp=0 IEmpDi=  4
 NAtoms=   40 NActive=   40 NUniq=   40 SFac= 1.00D+00 NAtFMM=   60 NAOKFM=F Big=F
 Integral buffers will be    131072 words long.
 Raffenetti 2 integral format.
 Two-electron integral symmetry is turned on.
 Leave Link  301 at Sat Aug  8 06:03:54 2020, MaxMem=    33554432 cpu:         0.0
 (Enter /prod/apps/gaussian/g09d1/l302.exe)
 NPDir=0 NMtPBC=     1 NCelOv=     1 NCel=       1 NClECP=     1 NCelD=      1
         NCelK=      1 NCelE2=     1 NClLst=     1 CellRange=     0.0.
 One-electron integrals computed using PRISM.
 NBasis=   348 RedAO= T EigKep=  4.68D-04  NBF=   348
 NBsUse=   348 1.00D-06 EigRej= -1.00D+00 NBFU=   348
 Precomputing XC quadrature grid using
 IXCGrd= 4 IRadAn=           0 IRanWt=          -1 IRanGd=           0 AccXCQ= 0.00D+00.
 Generated NRdTot=       0 NPtTot=           0 NUsed=           0 NTot=          32
 NSgBfM=   343   343   344   344   344 MxSgAt=    40 MxSgA2=    40.
 Leave Link  302 at Sat Aug  8 06:03:55 2020, MaxMem=    33554432 cpu:         1.2
 (Enter /prod/apps/gaussian/g09d1/l303.exe)
 DipDrv:  MaxL=1.
 Leave Link  303 at Sat Aug  8 06:03:55 2020, MaxMem=    33554432 cpu:         0.0
 (Enter /prod/apps/gaussian/g09d1/l401.exe)
 ExpMin= 1.17D-01 ExpMax= 2.19D+04 ExpMxC= 3.30D+03 IAcc=1 IRadAn=         1 AccDes= 0.00D+00
 Harris functional with IExCor=  402 and IRadAn=       1 diagonalized for initial guess.
 HarFok:  IExCor=  402 AccDes= 0.00D+00 IRadAn=         1 IDoV= 1 UseB2=F ITyADJ=14
 ICtDFT=  3500011 ScaDFX=  1.000000  1.000000  1.000000  1.000000
 FoFCou: FMM=F IPFlag=           0 FMFlag=      100000 FMFlg1=           0
         NFxFlg=           0 DoJE=T BraDBF=F KetDBF=T FulRan=T
         wScrn=  0.000000 ICntrl=     500 IOpCl=  0 I1Cent=   200000004 NGrid=           0
         NMat0=    1 NMatS0=      1 NMatT0=    0 NMatD0=    1 NMtDS0=    0 NMtDT0=    0
 Petite list used in FoFCou.
 Harris En= -1638.91022252363    
 JPrj=0 DoOrth=F DoCkMO=F.
 Leave Link  401 at Sat Aug  8 06:04:00 2020, MaxMem=    33554432 cpu:         4.9
 (Enter /prod/apps/gaussian/g09d1/l502.exe)
 Closed shell SCF:
 Using DIIS extrapolation, IDIIS=  1040.
 Integral symmetry usage will be decided dynamically.
 IVT=      386588 IEndB=      386588 NGot=    33554432 MDV=    33305937
 LenX=    33305937 LenY=    33184392
 Requested convergence on RMS density matrix=1.00D-08 within 128 cycles.
 Requested convergence on MAX density matrix=1.00D-06.
 Requested convergence on             energy=1.00D-06.
 No special actions if energy rises.
 Fock matrices will be formed incrementally for  20 cycles.
 Integral accuracy reduced to 1.0D-05 until final iterations.

 Cycle   1  Pass 0  IDiag  1:
 FoFJK:  IHMeth= 1 ICntrl=       0 DoSepK=F KAlg= 0 I1Cent=   0 FoldK=F
 IRaf= 780000000 NMat=   1 IRICut=       1 DoRegI=T DoRafI=F ISym2E= 0.
 FoFCou: FMM=F IPFlag=           0 FMFlag=      100000 FMFlg1=           0
         NFxFlg=           0 DoJE=F BraDBF=F KetDBF=F FulRan=T
         wScrn=  0.000000 ICntrl=       0 IOpCl=  0 I1Cent=           0 NGrid=           0
         NMat0=    1 NMatS0=      1 NMatT0=    0 NMatD0=    1 NMtDS0=    0 NMtDT0=    0
 Symmetry not used in FoFCou.
 E= -1638.05066107472    
 DIIS: error= 2.86D-02 at cycle   1 NSaved=   1.
 NSaved= 1 IEnMin= 1 EnMin= -1638.05066107472     IErMin= 1 ErrMin= 2.86D-02
 ErrMax= 2.86D-02  0.00D+00 EMaxC= 1.00D-01 BMatC= 8.88D-01 BMatP= 8.88D-01
 IDIUse=3 WtCom= 7.14D-01 WtEn= 2.86D-01
 Coeff-Com:  0.100D+01
 Coeff-En:   0.100D+01
 Coeff:      0.100D+01
 Gap=     0.328 Goal=   None    Shift=    0.000
 GapD=    0.328 DampG=1.000 DampE=0.500 DampFc=0.5000 IDamp=-1.
 Damping current iteration by 5.00D-01
 RMSDP=7.60D-03 MaxDP=5.96D-01              OVMax= 3.13D-01

 Cycle   2  Pass 0  IDiag  1:
 RMSU=  3.80D-03    CP:  9.99D-01
 E= -1638.19435655544     Delta-E=       -0.143695480714 Rises=F Damp=T
 DIIS: error= 1.55D-02 at cycle   2 NSaved=   2.
 NSaved= 2 IEnMin= 2 EnMin= -1638.19435655544     IErMin= 2 ErrMin= 1.55D-02
 ErrMax= 1.55D-02  0.00D+00 EMaxC= 1.00D-01 BMatC= 1.70D-01 BMatP= 8.88D-01
 IDIUse=3 WtCom= 8.45D-01 WtEn= 1.55D-01
 Coeff-Com:  0.258D+00 0.742D+00
 Coeff-En:   0.410D+00 0.590D+00
 Coeff:      0.282D+00 0.718D+00
 Gap=     0.352 Goal=   None    Shift=    0.000
 RMSDP=2.71D-03 MaxDP=1.26D-01 DE=-1.44D-01 OVMax= 2.35D-01

 Cycle   3  Pass 0  IDiag  1:
 RMSU=  2.03D-03    CP:  9.86D-01  5.31D-01
 E= -1638.70262776239     Delta-E=       -0.508271206950 Rises=F Damp=F
 DIIS: error= 1.29D-02 at cycle   3 NSaved=   3.
 NSaved= 3 IEnMin= 3 EnMin= -1638.70262776239     IErMin= 3 ErrMin= 1.29D-02
 ErrMax= 1.29D-02  0.00D+00 EMaxC= 1.00D-01 BMatC= 1.40D-01 BMatP= 1.70D-01
 IDIUse=3 WtCom= 8.71D-01 WtEn= 1.29D-01
 Coeff-Com:  0.115D+00 0.470D+00 0.414D+00
 Coeff-En:   0.000D+00 0.000D+00 0.100D+01
 Coeff:      0.100D+00 0.410D+00 0.490D+00
 Gap=     0.238 Goal=   None    Shift=    0.000
 RMSDP=1.79D-03 MaxDP=7.57D-02 DE=-5.08D-01 OVMax= 1.63D-01

 Cycle   4  Pass 0  IDiag  1:
 RMSU=  9.44D-04    CP:  9.94D-01  6.83D-01  3.12D-01
 E= -1638.80691121295     Delta-E=       -0.104283450562 Rises=F Damp=F
 DIIS: error= 6.09D-03 at cycle   4 NSaved=   4.
 NSaved= 4 IEnMin= 4 EnMin= -1638.80691121295     IErMin= 4 ErrMin= 6.09D-03
 ErrMax= 6.09D-03  0.00D+00 EMaxC= 1.00D-01 BMatC= 2.85D-02 BMatP= 1.40D-01
 IDIUse=3 WtCom= 9.39D-01 WtEn= 6.09D-02
 Coeff-Com:  0.199D-01 0.111D+00 0.313D+00 0.556D+00
 Coeff-En:   0.000D+00 0.000D+00 0.201D+00 0.799D+00
 Coeff:      0.187D-01 0.104D+00 0.306D+00 0.571D+00
 Gap=     0.221 Goal=   None    Shift=    0.000
 RMSDP=7.25D-04 MaxDP=3.57D-02 DE=-1.04D-01 OVMax= 6.79D-02

 Cycle   5  Pass 0  IDiag  1:
 RMSU=  3.20D-04    CP:  9.93D-01  6.33D-01  5.45D-01  5.71D-01
 E= -1638.82971368464     Delta-E=       -0.022802471691 Rises=F Damp=F
 DIIS: error= 2.02D-03 at cycle   5 NSaved=   5.
 NSaved= 5 IEnMin= 5 EnMin= -1638.82971368464     IErMin= 5 ErrMin= 2.02D-03
 ErrMax= 2.02D-03  0.00D+00 EMaxC= 1.00D-01 BMatC= 3.16D-03 BMatP= 2.85D-02
 IDIUse=3 WtCom= 9.80D-01 WtEn= 2.02D-02
 Coeff-Com: -0.118D-03 0.195D-01 0.139D+00 0.361D+00 0.481D+00
 Coeff-En:   0.000D+00 0.000D+00 0.000D+00 0.740D-01 0.926D+00
 Coeff:     -0.116D-03 0.191D-01 0.136D+00 0.355D+00 0.490D+00
 Gap=     0.216 Goal=   None    Shift=    0.000
 RMSDP=2.22D-04 MaxDP=9.08D-03 DE=-2.28D-02 OVMax= 1.53D-02

 Cycle   6  Pass 0  IDiag  1:
 RMSU=  1.10D-04    CP:  9.92D-01  6.45D-01  5.14D-01  6.55D-01  5.08D-01
 E= -1638.83217264262     Delta-E=       -0.002458957980 Rises=F Damp=F
 DIIS: error= 6.12D-04 at cycle   6 NSaved=   6.
 NSaved= 6 IEnMin= 6 EnMin= -1638.83217264262     IErMin= 6 ErrMin= 6.12D-04
 ErrMax= 6.12D-04  0.00D+00 EMaxC= 1.00D-01 BMatC= 3.58D-04 BMatP= 3.16D-03
 IDIUse=3 WtCom= 9.94D-01 WtEn= 6.12D-03
 Coeff-Com: -0.183D-02 0.379D-03 0.431D-01 0.139D+00 0.303D+00 0.515D+00
 Coeff-En:   0.000D+00 0.000D+00 0.000D+00 0.000D+00 0.717D-01 0.928D+00
 Coeff:     -0.182D-02 0.377D-03 0.428D-01 0.139D+00 0.302D+00 0.518D+00
 Gap=     0.217 Goal=   None    Shift=    0.000
 RMSDP=6.71D-05 MaxDP=3.22D-03 DE=-2.46D-03 OVMax= 4.14D-03

 Cycle   7  Pass 0  IDiag  1:
 RMSU=  3.50D-05    CP:  9.92D-01  6.43D-01  5.18D-01  6.61D-01  5.84D-01
                    CP:  5.42D-01
 E= -1638.83244627620     Delta-E=       -0.000273633583 Rises=F Damp=F
 DIIS: error= 1.59D-04 at cycle   7 NSaved=   7.
 NSaved= 7 IEnMin= 7 EnMin= -1638.83244627620     IErMin= 7 ErrMin= 1.59D-04
 ErrMax= 1.59D-04  0.00D+00 EMaxC= 1.00D-01 BMatC= 2.68D-05 BMatP= 3.58D-04
 IDIUse=3 WtCom= 9.98D-01 WtEn= 1.59D-03
 EnCoef did     1 forward-backward iterations
 Coeff-Com: -0.835D-03-0.192D-02 0.765D-02 0.334D-01 0.111D+00 0.284D+00
 Coeff-Com:  0.566D+00
 Coeff-En:   0.000D+00 0.000D+00 0.000D+00 0.000D+00 0.000D+00 0.274D-02
 Coeff-En:   0.997D+00
 Coeff:     -0.834D-03-0.192D-02 0.764D-02 0.334D-01 0.111D+00 0.284D+00
 Coeff:      0.567D+00
 Gap=     0.216 Goal=   None    Shift=    0.000
 RMSDP=1.78D-05 MaxDP=6.46D-04 DE=-2.74D-04 OVMax= 7.78D-04

 Cycle   8  Pass 0  IDiag  1:
 RMSU=  9.37D-06    CP:  9.92D-01  6.43D-01  5.18D-01  6.58D-01  5.89D-01
                    CP:  6.07D-01  6.29D-01
 E= -1638.83247014450     Delta-E=       -0.000023868301 Rises=F Damp=F
 DIIS: error= 2.91D-05 at cycle   8 NSaved=   8.
 NSaved= 8 IEnMin= 8 EnMin= -1638.83247014450     IErMin= 8 ErrMin= 2.91D-05
 ErrMax= 2.91D-05  0.00D+00 EMaxC= 1.00D-01 BMatC= 1.02D-06 BMatP= 2.68D-05
 IDIUse=1 WtCom= 1.00D+00 WtEn= 0.00D+00
 Coeff-Com: -0.144D-03-0.722D-03 0.992D-05 0.317D-02 0.239D-01 0.807D-01
 Coeff-Com:  0.236D+00 0.657D+00
 Coeff:     -0.144D-03-0.722D-03 0.992D-05 0.317D-02 0.239D-01 0.807D-01
 Coeff:      0.236D+00 0.657D+00
 Gap=     0.216 Goal=   None    Shift=    0.000
 RMSDP=4.83D-06 MaxDP=2.32D-04 DE=-2.39D-05 OVMax= 3.12D-04

 Initial convergence to 1.0D-05 achieved.  Increase integral accuracy.
 Cycle   9  Pass 1  IDiag  1:
 E= -1638.83260310128     Delta-E=       -0.000132956778 Rises=F Damp=F
 DIIS: error= 7.18D-05 at cycle   1 NSaved=   1.
 NSaved= 1 IEnMin= 1 EnMin= -1638.83260310128     IErMin= 1 ErrMin= 7.18D-05
 ErrMax= 7.18D-05  0.00D+00 EMaxC= 1.00D-01 BMatC= 1.09D-06 BMatP= 1.09D-06
 IDIUse=1 WtCom= 1.00D+00 WtEn= 0.00D+00
 Coeff-Com:  0.100D+01
 Coeff:      0.100D+01
 Gap=     0.216 Goal=   None    Shift=    0.000
 RMSDP=4.83D-06 MaxDP=2.32D-04 DE=-1.33D-04 OVMax= 4.34D-04

 Cycle  10  Pass 1  IDiag  1:
 RMSU=  2.75D-05    CP:  1.00D+00
 E= -1638.83260353413     Delta-E=       -0.000000432843 Rises=F Damp=F
 DIIS: error= 4.00D-05 at cycle   2 NSaved=   2.
 NSaved= 2 IEnMin= 2 EnMin= -1638.83260353413     IErMin= 2 ErrMin= 4.00D-05
 ErrMax= 4.00D-05  0.00D+00 EMaxC= 1.00D-01 BMatC= 7.89D-07 BMatP= 1.09D-06
 IDIUse=1 WtCom= 1.00D+00 WtEn= 0.00D+00
 Coeff-Com:  0.444D+00 0.556D+00
 Coeff:      0.444D+00 0.556D+00
 Gap=     0.216 Goal=   None    Shift=    0.000
 RMSDP=4.62D-06 MaxDP=1.41D-04 DE=-4.33D-07 OVMax= 4.77D-04

 Cycle  11  Pass 1  IDiag  1:
 RMSU=  4.58D-06    CP:  1.00D+00  9.77D-01
 E= -1638.83260402746     Delta-E=       -0.000000493337 Rises=F Damp=F
 DIIS: error= 2.74D-05 at cycle   3 NSaved=   3.
 NSaved= 3 IEnMin= 3 EnMin= -1638.83260402746     IErMin= 3 ErrMin= 2.74D-05
 ErrMax= 2.74D-05  0.00D+00 EMaxC= 1.00D-01 BMatC= 3.04D-07 BMatP= 7.89D-07
 IDIUse=1 WtCom= 1.00D+00 WtEn= 0.00D+00
 Coeff-Com:  0.348D-02 0.381D+00 0.616D+00
 Coeff:      0.348D-02 0.381D+00 0.616D+00
 Gap=     0.216 Goal=   None    Shift=    0.000
 RMSDP=1.89D-06 MaxDP=5.32D-05 DE=-4.93D-07 OVMax= 2.16D-04

 Cycle  12  Pass 1  IDiag  1:
 RMSU=  7.09D-07    CP:  1.00D+00  9.95D-01  6.33D-01
 E= -1638.83260433226     Delta-E=       -0.000000304795 Rises=F Damp=F
 DIIS: error= 4.14D-06 at cycle   4 NSaved=   4.
 NSaved= 4 IEnMin= 4 EnMin= -1638.83260433226     IErMin= 4 ErrMin= 4.14D-06
 ErrMax= 4.14D-06  0.00D+00 EMaxC= 1.00D-01 BMatC= 1.29D-08 BMatP= 3.04D-07
 IDIUse=1 WtCom= 1.00D+00 WtEn= 0.00D+00
 Coeff-Com: -0.971D-02 0.210D+00 0.362D+00 0.438D+00
 Coeff:     -0.971D-02 0.210D+00 0.362D+00 0.438D+00
 Gap=     0.216 Goal=   None    Shift=    0.000
 RMSDP=4.07D-07 MaxDP=1.43D-05 DE=-3.05D-07 OVMax= 3.36D-05

 Cycle  13  Pass 1  IDiag  1:
 RMSU=  2.10D-07    CP:  1.00D+00  9.95D-01  6.41D-01  5.13D-01
 E= -1638.83260434433     Delta-E=       -0.000000012072 Rises=F Damp=F
 DIIS: error= 9.10D-07 at cycle   5 NSaved=   5.
 NSaved= 5 IEnMin= 5 EnMin= -1638.83260434433     IErMin= 5 ErrMin= 9.10D-07
 ErrMax= 9.10D-07  0.00D+00 EMaxC= 1.00D-01 BMatC= 6.46D-10 BMatP= 1.29D-08
 IDIUse=1 WtCom= 1.00D+00 WtEn= 0.00D+00
 Coeff-Com: -0.555D-02 0.952D-01 0.166D+00 0.249D+00 0.495D+00
 Coeff:     -0.555D-02 0.952D-01 0.166D+00 0.249D+00 0.495D+00
 Gap=     0.216 Goal=   None    Shift=    0.000
 RMSDP=9.08D-08 MaxDP=3.82D-06 DE=-1.21D-08 OVMax= 4.78D-06

 Cycle  14  Pass 1  IDiag  1:
 RMSU=  6.95D-08    CP:  1.00D+00  9.96D-01  6.39D-01  5.34D-01  7.35D-01
 E= -1638.83260434487     Delta-E=       -0.000000000542 Rises=F Damp=F
 DIIS: error= 3.03D-07 at cycle   6 NSaved=   6.
 NSaved= 6 IEnMin= 6 EnMin= -1638.83260434487     IErMin= 6 ErrMin= 3.03D-07
 ErrMax= 3.03D-07  0.00D+00 EMaxC= 1.00D-01 BMatC= 5.91D-11 BMatP= 6.46D-10
 IDIUse=1 WtCom= 1.00D+00 WtEn= 0.00D+00
 Coeff-Com: -0.165D-02 0.223D-01 0.390D-01 0.734D-01 0.265D+00 0.602D+00
 Coeff:     -0.165D-02 0.223D-01 0.390D-01 0.734D-01 0.265D+00 0.602D+00
 Gap=     0.216 Goal=   None    Shift=    0.000
 RMSDP=2.92D-08 MaxDP=1.31D-06 DE=-5.42D-10 OVMax= 1.69D-06

 Cycle  15  Pass 1  IDiag  1:
 RMSU=  2.23D-08    CP:  1.00D+00  9.96D-01  6.39D-01  5.40D-01  7.81D-01
                    CP:  7.77D-01
 E= -1638.83260434494     Delta-E=       -0.000000000065 Rises=F Damp=F
 DIIS: error= 1.23D-07 at cycle   7 NSaved=   7.
 NSaved= 7 IEnMin= 7 EnMin= -1638.83260434494     IErMin= 7 ErrMin= 1.23D-07
 ErrMax= 1.23D-07  0.00D+00 EMaxC= 1.00D-01 BMatC= 1.18D-11 BMatP= 5.91D-11
 IDIUse=1 WtCom= 1.00D+00 WtEn= 0.00D+00
 Coeff-Com: -0.398D-03 0.308D-02 0.544D-02 0.168D-01 0.105D+00 0.371D+00
 Coeff-Com:  0.499D+00
 Coeff:     -0.398D-03 0.308D-02 0.544D-02 0.168D-01 0.105D+00 0.371D+00
 Coeff:      0.499D+00
 Gap=     0.216 Goal=   None    Shift=    0.000
 RMSDP=1.27D-08 MaxDP=5.02D-07 DE=-6.46D-11 OVMax= 9.03D-07

 Cycle  16  Pass 1  IDiag  1:
 RMSU=  7.54D-09    CP:  1.00D+00  9.96D-01  6.39D-01  5.41D-01  7.87D-01
                    CP:  8.05D-01  5.62D-01
 E= -1638.83260434495     Delta-E=       -0.000000000018 Rises=F Damp=F
 DIIS: error= 3.36D-08 at cycle   8 NSaved=   8.
 NSaved= 8 IEnMin= 8 EnMin= -1638.83260434495     IErMin= 8 ErrMin= 3.36D-08
 ErrMax= 3.36D-08  0.00D+00 EMaxC= 1.00D-01 BMatC= 1.41D-12 BMatP= 1.18D-11
 IDIUse=1 WtCom= 1.00D+00 WtEn= 0.00D+00
 Coeff-Com: -0.257D-04-0.104D-02-0.180D-02 0.506D-03 0.285D-01 0.145D+00
 Coeff-Com:  0.303D+00 0.526D+00
 Coeff:     -0.257D-04-0.104D-02-0.180D-02 0.506D-03 0.285D-01 0.145D+00
 Coeff:      0.303D+00 0.526D+00
 Gap=     0.216 Goal=   None    Shift=    0.000
 RMSDP=4.29D-09 MaxDP=1.83D-07 DE=-1.77D-11 OVMax= 2.63D-07

 SCF Done:  E(RB3LYP) =  -1638.83260434     A.U. after   16 cycles
            NFock= 16  Conv=0.43D-08     -V/T= 2.0066
 KE= 1.628144123640D+03 PE=-7.904278428571D+03 EE= 2.610472338436D+03
 Leave Link  502 at Sat Aug  8 06:10:18 2020, MaxMem=    33554432 cpu:       377.8
 (Enter /prod/apps/gaussian/g09d1/l601.exe)
 Copying SCF densities to generalized density rwf, IOpCl= 0 IROHF=0.

 **********************************************************************

            Population analysis using the SCF density.

 **********************************************************************

 Orbital symmetries:
       Occupied  (A) (A) (A) (A) (A) (A) (A) (A) (A) (A) (A) (A)
                 (A) (A) (A) (A) (A) (A) (A) (A) (A) (A) (A) (A)
                 (A) (A) (A) (A) (A) (A) (A) (A) (A) (A) (A) (A)
                 (A) (A) (A) (A) (A) (A) (A) (A) (A) (A) (A) (A)
                 (A) (A) (A) (A) (A) (A) (A) (A) (A) (A) (A) (A)
                 (A) (A) (A) (A) (A) (A) (A) (A) (A) (A) (A) (A)
                 (A) (A) (A) (A) (A) (A) (A) (A) (A) (A) (A) (A)
       Virtual   (A) (A) (A) (A) (A) (A) (A) (A) (A) (A) (A) (A)
                 (A) (A) (A) (A) (A) (A) (A) (A) (A) (A) (A) (A)
                 (A) (A) (A) (A) (A) (A) (A) (A) (A) (A) (A) (A)
                 (A) (A) (A) (A) (A) (A) (A) (A) (A) (A) (A) (A)
                 (A) (A) (A) (A) (A) (A) (A) (A) (A) (A) (A) (A)
                 (A) (A) (A) (A) (A) (A) (A) (A) (A) (A) (A) (A)
                 (A) (A) (A) (A) (A) (A) (A) (A) (A) (A) (A) (A)
                 (A) (A) (A) (A) (A) (A) (A) (A) (A) (A) (A) (A)
                 (A) (A) (A) (A) (A) (A) (A) (A) (A) (A) (A) (A)
                 (A) (A) (A) (A) (A) (A) (A) (A) (A) (A) (A) (A)
                 (A) (A) (A) (A) (A) (A) (A) (A) (A) (A) (A) (A)
                 (A) (A) (A) (A) (A) (A) (A) (A) (A) (A) (A) (A)
                 (A) (A) (A) (A) (A) (A) (A) (A) (A) (A) (A) (A)
                 (A) (A) (A) (A) (A) (A) (A) (A) (A) (A) (A) (A)
                 (A) (A) (A) (A) (A) (A) (A) (A) (A) (A) (A) (A)
                 (A) (A) (A) (A) (A) (A) (A) (A) (A) (A) (A) (A)
                 (A) (A) (A) (A) (A) (A) (A) (A) (A) (A) (A) (A)
                 (A) (A) (A) (A) (A) (A) (A) (A) (A) (A) (A) (A)
                 (A) (A) (A) (A) (A) (A) (A) (A) (A) (A) (A) (A)
                 (A) (A) (A) (A) (A) (A) (A) (A) (A) (A) (A) (A)
                 (A) (A) (A) (A) (A) (A) (A) (A) (A) (A) (A) (A)
                 (A) (A) (A) (A) (A) (A) (A) (A) (A) (A) (A) (A)
 The electronic state is 1-A.
 Alpha  occ. eigenvalues --  -89.13557 -88.97603 -19.15030 -19.14937 -19.10365
 Alpha  occ. eigenvalues --  -14.38389 -14.37779 -10.26297 -10.23119 -10.23059
 Alpha  occ. eigenvalues --  -10.20868 -10.20633 -10.20394 -10.20020 -10.19818
 Alpha  occ. eigenvalues --  -10.18986 -10.18936 -10.18857 -10.18831 -10.18713
 Alpha  occ. eigenvalues --   -8.15809  -8.02407  -6.12282  -6.12251  -6.12188
 Alpha  occ. eigenvalues --   -5.98811  -5.98635  -5.98191  -1.12736  -1.00661
 Alpha  occ. eigenvalues --   -0.99486  -0.95469  -0.93959  -0.85759  -0.84179
 Alpha  occ. eigenvalues --   -0.79347  -0.74396  -0.74249  -0.73561  -0.71625
 Alpha  occ. eigenvalues --   -0.69418  -0.67331  -0.62464  -0.61316  -0.60356
 Alpha  occ. eigenvalues --   -0.58019  -0.55912  -0.55089  -0.52052  -0.51308
 Alpha  occ. eigenvalues --   -0.50679  -0.48922  -0.47789  -0.47088  -0.46397
 Alpha  occ. eigenvalues --   -0.45929  -0.45086  -0.44583  -0.43353  -0.42756
 Alpha  occ. eigenvalues --   -0.42037  -0.41974  -0.41738  -0.41338  -0.39740
 Alpha  occ. eigenvalues --   -0.39429  -0.38575  -0.37924  -0.37195  -0.36748
 Alpha  occ. eigenvalues --   -0.35502  -0.35138  -0.34766  -0.33824  -0.33415
 Alpha  occ. eigenvalues --   -0.33086  -0.32328  -0.30700  -0.28116  -0.26370
 Alpha  occ. eigenvalues --   -0.25060  -0.24964  -0.24237  -0.22089
 Alpha virt. eigenvalues --   -0.00478  -0.00024   0.01708   0.04170   0.04782
 Alpha virt. eigenvalues --    0.06124   0.06985   0.07250   0.09278   0.09504
 Alpha virt. eigenvalues --    0.10008   0.10275   0.10749   0.12556   0.12814
 Alpha virt. eigenvalues --    0.13546   0.14663   0.14866   0.15147   0.15589
 Alpha virt. eigenvalues --    0.15866   0.16257   0.17027   0.17374   0.17740
 Alpha virt. eigenvalues --    0.17965   0.18770   0.18975   0.19806   0.20475
 Alpha virt. eigenvalues --    0.20753   0.21629   0.22355   0.23427   0.24188
 Alpha virt. eigenvalues --    0.25124   0.28127   0.28355   0.30709   0.32378
 Alpha virt. eigenvalues --    0.33404   0.34052   0.34877   0.35919   0.37298
 Alpha virt. eigenvalues --    0.39975   0.43110   0.43715   0.43816   0.46247
 Alpha virt. eigenvalues --    0.46790   0.47802   0.48680   0.49982   0.51404
 Alpha virt. eigenvalues --    0.52284   0.53521   0.53842   0.55056   0.55512
 Alpha virt. eigenvalues --    0.56596   0.56969   0.57765   0.58997   0.59536
 Alpha virt. eigenvalues --    0.60218   0.61160   0.61446   0.61588   0.62119
 Alpha virt. eigenvalues --    0.63039   0.63946   0.64321   0.64843   0.66227
 Alpha virt. eigenvalues --    0.66722   0.67069   0.68715   0.69196   0.71914
 Alpha virt. eigenvalues --    0.72360   0.73222   0.74686   0.76308   0.76317
 Alpha virt. eigenvalues --    0.79142   0.79945   0.80572   0.81361   0.81836
 Alpha virt. eigenvalues --    0.82881   0.83630   0.84441   0.84519   0.84733
 Alpha virt. eigenvalues --    0.85648   0.86195   0.86614   0.87534   0.88215
 Alpha virt. eigenvalues --    0.88541   0.88874   0.90025   0.90671   0.91373
 Alpha virt. eigenvalues --    0.91600   0.92380   0.92758   0.93999   0.94683
 Alpha virt. eigenvalues --    0.95095   0.95443   0.96922   0.97484   0.98008
 Alpha virt. eigenvalues --    0.99361   1.01162   1.01353   1.02202   1.03519
 Alpha virt. eigenvalues --    1.05500   1.05903   1.07471   1.08049   1.09743
 Alpha virt. eigenvalues --    1.10673   1.11693   1.11997   1.13680   1.14224
 Alpha virt. eigenvalues --    1.15579   1.16471   1.17433   1.18893   1.19305
 Alpha virt. eigenvalues --    1.19453   1.21644   1.22770   1.24860   1.25410
 Alpha virt. eigenvalues --    1.27852   1.30893   1.33186   1.36829   1.39233
 Alpha virt. eigenvalues --    1.41706   1.41991   1.43449   1.44812   1.45643
 Alpha virt. eigenvalues --    1.46944   1.48162   1.48851   1.51001   1.51590
 Alpha virt. eigenvalues --    1.54032   1.54932   1.56766   1.59585   1.65677
 Alpha virt. eigenvalues --    1.68987   1.71434   1.72851   1.74819   1.75468
 Alpha virt. eigenvalues --    1.78403   1.78766   1.79464   1.81191   1.81989
 Alpha virt. eigenvalues --    1.82689   1.82888   1.84844   1.85343   1.86000
 Alpha virt. eigenvalues --    1.87431   1.88610   1.89470   1.90950   1.91615
 Alpha virt. eigenvalues --    1.92082   1.93577   1.94294   1.95355   1.96115
 Alpha virt. eigenvalues --    1.97293   1.97940   1.98363   2.00459   2.02067
 Alpha virt. eigenvalues --    2.03650   2.04348   2.05184   2.07154   2.08595
 Alpha virt. eigenvalues --    2.09204   2.09730   2.11718   2.13109   2.13942
 Alpha virt. eigenvalues --    2.14275   2.15112   2.16367   2.18418   2.18822
 Alpha virt. eigenvalues --    2.20431   2.21794   2.23589   2.25088   2.25413
 Alpha virt. eigenvalues --    2.27276   2.28462   2.30225   2.31500   2.33285
 Alpha virt. eigenvalues --    2.34695   2.34978   2.36863   2.39356   2.41374
 Alpha virt. eigenvalues --    2.42510   2.46485   2.47134   2.47706   2.57707
 Alpha virt. eigenvalues --    2.58403   2.58734   2.60030   2.65201   2.68822
 Alpha virt. eigenvalues --    2.70823   2.72135   2.72521   2.74375   2.75093
 Alpha virt. eigenvalues --    2.75988   2.76961   2.78084   2.79288   2.83613
 Alpha virt. eigenvalues --    2.87115   2.89023   3.05728   3.41083   3.81225
 Alpha virt. eigenvalues --    3.85261   3.90471   3.94798   3.97468   4.05883
 Alpha virt. eigenvalues --    4.09718   4.10126   4.12114   4.17138   4.21684
 Alpha virt. eigenvalues --    4.24546   4.27059   4.30958   4.33412   4.36575
 Alpha virt. eigenvalues --    4.41505   4.53640   4.69999   4.73053
          Condensed to atoms (all electrons):
               1          2          3          4          5          6
     1  O    8.308894   0.388723  -0.054752   0.005599  -0.008622  -0.000114
     2  S    0.388723  13.643061   0.134337  -0.019086  -0.005507   0.001247
     3  N   -0.054752   0.134337   7.402359   0.231488  -0.049953   0.003892
     4  C    0.005599  -0.019086   0.231488   4.828978   0.329203  -0.058696
     5  C   -0.008622  -0.005507  -0.049953   0.329203   5.689209   0.060317
     6  S   -0.000114   0.001247   0.003892  -0.058696   0.060317  14.925175
     7  O    0.000000   0.000012  -0.000055  -0.000579  -0.040024   0.296525
     8  C   -0.007643  -0.001067  -0.049720   0.327990  -0.127472   0.063625
     9  C    0.000182   0.000904  -0.053669   0.376541  -0.047048   0.003596
    10  C   -0.000003  -0.000336  -0.005952  -0.034019   0.005062  -0.000247
    11  C    0.000000   0.000021  -0.001257  -0.002650  -0.000071  -0.000176
    12  C    0.000000   0.000002  -0.000018  -0.001041  -0.000024   0.000276
    13  C    0.000000   0.000000   0.000000  -0.000010   0.000000   0.000000
    14  C    0.000000   0.000000   0.000000   0.000004   0.000000  -0.000001
    15  C    0.000000  -0.000001   0.000004   0.000005   0.000000   0.000002
    16  C    0.000000   0.000072   0.000256   0.001200   0.000004   0.000110
    17  N   -0.053982   0.129244  -0.049652   0.002973  -0.000116  -0.000001
    18  C    0.003673  -0.007001  -0.011431  -0.000445   0.000070  -0.000005
    19  C   -0.002029  -0.028921   0.002271  -0.000039  -0.000004   0.000000
    20  O   -0.046340   0.450726  -0.055846  -0.002789  -0.000086   0.000018
    21  H    0.001764  -0.005781   0.284357  -0.028735   0.004546  -0.000384
    22  H    0.000227   0.000295   0.001858  -0.031004   0.348638  -0.018368
    23  H    0.013998   0.000957  -0.005251  -0.024761   0.323475  -0.004176
    24  H    0.000192   0.000037   0.001856  -0.026644   0.010236  -0.018896
    25  H    0.008530   0.008141  -0.007873  -0.026168   0.001930  -0.005764
    26  H   -0.000004   0.000000  -0.003447  -0.037227  -0.008116  -0.000337
    27  H    0.000002   0.000025   0.002929  -0.031851  -0.008306   0.005337
    28  H    0.000001  -0.000204   0.000457  -0.008485   0.000060  -0.000035
    29  H    0.000000   0.000019   0.000287   0.004661  -0.000131   0.000043
    30  H    0.000000   0.000000  -0.000001   0.000088  -0.000002  -0.000043
    31  H    0.000000   0.000000   0.000000   0.000000   0.000000   0.000001
    32  H    0.000000   0.000000   0.000000   0.000000   0.000000   0.000000
    33  H    0.000000  -0.000001   0.000000   0.000000   0.000000   0.000000
    34  H    0.000000   0.000381   0.000033  -0.000068   0.000001   0.000002
    35  H   -0.002082  -0.003049   0.014578  -0.000722   0.000473   0.000027
    36  H    0.000062   0.002526  -0.000013  -0.000007   0.000000   0.000000
    37  H    0.005032  -0.007137   0.000086   0.000082  -0.000028  -0.000001
    38  H   -0.000102  -0.003286   0.000090  -0.000003   0.000000   0.000000
    39  H    0.001915  -0.002657  -0.000062   0.000006   0.000000   0.000000
    40  H   -0.000100   0.001782  -0.000085   0.000000   0.000000   0.000000
               7          8          9         10         11         12
     1  O    0.000000  -0.007643   0.000182  -0.000003   0.000000   0.000000
     2  S    0.000012  -0.001067   0.000904  -0.000336   0.000021   0.000002
     3  N   -0.000055  -0.049720  -0.053669  -0.005952  -0.001257  -0.000018
     4  C   -0.000579   0.327990   0.376541  -0.034019  -0.002650  -0.001041
     5  C   -0.040024  -0.127472  -0.047048   0.005062  -0.000071  -0.000024
     6  S    0.296525   0.063625   0.003596  -0.000247  -0.000176   0.000276
     7  O    8.388220  -0.038749  -0.009078   0.000251  -0.000220   0.000137
     8  C   -0.038749   5.709907  -0.055089  -0.006204  -0.000754  -0.002121
     9  C   -0.009078  -0.055089   5.203456   0.329470  -0.038054  -0.003165
    10  C    0.000251  -0.006204   0.329470   5.197900   0.348152  -0.066101
    11  C   -0.000220  -0.000754  -0.038054   0.348152   4.668969   0.538545
    12  C    0.000137  -0.002121  -0.003165  -0.066101   0.538545   4.968504
    13  C   -0.000043  -0.000248   0.000192   0.006255  -0.018013   0.527786
    14  C    0.000001   0.000064   0.000005   0.000358  -0.035607  -0.035132
    15  C    0.000000  -0.000022  -0.000161   0.007275  -0.021427  -0.047430
    16  C    0.000001  -0.001732  -0.000499  -0.050110   0.545730  -0.042132
    17  N    0.000000  -0.000122  -0.000117   0.000002   0.000000   0.000000
    18  C    0.000000  -0.000016  -0.000010   0.000001   0.000000   0.000000
    19  C    0.000000   0.000005   0.000002   0.000000   0.000000   0.000000
    20  O    0.000000   0.001489  -0.000108  -0.000007  -0.000011   0.000000
    21  H    0.000002   0.001862  -0.010110   0.007810  -0.000067   0.000018
    22  H    0.000107   0.010759  -0.006433   0.000162   0.000013  -0.000001
    23  H    0.001211   0.002470   0.004203  -0.000114   0.000001   0.000000
    24  H   -0.000135   0.348272  -0.005606  -0.000701   0.005910   0.003407
    25  H    0.001179   0.321782   0.004443  -0.000040   0.000030   0.000083
    26  H    0.000310   0.006646   0.347174  -0.032499   0.004729   0.000088
    27  H    0.028725  -0.006368   0.351844  -0.027390  -0.006107   0.002939
    28  H   -0.000003  -0.000195  -0.040143   0.353537  -0.038050   0.004821
    29  H    0.000000  -0.000090  -0.035229   0.360145  -0.029106  -0.005001
    30  H    0.000685  -0.000038   0.000528  -0.008505  -0.047498   0.358105
    31  H   -0.000002  -0.000004   0.000001  -0.000184   0.003653  -0.038903
    32  H    0.000000   0.000000   0.000000   0.000007   0.000714   0.004762
    33  H    0.000000  -0.000005   0.000001  -0.000181   0.003845   0.000783
    34  H    0.000000   0.000088   0.000112  -0.011874  -0.045742   0.006390
    35  H    0.000000   0.000060   0.000019  -0.000001   0.000000   0.000000
    36  H    0.000000   0.000000  -0.000001   0.000000   0.000000   0.000000
    37  H    0.000000  -0.000001  -0.000001   0.000000   0.000000   0.000000
    38  H    0.000000   0.000000   0.000000   0.000000   0.000000   0.000000
    39  H    0.000000   0.000000   0.000000   0.000000   0.000000   0.000000
    40  H    0.000000   0.000000   0.000000   0.000000   0.000000   0.000000
              13         14         15         16         17         18
     1  O    0.000000   0.000000   0.000000   0.000000  -0.053982   0.003673
     2  S    0.000000   0.000000  -0.000001   0.000072   0.129244  -0.007001
     3  N    0.000000   0.000000   0.000004   0.000256  -0.049652  -0.011431
     4  C   -0.000010   0.000004   0.000005   0.001200   0.002973  -0.000445
     5  C    0.000000   0.000000   0.000000   0.000004  -0.000116   0.000070
     6  S    0.000000  -0.000001   0.000002   0.000110  -0.000001  -0.000005
     7  O   -0.000043   0.000001   0.000000   0.000001   0.000000   0.000000
     8  C   -0.000248   0.000064  -0.000022  -0.001732  -0.000122  -0.000016
     9  C    0.000192   0.000005  -0.000161  -0.000499  -0.000117  -0.000010
    10  C    0.006255   0.000358   0.007275  -0.050110   0.000002   0.000001
    11  C   -0.018013  -0.035607  -0.021427   0.545730   0.000000   0.000000
    12  C    0.527786  -0.035132  -0.047430  -0.042132   0.000000   0.000000
    13  C    4.859352   0.545376  -0.025564  -0.046420   0.000000   0.000000
    14  C    0.545376   4.859322   0.550966  -0.036079   0.000000   0.000000
    15  C   -0.025564   0.550966   4.865512   0.521627   0.000000   0.000000
    16  C   -0.046420  -0.036079   0.521627   4.971655   0.000000   0.000000
    17  N    0.000000   0.000000   0.000000   0.000000   7.215130   0.271992
    18  C    0.000000   0.000000   0.000000   0.000000   0.271992   4.991512
    19  C    0.000000   0.000000   0.000000   0.000000   0.291878  -0.049830
    20  O    0.000000   0.000000  -0.000001  -0.000143  -0.055642   0.001576
    21  H   -0.000001   0.000000   0.000002  -0.000070   0.004518  -0.000089
    22  H    0.000000   0.000000   0.000000   0.000000   0.000006  -0.000035
    23  H    0.000000   0.000000   0.000000   0.000000  -0.000162   0.000065
    24  H    0.000648   0.000243   0.000150   0.001557   0.000002   0.000000
    25  H    0.000003  -0.000005  -0.000033   0.000026   0.000046  -0.000005
    26  H    0.000001   0.000000   0.000002  -0.000108  -0.000005  -0.000021
    27  H   -0.000139   0.000003   0.000002   0.000042   0.000000   0.000000
    28  H   -0.000171  -0.000003   0.000203  -0.004484  -0.000011   0.000001
    29  H   -0.000002   0.000031  -0.000228   0.001949   0.000000   0.000000
    30  H   -0.041502   0.004739   0.000350   0.005834   0.000000   0.000000
    31  H    0.358372  -0.043436   0.004587   0.000849   0.000000   0.000000
    32  H   -0.042924   0.359554  -0.043343   0.004762   0.000000   0.000000
    33  H    0.004569  -0.043338   0.357308  -0.038765   0.000000   0.000000
    34  H    0.000305   0.004895  -0.043950   0.353029  -0.000003   0.000000
    35  H    0.000000   0.000000   0.000000   0.000000  -0.033584   0.374302
    36  H    0.000000   0.000000   0.000000   0.000000  -0.035533   0.373497
    37  H    0.000000   0.000000   0.000000   0.000000  -0.046182   0.375255
    38  H    0.000000   0.000000   0.000000   0.000000  -0.031012   0.004463
    39  H    0.000000   0.000000   0.000000   0.000000  -0.047348  -0.002050
    40  H    0.000000   0.000000   0.000000   0.000000  -0.039724  -0.002768
              19         20         21         22         23         24
     1  O   -0.002029  -0.046340   0.001764   0.000227   0.013998   0.000192
     2  S   -0.028921   0.450726  -0.005781   0.000295   0.000957   0.000037
     3  N    0.002271  -0.055846   0.284357   0.001858  -0.005251   0.001856
     4  C   -0.000039  -0.002789  -0.028735  -0.031004  -0.024761  -0.026644
     5  C   -0.000004  -0.000086   0.004546   0.348638   0.323475   0.010236
     6  S    0.000000   0.000018  -0.000384  -0.018368  -0.004176  -0.018896
     7  O    0.000000   0.000000   0.000002   0.000107   0.001211  -0.000135
     8  C    0.000005   0.001489   0.001862   0.010759   0.002470   0.348272
     9  C    0.000002  -0.000108  -0.010110  -0.006433   0.004203  -0.005606
    10  C    0.000000  -0.000007   0.007810   0.000162  -0.000114  -0.000701
    11  C    0.000000  -0.000011  -0.000067   0.000013   0.000001   0.005910
    12  C    0.000000   0.000000   0.000018  -0.000001   0.000000   0.003407
    13  C    0.000000   0.000000  -0.000001   0.000000   0.000000   0.000648
    14  C    0.000000   0.000000   0.000000   0.000000   0.000000   0.000243
    15  C    0.000000  -0.000001   0.000002   0.000000   0.000000   0.000150
    16  C    0.000000  -0.000143  -0.000070   0.000000   0.000000   0.001557
    17  N    0.291878  -0.055642   0.004518   0.000006  -0.000162   0.000002
    18  C   -0.049830   0.001576  -0.000089  -0.000035   0.000065   0.000000
    19  C    4.988571  -0.004159  -0.000117   0.000000   0.000004   0.000000
    20  O   -0.004159   8.226296   0.000278   0.000001   0.000020  -0.000142
    21  H   -0.000117   0.000278   0.372000  -0.000011  -0.000021   0.000166
    22  H    0.000000   0.000001  -0.000011   0.522817  -0.018828  -0.000332
    23  H    0.000004   0.000020  -0.000021  -0.018828   0.487366  -0.000244
    24  H    0.000000  -0.000142   0.000166  -0.000332  -0.000244   0.476042
    25  H    0.000002  -0.000356  -0.000056  -0.000328  -0.000025  -0.015982
    26  H    0.000000   0.000002   0.000445   0.005075   0.000019   0.000071
    27  H    0.000000   0.000001   0.000435   0.000449   0.000192  -0.000351
    28  H    0.000000   0.000005   0.013683   0.000003   0.000001   0.000104
    29  H    0.000000   0.000000  -0.000591  -0.000015   0.000002   0.000018
    30  H    0.000000   0.000000   0.000000   0.000000   0.000000   0.000127
    31  H    0.000000   0.000000   0.000000   0.000000   0.000000   0.000009
    32  H    0.000000   0.000000   0.000000   0.000000   0.000000   0.000000
    33  H    0.000000  -0.000001   0.000000   0.000000   0.000000   0.000008
    34  H    0.000000   0.000545   0.000280   0.000000   0.000000   0.000040
    35  H    0.004791   0.000042  -0.000227   0.000122   0.000262  -0.000001
    36  H   -0.003519  -0.000049  -0.000029   0.000001   0.000001   0.000000
    37  H   -0.001972  -0.000037   0.000021  -0.000001   0.000047   0.000000
    38  H    0.377773   0.012007  -0.000019   0.000000   0.000000   0.000000
    39  H    0.372131  -0.000481   0.000009   0.000000   0.000000   0.000000
    40  H    0.377843   0.000255  -0.000006   0.000000   0.000000   0.000000
              25         26         27         28         29         30
     1  O    0.008530  -0.000004   0.000002   0.000001   0.000000   0.000000
     2  S    0.008141   0.000000   0.000025  -0.000204   0.000019   0.000000
     3  N   -0.007873  -0.003447   0.002929   0.000457   0.000287  -0.000001
     4  C   -0.026168  -0.037227  -0.031851  -0.008485   0.004661   0.000088
     5  C    0.001930  -0.008116  -0.008306   0.000060  -0.000131  -0.000002
     6  S   -0.005764  -0.000337   0.005337  -0.000035   0.000043  -0.000043
     7  O    0.001179   0.000310   0.028725  -0.000003   0.000000   0.000685
     8  C    0.321782   0.006646  -0.006368  -0.000195  -0.000090  -0.000038
     9  C    0.004443   0.347174   0.351844  -0.040143  -0.035229   0.000528
    10  C   -0.000040  -0.032499  -0.027390   0.353537   0.360145  -0.008505
    11  C    0.000030   0.004729  -0.006107  -0.038050  -0.029106  -0.047498
    12  C    0.000083   0.000088   0.002939   0.004821  -0.005001   0.358105
    13  C    0.000003   0.000001  -0.000139  -0.000171  -0.000002  -0.041502
    14  C   -0.000005   0.000000   0.000003  -0.000003   0.000031   0.004739
    15  C   -0.000033   0.000002   0.000002   0.000203  -0.000228   0.000350
    16  C    0.000026  -0.000108   0.000042  -0.004484   0.001949   0.005834
    17  N    0.000046  -0.000005   0.000000  -0.000011   0.000000   0.000000
    18  C   -0.000005  -0.000021   0.000000   0.000001   0.000000   0.000000
    19  C    0.000002   0.000000   0.000000   0.000000   0.000000   0.000000
    20  O   -0.000356   0.000002   0.000001   0.000005   0.000000   0.000000
    21  H   -0.000056   0.000445   0.000435   0.013683  -0.000591   0.000000
    22  H   -0.000328   0.005075   0.000449   0.000003  -0.000015   0.000000
    23  H   -0.000025   0.000019   0.000192   0.000001   0.000002   0.000000
    24  H   -0.015982   0.000071  -0.000351   0.000104   0.000018   0.000127
    25  H    0.492755  -0.000133   0.000108  -0.000010   0.000003   0.000001
    26  H   -0.000133   0.605627  -0.024070  -0.002256  -0.004984  -0.000100
    27  H    0.000108  -0.024070   0.500090   0.004308  -0.002558   0.002848
    28  H   -0.000010  -0.002256   0.004308   0.611132  -0.033655   0.000031
    29  H    0.000003  -0.004984  -0.002558  -0.033655   0.578288   0.002334
    30  H    0.000001  -0.000100   0.002848   0.000031   0.002334   0.586069
    31  H    0.000000   0.000000   0.000003   0.000003  -0.000002  -0.005489
    32  H    0.000000   0.000000   0.000000   0.000000   0.000000  -0.000176
    33  H    0.000000   0.000000   0.000000  -0.000010   0.000003   0.000017
    34  H    0.000001  -0.000013   0.000009   0.007641   0.000128  -0.000172
    35  H   -0.000001   0.000141   0.000000   0.000000   0.000000   0.000000
    36  H    0.000000   0.000000   0.000000   0.000000   0.000000   0.000000
    37  H    0.000000   0.000000   0.000000   0.000000   0.000000   0.000000
    38  H    0.000001   0.000000   0.000000   0.000000   0.000000   0.000000
    39  H    0.000000   0.000000   0.000000   0.000000   0.000000   0.000000
    40  H    0.000000   0.000000   0.000000   0.000000   0.000000   0.000000
              31         32         33         34         35         36
     1  O    0.000000   0.000000   0.000000   0.000000  -0.002082   0.000062
     2  S    0.000000   0.000000  -0.000001   0.000381  -0.003049   0.002526
     3  N    0.000000   0.000000   0.000000   0.000033   0.014578  -0.000013
     4  C    0.000000   0.000000   0.000000  -0.000068  -0.000722  -0.000007
     5  C    0.000000   0.000000   0.000000   0.000001   0.000473   0.000000
     6  S    0.000001   0.000000   0.000000   0.000002   0.000027   0.000000
     7  O   -0.000002   0.000000   0.000000   0.000000   0.000000   0.000000
     8  C   -0.000004   0.000000  -0.000005   0.000088   0.000060   0.000000
     9  C    0.000001   0.000000   0.000001   0.000112   0.000019  -0.000001
    10  C   -0.000184   0.000007  -0.000181  -0.011874  -0.000001   0.000000
    11  C    0.003653   0.000714   0.003845  -0.045742   0.000000   0.000000
    12  C   -0.038903   0.004762   0.000783   0.006390   0.000000   0.000000
    13  C    0.358372  -0.042924   0.004569   0.000305   0.000000   0.000000
    14  C   -0.043436   0.359554  -0.043338   0.004895   0.000000   0.000000
    15  C    0.004587  -0.043343   0.357308  -0.043950   0.000000   0.000000
    16  C    0.000849   0.004762  -0.038765   0.353029   0.000000   0.000000
    17  N    0.000000   0.000000   0.000000  -0.000003  -0.033584  -0.035533
    18  C    0.000000   0.000000   0.000000   0.000000   0.374302   0.373497
    19  C    0.000000   0.000000   0.000000   0.000000   0.004791  -0.003519
    20  O    0.000000   0.000000  -0.000001   0.000545   0.000042  -0.000049
    21  H    0.000000   0.000000   0.000000   0.000280  -0.000227  -0.000029
    22  H    0.000000   0.000000   0.000000   0.000000   0.000122   0.000001
    23  H    0.000000   0.000000   0.000000   0.000000   0.000262   0.000001
    24  H    0.000009   0.000000   0.000008   0.000040  -0.000001   0.000000
    25  H    0.000000   0.000000   0.000000   0.000001  -0.000001   0.000000
    26  H    0.000000   0.000000   0.000000  -0.000013   0.000141   0.000000
    27  H    0.000003   0.000000   0.000000   0.000009   0.000000   0.000000
    28  H    0.000003   0.000000  -0.000010   0.007641   0.000000   0.000000
    29  H   -0.000002   0.000000   0.000003   0.000128   0.000000   0.000000
    30  H   -0.005489  -0.000176   0.000017  -0.000172   0.000000   0.000000
    31  H    0.590059  -0.005479  -0.000185   0.000017   0.000000   0.000000
    32  H   -0.005479   0.596428  -0.005569  -0.000179   0.000000   0.000000
    33  H   -0.000185  -0.005569   0.593656  -0.005652   0.000000   0.000000
    34  H    0.000017  -0.000179  -0.005652   0.605212   0.000000   0.000000
    35  H    0.000000   0.000000   0.000000   0.000000   0.510196  -0.023019
    36  H    0.000000   0.000000   0.000000   0.000000  -0.023019   0.553471
    37  H    0.000000   0.000000   0.000000   0.000000  -0.030698  -0.037700
    38  H    0.000000   0.000000   0.000000   0.000000  -0.000190  -0.000005
    39  H    0.000000   0.000000   0.000000   0.000000  -0.000206  -0.001459
    40  H    0.000000   0.000000   0.000000   0.000000   0.000047   0.005183
              37         38         39         40
     1  O    0.005032  -0.000102   0.001915  -0.000100
     2  S   -0.007137  -0.003286  -0.002657   0.001782
     3  N    0.000086   0.000090  -0.000062  -0.000085
     4  C    0.000082  -0.000003   0.000006   0.000000
     5  C   -0.000028   0.000000   0.000000   0.000000
     6  S   -0.000001   0.000000   0.000000   0.000000
     7  O    0.000000   0.000000   0.000000   0.000000
     8  C   -0.000001   0.000000   0.000000   0.000000
     9  C   -0.000001   0.000000   0.000000   0.000000
    10  C    0.000000   0.000000   0.000000   0.000000
    11  C    0.000000   0.000000   0.000000   0.000000
    12  C    0.000000   0.000000   0.000000   0.000000
    13  C    0.000000   0.000000   0.000000   0.000000
    14  C    0.000000   0.000000   0.000000   0.000000
    15  C    0.000000   0.000000   0.000000   0.000000
    16  C    0.000000   0.000000   0.000000   0.000000
    17  N   -0.046182  -0.031012  -0.047348  -0.039724
    18  C    0.375255   0.004463  -0.002050  -0.002768
    19  C   -0.001972   0.377773   0.372131   0.377843
    20  O   -0.000037   0.012007  -0.000481   0.000255
    21  H    0.000021  -0.000019   0.000009  -0.000006
    22  H   -0.000001   0.000000   0.000000   0.000000
    23  H    0.000047   0.000000   0.000000   0.000000
    24  H    0.000000   0.000000   0.000000   0.000000
    25  H    0.000000   0.000001   0.000000   0.000000
    26  H    0.000000   0.000000   0.000000   0.000000
    27  H    0.000000   0.000000   0.000000   0.000000
    28  H    0.000000   0.000000   0.000000   0.000000
    29  H    0.000000   0.000000   0.000000   0.000000
    30  H    0.000000   0.000000   0.000000   0.000000
    31  H    0.000000   0.000000   0.000000   0.000000
    32  H    0.000000   0.000000   0.000000   0.000000
    33  H    0.000000   0.000000   0.000000   0.000000
    34  H    0.000000   0.000000   0.000000   0.000000
    35  H   -0.030698  -0.000190  -0.000206   0.000047
    36  H   -0.037700  -0.000005  -0.001459   0.005183
    37  H    0.567343  -0.000172   0.008474  -0.001794
    38  H   -0.000172   0.481879  -0.029423  -0.020621
    39  H    0.008474  -0.029423   0.580416  -0.042410
    40  H   -0.001794  -0.020621  -0.042410   0.555526
 Mulliken charges:
               1
     1  O   -0.563023
     2  S    1.321522
     3  N   -0.732102
     4  C    0.226210
     5  C   -0.477715
     6  S    0.747049
     7  O   -0.628478
     8  C   -0.497358
     9  C   -0.318154
    10  C   -0.371914
    11  C    0.164497
    12  C   -0.175578
    13  C   -0.127823
    14  C   -0.131959
    15  C   -0.125834
    16  C   -0.188161
    17  N   -0.522596
    18  C   -0.322699
    19  C   -0.324680
    20  O   -0.527061
    21  H    0.354116
    22  H    0.184824
    23  H    0.219288
    24  H    0.219939
    25  H    0.217714
    26  H    0.142991
    27  H    0.206849
    28  H    0.131721
    29  H    0.163680
    30  H    0.141771
    31  H    0.136130
    32  H    0.131443
    33  H    0.133515
    34  H    0.128545
    35  H    0.188718
    36  H    0.166592
    37  H    0.169383
    38  H    0.208620
    39  H    0.163147
    40  H    0.166871
 Sum of Mulliken charges =   0.00000
 Mulliken charges with hydrogens summed into heavy atoms:
               1
     1  O   -0.563023
     2  S    1.321522
     3  N   -0.377986
     4  C    0.226210
     5  C   -0.073602
     6  S    0.747049
     7  O   -0.628478
     8  C   -0.059705
     9  C    0.031686
    10  C   -0.076513
    11  C    0.164497
    12  C   -0.033807
    13  C    0.008307
    14  C   -0.000516
    15  C    0.007681
    16  C   -0.059616
    17  N   -0.522596
    18  C    0.201994
    19  C    0.213957
    20  O   -0.527061
 Electronic spatial extent (au):  <R**2>=           7041.2096
 Charge=              0.0000 electrons
 Dipole moment (field-independent basis, Debye):
    X=             -3.3091    Y=             -2.4810    Z=              3.3621  Tot=              5.3300
 Quadrupole moment (field-independent basis, Debye-Ang):
   XX=           -119.2984   YY=           -141.3606   ZZ=           -131.8644
   XY=             -5.2282   XZ=             -9.2354   YZ=              1.9502
 Traceless Quadrupole moment (field-independent basis, Debye-Ang):
   XX=             11.5427   YY=            -10.5194   ZZ=             -1.0233
   XY=             -5.2282   XZ=             -9.2354   YZ=              1.9502
 Octapole moment (field-independent basis, Debye-Ang**2):
  XXX=            -98.7149  YYY=            -29.1578  ZZZ=              1.9128  XYY=            -51.5449
  XXY=            -37.5398  XXZ=              2.7180  XZZ=              1.2256  YZZ=              6.6606
  YYZ=             -1.7806  XYZ=             11.6260
 Hexadecapole moment (field-independent basis, Debye-Ang**3):
 XXXX=          -5460.4068 YYYY=          -2420.8183 ZZZZ=           -882.1770 XXXY=            161.0125
 XXXZ=           -146.4337 YYYX=            -66.3057 YYYZ=             34.7142 ZZZX=             -7.0988
 ZZZY=              2.2049 XXYY=          -1445.9916 XXZZ=          -1149.1980 YYZZ=           -534.9528
 XXYZ=             70.3600 YYXZ=            -36.3071 ZZXY=             15.5419
 N-N= 2.026829362151D+03 E-N=-7.904278414268D+03  KE= 1.628144123640D+03
 No NMR shielding tensors so no spin-rotation constants.
 Leave Link  601 at Sat Aug  8 06:10:18 2020, MaxMem=    33554432 cpu:         0.3
 (Enter /prod/apps/gaussian/g09d1/l9999.exe)
 1\1\GINC-PIRINEUS13\SP\RB3LYP\6-31G(d)\C13H20N2O3S2\UBAFAR01\08-Aug-20
 20\0\\#p b3lyp/6-31G(d)\\SM37.n.11.pdb.xyz\\0,1\O,0,4.011,-1.428,1.268
 \S,0,4.577,-0.567,0.218\N,0,3.499,-0.63,-1.057\C,0,2.83,-1.882,-1.45\C
 ,0,1.691,-2.299,-0.495\S,0,2.059,-4.117,-0.748\O,0,1.295,-4.624,-1.962
 \C,0,3.607,-3.22,-1.304\C,0,2.254,-1.679,-2.864\C,0,3.235,-1.359,-4.01
 1\C,0,4.164,-2.476,-4.443\C,0,3.659,-3.656,-5.007\C,0,4.518,-4.675,-5.
 418\C,0,5.9,-4.529,-5.277\C,0,6.415,-3.356,-4.724\C,0,5.551,-2.34,-4.3
 13\N,0,4.453,1.075,0.545\C,0,3.156,1.476,1.103\C,0,5.613,1.653,1.244\O
 ,0,5.965,-0.805,-0.195\H,0,3.865,-0.082,-1.834\H,0,0.674,-2.02,-0.774\
 H,0,1.908,-2.053,0.544\H,0,4.065,-3.647,-2.194\H,0,4.298,-3.222,-0.46\
 H,0,1.527,-0.861,-2.796\H,0,1.69,-2.587,-3.097\H,0,3.84,-0.477,-3.772\
 H,0,2.618,-1.059,-4.866\H,0,2.586,-3.782,-5.119\H,0,4.109,-5.581,-5.85
 1\H,0,6.568,-5.321,-5.597\H,0,7.488,-3.231,-4.611\H,0,5.955,-1.429,-3.
 881\H,0,2.36,1.041,0.499\H,0,3.088,2.563,1.042\H,0,3.035,1.168,2.148\H
 ,0,6.528,1.316,0.761\H,0,5.638,1.386,2.308\H,0,5.538,2.739,1.155\\Vers
 ion=AM64L-G09RevD.01\State=1-A\HF=-1638.8326043\RMSD=4.286e-09\Dipole=
 0.09209,2.0947143,-0.0310412\Quadrupole=-4.4606077,4.4541305,0.0064771
 ,-7.2903158,-2.9558506,7.0922292\PG=C01 [X(C13H20N2O3S2)]\\@


 MATERIAL COPIED FROM ONE SCHOLARLY BOOK WITHOUT CREDIT COMPRISES PLAGIARISM.
 MATERIAL COPIED FROM TWO SCHOLARLY BOOKS COMPRISES AN ESSAY.
 MATERIAL COPIED FROM THREE SCHOLARLY BOOKS COMPRISES A DISSERTATION.
 MATERIAL COPIED FROM FOUR SCHOLARLY BOOKS COMPRISES A FIFTH SCHOLARLY BOOK.

                               -- C&EN, 25 FEB 1980
 Job cpu time:       0 days  0 hours  6 minutes 24.5 seconds.
 File lengths (MBytes):  RWF=     67 Int=      0 D2E=      0 Chk=      5 Scr=      1
 Normal termination of Gaussian 09 at Sat Aug  8 06:10:18 2020.
 Initial command:
 /prod/apps/gaussian/g09d1/l1.exe "/tmp/ubafar01/1449198/Gau-169030.inp" -scrdir="/tmp/ubafar01/1449198/"
 Entering Link 1 = /prod/apps/gaussian/g09d1/l1.exe PID=    170282.
  
 Copyright (c) 1988,1990,1992,1993,1995,1998,2003,2009,2013,
            Gaussian, Inc.  All Rights Reserved.
  
 This is part of the Gaussian(R) 09 program.  It is based on
 the Gaussian(R) 03 system (copyright 2003, Gaussian, Inc.),
 the Gaussian(R) 98 system (copyright 1998, Gaussian, Inc.),
 the Gaussian(R) 94 system (copyright 1995, Gaussian, Inc.),
 the Gaussian 92(TM) system (copyright 1992, Gaussian, Inc.),
 the Gaussian 90(TM) system (copyright 1990, Gaussian, Inc.),
 the Gaussian 88(TM) system (copyright 1988, Gaussian, Inc.),
 the Gaussian 86(TM) system (copyright 1986, Carnegie Mellon
 University), and the Gaussian 82(TM) system (copyright 1983,
 Carnegie Mellon University). Gaussian is a federally registered
 trademark of Gaussian, Inc.
  
 This software contains proprietary and confidential information,
 including trade secrets, belonging to Gaussian, Inc.
  
 This software is provided under written license and may be
 used, copied, transmitted, or stored only in accord with that
 written license.
  
 The following legend is applicable only to US Government
 contracts under FAR:
  
                    RESTRICTED RIGHTS LEGEND
  
 Use, reproduction and disclosure by the US Government is
 subject to restrictions as set forth in subparagraphs (a)
 and (c) of the Commercial Computer Software - Restricted
 Rights clause in FAR 52.227-19.
  
 Gaussian, Inc.
 340 Quinnipiac St., Bldg. 40, Wallingford CT 06492
  
  
 ---------------------------------------------------------------
 Warning -- This program may not be used in any manner that
 competes with the business of Gaussian, Inc. or will provide
 assistance to any competitor of Gaussian, Inc.  The licensee
[...]
    38  H    0.000000   0.000000   0.000000   0.000000   0.000000   0.000000
    39  H    0.000000   0.000000   0.000000   0.000000   0.000000   0.000000
    40  H    0.000000   0.000000   0.000000   0.000000   0.000000   0.000000
              13         14         15         16         17         18
     1  O    0.000000   0.000000   0.000000   0.000000  -0.054140   0.003530
     2  S    0.000000   0.000000  -0.000001   0.000082   0.141317  -0.008188
     3  N    0.000000   0.000000   0.000004   0.000255  -0.050316  -0.011094
     4  C   -0.000010   0.000004   0.000005   0.001188   0.003053  -0.000460
     5  C    0.000000   0.000000   0.000000   0.000004  -0.000114   0.000090
     6  S    0.000001  -0.000001   0.000002   0.000113   0.000000  -0.000004
     7  O   -0.000043   0.000001   0.000000   0.000001   0.000000   0.000000
     8  C   -0.000256   0.000064  -0.000019  -0.001742  -0.000126  -0.000016
     9  C    0.000184   0.000006  -0.000168  -0.000510  -0.000118  -0.000010
    10  C    0.006144   0.000339   0.007188  -0.049697   0.000002   0.000001
    11  C   -0.018657  -0.035601  -0.022307   0.545178   0.000000   0.000000
    12  C    0.525753  -0.036038  -0.047083  -0.043356   0.000000   0.000000
    13  C    4.873606   0.544076  -0.027044  -0.046389   0.000000   0.000000
    14  C    0.544076   4.870105   0.549547  -0.036925   0.000000   0.000000
    15  C   -0.027044   0.549547   4.878820   0.518772   0.000000   0.000000
    16  C   -0.046389  -0.036925   0.518772   4.981199   0.000000   0.000000
    17  N    0.000000   0.000000   0.000000   0.000000   7.210324   0.269333
    18  C    0.000000   0.000000   0.000000   0.000000   0.269333   4.994119
    19  C    0.000000   0.000000   0.000000   0.000000   0.287234  -0.049266
    20  O    0.000000   0.000000  -0.000001  -0.000141  -0.056319   0.001503
    21  H   -0.000001   0.000000   0.000003  -0.000042   0.004230  -0.000094
    22  H    0.000000   0.000000   0.000000   0.000000   0.000006  -0.000033
    23  H    0.000000   0.000000   0.000000   0.000000  -0.000160   0.000080
    24  H    0.000684   0.000238   0.000159   0.001682   0.000002   0.000000
    25  H    0.000003  -0.000005  -0.000034   0.000027   0.000050  -0.000005
    26  H    0.000001   0.000000   0.000002  -0.000105  -0.000005  -0.000018
    27  H   -0.000143   0.000003   0.000002   0.000058   0.000001   0.000000
    28  H   -0.000166  -0.000004   0.000246  -0.004043  -0.000011   0.000001
    29  H    0.000001   0.000030  -0.000227   0.001898   0.000000   0.000000
    30  H   -0.042619   0.004757   0.000312   0.005905   0.000000   0.000000
    31  H    0.359779  -0.042720   0.004568   0.000807   0.000000   0.000000
    32  H   -0.042406   0.361392  -0.042638   0.004683   0.000000   0.000000
    33  H    0.004530  -0.042602   0.358903  -0.038585   0.000000   0.000000
    34  H    0.000289   0.004835  -0.043974   0.354642  -0.000003   0.000000
    35  H    0.000000   0.000000   0.000000   0.000000  -0.033718   0.374579
    36  H    0.000000   0.000000   0.000000   0.000000  -0.034407   0.376271
    37  H    0.000000   0.000000   0.000000   0.000000  -0.046225   0.376042
    38  H    0.000000   0.000000   0.000000   0.000000  -0.031780   0.004442
    39  H    0.000000   0.000000   0.000000   0.000000  -0.047188  -0.001856
    40  H    0.000000   0.000000   0.000000   0.000000  -0.038461  -0.002622
              19         20         21         22         23         24
     1  O   -0.001945  -0.046014   0.001660   0.000220   0.013966   0.000193
     2  S   -0.028482   0.450094  -0.005551   0.000287   0.000964   0.000068
     3  N    0.002181  -0.055998   0.286893   0.001742  -0.005277   0.001875
     4  C   -0.000040  -0.002797  -0.028278  -0.030904  -0.025068  -0.026391
     5  C   -0.000004  -0.000089   0.004331   0.351011   0.325151   0.010174
     6  S    0.000000   0.000018  -0.000404  -0.018402  -0.005063  -0.018590
     7  O    0.000000   0.000000   0.000002   0.000019   0.001209  -0.000175
     8  C    0.000005   0.001467   0.001815   0.010528   0.002497   0.346998
     9  C    0.000002  -0.000106  -0.009698  -0.005870   0.004167  -0.005735
    10  C    0.000000  -0.000006   0.008105   0.000155  -0.000112  -0.000632
    11  C    0.000000  -0.000011  -0.000154   0.000013   0.000001   0.006035
    12  C    0.000000   0.000000   0.000017  -0.000001   0.000000   0.003625
    13  C    0.000000   0.000000  -0.000001   0.000000   0.000000   0.000684
    14  C    0.000000   0.000000   0.000000   0.000000   0.000000   0.000238
    15  C    0.000000  -0.000001   0.000003   0.000000   0.000000   0.000159
    16  C    0.000000  -0.000141  -0.000042   0.000000   0.000000   0.001682
    17  N    0.287234  -0.056319   0.004230   0.000006  -0.000160   0.000002
    18  C   -0.049266   0.001503  -0.000094  -0.000033   0.000080   0.000000
    19  C    4.992307  -0.004318  -0.000103   0.000000   0.000004   0.000000
    20  O   -0.004318   8.242033   0.000171   0.000001   0.000019  -0.000144
    21  H   -0.000103   0.000171   0.356190  -0.000008  -0.000022   0.000164
    22  H    0.000000   0.000001  -0.000008   0.507373  -0.017387  -0.000326
    23  H    0.000004   0.000019  -0.000022  -0.017387   0.482385  -0.000242
    24  H    0.000000  -0.000144   0.000164  -0.000326  -0.000242   0.476825
    25  H    0.000002  -0.000248  -0.000049  -0.000313  -0.000031  -0.015975
    26  H    0.000000   0.000002   0.000342   0.004840   0.000018   0.000073
    27  H    0.000000   0.000001   0.000427   0.000439   0.000185  -0.000325
    28  H    0.000000   0.000005   0.013113   0.000003   0.000001   0.000103
    29  H    0.000000   0.000000  -0.000549  -0.000015   0.000002   0.000019
    30  H    0.000000   0.000000   0.000000   0.000000   0.000000   0.000122
    31  H    0.000000   0.000000   0.000000   0.000000   0.000000   0.000009
    32  H    0.000000   0.000000   0.000000   0.000000   0.000000   0.000000
    33  H    0.000000  -0.000001   0.000000   0.000000   0.000000   0.000008
    34  H    0.000000   0.000541   0.000266   0.000000   0.000000   0.000038
    35  H    0.004702   0.000040  -0.000195   0.000107   0.000239  -0.000001
    36  H   -0.003417  -0.000048  -0.000028   0.000001   0.000001   0.000000
    37  H   -0.001979  -0.000037   0.000020  -0.000001   0.000047   0.000000
    38  H    0.377087   0.011625  -0.000019   0.000000   0.000000   0.000000
    39  H    0.372787  -0.000465   0.000008   0.000000   0.000000   0.000000
    40  H    0.380368   0.000242  -0.000006   0.000000   0.000000   0.000000
              25         26         27         28         29         30
     1  O    0.008781  -0.000004   0.000002   0.000001   0.000000   0.000000
     2  S    0.008542  -0.000007   0.000019  -0.000182   0.000018   0.000000
     3  N   -0.008013  -0.003483   0.003052   0.000775   0.000282  -0.000001
     4  C   -0.026657  -0.036435  -0.032701  -0.008392   0.004586   0.000089
     5  C    0.001841  -0.007847  -0.008158   0.000058  -0.000126  -0.000002
     6  S   -0.006196  -0.000425   0.004916  -0.000031   0.000044  -0.000037
     7  O    0.001188   0.000286   0.027634  -0.000003   0.000000   0.000684
     8  C    0.321957   0.006551  -0.006395  -0.000191  -0.000093  -0.000038
     9  C    0.004416   0.352227   0.352459  -0.039128  -0.034037   0.000530
    10  C   -0.000053  -0.031304  -0.028115   0.358183   0.362151  -0.008381
    11  C    0.000035   0.004572  -0.006327  -0.039225  -0.029411  -0.046819
    12  C    0.000084   0.000085   0.003030   0.004703  -0.004967   0.358556
    13  C    0.000003   0.000001  -0.000143  -0.000166   0.000001  -0.042619
    14  C   -0.000005   0.000000   0.000003  -0.000004   0.000030   0.004757
    15  C   -0.000034   0.000002   0.000002   0.000246  -0.000227   0.000312
    16  C    0.000027  -0.000105   0.000058  -0.004043   0.001898   0.005905
    17  N    0.000050  -0.000005   0.000001  -0.000011   0.000000   0.000000
    18  C   -0.000005  -0.000018   0.000000   0.000001   0.000000   0.000000
    19  C    0.000002   0.000000   0.000000   0.000000   0.000000   0.000000
    20  O   -0.000248   0.000002   0.000001   0.000005   0.000000   0.000000
    21  H   -0.000049   0.000342   0.000427   0.013113  -0.000549   0.000000
    22  H   -0.000313   0.004840   0.000439   0.000003  -0.000015   0.000000
    23  H   -0.000031   0.000018   0.000185   0.000001   0.000002   0.000000
    24  H   -0.015975   0.000073  -0.000325   0.000103   0.000019   0.000122
    25  H    0.495843  -0.000130   0.000106  -0.000009   0.000003   0.000001
    26  H   -0.000130   0.584499  -0.024201  -0.002207  -0.004999  -0.000100
    27  H    0.000106  -0.024201   0.512271   0.004303  -0.002511   0.002900
    28  H   -0.000009  -0.002207   0.004303   0.590796  -0.031778   0.000028
    29  H    0.000003  -0.004999  -0.002511  -0.031778   0.565162   0.002264
    30  H    0.000001  -0.000100   0.002900   0.000028   0.002264   0.585273
    31  H    0.000000   0.000000   0.000003   0.000003  -0.000002  -0.005413
    32  H    0.000000   0.000000   0.000000   0.000000   0.000000  -0.000172
    33  H    0.000000   0.000000   0.000000  -0.000010   0.000003   0.000017
    34  H    0.000002  -0.000013   0.000010   0.007274   0.000123  -0.000169
    35  H   -0.000001   0.000128   0.000000   0.000000   0.000000   0.000000
    36  H    0.000000   0.000000   0.000000   0.000000   0.000000   0.000000
    37  H    0.000000   0.000000   0.000000   0.000000   0.000000   0.000000
    38  H    0.000001   0.000000   0.000000   0.000000   0.000000   0.000000
    39  H   -0.000001   0.000000   0.000000   0.000000   0.000000   0.000000
    40  H    0.000000   0.000000   0.000000   0.000000   0.000000   0.000000
              31         32         33         34         35         36
     1  O    0.000000   0.000000   0.000000   0.000000  -0.002073   0.000057
     2  S    0.000000   0.000000   0.000000   0.000375  -0.002588   0.002543
     3  N    0.000000   0.000000   0.000000   0.000042   0.013594  -0.000012
     4  C    0.000000   0.000000   0.000001  -0.000071  -0.000757  -0.000007
     5  C    0.000000   0.000000   0.000000   0.000001   0.000439   0.000000
     6  S    0.000001   0.000000   0.000000   0.000002   0.000023   0.000000
     7  O   -0.000002   0.000000   0.000000   0.000000   0.000000   0.000000
     8  C   -0.000004   0.000000  -0.000005   0.000084   0.000057   0.000000
     9  C    0.000001   0.000000   0.000001   0.000114   0.000018   0.000000
    10  C   -0.000179   0.000007  -0.000175  -0.011277  -0.000001   0.000000
    11  C    0.003640   0.000682   0.003785  -0.044883   0.000000   0.000000
    12  C   -0.039301   0.004678   0.000757   0.006338   0.000000   0.000000
    13  C    0.359779  -0.042406   0.004530   0.000289   0.000000   0.000000
    14  C   -0.042720   0.361392  -0.042602   0.004835   0.000000   0.000000
    15  C    0.004568  -0.042638   0.358903  -0.043974   0.000000   0.000000
    16  C    0.000807   0.004683  -0.038585   0.354642   0.000000   0.000000
    17  N    0.000000   0.000000   0.000000  -0.000003  -0.033718  -0.034407
    18  C    0.000000   0.000000   0.000000   0.000000   0.374579   0.376271
    19  C    0.000000   0.000000   0.000000   0.000000   0.004702  -0.003417
    20  O    0.000000   0.000000  -0.000001   0.000541   0.000040  -0.000048
    21  H    0.000000   0.000000   0.000000   0.000266  -0.000195  -0.000028
    22  H    0.000000   0.000000   0.000000   0.000000   0.000107   0.000001
    23  H    0.000000   0.000000   0.000000   0.000000   0.000239   0.000001
    24  H    0.000009   0.000000   0.000008   0.000038  -0.000001   0.000000
    25  H    0.000000   0.000000   0.000000   0.000002  -0.000001   0.000000
    26  H    0.000000   0.000000   0.000000  -0.000013   0.000128   0.000000
    27  H    0.000003   0.000000   0.000000   0.000010   0.000000   0.000000
    28  H    0.000003   0.000000  -0.000010   0.007274   0.000000   0.000000
    29  H   -0.000002   0.000000   0.000003   0.000123   0.000000   0.000000
    30  H   -0.005413  -0.000172   0.000017  -0.000169   0.000000   0.000000
    31  H    0.581926  -0.005329  -0.000180   0.000017   0.000000   0.000000
    32  H   -0.005329   0.583908  -0.005390  -0.000173   0.000000   0.000000
    33  H   -0.000180  -0.005390   0.582656  -0.005468   0.000000   0.000000
    34  H    0.000017  -0.000173  -0.005468   0.595621   0.000000   0.000000
    35  H    0.000000   0.000000   0.000000   0.000000   0.506880  -0.022136
    36  H    0.000000   0.000000   0.000000   0.000000  -0.022136   0.533680
    37  H    0.000000   0.000000   0.000000   0.000000  -0.030786  -0.035931
    38  H    0.000000   0.000000   0.000000   0.000000  -0.000193   0.000002
    39  H    0.000000   0.000000   0.000000   0.000000  -0.000196  -0.001389
    40  H    0.000000   0.000000   0.000000   0.000000   0.000048   0.004871
              37         38         39         40
     1  O    0.005014  -0.000101   0.001898  -0.000097
     2  S   -0.007642  -0.003471  -0.002868   0.001889
     3  N    0.000073   0.000086  -0.000059  -0.000086
     4  C    0.000085  -0.000003   0.000006   0.000000
     5  C   -0.000028   0.000000   0.000000   0.000000
     6  S   -0.000001   0.000000   0.000000   0.000000
     7  O    0.000000   0.000000   0.000000   0.000000
     8  C   -0.000001   0.000000   0.000000   0.000000
     9  C   -0.000001   0.000000   0.000000   0.000000
    10  C    0.000000   0.000000   0.000000   0.000000
    11  C    0.000000   0.000000   0.000000   0.000000
    12  C    0.000000   0.000000   0.000000   0.000000
    13  C    0.000000   0.000000   0.000000   0.000000
    14  C    0.000000   0.000000   0.000000   0.000000
    15  C    0.000000   0.000000   0.000000   0.000000
    16  C    0.000000   0.000000   0.000000   0.000000
    17  N   -0.046225  -0.031780  -0.047188  -0.038461
    18  C    0.376042   0.004442  -0.001856  -0.002622
    19  C   -0.001979   0.377087   0.372787   0.380368
    20  O   -0.000037   0.011625  -0.000465   0.000242
    21  H    0.000020  -0.000019   0.000008  -0.000006
    22  H   -0.000001   0.000000   0.000000   0.000000
    23  H    0.000047   0.000000   0.000000   0.000000
    24  H    0.000000   0.000000   0.000000   0.000000
    25  H    0.000000   0.000001  -0.000001   0.000000
    26  H    0.000000   0.000000   0.000000   0.000000
    27  H    0.000000   0.000000   0.000000   0.000000
    28  H    0.000000   0.000000   0.000000   0.000000
    29  H    0.000000   0.000000   0.000000   0.000000
    30  H    0.000000   0.000000   0.000000   0.000000
    31  H    0.000000   0.000000   0.000000   0.000000
    32  H    0.000000   0.000000   0.000000   0.000000
    33  H    0.000000   0.000000   0.000000   0.000000
    34  H    0.000000   0.000000   0.000000   0.000000
    35  H   -0.030786  -0.000193  -0.000196   0.000048
    36  H   -0.035931   0.000002  -0.001389   0.004871
    37  H    0.564795  -0.000165   0.008232  -0.001717
    38  H   -0.000165   0.491006  -0.030031  -0.020282
    39  H    0.008232  -0.030031   0.574738  -0.040190
    40  H   -0.001717  -0.020282  -0.040190   0.535267
 Mulliken charges:
               1
     1  O   -0.575350
     2  S    1.318681
     3  N   -0.730388
     4  C    0.224340
     5  C   -0.474680
     6  S    0.738706
     7  O   -0.654674
     8  C   -0.493524
     9  C   -0.317929
    10  C   -0.377123
    11  C    0.161421
    12  C   -0.180753
    13  C   -0.137319
    14  C   -0.141500
    15  C   -0.135035
    16  C   -0.194957
    17  N   -0.522458
    18  C   -0.326323
    19  C   -0.327125
    20  O   -0.541017
    21  H    0.367444
    22  H    0.196517
    23  H    0.222425
    24  H    0.219442
    25  H    0.214837
    26  H    0.157658
    27  H    0.197055
    28  H    0.145784
    29  H    0.172128
    30  H    0.142312
    31  H    0.142376
    32  H    0.140758
    33  H    0.141754
    34  H    0.135420
    35  H    0.191793
    36  H    0.179950
    37  H    0.170207
    38  H    0.201798
    39  H    0.166575
    40  H    0.180775
 Sum of Mulliken charges =   0.00000
 Mulliken charges with hydrogens summed into heavy atoms:
               1
     1  O   -0.575350
     2  S    1.318681
     3  N   -0.362944
     4  C    0.224340
     5  C   -0.055738
     6  S    0.738706
     7  O   -0.654674
     8  C   -0.059245
     9  C    0.036784
    10  C   -0.059211
    11  C    0.161421
    12  C   -0.038441
    13  C    0.005057
    14  C   -0.000742
    15  C    0.006719
    16  C   -0.059538
    17  N   -0.522458
    18  C    0.215626
    19  C    0.222024
    20  O   -0.541017
 Electronic spatial extent (au):  <R**2>=           7040.3330
 Charge=              0.0000 electrons
 Dipole moment (field-independent basis, Debye):
    X=             -4.0982    Y=             -2.8653    Z=              4.1497  Tot=              6.4981
 Quadrupole moment (field-independent basis, Debye-Ang):
   XX=           -118.0158   YY=           -142.2238   ZZ=           -131.1048
   XY=             -6.0344   XZ=            -10.5555   YZ=              2.0334
 Traceless Quadrupole moment (field-independent basis, Debye-Ang):
   XX=             12.4323   YY=            -11.7756   ZZ=             -0.6566
   XY=             -6.0344   XZ=            -10.5555   YZ=              2.0334
 Octapole moment (field-independent basis, Debye-Ang**2):
  XXX=           -114.8927  YYY=            -34.4975  ZZZ=              6.2340  XYY=            -56.1383
  XXY=            -42.5751  XXZ=              7.2100  XZZ=              1.0575  YZZ=              6.2547
  YYZ=              0.3339  XYZ=             12.9001
 Hexadecapole moment (field-independent basis, Debye-Ang**3):
 XXXX=          -5383.3130 YYYY=          -2433.8828 ZZZZ=           -874.2201 XXXY=            171.5231
 XXXZ=           -172.4651 YYYX=            -80.1989 YYYZ=             38.3077 ZZZX=            -10.8810
 ZZZY=              2.8542 XXYY=          -1445.0410 XXZZ=          -1141.7475 YYZZ=           -534.0280
 XXYZ=             70.3514 YYXZ=            -39.9729 ZZXY=             13.6398
 N-N= 2.026814271877D+03 E-N=-7.904480570875D+03  KE= 1.628152083838D+03
 No NMR shielding tensors so no spin-rotation constants.
 Leave Link  601 at Sat Aug  8 06:14:56 2020, MaxMem=    33554432 cpu:         0.3
 (Enter /prod/apps/gaussian/g09d1/l9999.exe)
 1\1\GINC-PIRINEUS13\SP\RB3LYP\6-31G(d)\C13H20N2O3S2\UBAFAR01\08-Aug-20
 20\0\\#p b3lyp/6-31G(d) scrf=(iefpcm,read,solvent=n-Octanol) geom=allc
 heck guess=read\\SM37.n.11.pdb.xyz\\0,1\O,0,4.011,-1.428,1.268\S,0,4.5
 77,-0.567,0.218\N,0,3.499,-0.63,-1.057\C,0,2.83,-1.882,-1.45\C,0,1.691
 ,-2.299,-0.495\S,0,2.059,-4.117,-0.748\O,0,1.295,-4.624,-1.962\C,0,3.6
 07,-3.22,-1.304\C,0,2.254,-1.679,-2.864\C,0,3.235,-1.359,-4.011\C,0,4.
 164,-2.476,-4.443\C,0,3.659,-3.656,-5.007\C,0,4.518,-4.675,-5.418\C,0,
 5.9,-4.529,-5.277\C,0,6.415,-3.356,-4.724\C,0,5.551,-2.34,-4.313\N,0,4
 .453,1.075,0.545\C,0,3.156,1.476,1.103\C,0,5.613,1.653,1.244\O,0,5.965
 ,-0.805,-0.195\H,0,3.865,-0.082,-1.834\H,0,0.674,-2.02,-0.774\H,0,1.90
 8,-2.053,0.544\H,0,4.065,-3.647,-2.194\H,0,4.298,-3.222,-0.46\H,0,1.52
 7,-0.861,-2.796\H,0,1.69,-2.587,-3.097\H,0,3.84,-0.477,-3.772\H,0,2.61
 8,-1.059,-4.866\H,0,2.586,-3.782,-5.119\H,0,4.109,-5.581,-5.851\H,0,6.
 568,-5.321,-5.597\H,0,7.488,-3.231,-4.611\H,0,5.955,-1.429,-3.881\H,0,
 2.36,1.041,0.499\H,0,3.088,2.563,1.042\H,0,3.035,1.168,2.148\H,0,6.528
 ,1.316,0.761\H,0,5.638,1.386,2.308\H,0,5.538,2.739,1.155\\Version=AM64
 L-G09RevD.01\State=1-A\HF=-1638.8571802\RMSD=3.373e-09\Dipole=0.049315
 9,2.5560719,-0.0063178\Quadrupole=-4.9886114,5.1143267,-0.1257154,-8.3
 876782,-3.389828,7.6018522\PG=C01 [X(C13H20N2O3S2)]\\@


 HE THAT IS UNAWARE OF HIS IGNORANCE WILL BE MISLED BY HIS KNOWLEDGE.

                                        -- WHATLEY
 Job cpu time:       0 days  0 hours  4 minutes 38.3 seconds.
 File lengths (MBytes):  RWF=    205 Int=      0 D2E=      0 Chk=      7 Scr=      1
 Normal termination of Gaussian 09 at Sat Aug  8 06:14:56 2020.
